<event>
 6    1  0.2569591E-005  0.1006860E+04  0.7818608E-02  0.9351675E-01
         21   -1    0    0  501  502  0.00000000000E+00  0.00000000000E+00  0.13594613854E+03  0.13594613854E+03  0.00000000000E+00 0.  1.
          4   -1    0    0  502    0 -0.00000000000E+00 -0.00000000000E+00 -0.22958490755E+04  0.22958490755E+04  0.00000000000E+00 0.  1.
    9000010    2    1    2  501    0 -0.15907596248E+01 -0.97669079064E+02 -0.18419777912E+04  0.20992020857E+04  0.10021104899E+04 0.  0.
        -13    1    3    3    0    0 -0.11543471348E+03 -0.27143718330E+03 -0.54824103065E+02  0.30001501795E+03  0.10566000000E+00 0.  1.
         13    1    1    2    0    0  0.15907596248E+01  0.97669079064E+02 -0.31792514579E+03  0.33259312833E+03  0.10566000000E+00 0. -1.
          4    1    3    3  501    0  0.11384395385E+03  0.17376810424E+03 -0.17871536881E+04  0.17991870677E+04  0.00000000000E+00 0.  1.
</event>
<event>
 6    1  0.2569591E-005  0.1344729E+04  0.7818608E-02  0.8594614E-01
         21   -1    0    0  501  502  0.00000000000E+00  0.00000000000E+00  0.15969986989E+04  0.15969986989E+04  0.00000000000E+00 0. -1.
          4   -1    0    0  502    0 -0.00000000000E+00 -0.00000000000E+00 -0.96354083515E+03  0.96354083515E+03  0.00000000000E+00 0.  1.
    9000010    2    1    2  501    0  0.87604368135E+03 -0.20243565262E+03 -0.16911203590E+03  0.13553212218E+04  0.99993200199E+03 0.  0.
        -13    1    3    3    0    0  0.61421317336E+03 -0.53138162198E+03  0.15202109336E+03  0.82627760135E+03  0.10566000000E+00 0.  1.
         13    1    1    2    0    0 -0.87604368135E+03  0.20243565262E+03  0.80256989964E+03  0.12052183122E+04  0.10566000000E+00 0. -1.
          4    1    3    3  501    0  0.26183050799E+03  0.32894596936E+03 -0.32113312925E+03  0.52904362049E+03  0.00000000000E+00 0.  1.
</event>
<event>
 6    1  0.2569591E-005  0.1113414E+04  0.7818608E-02  0.8866888E-01
         21   -1    0    0  501  502  0.00000000000E+00  0.00000000000E+00  0.52157840557E+03  0.52157840557E+03  0.00000000000E+00 0. -1.
         -4   -1    0    0    0  501 -0.00000000000E+00 -0.00000000000E+00 -0.12420089795E+04  0.12420089795E+04  0.00000000000E+00 0. -1.
   -9000010    2    1    2    0  502 -0.46963191685E+03 -0.14340639075E+03 -0.56480513528E+03  0.12484768934E+04  0.99928483547E+03 0.  0.
        -13    1    1    2    0    0  0.46963191685E+03  0.14340639075E+03 -0.15562543860E+03  0.51511049158E+03  0.10566000000E+00 0.  1.
         13    1    3    3    0    0 -0.50360343217E+03 -0.44994174970E+03 -0.88583524426E+02  0.68111015774E+03  0.10566000000E+00 0. -1.
         -4    1    3    3    0  502  0.33971515315E+02  0.30653535895E+03 -0.47622161086E+03  0.56736673571E+03  0.00000000000E+00 0. -1.
</event>
<event>
 6    1  0.2569591E-005  0.1024692E+04  0.7818608E-02  0.9113376E-01
         21   -1    0    0  501  502  0.00000000000E+00  0.00000000000E+00  0.10572902463E+03  0.10572902463E+03  0.00000000000E+00 0.  1.
          4   -1    0    0  502    0 -0.00000000000E+00 -0.00000000000E+00 -0.38390075643E+04  0.38390075643E+04  0.00000000000E+00 0.  1.
    9000010    2    1    2  501    0  0.23156130007E+03 -0.98225941535E+01 -0.27553633031E+04  0.29397314446E+04  0.99813672173E+03 0.  0.
        -13    1    3    3    0    0 -0.10194434368E+03  0.39910780947E+03 -0.65228710328E+03  0.77146494999E+03  0.10566000000E+00 0.  1.
         13    1    1    2    0    0 -0.23156130007E+03  0.98225941535E+01 -0.97791523654E+03  0.10050051443E+04  0.10566000000E+00 0. -1.
          4    1    3    3  501    0  0.33350564375E+03 -0.40893040362E+03 -0.21030761998E+04  0.21682664946E+04  0.00000000000E+00 0.  1.
</event>
<event>
 6    1  0.2569591E-005  0.1003110E+04  0.7818608E-02  0.9430504E-01
         -4   -1    0    0    0  501 -0.00000000000E+00  0.00000000000E+00  0.13700106177E+04  0.13700106177E+04  0.00000000000E+00 0. -1.
         21   -1    0    0  501  502  0.00000000000E+00 -0.00000000000E+00 -0.22323872290E+03  0.22323872290E+03  0.00000000000E+00 0. -1.
   -9000010    2    1    2    0  502 -0.62877190119E+02 -0.38441902448E+02  0.94379858771E+03  0.13773107024E+04  0.10003987585E+04 0.  0.
        -13    1    1    2    0    0  0.62877190119E+02  0.38441902448E+02  0.20297330711E+03  0.21593863819E+03  0.10566000000E+00 0.  1.
         13    1    3    3    0    0  0.10316076364E+03  0.31087746146E+02 -0.19585167069E+03  0.22353183038E+03  0.10566000000E+00 0. -1.
         -4    1    3    3    0  502 -0.16603795376E+03 -0.69529648594E+02  0.11396502584E+04  0.11537788721E+04  0.00000000000E+00 0. -1.
</event>
<event>
 6    1  0.2569591E-005  0.1231622E+04  0.7818608E-02  0.8701728E-01
         -4   -1    0    0    0  501 -0.00000000000E+00  0.00000000000E+00  0.15907054646E+04  0.15907054646E+04  0.00000000000E+00 0. -1.
         21   -1    0    0  501  502  0.00000000000E+00 -0.00000000000E+00 -0.60636326865E+03  0.60636326865E+03  0.00000000000E+00 0.  1.
   -9000010    2    1    2    0  502  0.70554409528E+03  0.19419530119E+03  0.58664248511E+03  0.13642005825E+04  0.99065106801E+03 0.  0.
        -13    1    1    2    0    0 -0.70554409528E+03 -0.19419530119E+03  0.39769971084E+03  0.83286815076E+03  0.10566000000E+00 0.  1.
         13    1    3    3    0    0  0.19176568242E+03  0.55393062255E+03  0.40058566093E+03  0.70998739035E+03  0.10566000000E+00 0. -1.
         -4    1    3    3    0  502  0.51377841286E+03 -0.35973532135E+03  0.18605682418E+03  0.65421319214E+03  0.00000000000E+00 0. -1.
</event>
<event>
 6    1  0.2569591E-005  0.1517750E+04  0.7818608E-02  0.8463745E-01
         21   -1    0    0  501  502  0.00000000000E+00  0.00000000000E+00  0.10013779412E+04  0.10013779412E+04  0.00000000000E+00 0.  1.
         -4   -1    0    0    0  501 -0.00000000000E+00 -0.00000000000E+00 -0.18262590961E+04  0.18262590961E+04  0.00000000000E+00 0. -1.
   -9000010    2    1    2    0  502  0.13182452854E+03 -0.11202439894E+04 -0.18014738305E+03  0.15284042060E+04  0.10155008790E+04 0.  0.
        -13    1    1    2    0    0 -0.13182452854E+03  0.11202439894E+04 -0.64473377181E+03  0.12992328312E+04  0.10566000000E+00 0.  1.
         13    1    3    3    0    0  0.41590090850E+03 -0.83409007321E+03  0.22287487102E+03  0.95830738034E+03  0.10566000000E+00 0. -1.
         -4    1    3    3    0  502 -0.28407637996E+03 -0.28615391618E+03 -0.40302225407E+03  0.57009682570E+03  0.00000000000E+00 0. -1.
</event>
<event>
 5    1  0.2569591E-005  0.6621289E+02  0.7818608E-02  0.1271060E+00
          4   -1    0    0  502    0 -0.00000000000E+00  0.00000000000E+00  0.23069013172E+02  0.23069013172E+02  0.00000000000E+00 0.  1.
         21   -1    0    0  501  502  0.00000000000E+00 -0.00000000000E+00 -0.13741464060E+03  0.13741464060E+03  0.00000000000E+00 0. -1.
        -13    1    1    2    0    0 -0.27299694874E+02 -0.22328341752E+02 -0.13774738447E+02  0.37862683066E+02  0.10566000000E+00 0.  1.
         13    1    1    2    0    0 -0.12187732824E+01  0.32544265823E+02 -0.78950860860E+02  0.85404123090E+02  0.10566000000E+00 0. -1.
          4    1    1    2  501    0  0.28518468156E+02 -0.10215924071E+02 -0.21620028127E+02  0.37216847620E+02  0.00000000000E+00 0.  1.
</event>
<event>
 6    1  0.2569591E-005  0.1049774E+04  0.7818608E-02  0.9004267E-01
         21   -1    0    0  501  502  0.00000000000E+00  0.00000000000E+00  0.78624415997E+03  0.78624415997E+03  0.00000000000E+00 0. -1.
         -4   -1    0    0    0  501 -0.00000000000E+00 -0.00000000000E+00 -0.61405969087E+03  0.61405969087E+03  0.00000000000E+00 0. -1.
   -9000010    2    1    2    0  502  0.21232213164E+03  0.25688422144E+03  0.71730807821E+02  0.10522217628E+04  0.99546729653E+03 0.  0.
        -13    1    1    2    0    0 -0.21232213164E+03 -0.25688422144E+03  0.10045366128E+03  0.34808208807E+03  0.10566000000E+00 0.  1.
         13    1    3    3    0    0  0.14471201714E+02  0.30566991850E+03  0.49528632371E+03  0.58219590205E+03  0.10566000000E+00 0. -1.
         -4    1    3    3    0  502  0.19785092992E+03 -0.48785697058E+02 -0.42355551589E+03  0.47002586072E+03  0.00000000000E+00 0. -1.
</event>
<event>
 5    1  0.2569591E-005  0.5185167E+03  0.7818608E-02  0.9550377E-01
         21   -1    0    0  501  502  0.00000000000E+00  0.00000000000E+00  0.10921366292E+03  0.10921366292E+03  0.00000000000E+00 0. -1.
          4   -1    0    0  502    0 -0.00000000000E+00 -0.00000000000E+00 -0.17533632535E+04  0.17533632535E+04  0.00000000000E+00 0.  1.
        -13    1    1    2    0    0  0.29165261043E+03  0.65153864108E+02 -0.35400379499E+03  0.46327634216E+03  0.10566000000E+00 0.  1.
         13    1    1    2    0    0 -0.34476588470E+03 -0.92982883516E+01 -0.51188735831E+03  0.61723468161E+03  0.10566000000E+00 0. -1.
          4    1    1    2  501    0  0.53113274263E+02 -0.55855575756E+02 -0.77825843725E+03  0.78206589262E+03  0.00000000000E+00 0.  1.
</event>
<event>
 6    1  0.2569591E-005  0.1240243E+04  0.7818608E-02  0.8699318E-01
         -4   -1    0    0    0  501 -0.00000000000E+00  0.00000000000E+00  0.10579422876E+04  0.10579422876E+04  0.00000000000E+00 0. -1.
         21   -1    0    0  501  502  0.00000000000E+00 -0.00000000000E+00 -0.13555687568E+04  0.13555687568E+04  0.00000000000E+00 0.  1.
   -9000010    2    1    2    0  502  0.22187630284E+03 -0.68931348624E+03  0.49907260793E+03  0.13368905881E+04  0.10068866871E+04 0.  0.
        -13    1    1    2    0    0 -0.22187630284E+03  0.68931348624E+03 -0.79669907714E+03  0.10766204562E+04  0.10566000000E+00 0.  1.
         13    1    3    3    0    0 -0.92438663488E+02  0.20942669522E+03 -0.54803289532E+02  0.23538873993E+03  0.10566000000E+00 0. -1.
         -4    1    3    3    0  502  0.31431496633E+03 -0.89874018146E+03  0.55387589746E+03  0.11015018482E+04  0.00000000000E+00 0. -1.
</event>
<event>
 5    1  0.2569591E-005  0.1649918E+03  0.7818608E-02  0.1170008E+00
         21   -1    0    0  501  502  0.00000000000E+00  0.00000000000E+00  0.49681950142E+03  0.49681950142E+03  0.00000000000E+00 0. -1.
         -4   -1    0    0    0  501 -0.00000000000E+00 -0.00000000000E+00 -0.18351117791E+02  0.18351117791E+02  0.00000000000E+00 0. -1.
        -13    1    1    2    0    0 -0.19375378404E+02  0.24234139664E+01  0.20151822960E+02  0.28060387671E+02  0.10566000000E+00 0.  1.
         13    1    1    2    0    0  0.84808148495E+02 -0.18756845548E+02  0.34003566242E+03  0.35095370662E+03  0.10566000000E+00 0. -1.
         -4    1    1    2    0  502 -0.65432770090E+02  0.16333431581E+02  0.11828089824E+03  0.13615652492E+03  0.00000000000E+00 0. -1.
</event>
<event>
 6    1  0.2569591E-005  0.1195475E+04  0.7818608E-02  0.8745564E-01
         21   -1    0    0  501  502  0.00000000000E+00  0.00000000000E+00  0.43153084148E+03  0.43153084148E+03  0.00000000000E+00 0. -1.
          4   -1    0    0  502    0 -0.00000000000E+00 -0.00000000000E+00 -0.20888846033E+04  0.20888846033E+04  0.00000000000E+00 0.  1.
    9000010    2    1    2  501    0 -0.64791806572E+03  0.13848037755E+03 -0.13057414469E+04  0.17703448708E+04  0.99508070048E+03 0.  0.
        -13    1    3    3    0    0 -0.47706341649E+03 -0.41013631790E+02 -0.39908460539E+02  0.48048342087E+03  0.10566000000E+00 0.  1.
         13    1    1    2    0    0  0.64791806572E+03 -0.13848037755E+03 -0.35161231492E+03  0.75007057402E+03  0.10566000000E+00 0. -1.
          4    1    3    3  501    0 -0.17085464922E+03  0.17949400935E+03 -0.12658329864E+04  0.12898614499E+04  0.00000000000E+00 0.  1.
</event>
<event>
 6    1  0.2569591E-005  0.1062926E+04  0.7818608E-02  0.8909096E-01
         21   -1    0    0  501  502  0.00000000000E+00  0.00000000000E+00  0.28099525225E+03  0.28099525225E+03  0.00000000000E+00 0. -1.
         -4   -1    0    0    0  501 -0.00000000000E+00 -0.00000000000E+00 -0.22545179079E+04  0.22545179079E+04  0.00000000000E+00 0. -1.
   -9000010    2    1    2    0  502  0.41350233193E+03 -0.23106800224E+03 -0.10317435921E+04  0.14813194323E+04  0.95154391408E+03 0.  0.
        -13    1    1    2    0    0 -0.41350233193E+03  0.23106800224E+03 -0.94177906359E+03  0.10541937279E+04  0.10566000000E+00 0.  1.
         13    1    3    3    0    0 -0.26871780607E+03  0.11419181991E+03 -0.36021620395E+03  0.46368605305E+03  0.10566000000E+00 0. -1.
         -4    1    3    3    0  502  0.68222013800E+03 -0.34525982216E+03 -0.67152738813E+03  0.10176333792E+04  0.00000000000E+00 0. -1.
</event>
<event>
 5    1  0.2569591E-005  0.2495821E+03  0.7818608E-02  0.1040110E+00
         21   -1    0    0  501  502  0.00000000000E+00  0.00000000000E+00  0.47599540441E+02  0.47599540441E+02  0.00000000000E+00 0.  1.
         -4   -1    0    0    0  501 -0.00000000000E+00 -0.00000000000E+00 -0.10698120252E+04  0.10698120252E+04  0.00000000000E+00 0. -1.
        -13    1    1    2    0    0  0.12524149024E+03 -0.13841495074E+03 -0.30044962211E+03  0.35371473825E+03  0.10566000000E+00 0.  1.
         13    1    1    2    0    0 -0.36117309491E+02  0.15475003669E+03 -0.45127393098E+03  0.47843516368E+03  0.10566000000E+00 0. -1.
         -4    1    1    2    0  502 -0.89124180747E+02 -0.16335085951E+02 -0.27048893169E+03  0.28526166373E+03  0.00000000000E+00 0. -1.
</event>
<event>
 6    1  0.2569591E-005  0.1078639E+04  0.7818608E-02  0.8993654E-01
         -4   -1    0    0    0  501 -0.00000000000E+00  0.00000000000E+00  0.26378867585E+04  0.26378867585E+04  0.00000000000E+00 0. -1.
         21   -1    0    0  501  502  0.00000000000E+00 -0.00000000000E+00 -0.23317886550E+03  0.23317886550E+03  0.00000000000E+00 0. -1.
   -9000010    2    1    2    0  502 -0.24914072075E+03 -0.20195083010E+03  0.11528237737E+04  0.15787540920E+04  0.10298575597E+04 0.  0.
        -13    1    1    2    0    0  0.24914072075E+03  0.20195083010E+03  0.12518841193E+04  0.12923115320E+04  0.10566000000E+00 0.  1.
         13    1    3    3    0    0  0.13861770852E+02  0.78132202009E+02 -0.17730239747E+03  0.19424968725E+03  0.10566000000E+00 0. -1.
         -4    1    3    3    0  502 -0.26300249160E+03 -0.28008303211E+03  0.13301261712E+04  0.13845044048E+04  0.00000000000E+00 0. -1.
</event>
<event>
 6    1  0.2569591E-005  0.1092161E+04  0.7818608E-02  0.8896930E-01
         -4   -1    0    0    0  501 -0.00000000000E+00  0.00000000000E+00  0.11138493758E+04  0.11138493758E+04  0.00000000000E+00 0. -1.
         21   -1    0    0  501  502  0.00000000000E+00 -0.00000000000E+00 -0.60214586878E+03  0.60214586878E+03  0.00000000000E+00 0. -1.
   -9000010    2    1    2    0  502  0.33300979714E+03  0.31616955236E+03  0.95633381441E+02  0.10963396375E+04  0.99093700417E+03 0.  0.
        -13    1    1    2    0    0 -0.33300979714E+03 -0.31616955236E+03  0.41607012556E+03  0.61965560707E+03  0.10566000000E+00 0.  1.
         13    1    3    3    0    0  0.51046055656E+03 -0.18163471300E+03 -0.60732786206E+02  0.54520604477E+03  0.10566000000E+00 0. -1.
         -4    1    3    3    0  502 -0.17745075943E+03  0.49780426536E+03  0.15636616765E+03  0.55113359271E+03  0.00000000000E+00 0. -1.
</event>
<event>
 6    1  0.2569591E-005  0.1092719E+04  0.7818608E-02  0.8899542E-01
         21   -1    0    0  501  502  0.00000000000E+00  0.00000000000E+00  0.44549627399E+03  0.44549627399E+03  0.00000000000E+00 0. -1.
         -4   -1    0    0    0  501 -0.00000000000E+00 -0.00000000000E+00 -0.15576316817E+04  0.15576316817E+04  0.00000000000E+00 0. -1.
   -9000010    2    1    2    0  502 -0.18697533658E+03  0.41322512060E+03 -0.40972411022E+03  0.11670080966E+04  0.99414248186E+03 0.  0.
        -13    1    1    2    0    0  0.18697533658E+03 -0.41322512060E+03 -0.70241129748E+03  0.83611985910E+03  0.10566000000E+00 0.  1.
         13    1    3    3    0    0 -0.49569920624E+02  0.13303630075E+03  0.33266659901E+03  0.36169450038E+03  0.10566000000E+00 0. -1.
         -4    1    3    3    0  502 -0.13740541596E+03  0.28018881985E+03 -0.74239070923E+03  0.80531359622E+03  0.00000000000E+00 0. -1.
</event>
<event>
 5    1  0.2569591E-005  0.8788789E+02  0.7818608E-02  0.1188458E+00
         -4   -1    0    0    0  501 -0.00000000000E+00  0.00000000000E+00  0.10739001357E+03  0.10739001357E+03  0.00000000000E+00 0. -1.
         21   -1    0    0  501  502  0.00000000000E+00 -0.00000000000E+00 -0.73489417573E+02  0.73489417573E+02  0.00000000000E+00 0.  1.
        -13    1    1    2    0    0  0.79088237151E+02 -0.27162850357E+02 -0.70499435712E+01  0.83919500496E+02  0.10566000000E+00 0.  1.
         13    1    1    2    0    0 -0.71342739338E+02  0.14733775393E+02  0.37412374330E+02  0.81893635349E+02  0.10566000000E+00 0. -1.
         -4    1    1    2    0  502 -0.77454978129E+01  0.12429074964E+02  0.35381652410E+01  0.15066295301E+02  0.00000000000E+00 0. -1.
</event>
<event>
 6    1  0.2569591E-005  0.1003284E+04  0.7818608E-02  0.9334636E-01
          4   -1    0    0  502    0 -0.00000000000E+00  0.00000000000E+00  0.30792993564E+04  0.30792993564E+04  0.00000000000E+00 0.  1.
         21   -1    0    0  501  502  0.00000000000E+00 -0.00000000000E+00 -0.99797148773E+02  0.99797148773E+02  0.00000000000E+00 0.  1.
    9000010    2    1    2  501    0 -0.10327247067E+03  0.20315410796E+02  0.27124241040E+04  0.28920274477E+04  0.99774762320E+03 0.  0.
        -13    1    3    3    0    0 -0.12952335616E+03  0.17319712213E+03  0.46018589955E+02  0.22111369178E+03  0.10566000000E+00 0.  1.
         13    1    1    2    0    0  0.10327247067E+03 -0.20315410796E+02  0.26707810361E+03  0.28706905738E+03  0.10566000000E+00 0. -1.
          4    1    3    3  501    0  0.26250885492E+02 -0.15288171133E+03  0.26664055140E+04  0.26709137560E+04  0.00000000000E+00 0.  1.
</event>
<event>
 5    1  0.2569591E-005  0.6697680E+02  0.7818608E-02  0.1245287E+00
         -4   -1    0    0    0  501 -0.00000000000E+00  0.00000000000E+00  0.10512483033E+03  0.10512483033E+03  0.00000000000E+00 0. -1.
         21   -1    0    0  501  502  0.00000000000E+00 -0.00000000000E+00 -0.37175673007E+02  0.37175673007E+02  0.00000000000E+00 0.  1.
        -13    1    1    2    0    0  0.52247538238E+02  0.12239573922E+02  0.11900554015E+02  0.54965869152E+02  0.10566000000E+00 0.  1.
         13    1    1    2    0    0 -0.27776903597E+02 -0.14040859416E+02  0.54484860462E+02  0.62748014234E+02  0.10566000000E+00 0. -1.
         -4    1    1    2    0  502 -0.24470634641E+02  0.18012854935E+01  0.15637428494E+01  0.24586619956E+02  0.00000000000E+00 0. -1.
</event>
<event>
 6    1  0.2569591E-005  0.1049261E+04  0.7818608E-02  0.8982664E-01
         -4   -1    0    0    0  501 -0.00000000000E+00  0.00000000000E+00  0.96723489745E+03  0.96723489745E+03  0.00000000000E+00 0. -1.
         21   -1    0    0  501  502  0.00000000000E+00 -0.00000000000E+00 -0.51827269989E+03  0.51827269989E+03  0.00000000000E+00 0. -1.
   -9000010    2    1    2    0  502  0.13656473907E+03  0.33773117668E+03  0.29441063475E+03  0.10897823487E+04  0.98398966969E+03 0.  0.
        -13    1    1    2    0    0 -0.13656473907E+03 -0.33773117668E+03  0.15455156281E+03  0.39572524862E+03  0.10566000000E+00 0.  1.
         13    1    3    3    0    0  0.43881028337E+03 -0.74730662564E+02 -0.84843744978E+02  0.45314193025E+03  0.10566000000E+00 0. -1.
         -4    1    3    3    0  502 -0.30224554431E+03  0.41246183925E+03  0.37925437973E+03  0.63664041847E+03  0.00000000000E+00 0. -1.
</event>
<event>
 5    1  0.2569591E-005  0.8040891E+02  0.7818608E-02  0.1215805E+00
         21   -1    0    0  501  502  0.00000000000E+00  0.00000000000E+00  0.48093590701E+03  0.48093590701E+03  0.00000000000E+00 0. -1.
          4   -1    0    0  502    0 -0.00000000000E+00 -0.00000000000E+00 -0.11099069031E+02  0.11099069031E+02  0.00000000000E+00 0.  1.
        -13    1    1    2    0    0 -0.52927508688E+01  0.30475274854E+02  0.74403474467E+02  0.80576943141E+02  0.10566000000E+00 0.  1.
         13    1    1    2    0    0  0.54153066404E+02 -0.22686584968E+02  0.27610990228E+03  0.28228341262E+03  0.10566000000E+00 0. -1.
          4    1    1    2  501    0 -0.48860315535E+02 -0.77886898853E+01  0.11932346123E+03  0.12917462028E+03  0.00000000000E+00 0.  1.
</event>
<event>
 6    1  0.2569591E-005  0.1157193E+04  0.7818608E-02  0.8793863E-01
         21   -1    0    0  501  502  0.00000000000E+00  0.00000000000E+00  0.49531292061E+03  0.49531292061E+03  0.00000000000E+00 0. -1.
         -4   -1    0    0    0  501 -0.00000000000E+00 -0.00000000000E+00 -0.16433806990E+04  0.16433806990E+04  0.00000000000E+00 0. -1.
   -9000010    2    1    2    0  502 -0.69992167971E+01 -0.59456090950E+03 -0.99139209833E+03  0.15237961127E+04  0.99274600794E+03 0.  0.
        -13    1    1    2    0    0  0.69992167971E+01  0.59456090950E+03 -0.15667568007E+03  0.61489750694E+03  0.10566000000E+00 0.  1.
         13    1    3    3    0    0 -0.40356546739E+03 -0.21431305924E+03 -0.86325697737E+02  0.46502398980E+03  0.10566000000E+00 0. -1.
         -4    1    3    3    0  502  0.39656625060E+03 -0.38024785027E+03 -0.90506640059E+03  0.10587721229E+04  0.00000000000E+00 0. -1.
</event>
<event>
 5    1  0.2569591E-005  0.3340080E+02  0.7818608E-02  0.1400405E+00
         21   -1    0    0  501  502  0.00000000000E+00  0.00000000000E+00  0.13548748940E+03  0.13548748940E+03  0.00000000000E+00 0.  1.
         -4   -1    0    0    0  501 -0.00000000000E+00 -0.00000000000E+00 -0.11071538914E+02  0.11071538914E+02  0.00000000000E+00 0. -1.
        -13    1    1    2    0    0  0.17174018545E+02 -0.15939305979E+02  0.10571236696E+03  0.10827799445E+03  0.10566000000E+00 0.  1.
         13    1    1    2    0    0 -0.14596406625E+02 -0.10953139841E+01  0.29422143625E+01  0.14930592369E+02  0.10566000000E+00 0. -1.
         -4    1    1    2    0  502 -0.25776119195E+01  0.17034619963E+02  0.15761369163E+02  0.23350441503E+02  0.00000000000E+00 0. -1.
</event>
<event>
 6    1  0.2569591E-005  0.1472930E+04  0.7818608E-02  0.8492622E-01
         21   -1    0    0  501  502  0.00000000000E+00  0.00000000000E+00  0.75602969120E+03  0.75602969120E+03  0.00000000000E+00 0. -1.
          4   -1    0    0  502    0 -0.00000000000E+00 -0.00000000000E+00 -0.22540689254E+04  0.22540689254E+04  0.00000000000E+00 0.  1.
    9000010    2    1    2  501    0 -0.97943048590E+02  0.10773915184E+04 -0.55201173486E+03  0.15729718423E+04  0.99957897961E+03 0.  0.
        -13    1    3    3    0    0 -0.24987452479E+03  0.81118796376E+03  0.97880978463E+02  0.85442605753E+03  0.10566000000E+00 0.  1.
         13    1    1    2    0    0  0.97943048590E+02 -0.10773915184E+04 -0.94602749939E+03  0.14371267743E+04  0.10566000000E+00 0. -1.
          4    1    3    3  501    0  0.15193147620E+03  0.26620355469E+03 -0.64989271332E+03  0.71854578477E+03  0.00000000000E+00 0.  1.
</event>
<event>
 5    1  0.2569591E-005  0.1989308E+03  0.7818608E-02  0.1061725E+00
         -4   -1    0    0    0  501 -0.00000000000E+00  0.00000000000E+00  0.78220642888E+02  0.78220642888E+02  0.00000000000E+00 0. -1.
         21   -1    0    0  501  502  0.00000000000E+00 -0.00000000000E+00 -0.51673534780E+03  0.51673534780E+03  0.00000000000E+00 0.  1.
        -13    1    1    2    0    0  0.13882337033E+03  0.13558617427E+03 -0.27961640674E+03  0.34035405813E+03  0.10566000000E+00 0.  1.
         13    1    1    2    0    0 -0.66307553679E+02 -0.94890556706E+02 -0.90984126930E+02  0.14723801121E+03  0.10566000000E+00 0. -1.
         -4    1    1    2    0  502 -0.72515816647E+02 -0.40695617563E+02 -0.67914171240E+02  0.10736392135E+03  0.00000000000E+00 0. -1.
</event>
<event>
 6    1  0.2569591E-005  0.1063006E+04  0.7818608E-02  0.8942343E-01
         21   -1    0    0  501  502  0.00000000000E+00  0.00000000000E+00  0.19200345816E+03  0.19200345816E+03  0.00000000000E+00 0. -1.
         -4   -1    0    0    0  501 -0.00000000000E+00 -0.00000000000E+00 -0.36673568180E+04  0.36673568180E+04  0.00000000000E+00 0. -1.
   -9000010    2    1    2    0  502 -0.33149877187E+03 -0.24635446705E+03 -0.14828857704E+04  0.18245361891E+04  0.97948973350E+03 0.  0.
        -13    1    1    2    0    0  0.33149877187E+03  0.24635446705E+03 -0.19924675894E+04  0.20348240871E+04  0.10566000000E+00 0.  1.
         13    1    3    3    0    0 -0.42858273171E+03 -0.19933386337E+03 -0.16260723707E+03  0.49985825162E+03  0.10566000000E+00 0. -1.
         -4    1    3    3    0  502  0.97083959833E+02 -0.47020603675E+02 -0.13202785333E+04  0.13246779375E+04  0.00000000000E+00 0. -1.
</event>
<event>
 6    1  0.2569591E-005  0.1125448E+04  0.7818608E-02  0.8884994E-01
         21   -1    0    0  501  502  0.00000000000E+00  0.00000000000E+00  0.83489704291E+03  0.83489704291E+03  0.00000000000E+00 0. -1.
          4   -1    0    0  502    0 -0.00000000000E+00 -0.00000000000E+00 -0.73482287049E+03  0.73482287049E+03  0.00000000000E+00 0.  1.
    9000010    2    1    2  501    0 -0.35610911810E+03 -0.26003225520E+03  0.62593540178E+02  0.11271871048E+04  0.10354720374E+04 0.  0.
        -13    1    3    3    0    0  0.37578450535E+02  0.29390925585E+03  0.28600491457E+03  0.41181745099E+03  0.10566000000E+00 0.  1.
         13    1    1    2    0    0  0.35610911810E+03  0.26003225520E+03  0.37480632249E+02  0.44253280861E+03  0.10566000000E+00 0. -1.
          4    1    3    3  501    0 -0.39368756864E+03 -0.55394151104E+03 -0.22341137440E+03  0.71536965379E+03  0.00000000000E+00 0.  1.
</event>
<event>
 6    1  0.2569591E-005  0.1116123E+04  0.7818608E-02  0.8867999E-01
         -4   -1    0    0    0  501 -0.00000000000E+00  0.00000000000E+00  0.20856408514E+04  0.20856408514E+04  0.00000000000E+00 0. -1.
         21   -1    0    0  501  502  0.00000000000E+00 -0.00000000000E+00 -0.36023687612E+03  0.36023687612E+03  0.00000000000E+00 0. -1.
   -9000010    2    1    2    0  502 -0.30261002109E+03  0.37929424923E+03  0.15890624865E+04  0.19418678416E+04  0.10051339094E+04 0.  0.
        -13    1    1    2    0    0  0.30261002109E+03 -0.37929424923E+03  0.13634148877E+03  0.50400988590E+03  0.10566000000E+00 0.  1.
         13    1    3    3    0    0  0.32622857589E+03  0.10502177050E+03  0.92755165117E+03  0.98884110592E+03  0.10566000000E+00 0. -1.
         -4    1    3    3    0  502 -0.62883859699E+03  0.27427247873E+03  0.66151083532E+03  0.95302673566E+03  0.00000000000E+00 0. -1.
</event>
<event>
 6    1  0.2569591E-005  0.1139307E+04  0.7818608E-02  0.8819283E-01
          4   -1    0    0  502    0 -0.00000000000E+00  0.00000000000E+00  0.13539554234E+04  0.13539554234E+04  0.00000000000E+00 0.  1.
         21   -1    0    0  501  502  0.00000000000E+00 -0.00000000000E+00 -0.10879206527E+04  0.10879206527E+04  0.00000000000E+00 0.  1.
    9000010    2    1    2  501    0  0.20852255945E+02  0.55917955174E+03 -0.69156418115E+03  0.13327717747E+04  0.99242279247E+03 0.  0.
        -13    1    3    3    0    0  0.54841104594E+02  0.21874153227E+03 -0.90289739532E+03  0.93063372082E+03  0.10566000000E+00 0.  1.
         13    1    1    2    0    0 -0.20852255945E+02 -0.55917955174E+03  0.95759895188E+03  0.11091043014E+04  0.10566000000E+00 0. -1.
          4    1    3    3  501    0 -0.33988848649E+02  0.34043801947E+03  0.21133321417E+03  0.40213805384E+03  0.00000000000E+00 0.  1.
</event>
<event>
 6    1  0.2569591E-005  0.1095298E+04  0.7818608E-02  0.8897746E-01
         -4   -1    0    0    0  501 -0.00000000000E+00  0.00000000000E+00  0.31349950383E+04  0.31349950383E+04  0.00000000000E+00 0. -1.
         21   -1    0    0  501  502  0.00000000000E+00 -0.00000000000E+00 -0.20400769816E+03  0.20400769816E+03  0.00000000000E+00 0. -1.
   -9000010    2    1    2    0  502  0.29797886555E+03 -0.34216082930E+03  0.16537971896E+04  0.19836134458E+04  0.99690105857E+03 0.  0.
        -13    1    1    2    0    0 -0.29797886555E+03  0.34216082930E+03  0.12771901505E+04  0.13553892906E+04  0.10566000000E+00 0.  1.
         13    1    3    3    0    0 -0.11464496939E+03  0.26222842668E+03  0.17990561548E+03  0.33804327890E+03  0.10566000000E+00 0. -1.
         -4    1    3    3    0  502  0.41262383494E+03 -0.60438925598E+03  0.14738915741E+04  0.16455701669E+04  0.00000000000E+00 0. -1.
</event>
<event>
 6    1  0.2569591E-005  0.1048865E+04  0.7818608E-02  0.8975981E-01
         21   -1    0    0  501  502  0.00000000000E+00  0.00000000000E+00  0.35602526707E+03  0.35602526707E+03  0.00000000000E+00 0.  1.
         -4   -1    0    0    0  501 -0.00000000000E+00 -0.00000000000E+00 -0.14385425850E+04  0.14385425850E+04  0.00000000000E+00 0. -1.
   -9000010    2    1    2    0  502 -0.29982635052E+03  0.22482373812E+03 -0.87671649332E+03  0.13670218963E+04  0.97963028826E+03 0.  0.
        -13    1    1    2    0    0  0.29982635052E+03 -0.22482373812E+03 -0.20580082456E+03  0.42754595571E+03  0.10566000000E+00 0.  1.
         13    1    3    3    0    0 -0.20393157197E+03 -0.35083716584E+03 -0.59186636991E+03  0.71762149771E+03  0.10566000000E+00 0. -1.
         -4    1    3    3    0  502 -0.95894778553E+02  0.57566090396E+03 -0.28485012341E+03  0.64940039861E+03  0.00000000000E+00 0. -1.
</event>
<event>
 5    1  0.2569591E-005  0.8468279E+02  0.7818608E-02  0.1202711E+00
         -4   -1    0    0    0  501 -0.00000000000E+00  0.00000000000E+00  0.35365522671E+03  0.35365522671E+03  0.00000000000E+00 0. -1.
         21   -1    0    0  501  502  0.00000000000E+00 -0.00000000000E+00 -0.17328821389E+02  0.17328821389E+02  0.00000000000E+00 0.  1.
        -13    1    1    2    0    0 -0.37377227680E+02 -0.56107858243E+02  0.10642024197E+03  0.12597788683E+03  0.10566000000E+00 0.  1.
         13    1    1    2    0    0  0.30590036274E+02  0.65545975533E+02  0.18550491550E+03  0.19910828729E+03  0.10566000000E+00 0. -1.
         -4    1    1    2    0  502  0.67871914057E+01 -0.94381172900E+01  0.44401247859E+02  0.45897873988E+02  0.00000000000E+00 0. -1.
</event>
<event>
 6    1  0.2569591E-005  0.1101388E+04  0.7818608E-02  0.8922612E-01
         21   -1    0    0  501  502  0.00000000000E+00  0.00000000000E+00  0.19041883766E+03  0.19041883766E+03  0.00000000000E+00 0.  1.
         -4   -1    0    0    0  501 -0.00000000000E+00 -0.00000000000E+00 -0.34568150848E+04  0.34568150848E+04  0.00000000000E+00 0. -1.
   -9000010    2    1    2    0  502 -0.40030732203E+03  0.43692847581E+02 -0.29026650350E+04  0.31045964534E+04  0.10251340478E+04 0.  0.
        -13    1    1    2    0    0  0.40030732203E+03 -0.43692847581E+02 -0.36373121213E+03  0.54263746907E+03  0.10566000000E+00 0.  1.
         13    1    3    3    0    0 -0.61295785351E+03 -0.80267858376E+02 -0.93052880327E+03  0.11171589520E+04  0.10566000000E+00 0. -1.
         -4    1    3    3    0  502  0.21265053148E+03  0.12396070596E+03 -0.19721362317E+04  0.19874375013E+04  0.00000000000E+00 0. -1.
</event>
<event>
 6    1  0.2569591E-005  0.1204900E+04  0.7818608E-02  0.8733658E-01
         -4   -1    0    0    0  501 -0.00000000000E+00  0.00000000000E+00  0.21126419864E+04  0.21126419864E+04  0.00000000000E+00 0. -1.
         21   -1    0    0  501  502  0.00000000000E+00 -0.00000000000E+00 -0.46840888823E+03  0.46840888823E+03  0.00000000000E+00 0. -1.
   -9000010    2    1    2    0  502 -0.44704525959E+02  0.67956768769E+03  0.14238508925E+04  0.18652442915E+04  0.99396889581E+03 0.  0.
        -13    1    1    2    0    0  0.44704525959E+02 -0.67956768769E+03  0.22038220563E+03  0.71580658318E+03  0.10566000000E+00 0.  1.
         13    1    3    3    0    0 -0.27400262737E+03 -0.46494294344E+02  0.89768116365E+03  0.93971838438E+03  0.10566000000E+00 0. -1.
         -4    1    3    3    0  502  0.22929810141E+03  0.72606198203E+03  0.52616972889E+03  0.92552590707E+03  0.00000000000E+00 0. -1.
</event>
<event>
 5    1  0.2569591E-005  0.3431951E+02  0.7818608E-02  0.1429271E+00
          4   -1    0    0  502    0 -0.00000000000E+00  0.00000000000E+00  0.17005876530E+03  0.17005876530E+03  0.00000000000E+00 0.  1.
         21   -1    0    0  501  502  0.00000000000E+00 -0.00000000000E+00 -0.33647689962E+01  0.33647689962E+01  0.00000000000E+00 0. -1.
        -13    1    1    2    0    0 -0.18109244184E+02 -0.12569383492E+02  0.89878042526E+02  0.92541924654E+02  0.10566000000E+00 0.  1.
         13    1    1    2    0    0  0.13227891297E+02  0.25000513067E+01  0.50955848103E+02  0.52704240671E+02  0.10566000000E+00 0. -1.
          4    1    1    2  501    0  0.48813528871E+01  0.10069332185E+02  0.25860105672E+02  0.28177368969E+02  0.00000000000E+00 0.  1.
</event>
<event>
 6    1  0.2569591E-005  0.1354530E+04  0.7818608E-02  0.8586316E-01
         21   -1    0    0  501  502  0.00000000000E+00  0.00000000000E+00  0.55854995847E+03  0.55854995847E+03  0.00000000000E+00 0. -1.
          4   -1    0    0  502    0 -0.00000000000E+00 -0.00000000000E+00 -0.23465966374E+04  0.23465966374E+04  0.00000000000E+00 0.  1.
    9000010    2    1    2  501    0  0.23967762208E+03 -0.88076783294E+03 -0.12636121003E+04  0.18524220467E+04  0.10007769786E+04 0.  0.
        -13    1    3    3    0    0  0.14344430976E+03  0.32720645121E+01  0.13371408191E+03  0.19612863961E+03  0.10566000000E+00 0.  1.
         13    1    1    2    0    0 -0.23967762208E+03  0.88076783294E+03 -0.52443457856E+03  0.10527245492E+04  0.10566000000E+00 0. -1.
          4    1    3    3  501    0  0.96233312314E+02 -0.88403989745E+03 -0.13973261823E+04  0.16562934071E+04  0.00000000000E+00 0.  1.
</event>
<event>
 5    1  0.2569591E-005  0.9741485E+02  0.7818608E-02  0.1172792E+00
          4   -1    0    0  502    0 -0.00000000000E+00  0.00000000000E+00  0.40623608814E+02  0.40623608814E+02  0.00000000000E+00 0.  1.
         21   -1    0    0  501  502  0.00000000000E+00 -0.00000000000E+00 -0.53180301322E+03  0.53180301322E+03  0.00000000000E+00 0. -1.
        -13    1    1    2    0    0  0.30136190884E+02 -0.75036013911E+02 -0.35511331647E+02  0.88315679378E+02  0.10566000000E+00 0.  1.
         13    1    1    2    0    0 -0.40925949758E+02  0.78769219852E+02 -0.46240908608E+03  0.47085209717E+03  0.10566000000E+00 0. -1.
          4    1    1    2  501    0  0.10789758874E+02 -0.37332059412E+01  0.67410133148E+01  0.13258845487E+02  0.00000000000E+00 0.  1.
</event>
<event>
 6    1  0.2569591E-005  0.1096377E+04  0.7818608E-02  0.8961375E-01
         -4   -1    0    0    0  501 -0.00000000000E+00  0.00000000000E+00  0.17333177879E+04  0.17333177879E+04  0.00000000000E+00 0. -1.
         21   -1    0    0  501  502  0.00000000000E+00 -0.00000000000E+00 -0.30764292197E+03  0.30764292197E+03  0.00000000000E+00 0. -1.
   -9000010    2    1    2    0  502 -0.24563337081E+02 -0.34737137877E+03  0.94524665791E+03  0.14475961452E+04  0.10396023870E+04 0.  0.
        -13    1    1    2    0    0  0.24563337081E+02  0.34737137877E+03  0.48042820798E+03  0.59336456459E+03  0.10566000000E+00 0.  1.
         13    1    3    3    0    0  0.42849455389E+03 -0.32762207823E+03  0.20011731473E+03  0.57531796398E+03  0.10566000000E+00 0. -1.
         -4    1    3    3    0  502 -0.45305789097E+03 -0.19749300543E+02  0.74512934318E+03  0.87227818126E+03  0.00000000000E+00 0. -1.
</event>
<event>
 5    1  0.2569591E-005  0.4233924E+02  0.7818608E-02  0.1375523E+00
         21   -1    0    0  501  502  0.00000000000E+00  0.00000000000E+00  0.69151467084E+02  0.69151467084E+02  0.00000000000E+00 0. -1.
          4   -1    0    0  502    0 -0.00000000000E+00 -0.00000000000E+00 -0.27059033558E+02  0.27059033558E+02  0.00000000000E+00 0.  1.
        -13    1    1    2    0    0  0.21885650241E+01 -0.23472187098E+02 -0.85905142239E+01  0.25090665250E+02  0.10566000000E+00 0.  1.
         13    1    1    2    0    0 -0.14319018743E+02  0.10179867757E+02  0.50126014529E+02  0.53115840405E+02  0.10566000000E+00 0. -1.
          4    1    1    2  501    0  0.12130453719E+02  0.13292319341E+02  0.55693322097E+00  0.18003994987E+02  0.00000000000E+00 0.  1.
</event>
<event>
 5    1  0.2569591E-005  0.1160077E+03  0.7818608E-02  0.1155884E+00
          4   -1    0    0  502    0 -0.00000000000E+00  0.00000000000E+00  0.59453462956E+02  0.59453462956E+02  0.00000000000E+00 0.  1.
         21   -1    0    0  501  502  0.00000000000E+00 -0.00000000000E+00 -0.17476230836E+03  0.17476230836E+03  0.00000000000E+00 0. -1.
        -13    1    1    2    0    0 -0.87089542255E+00 -0.28785539359E+02  0.10336110442E+02  0.30597582881E+02  0.10566000000E+00 0.  1.
         13    1    1    2    0    0 -0.76998511381E+02  0.18180684069E+02 -0.81032815261E+02  0.11325032601E+03  0.10566000000E+00 0. -1.
          4    1    1    2  501    0  0.77869406803E+02  0.10604855290E+02 -0.44612140584E+02  0.90367862424E+02  0.00000000000E+00 0.  1.
</event>
<event>
 6    1  0.2569591E-005  0.1164001E+04  0.7818608E-02  0.8780444E-01
         21   -1    0    0  501  502  0.00000000000E+00  0.00000000000E+00  0.95101847451E+03  0.95101847451E+03  0.00000000000E+00 0.  1.
         -4   -1    0    0    0  501 -0.00000000000E+00 -0.00000000000E+00 -0.93008893986E+03  0.93008893986E+03  0.00000000000E+00 0. -1.
   -9000010    2    1    2    0  502 -0.56161304665E+03 -0.25905451442E+03  0.30081730593E+03  0.12022439294E+04  0.98609378790E+03 0.  0.
        -13    1    1    2    0    0  0.56161304665E+03  0.25905451442E+03 -0.27988777127E+03  0.67886348501E+03  0.10566000000E+00 0.  1.
         13    1    3    3    0    0  0.26718479907E+03  0.56861537323E+02  0.11295757044E+03  0.29560171712E+03  0.10566000000E+00 0. -1.
         -4    1    3    3    0  502 -0.82879784571E+03 -0.31591605174E+03  0.18785973549E+03  0.90664221224E+03  0.00000000000E+00 0. -1.
</event>
<event>
 5    1  0.2569591E-005  0.2582542E+03  0.7818608E-02  0.1035007E+00
         21   -1    0    0  501  502  0.00000000000E+00  0.00000000000E+00  0.30688734157E+03  0.30688734157E+03  0.00000000000E+00 0.  1.
         -4   -1    0    0    0  501 -0.00000000000E+00 -0.00000000000E+00 -0.19141158339E+03  0.19141158339E+03  0.00000000000E+00 0. -1.
        -13    1    1    2    0    0 -0.31294085439E+02  0.19429289765E+03  0.13601983125E+03  0.23922887685E+03  0.10566000000E+00 0.  1.
         13    1    1    2    0    0 -0.94824299749E+01 -0.14774924367E+03  0.58061111267E+02  0.15903100103E+03  0.10566000000E+00 0. -1.
         -4    1    1    2    0  502  0.40776515414E+02 -0.46543653984E+02 -0.78605184337E+02  0.10003904708E+03  0.00000000000E+00 0. -1.
</event>
<event>
 6    1  0.2569591E-005  0.1182395E+04  0.7818608E-02  0.8761820E-01
         21   -1    0    0  501  502  0.00000000000E+00  0.00000000000E+00  0.39998641086E+03  0.39998641086E+03  0.00000000000E+00 0.  1.
         -4   -1    0    0    0  501 -0.00000000000E+00 -0.00000000000E+00 -0.21572249823E+04  0.21572249823E+04  0.00000000000E+00 0. -1.
   -9000010    2    1    2    0  502  0.37634475528E+03 -0.51615727493E+03 -0.88908224203E+03  0.14793667240E+04  0.99498993151E+03 0.  0.
        -13    1    1    2    0    0 -0.37634475528E+03  0.51615727493E+03 -0.86815632938E+03  0.10778446691E+04  0.10566000000E+00 0.  1.
         13    1    3    3    0    0  0.30269028736E+03 -0.51312040787E+03 -0.86047779903E+01  0.59580870790E+03  0.10566000000E+00 0. -1.
         -4    1    3    3    0  502  0.73654467920E+02 -0.30368670529E+01 -0.88047746404E+03  0.88355801614E+03  0.00000000000E+00 0. -1.
</event>
<event>
 6    1  0.2569591E-005  0.1141620E+04  0.7818608E-02  0.8840252E-01
          4   -1    0    0  502    0 -0.00000000000E+00  0.00000000000E+00  0.25110799195E+04  0.25110799195E+04  0.00000000000E+00 0.  1.
         21   -1    0    0  501  502  0.00000000000E+00 -0.00000000000E+00 -0.27170531196E+03  0.27170531196E+03  0.00000000000E+00 0. -1.
    9000010    2    1    2  501    0  0.45704638495E+03 -0.22454923107E+03  0.15959377651E+04  0.19622215615E+04  0.10217545454E+04 0.  0.
        -13    1    3    3    0    0  0.39282541500E+03  0.28760164416E+03  0.31156824755E+03  0.57801496212E+03  0.10566000000E+00 0.  1.
         13    1    1    2    0    0 -0.45704638495E+03  0.22454923107E+03  0.64343684236E+03  0.82056366995E+03  0.10566000000E+00 0. -1.
          4    1    3    3  501    0  0.64220969944E+02 -0.51215087523E+03  0.12843695176E+04  0.13842065994E+04  0.00000000000E+00 0.  1.
</event>
<event>
 5    1  0.2569591E-005  0.8040445E+02  0.7818608E-02  0.1223937E+00
         21   -1    0    0  501  502  0.00000000000E+00  0.00000000000E+00  0.16164781908E+03  0.16164781908E+03  0.00000000000E+00 0. -1.
          4   -1    0    0  502    0 -0.00000000000E+00 -0.00000000000E+00 -0.91477462370E+02  0.91477462370E+02  0.00000000000E+00 0.  1.
        -13    1    1    2    0    0 -0.40122440714E+01  0.45194963119E+02 -0.22502852610E+02  0.50646543154E+02  0.10566000000E+00 0.  1.
         13    1    1    2    0    0  0.32773918290E+02 -0.36548178979E+02  0.13891828640E+03  0.14733703054E+03  0.10566000000E+00 0. -1.
          4    1    1    2  501    0 -0.28761674219E+02 -0.86467841399E+01 -0.46245077084E+02  0.55141707756E+02  0.00000000000E+00 0.  1.
</event>
<event>
 6    1  0.2569591E-005  0.1170090E+04  0.7818608E-02  0.8796408E-01
         21   -1    0    0  501  502  0.00000000000E+00  0.00000000000E+00  0.17403913260E+03  0.17403913260E+03  0.00000000000E+00 0. -1.
          4   -1    0    0  502    0 -0.00000000000E+00 -0.00000000000E+00 -0.43850126202E+04  0.43850126202E+04  0.00000000000E+00 0.  1.
    9000010    2    1    2  501    0  0.14936674590E+03 -0.54903026855E+03 -0.30324809411E+04  0.32503923801E+04  0.10224310762E+04 0.  0.
        -13    1    3    3    0    0 -0.60429016205E+02  0.23024349563E+03 -0.21900540182E+03  0.32346114213E+03  0.10566000000E+00 0.  1.
         13    1    1    2    0    0 -0.14936674590E+03  0.54903026855E+03 -0.11784925465E+04  0.13086593727E+04  0.10566000000E+00 0. -1.
          4    1    3    3  501    0  0.20979576210E+03 -0.77927376418E+03 -0.28134755393E+04  0.29269312379E+04  0.00000000000E+00 0.  1.
</event>
<event>
 5    1  0.2569591E-005  0.6522583E+03  0.7818608E-02  0.9422492E-01
         21   -1    0    0  501  502  0.00000000000E+00  0.00000000000E+00  0.13566415939E+03  0.13566415939E+03  0.00000000000E+00 0.  1.
          4   -1    0    0  502    0 -0.00000000000E+00 -0.00000000000E+00 -0.16426177483E+04  0.16426177483E+04  0.00000000000E+00 0.  1.
        -13    1    1    2    0    0  0.93247826888E+02  0.20791735646E+03 -0.18509051914E+02  0.22862060384E+03  0.10566000000E+00 0.  1.
         13    1    1    2    0    0 -0.11968871616E+03 -0.24881518692E+03 -0.60669911602E+03  0.66657198753E+03  0.10566000000E+00 0. -1.
          4    1    1    2  501    0  0.26440889277E+02  0.40897830462E+02 -0.88174542099E+03  0.88308931632E+03  0.00000000000E+00 0.  1.
</event>
<event>
 6    1  0.2569591E-005  0.1220448E+04  0.7818608E-02  0.8715826E-01
         21   -1    0    0  501  502  0.00000000000E+00  0.00000000000E+00  0.67087346220E+03  0.67087346220E+03  0.00000000000E+00 0.  1.
          4   -1    0    0  502    0 -0.00000000000E+00 -0.00000000000E+00 -0.13984652743E+04  0.13984652743E+04  0.00000000000E+00 0.  1.
    9000010    2    1    2  501    0 -0.70058343362E+02 -0.70414591423E+03 -0.55644163157E+03  0.13413126137E+04  0.99436542501E+03 0.  0.
        -13    1    3    3    0    0  0.38186187389E+03 -0.46698245521E+03 -0.23917047953E+02  0.60370782715E+03  0.10566000000E+00 0.  1.
         13    1    1    2    0    0  0.70058343362E+02  0.70414591423E+03 -0.17115018056E+03  0.72802612279E+03  0.10566000000E+00 0. -1.
          4    1    3    3  501    0 -0.45192021726E+03 -0.23716345902E+03 -0.53252458362E+03  0.73760478660E+03  0.00000000000E+00 0.  1.
</event>
<event>
 5    1  0.4499744E-005  0.1262948E+03  0.7818608E-02  0.1152124E+00
         -4   -1    0    0    0  501 -0.00000000000E+00  0.00000000000E+00  0.10813528082E+03  0.10813528082E+03  0.00000000000E+00 0. -1.
         21   -1    0    0  501  502  0.00000000000E+00 -0.00000000000E+00 -0.33035165850E+03  0.33035165850E+03  0.00000000000E+00 0.  1.
        -13    1    1    2    0    0 -0.64367386344E+02  0.19507821747E+02 -0.28823470003E+03  0.29597798736E+03  0.10566000000E+00 0.  1.
         13    1    1    2    0    0  0.41854733706E+02  0.10984689075E+02  0.88448672866E+02  0.98466547738E+02  0.10566000000E+00 0. -1.
         -4    1    1    2    0  502  0.22512652637E+02 -0.30492510823E+02 -0.22430350513E+02  0.44042404217E+02  0.00000000000E+00 0. -1.
</event>
<event>
 6    1  0.2569591E-005  0.1051047E+04  0.7818608E-02  0.8995868E-01
         -4   -1    0    0    0  501 -0.00000000000E+00  0.00000000000E+00  0.13486843626E+04  0.13486843626E+04  0.00000000000E+00 0. -1.
         21   -1    0    0  501  502  0.00000000000E+00 -0.00000000000E+00 -0.77100843197E+03  0.77100843197E+03  0.00000000000E+00 0. -1.
   -9000010    2    1    2    0  502  0.23429279790E+03  0.25125212650E+03 -0.36795369523E+03  0.11135933230E+04  0.99331738181E+03 0.  0.
        -13    1    1    2    0    0 -0.23429279790E+03 -0.25125212650E+03  0.94562962583E+03  0.10060994715E+04  0.10566000000E+00 0.  1.
         13    1    3    3    0    0  0.35719347642E+03 -0.28446747920E+03 -0.82227170496E+01  0.45670181799E+03  0.10566000000E+00 0. -1.
         -4    1    3    3    0  502 -0.12290067851E+03  0.53571960569E+03 -0.35973097818E+03  0.65689150502E+03  0.00000000000E+00 0. -1.
</event>
<event>
 5    1  0.2569591E-005  0.2037334E+03  0.7818608E-02  0.1114963E+00
         21   -1    0    0  501  502  0.00000000000E+00  0.00000000000E+00  0.93057622306E+02  0.93057622306E+02  0.00000000000E+00 0. -1.
         -4   -1    0    0    0  501 -0.00000000000E+00 -0.00000000000E+00 -0.16601581391E+03  0.16601581391E+03  0.00000000000E+00 0. -1.
        -13    1    1    2    0    0 -0.40587930906E+02  0.79568393343E+01 -0.29374557700E+02  0.50730338374E+02  0.10566000000E+00 0.  1.
         13    1    1    2    0    0  0.91821031364E+02  0.53939424596E+02  0.16832280341E+02  0.10781419272E+03  0.10566000000E+00 0. -1.
         -4    1    1    2    0  502 -0.51233100458E+02 -0.61896263930E+02 -0.60415914247E+02  0.10052890512E+03  0.00000000000E+00 0. -1.
</event>
<event>
 5    1  0.2569591E-005  0.5075789E+03  0.7818608E-02  0.9646462E-01
         21   -1    0    0  501  502  0.00000000000E+00  0.00000000000E+00  0.28343931941E+03  0.28343931941E+03  0.00000000000E+00 0.  1.
         -4   -1    0    0    0  501 -0.00000000000E+00 -0.00000000000E+00 -0.54134591742E+03  0.54134591742E+03  0.00000000000E+00 0. -1.
        -13    1    1    2    0    0  0.61865272890E+02  0.25376219240E+03 -0.13800750071E+02  0.26155885408E+03  0.10566000000E+00 0.  1.
         13    1    1    2    0    0  0.11838938002E+03 -0.29879362965E+03 -0.16528480932E+03  0.36140387072E+03  0.10566000000E+00 0. -1.
         -4    1    1    2    0  502 -0.18025465291E+03  0.45031437252E+02 -0.78821038622E+02  0.20182251204E+03  0.00000000000E+00 0. -1.
</event>
<event>
 6    1  0.2569591E-005  0.1086132E+04  0.7818608E-02  0.8941302E-01
         21   -1    0    0  501  502  0.00000000000E+00  0.00000000000E+00  0.21889382902E+03  0.21889382902E+03  0.00000000000E+00 0. -1.
         -4   -1    0    0    0  501 -0.00000000000E+00 -0.00000000000E+00 -0.25479077942E+04  0.25479077942E+04  0.00000000000E+00 0. -1.
   -9000010    2    1    2    0  502 -0.12123555269E+03  0.36946498064E+03 -0.15087177764E+04  0.18590085413E+04  0.10141405211E+04 0.  0.
        -13    1    1    2    0    0  0.12123555269E+03 -0.36946498064E+03 -0.82029618872E+03  0.90779308190E+03  0.10566000000E+00 0.  1.
         13    1    3    3    0    0 -0.18386238927E+03 -0.32871102060E+03 -0.41999671482E+03  0.56413966788E+03  0.10566000000E+00 0. -1.
         -4    1    3    3    0  502  0.62626836578E+02  0.69817600123E+03 -0.10887210616E+04  0.12948688734E+04  0.00000000000E+00 0. -1.
</event>
<event>
 6    1  0.2569591E-005  0.1210798E+04  0.7818608E-02  0.9063225E-01
         21   -1    0    0  501  502  0.00000000000E+00  0.00000000000E+00  0.47331464727E+03  0.47331464727E+03  0.00000000000E+00 0. -1.
         -4   -1    0    0    0  501 -0.00000000000E+00 -0.00000000000E+00 -0.11469883462E+04  0.11469883462E+04  0.00000000000E+00 0. -1.
   -9000010    2    1    2    0  502 -0.65573081403E+01 -0.17129212421E+03 -0.36056949621E+03  0.12633460731E+04  0.11986029153E+04 0.  0.
        -13    1    1    2    0    0  0.65573081403E+01  0.17129212421E+03 -0.31310420270E+03  0.35695692039E+03  0.10566000000E+00 0.  1.
         13    1    3    3    0    0  0.18856292694E+03  0.10525158452E+03  0.38675210806E+03  0.44295719625E+03  0.10566000000E+00 0. -1.
         -4    1    3    3    0  502 -0.19512023508E+03 -0.27654370873E+03 -0.74732160427E+03  0.82038887680E+03  0.00000000000E+00 0. -1.
</event>
<event>
 6    1  0.2569591E-005  0.1094227E+04  0.7818608E-02  0.8897367E-01
          4   -1    0    0  502    0 -0.00000000000E+00  0.00000000000E+00  0.60086174641E+03  0.60086174641E+03  0.00000000000E+00 0.  1.
         21   -1    0    0  501  502  0.00000000000E+00 -0.00000000000E+00 -0.12276427695E+04  0.12276427695E+04  0.00000000000E+00 0. -1.
    9000010    2    1    2  501    0 -0.98368236454E+02 -0.44502931554E+03 -0.52694732658E+02  0.10954953198E+04  0.99478935415E+03 0.  0.
        -13    1    3    3    0    0 -0.11803908023E+03  0.13181144741E+03 -0.38909740030E+03  0.42743921231E+03  0.10566000000E+00 0.  1.
         13    1    1    2    0    0  0.98368236454E+02  0.44502931554E+03 -0.57408629045E+03  0.73300919618E+03  0.10566000000E+00 0. -1.
          4    1    3    3  501    0  0.19670843773E+02 -0.57684076295E+03  0.33640266765E+03  0.66805610745E+03  0.00000000000E+00 0.  1.
</event>
<event>
 5    1  0.2569591E-005  0.1459998E+03  0.7818608E-02  0.1107744E+00
         21   -1    0    0  501  502  0.00000000000E+00  0.00000000000E+00  0.80800163518E+02  0.80800163518E+02  0.00000000000E+00 0. -1.
          4   -1    0    0  502    0 -0.00000000000E+00 -0.00000000000E+00 -0.25291066990E+03  0.25291066990E+03  0.00000000000E+00 0.  1.
        -13    1    1    2    0    0  0.53590869748E+02  0.11293332547E+03 -0.95035133514E+02  0.15702740235E+03  0.10566000000E+00 0.  1.
         13    1    1    2    0    0 -0.41439164445E+02 -0.12965250643E+03 -0.56057086890E+02  0.14720524763E+03  0.10566000000E+00 0. -1.
          4    1    1    2  501    0 -0.12151705303E+02  0.16719180964E+02 -0.21018285981E+02  0.29478183449E+02  0.00000000000E+00 0.  1.
</event>
<event>
 6    1  0.2569591E-005  0.1017830E+04  0.7818608E-02  0.9110807E-01
         -4   -1    0    0    0  501 -0.00000000000E+00  0.00000000000E+00  0.11893639808E+04  0.11893639808E+04  0.00000000000E+00 0. -1.
         21   -1    0    0  501  502  0.00000000000E+00 -0.00000000000E+00 -0.33205168589E+03  0.33205168589E+03  0.00000000000E+00 0. -1.
   -9000010    2    1    2    0  502  0.20179931426E+03  0.12786755490E+03  0.70317953145E+03  0.12371095029E+04  0.98939647961E+03 0.  0.
        -13    1    1    2    0    0 -0.20179931426E+03 -0.12786755490E+03  0.15413276342E+03  0.28430616376E+03  0.10566000000E+00 0.  1.
         13    1    3    3    0    0 -0.18379207704E+03  0.46101285153E+03  0.25253280927E+03  0.55685294987E+03  0.10566000000E+00 0. -1.
         -4    1    3    3    0  502  0.38559139130E+03 -0.33314529663E+03  0.45064672218E+03  0.68025655302E+03  0.00000000000E+00 0. -1.
</event>
<event>
 6    1  0.2569591E-005  0.1025637E+04  0.7818608E-02  0.9082517E-01
          4   -1    0    0  502    0 -0.00000000000E+00  0.00000000000E+00  0.21493814368E+04  0.21493814368E+04  0.00000000000E+00 0.  1.
         21   -1    0    0  501  502  0.00000000000E+00 -0.00000000000E+00 -0.21064940118E+03  0.21064940118E+03  0.00000000000E+00 0.  1.
    9000010    2    1    2  501    0  0.20838120919E+03 -0.15744617281E+03  0.12116262018E+04  0.15874410824E+04  0.99182614987E+03 0.  0.
        -13    1    3    3    0    0  0.20072676999E+03 -0.56588524532E+03  0.57722003531E+03  0.83288674343E+03  0.10566000000E+00 0.  1.
         13    1    1    2    0    0 -0.20838120919E+03  0.15744617281E+03  0.72710583382E+03  0.77258975557E+03  0.10566000000E+00 0. -1.
          4    1    3    3  501    0  0.76544392032E+01  0.40843907250E+03  0.63440616653E+03  0.75455433901E+03  0.00000000000E+00 0.  1.
</event>
<event>
 5    1  0.2569591E-005  0.4507702E+03  0.7818608E-02  0.9888584E-01
          4   -1    0    0  502    0 -0.00000000000E+00  0.00000000000E+00  0.66829548352E+03  0.66829548352E+03  0.00000000000E+00 0.  1.
         21   -1    0    0  501  502  0.00000000000E+00 -0.00000000000E+00 -0.30482067001E+03  0.30482067001E+03  0.00000000000E+00 0. -1.
        -13    1    1    2    0    0  0.18704351924E+03 -0.24220107516E+03  0.38906815718E+03  0.49499563735E+03  0.10566000000E+00 0.  1.
         13    1    1    2    0    0 -0.10792945824E+03  0.12117932577E+03 -0.19611802328E+03  0.25454957704E+03  0.10566000000E+00 0. -1.
          4    1    1    2  501    0 -0.79114061005E+02  0.12102174938E+03  0.17052467961E+03  0.22357093914E+03  0.00000000000E+00 0.  1.
</event>
<event>
 6    1  0.2569591E-005  0.1006257E+04  0.7818608E-02  0.9205668E-01
         21   -1    0    0  501  502  0.00000000000E+00  0.00000000000E+00  0.53451695431E+03  0.53451695431E+03  0.00000000000E+00 0.  1.
          4   -1    0    0  502    0 -0.00000000000E+00 -0.00000000000E+00 -0.69302103757E+03  0.69302103757E+03  0.00000000000E+00 0.  1.
    9000010    2    1    2  501    0  0.13589745998E+03  0.10318269562E+03 -0.17861654837E+02  0.10064156453E+04  0.99168474030E+03 0.  0.
        -13    1    3    3    0    0 -0.16450751255E+03 -0.33794124572E+03  0.20491786870E+03  0.42808685021E+03  0.10566000000E+00 0.  1.
         13    1    1    2    0    0 -0.13589745998E+03 -0.10318269562E+03 -0.14064242843E+03  0.22112234655E+03  0.10566000000E+00 0. -1.
          4    1    3    3  501    0  0.30040497253E+03  0.44112394134E+03 -0.22277952354E+03  0.57832879511E+03  0.00000000000E+00 0.  1.
</event>
<event>
 6    1  0.2569591E-005  0.1015786E+04  0.7818608E-02  0.9195421E-01
         21   -1    0    0  501  502  0.00000000000E+00  0.00000000000E+00  0.21481738066E+03  0.21481738066E+03  0.00000000000E+00 0.  1.
          4   -1    0    0  502    0 -0.00000000000E+00 -0.00000000000E+00 -0.18901656804E+04  0.18901656804E+04  0.00000000000E+00 0.  1.
    9000010    2    1    2  501    0 -0.17104164774E+03 -0.23067288020E+02 -0.10694064195E+04  0.14749410637E+04  0.10010163367E+04 0.  0.
        -13    1    3    3    0    0 -0.17097526468E+03  0.81723228411E+02  0.15576042358E+03  0.24530093337E+03  0.10566000000E+00 0.  1.
         13    1    1    2    0    0  0.17104164774E+03  0.23067288020E+02 -0.60594188021E+03  0.63004199733E+03  0.10566000000E+00 0. -1.
          4    1    3    3  501    0 -0.66383054582E-01 -0.10479051643E+03 -0.12251668431E+04  0.12296401304E+04  0.00000000000E+00 0.  1.
</event>
<event>
 6    1  0.2569591E-005  0.1010998E+04  0.7818608E-02  0.9096594E-01
          4   -1    0    0  502    0 -0.00000000000E+00  0.00000000000E+00  0.11888160568E+04  0.11888160568E+04  0.00000000000E+00 0.  1.
         21   -1    0    0  501  502  0.00000000000E+00 -0.00000000000E+00 -0.33858092479E+03  0.33858092479E+03  0.00000000000E+00 0.  1.
    9000010    2    1    2  501    0 -0.19978892682E+03 -0.16304312951E+03  0.67618044588E+03  0.12162800867E+04  0.97755745437E+03 0.  0.
        -13    1    3    3    0    0 -0.50533514367E+03  0.64500844978E+01  0.61331232896E+02  0.50908421927E+03  0.10566000000E+00 0.  1.
         13    1    1    2    0    0  0.19978892682E+03  0.16304312951E+03  0.17405468617E+03  0.31111689492E+03  0.10566000000E+00 0. -1.
          4    1    3    3  501    0  0.30554621685E+03 -0.16949321401E+03  0.61484921299E+03  0.70719586745E+03  0.00000000000E+00 0.  1.
</event>
<event>
 5    1  0.2569591E-005  0.2766468E+03  0.7818608E-02  0.1020948E+00
         21   -1    0    0  501  502  0.00000000000E+00  0.00000000000E+00  0.50298089504E+02  0.50298089504E+02  0.00000000000E+00 0. -1.
          4   -1    0    0  502    0 -0.00000000000E+00 -0.00000000000E+00 -0.13823784834E+04  0.13823784834E+04  0.00000000000E+00 0.  1.
        -13    1    1    2    0    0 -0.71516307879E+02 -0.43652634166E+01 -0.14779048050E+03  0.16424273228E+03  0.10566000000E+00 0.  1.
         13    1    1    2    0    0  0.18205474293E+03 -0.16788127789E+03 -0.70685014382E+03  0.74897609433E+03  0.10566000000E+00 0. -1.
          4    1    1    2  501    0 -0.11053843505E+03  0.17224654130E+03 -0.47743976961E+03  0.51945774633E+03  0.00000000000E+00 0.  1.
</event>
<event>
 6    1  0.2569591E-005  0.1048729E+04  0.7818608E-02  0.9085013E-01
         21   -1    0    0  501  502  0.00000000000E+00  0.00000000000E+00  0.21118907128E+03  0.21118907128E+03  0.00000000000E+00 0. -1.
         -4   -1    0    0    0  501 -0.00000000000E+00 -0.00000000000E+00 -0.22169064537E+04  0.22169064537E+04  0.00000000000E+00 0. -1.
   -9000010    2    1    2    0  502  0.23298264171E+03  0.65033702624E+02 -0.12344359723E+04  0.16197729913E+04  0.10204518997E+04 0.  0.
        -13    1    1    2    0    0 -0.23298264171E+03 -0.65033702624E+02 -0.77128141014E+03  0.80832253377E+03  0.10566000000E+00 0.  1.
         13    1    3    3    0    0 -0.11313170953E+03 -0.12926656171E+03  0.11923649801E+03  0.20910758308E+03  0.10566000000E+00 0. -1.
         -4    1    3    3    0  502  0.34611435124E+03  0.19430026434E+03 -0.13536724703E+04  0.14106654082E+04  0.00000000000E+00 0. -1.
</event>
<event>
 6    1  0.2569591E-005  0.1863179E+04  0.7818608E-02  0.8261870E-01
          4   -1    0    0  502    0 -0.00000000000E+00  0.00000000000E+00  0.42892000587E+04  0.42892000587E+04  0.00000000000E+00 0.  1.
         21   -1    0    0  501  502  0.00000000000E+00 -0.00000000000E+00 -0.83972185727E+03  0.83972185727E+03  0.00000000000E+00 0. -1.
    9000010    2    1    2  501    0  0.23375016635E+03 -0.15533463921E+04  0.75571468173E+03  0.20106072966E+04  0.10019545233E+04 0.  0.
        -13    1    3    3    0    0  0.45448305623E+03 -0.97641789711E+03  0.86741084628E+03  0.13828768367E+04  0.10566000000E+00 0.  1.
         13    1    1    2    0    0 -0.23375016635E+03  0.15533463921E+04  0.26937635197E+04  0.31183146194E+04  0.10566000000E+00 0. -1.
          4    1    3    3  501    0 -0.22073288988E+03 -0.57692849502E+03 -0.11169616455E+03  0.62773045984E+03  0.00000000000E+00 0.  1.
</event>
<event>
 6    1  0.2569591E-005  0.1179456E+04  0.7818608E-02  0.8788714E-01
          4   -1    0    0  502    0 -0.00000000000E+00  0.00000000000E+00  0.35362030841E+04  0.35362030841E+04  0.00000000000E+00 0.  1.
         21   -1    0    0  501  502  0.00000000000E+00 -0.00000000000E+00 -0.25340899083E+03  0.25340899083E+03  0.00000000000E+00 0.  1.
    9000010    2    1    2  501    0 -0.44383739653E+03 -0.36392572677E+03  0.14504155943E+04  0.18694442323E+04  0.10303799165E+04 0.  0.
        -13    1    3    3    0    0  0.48926419170E+02 -0.49976757618E+02 -0.15011177881E+03  0.16560503645E+03  0.10566000000E+00 0.  1.
         13    1    1    2    0    0  0.44383739653E+03  0.36392572677E+03  0.18323784990E+04  0.19201678426E+04  0.10566000000E+00 0. -1.
          4    1    3    3  501    0 -0.49276381570E+03 -0.31394896915E+03  0.16005273731E+04  0.17038391959E+04  0.00000000000E+00 0.  1.
</event>
<event>
 5    1  0.2569591E-005  0.2040295E+03  0.7818608E-02  0.1061832E+00
         -4   -1    0    0    0  501 -0.00000000000E+00  0.00000000000E+00  0.14614260195E+04  0.14614260195E+04  0.00000000000E+00 0. -1.
         21   -1    0    0  501  502  0.00000000000E+00 -0.00000000000E+00 -0.26035622533E+02  0.26035622533E+02  0.00000000000E+00 0.  1.
        -13    1    1    2    0    0 -0.46682178819E+01  0.17923927580E+03  0.81091332990E+03  0.83049921735E+03  0.10566000000E+00 0.  1.
         13    1    1    2    0    0 -0.15295787764E+02 -0.17939150446E+03  0.51214348288E+03  0.54286852112E+03  0.10566000000E+00 0. -1.
         -4    1    1    2    0  502  0.19964005646E+02  0.15222865959E+00  0.11233358416E+03  0.11409390354E+03  0.00000000000E+00 0. -1.
</event>
<event>
 6    1  0.2569591E-005  0.1010196E+04  0.7818608E-02  0.9224238E-01
         -4   -1    0    0    0  501 -0.00000000000E+00  0.00000000000E+00  0.89527038254E+03  0.89527038254E+03  0.00000000000E+00 0. -1.
         21   -1    0    0  501  502  0.00000000000E+00 -0.00000000000E+00 -0.38850187574E+03  0.38850187574E+03  0.00000000000E+00 0. -1.
   -9000010    2    1    2    0  502  0.64351776109E+02  0.14317536061E+03  0.37079762542E+03  0.10760984113E+04  0.99792613795E+03 0.  0.
        -13    1    1    2    0    0 -0.64351776109E+02 -0.14317536061E+03  0.13597088139E+03  0.20767384699E+03  0.10566000000E+00 0.  1.
         13    1    3    3    0    0 -0.92081134120E+02 -0.81397550802E+02 -0.31477424306E+03  0.33791616090E+03  0.10566000000E+00 0. -1.
         -4    1    3    3    0  502  0.15643291023E+03  0.22457291141E+03  0.68557186848E+03  0.73818225039E+03  0.00000000000E+00 0. -1.
</event>
<event>
 5    1  0.2569591E-005  0.8521757E+02  0.7818608E-02  0.1204016E+00
          4   -1    0    0  502    0 -0.00000000000E+00  0.00000000000E+00  0.19137850723E+02  0.19137850723E+02  0.00000000000E+00 0.  1.
         21   -1    0    0  501  502  0.00000000000E+00 -0.00000000000E+00 -0.29186167492E+03  0.29186167492E+03  0.00000000000E+00 0. -1.
        -13    1    1    2    0    0 -0.46888562170E+02  0.32580422978E+02 -0.11989144879E+03  0.13279304154E+03  0.10566000000E+00 0.  1.
         13    1    1    2    0    0  0.33118836914E+02 -0.55033944123E+02 -0.12005648521E+03  0.13615859565E+03  0.10566000000E+00 0. -1.
          4    1    1    2  501    0  0.13769725257E+02  0.22453521145E+02 -0.32775890197E+02  0.42047888457E+02  0.00000000000E+00 0.  1.
</event>
<event>
 6    1  0.2569591E-005  0.1047916E+04  0.7818608E-02  0.9010454E-01
         -4   -1    0    0    0  501 -0.00000000000E+00  0.00000000000E+00  0.26169157555E+04  0.26169157555E+04  0.00000000000E+00 0. -1.
         21   -1    0    0  501  502  0.00000000000E+00 -0.00000000000E+00 -0.18407000977E+03  0.18407000977E+03  0.00000000000E+00 0.  1.
   -9000010    2    1    2    0  502 -0.27582803867E+03  0.17522299441E+03  0.16764581811E+04  0.19770280214E+04  0.99566237224E+03 0.  0.
        -13    1    1    2    0    0  0.27582803867E+03 -0.17522299441E+03  0.75638756462E+03  0.82395774392E+03  0.10566000000E+00 0.  1.
         13    1    3    3    0    0 -0.38688707091E+03 -0.33992578094E+03  0.93367107280E+03  0.10662892785E+04  0.10566000000E+00 0. -1.
         -4    1    3    3    0  502  0.11105903224E+03  0.51514877535E+03  0.74278710833E+03  0.91073874282E+03  0.00000000000E+00 0. -1.
</event>
<event>
 6    1  0.2569591E-005  0.1007993E+04  0.7818608E-02  0.9227124E-01
         21   -1    0    0  501  502  0.00000000000E+00  0.00000000000E+00  0.25983314257E+03  0.25983314257E+03  0.00000000000E+00 0. -1.
         -4   -1    0    0    0  501 -0.00000000000E+00 -0.00000000000E+00 -0.14131253900E+04  0.14131253900E+04  0.00000000000E+00 0. -1.
   -9000010    2    1    2    0  502 -0.14741751849E+03  0.51812171515E+02 -0.80076074005E+03  0.12873487548E+04  0.99580752546E+03 0.  0.
        -13    1    1    2    0    0  0.14741751849E+03 -0.51812171515E+02 -0.35253150739E+03  0.38560977781E+03  0.10566000000E+00 0.  1.
         13    1    3    3    0    0 -0.44634689978E+03  0.27748398221E+00 -0.16704709570E+02  0.44665947928E+03  0.10566000000E+00 0. -1.
         -4    1    3    3    0  502  0.29892938129E+03  0.51534687533E+02 -0.78405603048E+03  0.84068927550E+03  0.00000000000E+00 0. -1.
</event>
<event>
 6    1  0.2569591E-005  0.1586956E+04  0.7818608E-02  0.8415098E-01
         21   -1    0    0  501  502  0.00000000000E+00  0.00000000000E+00  0.13274439191E+04  0.13274439191E+04  0.00000000000E+00 0. -1.
          4   -1    0    0  502    0 -0.00000000000E+00 -0.00000000000E+00 -0.14993376379E+04  0.14993376379E+04  0.00000000000E+00 0.  1.
    9000010    2    1    2  501    0 -0.68752930117E+03 -0.10250468631E+04 -0.11799977653E+03  0.15913374345E+04  0.99750351962E+03 0.  0.
        -13    1    3    3    0    0 -0.51718625054E+03 -0.10517985177E+04  0.23780074329E+03  0.11959560796E+04  0.10566000000E+00 0.  1.
         13    1    1    2    0    0  0.68752930117E+03  0.10250468631E+04 -0.53893942316E+02  0.12354441225E+04  0.10566000000E+00 0. -1.
          4    1    3    3  501    0 -0.17034305063E+03  0.26751654599E+02 -0.35580051982E+03  0.39538135493E+03  0.00000000000E+00 0.  1.
</event>
<event>
 6    1  0.2569591E-005  0.1121965E+04  0.7818608E-02  0.8860198E-01
         21   -1    0    0  501  502  0.00000000000E+00  0.00000000000E+00  0.11423259655E+04  0.11423259655E+04  0.00000000000E+00 0. -1.
         -4   -1    0    0    0  501 -0.00000000000E+00 -0.00000000000E+00 -0.58160292027E+03  0.58160292027E+03  0.00000000000E+00 0. -1.
   -9000010    2    1    2    0  502 -0.49270010103E+03 -0.27840412455E+02  0.49417858862E+03  0.12259764242E+04  0.10076096651E+04 0.  0.
        -13    1    1    2    0    0  0.49270010103E+03  0.27840412455E+02  0.66544456608E+02  0.49795246157E+03  0.10566000000E+00 0.  1.
         13    1    3    3    0    0 -0.21087596245E+03 -0.43323482801E+02  0.78899196813E+03  0.81783490550E+03  0.10566000000E+00 0. -1.
         -4    1    3    3    0  502 -0.28182413858E+03  0.15483070346E+02 -0.29481337951E+03  0.40814151871E+03  0.00000000000E+00 0. -1.
</event>
<event>
 6    1  0.2569591E-005  0.1105974E+04  0.7818608E-02  0.8762752E-01
          4   -1    0    0  502    0 -0.00000000000E+00  0.00000000000E+00  0.13888650675E+04  0.13888650675E+04  0.00000000000E+00 0.  1.
         21   -1    0    0  501  502  0.00000000000E+00 -0.00000000000E+00 -0.63878882252E+03  0.63878882252E+03  0.00000000000E+00 0. -1.
    9000010    2    1    2  501    0 -0.49560662888E+03 -0.59902941215E+03  0.46024212671E+03  0.11979153803E+04  0.78658519949E+03 0.  0.
        -13    1    3    3    0    0 -0.11591958131E+02  0.14094617038E+03 -0.79249915631E+02  0.16211340700E+03  0.10566000000E+00 0.  1.
         13    1    1    2    0    0  0.49560662888E+03  0.59902941215E+03  0.28983411832E+03  0.82973850972E+03  0.10566000000E+00 0. -1.
          4    1    3    3  501    0 -0.48401467075E+03 -0.73997558253E+03  0.53949204234E+03  0.10358019733E+04  0.00000000000E+00 0.  1.
</event>
<event>
 6    1  0.2569591E-005  0.1003198E+04  0.7818608E-02  0.9265412E-01
         21   -1    0    0  501  502  0.00000000000E+00  0.00000000000E+00  0.88650253117E+02  0.88650253117E+02  0.00000000000E+00 0. -1.
         -4   -1    0    0    0  501 -0.00000000000E+00 -0.00000000000E+00 -0.36653967793E+04  0.36653967793E+04  0.00000000000E+00 0. -1.
   -9000010    2    1    2    0  502  0.39812636112E+02 -0.13094275589E+03 -0.31517293850E+04  0.33075376453E+04  0.99381895109E+03 0.  0.
        -13    1    1    2    0    0 -0.39812636112E+02  0.13094275589E+03 -0.42501714114E+03  0.44650938707E+03  0.10566000000E+00 0.  1.
         13    1    3    3    0    0 -0.44961918093E+03  0.10198691342E+03 -0.14746296180E+04  0.15450214431E+04  0.10566000000E+00 0. -1.
         -4    1    3    3    0  502  0.48943181704E+03 -0.23292966931E+03 -0.16770997671E+04  0.17625162022E+04  0.00000000000E+00 0. -1.
</event>
<event>
 6    1  0.2569591E-005  0.9701667E+03  0.7818608E-02  0.9128752E-01
         21   -1    0    0  501  502  0.00000000000E+00  0.00000000000E+00  0.32934668505E+03  0.32934668505E+03  0.00000000000E+00 0.  1.
          4   -1    0    0  502    0 -0.00000000000E+00 -0.00000000000E+00 -0.12156271821E+04  0.12156271821E+04  0.00000000000E+00 0.  1.
    9000010    2    1    2  501    0 -0.25481141703E+02 -0.25576239367E+03 -0.84109597546E+03  0.12840038636E+04  0.93549975481E+03 0.  0.
        -13    1    3    3    0    0 -0.46796937158E+03 -0.22432130561E+03 -0.37296057179E+03  0.63907353267E+03  0.10566000000E+00 0.  1.
         13    1    1    2    0    0  0.25481141703E+02  0.25576239367E+03 -0.45184521618E+02  0.26097000355E+03  0.10566000000E+00 0. -1.
          4    1    3    3  501    0  0.44248822988E+03 -0.31441088062E+02 -0.46813540367E+03  0.64493033095E+03  0.00000000000E+00 0.  1.
</event>
<event>
 6    1  0.2569591E-005  0.1579466E+04  0.7818608E-02  0.8421061E-01
         -4   -1    0    0    0  501 -0.00000000000E+00  0.00000000000E+00  0.24137972782E+04  0.24137972782E+04  0.00000000000E+00 0. -1.
         21   -1    0    0  501  502  0.00000000000E+00 -0.00000000000E+00 -0.81774733190E+03  0.81774733190E+03  0.00000000000E+00 0.  1.
   -9000010    2    1    2    0  502 -0.12170827824E+04  0.43732791954E+02  0.10515937805E+04  0.18975147813E+04  0.10057384400E+04 0.  0.
        -13    1    1    2    0    0  0.12170827824E+04 -0.43732791954E+02  0.54445616584E+03  0.13340298288E+04  0.10566000000E+00 0.  1.
         13    1    3    3    0    0  0.12775012685E+00 -0.22652509766E+03 -0.51996844997E+02  0.23241626286E+03  0.10566000000E+00 0. -1.
         -4    1    3    3    0  502 -0.12172105326E+04  0.27025788961E+03  0.11035906255E+04  0.16650985184E+04  0.00000000000E+00 0. -1.
</event>
<event>
 6    1  0.2569591E-005  0.1078357E+04  0.7818608E-02  0.9019287E-01
         21   -1    0    0  501  502  0.00000000000E+00  0.00000000000E+00  0.17697997854E+03  0.17697997854E+03  0.00000000000E+00 0.  1.
          4   -1    0    0  502    0 -0.00000000000E+00 -0.00000000000E+00 -0.29625930772E+04  0.29625930772E+04  0.00000000000E+00 0.  1.
    9000010    2    1    2  501    0 -0.29199128916E+02  0.28790818647E+03 -0.25421023208E+04  0.27613651459E+04  0.10388019767E+04 0.  0.
        -13    1    3    3    0    0 -0.98230199148E+02  0.56420263501E+03 -0.73405479654E+03  0.93102644477E+03  0.10566000000E+00 0.  1.
         13    1    1    2    0    0  0.29199128916E+02 -0.28790818647E+03 -0.24351077793E+03  0.37820790988E+03  0.10566000000E+00 0. -1.
          4    1    3    3  501    0  0.69031070232E+02 -0.27629444855E+03 -0.18080475242E+04  0.18303387011E+04  0.00000000000E+00 0.  1.
</event>
<event>
 6    1  0.2569591E-005  0.1005925E+04  0.7818608E-02  0.9324986E-01
          4   -1    0    0  502    0 -0.00000000000E+00  0.00000000000E+00  0.20420269860E+04  0.20420269860E+04  0.00000000000E+00 0.  1.
         21   -1    0    0  501  502  0.00000000000E+00 -0.00000000000E+00 -0.17884026249E+03  0.17884026249E+03  0.00000000000E+00 0.  1.
    9000010    2    1    2  501    0 -0.10507339258E+03  0.26192093108E+02  0.12813081241E+04  0.16289980406E+04  0.10000788289E+04 0.  0.
        -13    1    3    3    0    0  0.73568016894E+02  0.58303365363E+02 -0.15503167229E+03  0.18123566454E+03  0.10566000000E+00 0.  1.
         13    1    1    2    0    0  0.10507339258E+03 -0.26192093108E+02  0.58187859941E+03  0.59186920784E+03  0.10566000000E+00 0. -1.
          4    1    3    3  501    0 -0.17864140947E+03 -0.32111272255E+02  0.14363397964E+04  0.14477623761E+04  0.00000000000E+00 0.  1.
</event>
<event>
 6    1  0.2569591E-005  0.1032780E+04  0.7818608E-02  0.9053629E-01
         21   -1    0    0  501  502  0.00000000000E+00  0.00000000000E+00  0.34506167878E+03  0.34506167878E+03  0.00000000000E+00 0.  1.
          4   -1    0    0  502    0 -0.00000000000E+00 -0.00000000000E+00 -0.14988767806E+04  0.14988767806E+04  0.00000000000E+00 0.  1.
    9000010    2    1    2  501    0 -0.20762006779E+03 -0.19815824485E+03 -0.53795918883E+03  0.11644891976E+04  0.99209990426E+03 0.  0.
        -13    1    3    3    0    0 -0.24651205480E+02 -0.17583179382E+03  0.27695912257E+03  0.32898460206E+03  0.10566000000E+00 0.  1.
         13    1    1    2    0    0  0.20762006779E+03  0.19815824485E+03 -0.61585591302E+03  0.67944926177E+03  0.10566000000E+00 0. -1.
          4    1    3    3  501    0 -0.18296886231E+03 -0.22326451026E+02 -0.81491831140E+03  0.83550459559E+03  0.00000000000E+00 0.  1.
</event>
<event>
 6    1  0.2569591E-005  0.9096313E+03  0.7818608E-02  0.8995202E-01
         21   -1    0    0  501  502  0.00000000000E+00  0.00000000000E+00  0.22570199978E+03  0.22570199978E+03  0.00000000000E+00 0.  1.
          4   -1    0    0  502    0 -0.00000000000E+00 -0.00000000000E+00 -0.24286643411E+04  0.24286643411E+04  0.00000000000E+00 0.  1.
    9000010    2    1    2  501    0  0.52947752055E+03 -0.45148568873E+02 -0.10800867561E+04  0.14120964713E+04  0.73827109203E+03 0.  0.
        -13    1    3    3    0    0  0.61970161184E+03  0.45476456955E+02 -0.44504204884E+03  0.76430401822E+03  0.10566000000E+00 0.  1.
         13    1    1    2    0    0 -0.52947752055E+03  0.45148568873E+02 -0.11228755852E+04  0.12422698697E+04  0.10566000000E+00 0. -1.
          4    1    3    3  501    0 -0.90224091298E+02 -0.90625025829E+02 -0.63504470730E+03  0.64779245305E+03  0.00000000000E+00 0.  1.
</event>
<event>
 5    1  0.2569591E-005  0.1389262E+03  0.7818608E-02  0.1132838E+00
         21   -1    0    0  501  502  0.00000000000E+00  0.00000000000E+00  0.13592058616E+03  0.13592058616E+03  0.00000000000E+00 0.  1.
         -4   -1    0    0    0  501 -0.00000000000E+00 -0.00000000000E+00 -0.89889310646E+02  0.89889310646E+02  0.00000000000E+00 0. -1.
        -13    1    1    2    0    0  0.46086143696E+01  0.81889129954E+02  0.20738698991E+02  0.84600081152E+02  0.10566000000E+00 0.  1.
         13    1    1    2    0    0 -0.26329329658E+02  0.11054918696E+01 -0.29389947355E+02  0.39474496603E+02  0.10566000000E+00 0. -1.
         -4    1    1    2    0  502  0.21720715288E+02 -0.82994621824E+02  0.54682523873E+02  0.10173531905E+03  0.00000000000E+00 0. -1.
</event>
<event>
 5    1  0.2569591E-005  0.4261636E+03  0.7818608E-02  0.9838209E-01
         21   -1    0    0  501  502  0.00000000000E+00  0.00000000000E+00  0.49596822835E+03  0.49596822835E+03  0.00000000000E+00 0. -1.
          4   -1    0    0  502    0 -0.00000000000E+00 -0.00000000000E+00 -0.22490246039E+03  0.22490246039E+03  0.00000000000E+00 0.  1.
        -13    1    1    2    0    0  0.31364896810E+03 -0.49406575065E+02  0.13143116758E+03  0.34364348943E+03  0.10566000000E+00 0.  1.
         13    1    1    2    0    0 -0.22641655719E+03  0.22943255594E+02  0.16674243479E+03  0.28212391085E+03  0.10566000000E+00 0. -1.
          4    1    1    2  501    0 -0.87232410909E+02  0.26463319472E+02 -0.27107834406E+02  0.95103288464E+02  0.00000000000E+00 0.  1.
</event>
<event>
 5    1  0.2569591E-005  0.2733039E+03  0.7818608E-02  0.1022711E+00
          4   -1    0    0  502    0 -0.00000000000E+00  0.00000000000E+00  0.40404800226E+03  0.40404800226E+03  0.00000000000E+00 0.  1.
         21   -1    0    0  501  502  0.00000000000E+00 -0.00000000000E+00 -0.16494552560E+03  0.16494552560E+03  0.00000000000E+00 0. -1.
        -13    1    1    2    0    0 -0.11997106838E+03 -0.99465172679E+02  0.12720452995E+03  0.20116506016E+03  0.10566000000E+00 0.  1.
         13    1    1    2    0    0  0.14331394139E+03  0.19625213915E+03  0.11360124302E+03  0.26825182478E+03  0.10566000000E+00 0. -1.
          4    1    1    2  501    0 -0.23342873015E+02 -0.96786966466E+02 -0.17032963100E+01  0.99576642927E+02  0.00000000000E+00 0.  1.
</event>
<event>
 6    1  0.2569591E-005  0.1089570E+04  0.7818608E-02  0.8875878E-01
          4   -1    0    0  502    0 -0.00000000000E+00  0.00000000000E+00  0.23588256520E+03  0.23588256520E+03  0.00000000000E+00 0.  1.
         21   -1    0    0  501  502  0.00000000000E+00 -0.00000000000E+00 -0.30997305339E+04  0.30997305339E+04  0.00000000000E+00 0. -1.
    9000010    2    1    2  501    0  0.49673142441E+03 -0.89458989229E+02 -0.13213451892E+04  0.17126344009E+04  0.96561817687E+03 0.  0.
        -13    1    3    3    0    0 -0.17146735177E+03 -0.33596801526E+03 -0.47137467174E+03  0.60371322027E+03  0.10566000000E+00 0.  1.
         13    1    1    2    0    0 -0.49673142441E+03  0.89458989229E+02 -0.15425027795E+04  0.16229786982E+04  0.10566000000E+00 0. -1.
          4    1    3    3  501    0  0.66819877617E+03  0.24650902603E+03 -0.84997051744E+03  0.11089211807E+04  0.00000000000E+00 0.  1.
</event>
<event>
 6    1  0.2569591E-005  0.1109931E+04  0.7818608E-02  0.8861198E-01
         21   -1    0    0  501  502  0.00000000000E+00  0.00000000000E+00  0.57720425253E+03  0.57720425253E+03  0.00000000000E+00 0. -1.
         -4   -1    0    0    0  501 -0.00000000000E+00 -0.00000000000E+00 -0.18467986911E+04  0.18467986911E+04  0.00000000000E+00 0. -1.
   -9000010    2    1    2    0  502  0.60445624530E+02 -0.50397661117E+03 -0.59226284367E+02  0.11115102092E+04  0.98706691474E+03 0.  0.
        -13    1    1    2    0    0 -0.60445624530E+02  0.50397661117E+03 -0.12103681542E+04  0.13124927344E+04  0.10566000000E+00 0.  1.
         13    1    3    3    0    0 -0.32417643295E+03  0.14466625104E+03 -0.39106162930E+02  0.35713861036E+03  0.10566000000E+00 0. -1.
         -4    1    3    3    0  502  0.38462205748E+03 -0.64864286220E+03 -0.20120121437E+02  0.75437159880E+03  0.00000000000E+00 0. -1.
</event>
<event>
 6    1  0.2569591E-005  0.1041729E+04  0.7818608E-02  0.9205346E-01
          4   -1    0    0  502    0 -0.00000000000E+00  0.00000000000E+00  0.23881633532E+03  0.23881633532E+03  0.00000000000E+00 0.  1.
         21   -1    0    0  501  502  0.00000000000E+00 -0.00000000000E+00 -0.15883702093E+04  0.15883702093E+04  0.00000000000E+00 0.  1.
    9000010    2    1    2  501    0 -0.64778155976E+02  0.13968949523E+03 -0.99466245535E+03  0.14403308936E+04  0.10302865224E+04 0.  0.
        -13    1    3    3    0    0  0.30007307787E+03  0.22541371905E+03 -0.99725131264E+03  0.10655352592E+04  0.10566000000E+00 0.  1.
         13    1    1    2    0    0  0.64778155976E+02 -0.13968949523E+03 -0.35489141862E+03  0.38685565105E+03  0.10566000000E+00 0. -1.
          4    1    3    3  501    0 -0.36485123385E+03 -0.85724223820E+02  0.25888572867E+01  0.37479563441E+03  0.00000000000E+00 0.  1.
</event>
<event>
 6    1  0.2569591E-005  0.9533131E+03  0.7818608E-02  0.9017277E-01
         21   -1    0    0  501  502  0.00000000000E+00  0.00000000000E+00  0.18933622610E+03  0.18933622610E+03  0.00000000000E+00 0. -1.
         -4   -1    0    0    0  501 -0.00000000000E+00 -0.00000000000E+00 -0.25895439753E+04  0.25895439753E+04  0.00000000000E+00 0. -1.
   -9000010    2    1    2    0  502 -0.37167835648E+03  0.20038284725E+03 -0.14059809946E+04  0.16987020046E+04  0.85469752373E+03 0.  0.
        -13    1    1    2    0    0  0.37167835648E+03 -0.20038284725E+03 -0.99422675454E+03  0.10801781968E+04  0.10566000000E+00 0.  1.
         13    1    3    3    0    0 -0.47026582139E+03  0.35942353245E+03 -0.50364959336E+03  0.77717317408E+03  0.10566000000E+00 0. -1.
         -4    1    3    3    0  502  0.98587464913E+02 -0.15904068521E+03 -0.90233140126E+03  0.92152883052E+03  0.00000000000E+00 0. -1.
</event>
<event>
 6    1  0.2569591E-005  0.1212390E+04  0.7818608E-02  0.8684405E-01
         21   -1    0    0  501  502  0.00000000000E+00  0.00000000000E+00  0.82918973875E+03  0.82918973875E+03  0.00000000000E+00 0. -1.
          4   -1    0    0  502    0 -0.00000000000E+00 -0.00000000000E+00 -0.12562690787E+04  0.12562690787E+04  0.00000000000E+00 0.  1.
    9000010    2    1    2  501    0 -0.10049935861E+02  0.82695803880E+03 -0.21021724509E+03  0.12304794151E+04  0.88652563505E+03 0.  0.
        -13    1    3    3    0    0  0.27548933554E+03  0.76707958693E+03  0.79998565668E+02  0.81896596288E+03  0.10566000000E+00 0.  1.
         13    1    1    2    0    0  0.10049935861E+02 -0.82695803880E+03 -0.21686209484E+03  0.85497940237E+03  0.10566000000E+00 0. -1.
          4    1    3    3  501    0 -0.28553927140E+03  0.59878451866E+02 -0.29021581076E+03  0.41151345218E+03  0.00000000000E+00 0.  1.
</event>
<event>
 5    1  0.2569591E-005  0.1985990E+03  0.7818608E-02  0.1066178E+00
         -4   -1    0    0    0  501 -0.00000000000E+00  0.00000000000E+00  0.22368620636E+03  0.22368620636E+03  0.00000000000E+00 0. -1.
         21   -1    0    0  501  502  0.00000000000E+00 -0.00000000000E+00 -0.15327444036E+03  0.15327444036E+03  0.00000000000E+00 0.  1.
        -13    1    1    2    0    0 -0.12371178155E+03 -0.11866651663E+03  0.25025925705E+02  0.17324160928E+03  0.10566000000E+00 0.  1.
         13    1    1    2    0    0  0.68601638895E+02  0.79743490026E+02  0.75854777518E+02  0.12968873312E+03  0.10566000000E+00 0. -1.
         -4    1    1    2    0  502  0.55110142658E+02  0.38923026602E+02 -0.30468937219E+02  0.74030304328E+02  0.00000000000E+00 0. -1.
</event>
<event>
 6    1  0.2569591E-005  0.1253057E+04  0.7818608E-02  0.8684598E-01
         21   -1    0    0  501  502  0.00000000000E+00  0.00000000000E+00  0.51451105564E+03  0.51451105564E+03  0.00000000000E+00 0.  1.
         -4   -1    0    0    0  501 -0.00000000000E+00 -0.00000000000E+00 -0.26929684095E+04  0.26929684095E+04  0.00000000000E+00 0. -1.
   -9000010    2    1    2    0  502 -0.12662951409E+03  0.73766561685E+03 -0.46300866163E+03  0.13358625644E+04  0.10049707330E+04 0.  0.
        -13    1    1    2    0    0  0.12662951409E+03 -0.73766561685E+03 -0.17154486923E+04  0.18716169007E+04  0.10566000000E+00 0.  1.
         13    1    3    3    0    0  0.27945789501E+03  0.76702752179E+03 -0.16900716054E+03  0.83366142153E+03  0.10566000000E+00 0. -1.
         -4    1    3    3    0  502 -0.40608740911E+03 -0.29361904945E+02 -0.29400150109E+03  0.50220114291E+03  0.00000000000E+00 0. -1.
</event>
<event>
 5    1  0.2569591E-005  0.1409656E+03  0.7818608E-02  0.1112290E+00
         -4   -1    0    0    0  501 -0.00000000000E+00  0.00000000000E+00  0.35083294426E+03  0.35083294426E+03  0.00000000000E+00 0. -1.
         21   -1    0    0  501  502  0.00000000000E+00 -0.00000000000E+00 -0.61190792099E+02  0.61190792099E+02  0.00000000000E+00 0.  1.
        -13    1    1    2    0    0 -0.52075314686E+02 -0.12346865502E+03  0.70386920173E+02  0.15136273276E+03  0.10566000000E+00 0.  1.
         13    1    1    2    0    0  0.54958587936E+02  0.79185476291E+02  0.15646785719E+03  0.18377428422E+03  0.10566000000E+00 0. -1.
         -4    1    1    2    0  502 -0.28832732494E+01  0.44283178730E+02  0.62787374804E+02  0.76886719385E+02  0.00000000000E+00 0. -1.
</event>
<event>
 6    1  0.2569591E-005  0.1111190E+04  0.7818608E-02  0.8871753E-01
         21   -1    0    0  501  502  0.00000000000E+00  0.00000000000E+00  0.83525822778E+03  0.83525822778E+03  0.00000000000E+00 0. -1.
         -4   -1    0    0    0  501 -0.00000000000E+00 -0.00000000000E+00 -0.12378908679E+04  0.12378908679E+04  0.00000000000E+00 0. -1.
   -9000010    2    1    2    0  502 -0.24953436331E+03 -0.41480556655E+03  0.36156465876E+03  0.11685339403E+04  0.10002057342E+04 0.  0.
        -13    1    1    2    0    0  0.24953436331E+03  0.41480556655E+03 -0.76419729884E+03  0.90461515532E+03  0.10566000000E+00 0.  1.
         13    1    3    3    0    0 -0.61304767059E+03 -0.16287302690E+03  0.35352957499E+03  0.72618058420E+03  0.10566000000E+00 0. -1.
         -4    1    3    3    0  502  0.36351330728E+03 -0.25193253964E+03  0.80350837727E+01  0.44235335612E+03  0.00000000000E+00 0. -1.
</event>
<event>
 5    1  0.3619194E-005  0.8172163E+02  0.7818608E-02  0.1202070E+00
         -4   -1    0    0    0  501 -0.00000000000E+00  0.00000000000E+00  0.59384336166E+02  0.59384336166E+02  0.00000000000E+00 0. -1.
         21   -1    0    0  501  502  0.00000000000E+00 -0.00000000000E+00 -0.16198842916E+03  0.16198842916E+03  0.00000000000E+00 0.  1.
        -13    1    1    2    0    0 -0.66619044491E+02 -0.36812092408E+02 -0.11581823235E+03  0.13858968701E+03  0.10566000000E+00 0.  1.
         13    1    1    2    0    0  0.56915585367E+02  0.41984574319E+02  0.11387453592E+02  0.71636398582E+02  0.10566000000E+00 0. -1.
         -4    1    1    2    0  502  0.97034591237E+01 -0.51724819106E+01  0.18266857709E+01  0.11146679729E+02  0.00000000000E+00 0. -1.
</event>
<event>
 5    1  0.2569591E-005  0.8406254E+03  0.7818608E-02  0.9010254E-01
          4   -1    0    0  502    0 -0.00000000000E+00  0.00000000000E+00  0.10774217964E+04  0.10774217964E+04  0.00000000000E+00 0.  1.
         21   -1    0    0  501  502  0.00000000000E+00 -0.00000000000E+00 -0.54450817618E+03  0.54450817618E+03  0.00000000000E+00 0. -1.
        -13    1    1    2    0    0 -0.31484721776E+03 -0.12072117728E+03  0.33437784768E+03  0.47487991045E+03  0.10566000000E+00 0.  1.
         13    1    1    2    0    0  0.22716816994E+03  0.59141439910E+03  0.13315956244E+02  0.63368264514E+03  0.10566000000E+00 0. -1.
          4    1    1    2  501    0  0.87679047816E+02 -0.47069322182E+03  0.18521981633E+03  0.51336741702E+03  0.00000000000E+00 0.  1.
</event>
<event>
 5    1  0.2569591E-005  0.4059877E+02  0.7818608E-02  0.1380546E+00
         21   -1    0    0  501  502  0.00000000000E+00  0.00000000000E+00  0.40492810444E+02  0.40492810444E+02  0.00000000000E+00 0. -1.
         -4   -1    0    0    0  501 -0.00000000000E+00 -0.00000000000E+00 -0.21555964093E+02  0.21555964093E+02  0.00000000000E+00 0. -1.
        -13    1    1    2    0    0 -0.13569819581E+02  0.12235253122E+02  0.34384302588E+01  0.18592347595E+02  0.10566000000E+00 0.  1.
         13    1    1    2    0    0 -0.51328014027E+01  0.92732985557E+01  0.97038351784E+01  0.14370640123E+02  0.10566000000E+00 0. -1.
         -4    1    1    2    0  502  0.18702620984E+02 -0.21508551678E+02  0.57945809139E+01  0.29085786819E+02  0.00000000000E+00 0. -1.
</event>
<event>
 6    1  0.2569591E-005  0.1041737E+04  0.7818608E-02  0.8973659E-01
         -4   -1    0    0    0  501 -0.00000000000E+00  0.00000000000E+00  0.31904369295E+04  0.31904369295E+04  0.00000000000E+00 0. -1.
         21   -1    0    0  501  502  0.00000000000E+00 -0.00000000000E+00 -0.16544137723E+03  0.16544137723E+03  0.00000000000E+00 0. -1.
   -9000010    2    1    2    0  502  0.25422236202E+03  0.29063646044E+03  0.19056073959E+04  0.21717632712E+04  0.96753170362E+03 0.  0.
        -13    1    1    2    0    0 -0.25422236202E+03 -0.29063646044E+03  0.11193881564E+04  0.11841150355E+04  0.10566000000E+00 0.  1.
         13    1    3    3    0    0  0.50345407384E+03  0.17712443035E+03  0.47276613922E+03  0.71298450324E+03  0.10566000000E+00 0. -1.
         -4    1    3    3    0  502 -0.24923171182E+03  0.11351203009E+03  0.14328412567E+04  0.14587787680E+04  0.00000000000E+00 0. -1.
</event>
<event>
 6    1  0.2569591E-005  0.1035918E+04  0.7818608E-02  0.9115298E-01
         21   -1    0    0  501  502  0.00000000000E+00  0.00000000000E+00  0.15374148253E+04  0.15374148253E+04  0.00000000000E+00 0. -1.
         -4   -1    0    0    0  501 -0.00000000000E+00 -0.00000000000E+00 -0.27356812324E+03  0.27356812324E+03  0.00000000000E+00 0. -1.
   -9000010    2    1    2    0  502 -0.58540818410E+01 -0.22254376064E+03  0.11870119349E+04  0.15754758610E+04  0.10117148113E+04 0.  0.
        -13    1    1    2    0    0  0.58540818410E+01  0.22254376064E+03  0.76834767201E+02  0.23550708756E+03  0.10566000000E+00 0.  1.
         13    1    3    3    0    0  0.39558249367E+03 -0.37268803801E+02  0.10338418542E+04  0.11075664601E+04  0.10566000000E+00 0. -1.
         -4    1    3    3    0  502 -0.40143657551E+03 -0.18527495684E+03  0.15317008071E+03  0.46790940086E+03  0.00000000000E+00 0. -1.
</event>
<event>
 5    1  0.2569591E-005  0.9258644E+02  0.7818608E-02  0.1192963E+00
         -4   -1    0    0    0  501 -0.00000000000E+00  0.00000000000E+00  0.57566310294E+02  0.57566310294E+02  0.00000000000E+00 0. -1.
         21   -1    0    0  501  502  0.00000000000E+00 -0.00000000000E+00 -0.12095202110E+03  0.12095202110E+03  0.00000000000E+00 0.  1.
        -13    1    1    2    0    0 -0.58800428458E+02  0.26395158951E+02  0.31088904851E+01  0.64528064956E+02  0.10566000000E+00 0.  1.
         13    1    1    2    0    0  0.41397129419E+02 -0.46690597715E+02 -0.59803457483E+02  0.86430312565E+02  0.10566000000E+00 0. -1.
         -4    1    1    2    0  502  0.17403299039E+02  0.20295438764E+02 -0.66911438087E+01  0.27559953874E+02  0.00000000000E+00 0. -1.
</event>
<event>
 5    1  0.2569591E-005  0.2387513E+03  0.7818608E-02  0.1057418E+00
         21   -1    0    0  501  502  0.00000000000E+00  0.00000000000E+00  0.25953478764E+03  0.25953478764E+03  0.00000000000E+00 0.  1.
         -4   -1    0    0    0  501 -0.00000000000E+00 -0.00000000000E+00 -0.29085023647E+03  0.29085023647E+03  0.00000000000E+00 0. -1.
        -13    1    1    2    0    0 -0.12723737638E+03 -0.37642442380E+01  0.18743514933E+03  0.22657331232E+03  0.10566000000E+00 0.  1.
         13    1    1    2    0    0  0.80220200578E+02  0.73876583361E+02 -0.21288245436E+03  0.23919026044E+03  0.10566000000E+00 0. -1.
         -4    1    1    2    0  502  0.47017175805E+02 -0.70112339123E+02 -0.58681438004E+01  0.84621451357E+02  0.00000000000E+00 0. -1.
</event>
<event>
 5    1  0.2569591E-005  0.1500394E+03  0.7818608E-02  0.1128025E+00
         21   -1    0    0  501  502  0.00000000000E+00  0.00000000000E+00  0.46888452788E+03  0.46888452788E+03  0.00000000000E+00 0. -1.
          4   -1    0    0  502    0 -0.00000000000E+00 -0.00000000000E+00 -0.39465361054E+02  0.39465361054E+02  0.00000000000E+00 0.  1.
        -13    1    1    2    0    0 -0.10242489126E+03  0.13821458578E+02  0.12868428928E+03  0.16505013947E+03  0.10566000000E+00 0.  1.
         13    1    1    2    0    0  0.73527048677E+02 -0.45813607916E+01  0.30398737004E+03  0.31278674535E+03  0.10566000000E+00 0. -1.
          4    1    1    2  501    0  0.28897842580E+02 -0.92400977860E+01 -0.32524925014E+01  0.30513004119E+02  0.00000000000E+00 0.  1.
</event>
<event>
 5    1  0.2569591E-005  0.1969378E+03  0.7818608E-02  0.1083855E+00
         -4   -1    0    0    0  501 -0.00000000000E+00  0.00000000000E+00  0.20755991764E+03  0.20755991764E+03  0.00000000000E+00 0. -1.
         21   -1    0    0  501  502  0.00000000000E+00 -0.00000000000E+00 -0.20064096230E+03  0.20064096230E+03  0.00000000000E+00 0.  1.
        -13    1    1    2    0    0  0.10401840323E+03  0.22770303952E+02 -0.13022410270E+03  0.16821606059E+03  0.10566000000E+00 0.  1.
         13    1    1    2    0    0 -0.12087103873E+03 -0.47038975816E+02  0.35986122513E+02  0.13460120886E+03  0.10566000000E+00 0. -1.
         -4    1    1    2    0  502  0.16852635502E+02  0.24268671863E+02  0.10115693552E+03  0.10538361049E+03  0.00000000000E+00 0. -1.
</event>
<event>
 6    1  0.2569591E-005  0.1047688E+04  0.7818608E-02  0.9030310E-01
         -4   -1    0    0    0  501 -0.00000000000E+00  0.00000000000E+00  0.15007384708E+04  0.15007384708E+04  0.00000000000E+00 0. -1.
         21   -1    0    0  501  502  0.00000000000E+00 -0.00000000000E+00 -0.32126085570E+03  0.32126085570E+03  0.00000000000E+00 0. -1.
   -9000010    2    1    2    0  502 -0.10383714886E+03 -0.28344016714E+03  0.71632884838E+03  0.12691636609E+04  0.10032591377E+04 0.  0.
        -13    1    1    2    0    0  0.10383714886E+03  0.28344016714E+03  0.46314876673E+03  0.55283566557E+03  0.10566000000E+00 0.  1.
         13    1    3    3    0    0 -0.34891760242E+03  0.21300007870E+03  0.64344562254E+02  0.41382696947E+03  0.10566000000E+00 0. -1.
         -4    1    3    3    0  502  0.24508045356E+03 -0.49644024584E+03  0.65198428613E+03  0.85533669147E+03  0.00000000000E+00 0. -1.
</event>
<event>
 5    1  0.2569591E-005  0.4087367E+02  0.7818608E-02  0.1370241E+00
          4   -1    0    0  502    0 -0.00000000000E+00  0.00000000000E+00  0.72564748117E+02  0.72564748117E+02  0.00000000000E+00 0.  1.
         21   -1    0    0  501  502  0.00000000000E+00 -0.00000000000E+00 -0.14947587538E+02  0.14947587538E+02  0.00000000000E+00 0. -1.
        -13    1    1    2    0    0 -0.20363919115E+02 -0.18723854137E+02  0.37539713903E+02  0.46631675923E+02  0.10566000000E+00 0.  1.
         13    1    1    2    0    0  0.20617869236E+02  0.57577513337E+01  0.71502994078E+01  0.22569585240E+02  0.10566000000E+00 0. -1.
          4    1    1    2  501    0 -0.25395012076E+00  0.12966102803E+02  0.12927147268E+02  0.18311074492E+02  0.00000000000E+00 0.  1.
</event>
<event>
 6    1  0.2569591E-005  0.1121321E+04  0.7818608E-02  0.8869660E-01
         -4   -1    0    0    0  501 -0.00000000000E+00  0.00000000000E+00  0.23325512670E+03  0.23325512670E+03  0.00000000000E+00 0. -1.
         21   -1    0    0  501  502  0.00000000000E+00 -0.00000000000E+00 -0.29650782399E+04  0.29650782399E+04  0.00000000000E+00 0.  1.
   -9000010    2    1    2    0  502 -0.96282145875E+02  0.46534591702E+03 -0.14619532759E+04  0.18424622485E+04  0.10156488970E+04 0.  0.
        -13    1    1    2    0    0  0.96282145875E+02 -0.46534591702E+03 -0.12698698373E+04  0.13558711181E+04  0.10566000000E+00 0.  1.
         13    1    3    3    0    0  0.22221293887E+03  0.31021769531E+03 -0.14375756925E+04  0.14873592342E+04  0.10566000000E+00 0. -1.
         -4    1    3    3    0  502 -0.31849508475E+03  0.15512822171E+03 -0.24377583383E+02  0.35510301428E+03  0.00000000000E+00 0. -1.
</event>
<event>
 6    1  0.2569591E-005  0.1087624E+04  0.7818608E-02  0.8922418E-01
         -4   -1    0    0    0  501 -0.00000000000E+00  0.00000000000E+00  0.30912796065E+04  0.30912796065E+04  0.00000000000E+00 0. -1.
         21   -1    0    0  501  502  0.00000000000E+00 -0.00000000000E+00 -0.18346946039E+03  0.18346946039E+03  0.00000000000E+00 0. -1.
   -9000010    2    1    2    0  502 -0.41449896590E+03  0.57739532788E+02  0.21138217712E+04  0.23772186790E+04  0.10038839183E+04 0.  0.
        -13    1    1    2    0    0  0.41449896590E+03 -0.57739532788E+02  0.79398837492E+03  0.89753038782E+03  0.10566000000E+00 0.  1.
         13    1    3    3    0    0 -0.20521898418E+03  0.15037895709E+02 -0.42693471944E+02  0.21015164402E+03  0.10566000000E+00 0. -1.
         -4    1    3    3    0  502 -0.20927998172E+03  0.42701637080E+02  0.21565152431E+04  0.21670670350E+04  0.00000000000E+00 0. -1.
</event>
<event>
 6    1  0.2569591E-005  0.1221165E+04  0.7818608E-02  0.8697039E-01
         -4   -1    0    0    0  501 -0.00000000000E+00  0.00000000000E+00  0.19079445761E+04  0.19079445761E+04  0.00000000000E+00 0. -1.
         21   -1    0    0  501  502  0.00000000000E+00 -0.00000000000E+00 -0.63025408781E+03  0.63025408781E+03  0.00000000000E+00 0. -1.
   -9000010    2    1    2    0  502  0.21957007722E+03  0.73400216715E+03  0.23382021050E+03  0.12433491097E+04  0.95093370823E+03 0.  0.
        -13    1    1    2    0    0 -0.21957007722E+03 -0.73400216715E+03  0.10438702778E+04  0.12948495543E+04  0.10566000000E+00 0.  1.
         13    1    3    3    0    0  0.21774372379E+03 -0.12000857127E+03 -0.16745632310E+03  0.29975993351E+03  0.10566000000E+00 0. -1.
         -4    1    3    3    0  502  0.18263534246E+01  0.85401073842E+03  0.40127653360E+03  0.94358917614E+03  0.00000000000E+00 0. -1.
</event>
<event>
 6    1  0.2569591E-005  0.1043452E+04  0.7818608E-02  0.9012247E-01
         -4   -1    0    0    0  501 -0.00000000000E+00  0.00000000000E+00  0.15923523767E+04  0.15923523767E+04  0.00000000000E+00 0. -1.
         21   -1    0    0  501  502  0.00000000000E+00 -0.00000000000E+00 -0.30474524024E+03  0.30474524024E+03  0.00000000000E+00 0. -1.
   -9000010    2    1    2    0  502  0.14170273196E+03 -0.29648028233E+03  0.82776126663E+03  0.13319087483E+04  0.99035951919E+03 0.  0.
        -13    1    1    2    0    0 -0.14170273196E+03  0.29648028233E+03  0.45984586981E+03  0.56518886861E+03  0.10566000000E+00 0.  1.
         13    1    3    3    0    0 -0.30258054648E+03 -0.12508225250E+03 -0.52017212448E+02  0.33152127919E+03  0.10566000000E+00 0. -1.
         -4    1    3    3    0  502  0.44428327844E+03 -0.17139802982E+03  0.87977847908E+03  0.10003874691E+04  0.00000000000E+00 0. -1.
</event>
<event>
 5    1  0.2569591E-005  0.2364105E+03  0.7818608E-02  0.1063018E+00
          4   -1    0    0  502    0 -0.00000000000E+00  0.00000000000E+00  0.10028629056E+03  0.10028629056E+03  0.00000000000E+00 0.  1.
         21   -1    0    0  501  502  0.00000000000E+00 -0.00000000000E+00 -0.40286248013E+03  0.40286248013E+03  0.00000000000E+00 0.  1.
        -13    1    1    2    0    0 -0.86763160846E+02  0.93835940385E+02 -0.33179909718E+03  0.35556108032E+03  0.10566000000E+00 0.  1.
         13    1    1    2    0    0  0.56984568021E+02 -0.95668399402E+02  0.93622067954E+01  0.11174679287E+03  0.10566000000E+00 0. -1.
          4    1    1    2  501    0  0.29778592824E+02  0.18324590167E+01  0.19860700809E+02  0.35840897496E+02  0.00000000000E+00 0.  1.
</event>
<event>
 6    1  0.2569591E-005  0.1387131E+04  0.7818608E-02  0.8559001E-01
          4   -1    0    0  502    0 -0.00000000000E+00  0.00000000000E+00  0.21885057929E+04  0.21885057929E+04  0.00000000000E+00 0.  1.
         21   -1    0    0  501  502  0.00000000000E+00 -0.00000000000E+00 -0.64736012414E+03  0.64736012414E+03  0.00000000000E+00 0. -1.
    9000010    2    1    2  501    0  0.97945442180E+02 -0.95509721426E+03  0.67432572252E+03  0.15423510046E+04  0.10011630452E+04 0.  0.
        -13    1    3    3    0    0 -0.18835082265E+03 -0.12797587432E+03 -0.20155418604E+03  0.30410188732E+03  0.10566000000E+00 0.  1.
         13    1    1    2    0    0 -0.97945442180E+02  0.95509721426E+03  0.86681994625E+03  0.12935149124E+04  0.10566000000E+00 0. -1.
          4    1    3    3  501    0  0.28629626483E+03 -0.82712133994E+03  0.87587990856E+03  0.12382491173E+04  0.00000000000E+00 0.  1.
</event>
<event>
 6    1  0.2569591E-005  0.1088646E+04  0.7818608E-02  0.9001557E-01
          4   -1    0    0  502    0 -0.00000000000E+00  0.00000000000E+00  0.58968452707E+03  0.58968452707E+03  0.00000000000E+00 0.  1.
         21   -1    0    0  501  502  0.00000000000E+00 -0.00000000000E+00 -0.88714062651E+03  0.88714062651E+03  0.00000000000E+00 0.  1.
    9000010    2    1    2  501    0 -0.28976640208E+03  0.85524911491E+02 -0.39692292400E+03  0.11587485298E+04  0.10458830094E+04 0.  0.
        -13    1    3    3    0    0  0.22323240045E+03 -0.22964961313E+03 -0.45220832844E+03  0.55413358759E+03  0.10566000000E+00 0.  1.
         13    1    1    2    0    0  0.28976640208E+03 -0.85524911491E+02  0.99466824555E+02  0.31807662381E+03  0.10566000000E+00 0. -1.
          4    1    3    3  501    0 -0.51299880253E+03  0.31517452462E+03  0.55285404444E+02  0.60461494218E+03  0.00000000000E+00 0.  1.
</event>
<event>
 5    1  0.2569591E-005  0.3724867E+03  0.7818608E-02  0.9838653E-01
         21   -1    0    0  501  502  0.00000000000E+00  0.00000000000E+00  0.30184841241E+03  0.30184841241E+03  0.00000000000E+00 0.  1.
         -4   -1    0    0    0  501 -0.00000000000E+00 -0.00000000000E+00 -0.45085788578E+03  0.45085788578E+03  0.00000000000E+00 0. -1.
        -13    1    1    2    0    0 -0.24148033237E+03 -0.23978320079E+03  0.25712747126E+02  0.34127685365E+03  0.10566000000E+00 0.  1.
         13    1    1    2    0    0  0.18358219074E+03  0.11104125910E+03 -0.16363758002E+03  0.26983300528E+03  0.10566000000E+00 0. -1.
         -4    1    1    2    0  502  0.57898141632E+02  0.12874194170E+03 -0.11084640473E+02  0.14159643926E+03  0.00000000000E+00 0. -1.
</event>
<event>
 5    1  0.2569591E-005  0.1016661E+03  0.7818608E-02  0.1166175E+00
         21   -1    0    0  501  502  0.00000000000E+00  0.00000000000E+00  0.12346887888E+03  0.12346887888E+03  0.00000000000E+00 0.  1.
         -4   -1    0    0    0  501 -0.00000000000E+00 -0.00000000000E+00 -0.79958902665E+02  0.79958902665E+02  0.00000000000E+00 0. -1.
        -13    1    1    2    0    0 -0.59204750573E+02  0.69782892864E+02  0.44492846707E+02  0.10175696143E+03  0.10566000000E+00 0.  1.
         13    1    1    2    0    0  0.45046013733E+01 -0.25531306299E+02 -0.14967261110E+02  0.29936083645E+02  0.10566000000E+00 0. -1.
         -4    1    1    2    0  502  0.54700149199E+02 -0.44251586565E+02  0.13984390620E+02  0.71734736474E+02  0.00000000000E+00 0. -1.
</event>
<event>
 6    1  0.2569591E-005  0.1001154E+04  0.7818608E-02  0.9170717E-01
         21   -1    0    0  501  502  0.00000000000E+00  0.00000000000E+00  0.15648852020E+04  0.15648852020E+04  0.00000000000E+00 0. -1.
         -4   -1    0    0    0  501 -0.00000000000E+00 -0.00000000000E+00 -0.29492106327E+03  0.29492106327E+03  0.00000000000E+00 0. -1.
   -9000010    2    1    2    0  502  0.25120217650E+02  0.19684791815E+03  0.13184916558E+04  0.16555146616E+04  0.98128916233E+03 0.  0.
        -13    1    1    2    0    0 -0.25120217650E+02 -0.19684791815E+03 -0.48527517160E+02  0.20429160360E+03  0.10566000000E+00 0.  1.
         13    1    3    3    0    0 -0.27449707198E+03  0.45408463016E+03  0.10546049131E+04  0.11805647072E+04  0.10566000000E+00 0. -1.
         -4    1    3    3    0  502  0.29961728963E+03 -0.25723671201E+03  0.26388674272E+03  0.47494995445E+03  0.00000000000E+00 0. -1.
</event>
<event>
 6    1  0.2569591E-005  0.1042302E+04  0.7818608E-02  0.9068039E-01
         21   -1    0    0  501  502  0.00000000000E+00  0.00000000000E+00  0.18026481861E+03  0.18026481861E+03  0.00000000000E+00 0. -1.
         -4   -1    0    0    0  501 -0.00000000000E+00 -0.00000000000E+00 -0.25437768923E+04  0.25437768923E+04  0.00000000000E+00 0. -1.
   -9000010    2    1    2    0  502 -0.16305457081E+03 -0.20712507651E+03 -0.15416071578E+04  0.18608990272E+04  0.10084170617E+04 0.  0.
        -13    1    1    2    0    0  0.16305457081E+03  0.20712507651E+03 -0.82190491596E+03  0.86314268370E+03  0.10566000000E+00 0.  1.
         13    1    3    3    0    0 -0.12560579194E+02 -0.17862450888E+03  0.10473562809E+03  0.20744649016E+03  0.10566000000E+00 0. -1.
         -4    1    3    3    0  502 -0.15049399162E+03 -0.28500567624E+02 -0.16463427859E+04  0.16534525371E+04  0.00000000000E+00 0. -1.
</event>
<event>
 6    1  0.2569591E-005  0.1314986E+04  0.7818608E-02  0.8618305E-01
         -4   -1    0    0    0  501 -0.00000000000E+00  0.00000000000E+00  0.26761755916E+04  0.26761755916E+04  0.00000000000E+00 0. -1.
         21   -1    0    0  501  502  0.00000000000E+00 -0.00000000000E+00 -0.54108031959E+03  0.54108031959E+03  0.00000000000E+00 0.  1.
   -9000010    2    1    2    0  502  0.11062636267E+03 -0.85870618379E+03  0.57963629151E+03  0.14370685184E+04  0.98973390059E+03 0.  0.
        -13    1    1    2    0    0 -0.11062636267E+03  0.85870618379E+03  0.15554589805E+04  0.17801873927E+04  0.10566000000E+00 0.  1.
         13    1    3    3    0    0  0.20070590093E+03 -0.41760571561E+03 -0.22497857955E+03  0.51506578686E+03  0.10566000000E+00 0. -1.
         -4    1    3    3    0  502 -0.90079538259E+02 -0.44110046818E+03  0.80461487107E+03  0.92200273155E+03  0.00000000000E+00 0. -1.
</event>
<event>
 6    1  0.2569591E-005  0.1286631E+04  0.7818608E-02  0.8648586E-01
         -4   -1    0    0    0  501 -0.00000000000E+00  0.00000000000E+00  0.16696834976E+04  0.16696834976E+04  0.00000000000E+00 0. -1.
         21   -1    0    0  501  502  0.00000000000E+00 -0.00000000000E+00 -0.67143145583E+03  0.67143145583E+03  0.00000000000E+00 0. -1.
   -9000010    2    1    2    0  502 -0.80660655898E+03 -0.62776195286E+02  0.44678434160E+03  0.13619971734E+04  0.10004324369E+04 0.  0.
        -13    1    1    2    0    0  0.80660655898E+03  0.62776195286E+02  0.55146770019E+03  0.97911778005E+03  0.10566000000E+00 0.  1.
         13    1    3    3    0    0  0.14317210924E+03 -0.16729723297E+03 -0.12026048601E+03  0.25089681680E+03  0.10566000000E+00 0. -1.
         -4    1    3    3    0  502 -0.94977866822E+03  0.10452103768E+03  0.56704482761E+03  0.11111003566E+04  0.00000000000E+00 0. -1.
</event>
<event>
 5    1  0.2569591E-005  0.1099314E+03  0.7818608E-02  0.1160087E+00
         21   -1    0    0  501  502  0.00000000000E+00  0.00000000000E+00  0.28336181968E+02  0.28336181968E+02  0.00000000000E+00 0. -1.
          4   -1    0    0  502    0 -0.00000000000E+00 -0.00000000000E+00 -0.34601719170E+03  0.34601719170E+03  0.00000000000E+00 0.  1.
        -13    1    1    2    0    0 -0.36801201028E+02 -0.62401696113E+02 -0.20261513642E+03  0.21517714736E+03  0.10566000000E+00 0.  1.
         13    1    1    2    0    0  0.21366252433E+02  0.81128168415E+02 -0.10033442995E+03  0.13078725263E+03  0.10566000000E+00 0. -1.
          4    1    1    2  501    0  0.15434948595E+02 -0.18726472302E+02 -0.14731443362E+02  0.28388973679E+02  0.00000000000E+00 0.  1.
</event>
<event>
 6    1  0.2569591E-005  0.1106967E+04  0.7818608E-02  0.8879826E-01
         21   -1    0    0  501  502  0.00000000000E+00  0.00000000000E+00  0.30112233126E+03  0.30112233126E+03  0.00000000000E+00 0.  1.
          4   -1    0    0  502    0 -0.00000000000E+00 -0.00000000000E+00 -0.21234796172E+04  0.21234796172E+04  0.00000000000E+00 0.  1.
    9000010    2    1    2  501    0 -0.13680278829E+03  0.45326485468E+03 -0.10974233298E+04  0.15587536458E+04  0.10006052828E+04 0.  0.
        -13    1    3    3    0    0  0.40495495862E+03  0.14032016146E+03 -0.22177398082E+03  0.48255774365E+03  0.10566000000E+00 0.  1.
         13    1    1    2    0    0  0.13680278829E+03 -0.45326485468E+03 -0.72493395619E+03  0.86584830275E+03  0.10566000000E+00 0. -1.
          4    1    3    3  501    0 -0.54175774691E+03  0.31294469322E+03 -0.87564934897E+03  0.10761959021E+04  0.00000000000E+00 0.  1.
</event>
<event>
 6    1  0.2569591E-005  0.1298595E+04  0.7818608E-02  0.8628006E-01
         21   -1    0    0  501  502  0.00000000000E+00  0.00000000000E+00  0.32581586130E+03  0.32581586130E+03  0.00000000000E+00 0. -1.
          4   -1    0    0  502    0 -0.00000000000E+00 -0.00000000000E+00 -0.36393787172E+04  0.36393787172E+04  0.00000000000E+00 0.  1.
    9000010    2    1    2  501    0  0.37389249807E+03 -0.77597626295E+03 -0.22352270221E+04  0.25850703296E+04  0.97180965625E+03 0.  0.
        -13    1    3    3    0    0  0.23657657579E+03 -0.64525372900E+03 -0.52622096799E+03  0.86558036560E+03  0.10566000000E+00 0.  1.
         13    1    1    2    0    0 -0.37389249807E+03  0.77597626295E+03 -0.10783358339E+04  0.13801242489E+04  0.10566000000E+00 0. -1.
          4    1    3    3  501    0  0.13731592228E+03 -0.13072253395E+03 -0.17090060541E+04  0.17194899640E+04  0.00000000000E+00 0.  1.
</event>
<event>
 6    1  0.2569591E-005  0.1148465E+04  0.7818608E-02  0.8811549E-01
         -4   -1    0    0    0  501 -0.00000000000E+00  0.00000000000E+00  0.18219983200E+04  0.18219983200E+04  0.00000000000E+00 0. -1.
         21   -1    0    0  501  502  0.00000000000E+00 -0.00000000000E+00 -0.49272869765E+03  0.49272869765E+03  0.00000000000E+00 0. -1.
   -9000010    2    1    2    0  502 -0.38944143443E+03  0.40852262426E+03  0.37882454223E+03  0.12093306060E+04  0.10002085360E+04 0.  0.
        -13    1    1    2    0    0  0.38944143443E+03 -0.40852262426E+03  0.95044508010E+03  0.11053964116E+04  0.10566000000E+00 0.  1.
         13    1    3    3    0    0 -0.55242607694E+03  0.32771173929E+03 -0.14184835675E+03  0.65779215716E+03  0.10566000000E+00 0. -1.
         -4    1    3    3    0  502  0.16298464251E+03  0.80810884972E+02  0.52067289898E+03  0.55153844884E+03  0.00000000000E+00 0. -1.
</event>
<event>
 6    1  0.2569591E-005  0.1158517E+04  0.7818608E-02  0.8803921E-01
         21   -1    0    0  501  502  0.00000000000E+00  0.00000000000E+00  0.30650059627E+03  0.30650059627E+03  0.00000000000E+00 0. -1.
          4   -1    0    0  502    0 -0.00000000000E+00 -0.00000000000E+00 -0.28408976294E+04  0.28408976294E+04  0.00000000000E+00 0.  1.
    9000010    2    1    2  501    0 -0.38985623840E+03  0.41288669199E+03 -0.10711352874E+04  0.15778128490E+04  0.10098016021E+04 0.  0.
        -13    1    3    3    0    0 -0.32830402005E+03  0.98338793738E+02  0.10527624816E+03  0.35852077698E+03  0.10566000000E+00 0.  1.
         13    1    1    2    0    0  0.38985623840E+03 -0.41288669199E+03 -0.14632617457E+04  0.15695853767E+04  0.10566000000E+00 0. -1.
          4    1    3    3  501    0 -0.61552218349E+02  0.31454789825E+03 -0.11764115356E+04  0.12192920720E+04  0.00000000000E+00 0.  1.
</event>
<event>
 6    1  0.2569591E-005  0.9980056E+03  0.7818608E-02  0.9847627E-01
         -4   -1    0    0    0  501 -0.00000000000E+00  0.00000000000E+00  0.51056502489E+03  0.51056502489E+03  0.00000000000E+00 0. -1.
         21   -1    0    0  501  502  0.00000000000E+00 -0.00000000000E+00 -0.50826815242E+03  0.50826815242E+03  0.00000000000E+00 0. -1.
   -9000010    2    1    2    0  502 -0.79276196659E+01  0.15222985299E+02 -0.94223688595E+01  0.99805005396E+03  0.99785797724E+03 0.  0.
        -13    1    1    2    0    0  0.79276196659E+01 -0.15222985299E+02  0.11719241326E+02  0.20783123353E+02  0.10566000000E+00 0.  1.
         13    1    3    3    0    0 -0.40494743542E+03 -0.27492192781E+03 -0.95909856535E+02  0.49876167013E+03  0.10566000000E+00 0. -1.
         -4    1    3    3    0  502  0.39701981575E+03  0.29014491311E+03  0.86487487675E+02  0.49928838383E+03  0.00000000000E+00 0. -1.
</event>
<event>
 6    1  0.2569591E-005  0.1467036E+04  0.7818608E-02  0.8498163E-01
         21   -1    0    0  501  502  0.00000000000E+00  0.00000000000E+00  0.98290609171E+03  0.98290609171E+03  0.00000000000E+00 0.  1.
         -4   -1    0    0    0  501 -0.00000000000E+00 -0.00000000000E+00 -0.19454099397E+04  0.19454099397E+04  0.00000000000E+00 0. -1.
   -9000010    2    1    2    0  502  0.72619424699E+03 -0.78272093540E+03  0.34561625069E+02  0.14674431020E+04  0.10060738565E+04 0.  0.
        -13    1    1    2    0    0 -0.72619424699E+03  0.78272093540E+03 -0.99706547305E+03  0.14608729294E+04  0.10566000000E+00 0.  1.
         13    1    3    3    0    0  0.62699646583E+03 -0.83280721113E+03  0.37615017536E+03  0.11082334522E+04  0.10566000000E+00 0. -1.
         -4    1    3    3    0  502  0.99197781166E+02  0.50086275727E+02 -0.34158855029E+03  0.35920964978E+03  0.00000000000E+00 0. -1.
</event>
<event>
 6    1  0.2569591E-005  0.9457074E+03  0.7818608E-02  0.9174245E-01
          4   -1    0    0  502    0 -0.00000000000E+00  0.00000000000E+00  0.14996889887E+04  0.14996889887E+04  0.00000000000E+00 0.  1.
         21   -1    0    0  501  502  0.00000000000E+00 -0.00000000000E+00 -0.23150872463E+03  0.23150872463E+03  0.00000000000E+00 0. -1.
    9000010    2    1    2  501    0  0.22766338118E+03  0.45770795922E+02  0.10385236386E+04  0.14045974107E+04  0.91675348778E+03 0.  0.
        -13    1    3    3    0    0  0.24620788035E+03 -0.39259519645E+03  0.32160669001E+03  0.56407462525E+03  0.10566000000E+00 0.  1.
         13    1    1    2    0    0 -0.22766338118E+03 -0.45770795922E+02  0.22965662548E+03  0.32660030264E+03  0.10566000000E+00 0. -1.
          4    1    3    3  501    0 -0.18544499171E+02  0.43836599237E+03  0.71691694860E+03  0.84052278548E+03  0.00000000000E+00 0.  1.
</event>
<event>
 6    1  0.2569591E-005  0.1020503E+04  0.7818608E-02  0.9118445E-01
          4   -1    0    0  502    0 -0.00000000000E+00  0.00000000000E+00  0.25718670829E+04  0.25718670829E+04  0.00000000000E+00 0.  1.
         21   -1    0    0  501  502  0.00000000000E+00 -0.00000000000E+00 -0.17549124743E+03  0.17549124743E+03  0.00000000000E+00 0.  1.
    9000010    2    1    2  501    0  0.22634898487E+03 -0.40760745640E+02  0.14478926314E+04  0.17713892218E+04  0.99424916474E+03 0.  0.
        -13    1    3    3    0    0 -0.30872626634E+03  0.21053896127E+03  0.29618006206E+03  0.47682407874E+03  0.10566000000E+00 0.  1.
         13    1    1    2    0    0 -0.22634898487E+03  0.40760745640E+02  0.94848320404E+03  0.97596910855E+03  0.10566000000E+00 0. -1.
          4    1    3    3  501    0  0.53507525120E+03 -0.25129970691E+03  0.11517125694E+04  0.12945651431E+04  0.00000000000E+00 0.  1.
</event>
<event>
 5    1  0.2569591E-005  0.9395644E+02  0.7818608E-02  0.1177617E+00
         -4   -1    0    0    0  501 -0.00000000000E+00  0.00000000000E+00  0.52435522365E+02  0.52435522365E+02  0.00000000000E+00 0. -1.
         21   -1    0    0  501  502  0.00000000000E+00 -0.00000000000E+00 -0.15998847880E+03  0.15998847880E+03  0.00000000000E+00 0.  1.
        -13    1    1    2    0    0  0.79485358967E+02  0.38287419488E+02 -0.63187561329E+02  0.10851971181E+03  0.10566000000E+00 0.  1.
         13    1    1    2    0    0 -0.33460411470E+02 -0.32642930297E+02 -0.15335823298E+02  0.49197140917E+02  0.10566000000E+00 0. -1.
         -4    1    1    2    0  502 -0.46024947498E+02 -0.56444891901E+01 -0.29029571805E+02  0.54707148432E+02  0.00000000000E+00 0. -1.
</event>
<event>
 6    1  0.2569591E-005  0.1355767E+04  0.7818608E-02  0.8576532E-01
          4   -1    0    0  502    0 -0.00000000000E+00  0.00000000000E+00  0.19650095639E+04  0.19650095639E+04  0.00000000000E+00 0.  1.
         21   -1    0    0  501  502  0.00000000000E+00 -0.00000000000E+00 -0.71573428698E+03  0.71573428698E+03  0.00000000000E+00 0. -1.
    9000010    2    1    2  501    0 -0.20530201154E+03  0.92840863471E+03  0.10359966974E+04  0.17062802689E+04  0.96644280234E+03 0.  0.
        -13    1    3    3    0    0 -0.58109832937E+03  0.48919472360E+03  0.44863971808E+03  0.88219292323E+03  0.10566000000E+00 0.  1.
         13    1    1    2    0    0  0.20530201154E+03 -0.92840863471E+03  0.21327857959E+03  0.97446358199E+03  0.10566000000E+00 0. -1.
          4    1    3    3  501    0  0.37579631783E+03  0.43921391111E+03  0.58735697927E+03  0.82408734568E+03  0.00000000000E+00 0.  1.
</event>
<event>
 5    1  0.2569591E-005  0.6886297E+02  0.7818608E-02  0.1251763E+00
         21   -1    0    0  501  502  0.00000000000E+00  0.00000000000E+00  0.11692133000E+03  0.11692133000E+03  0.00000000000E+00 0. -1.
          4   -1    0    0  502    0 -0.00000000000E+00 -0.00000000000E+00 -0.31709250005E+02  0.31709250005E+02  0.00000000000E+00 0.  1.
        -13    1    1    2    0    0  0.21902466021E+02 -0.18686736741E+02 -0.64055305190E+01  0.29494984880E+02  0.10566000000E+00 0.  1.
         13    1    1    2    0    0 -0.13849392513E+01  0.43062879607E+02  0.62903426437E+02  0.76244225213E+02  0.10566000000E+00 0. -1.
          4    1    1    2  501    0 -0.20517526770E+02 -0.24376142866E+02  0.28714184079E+02  0.42891369914E+02  0.00000000000E+00 0.  1.
</event>
<event>
 5    1  0.2569591E-005  0.1545830E+03  0.7818608E-02  0.1108024E+00
          4   -1    0    0  502    0 -0.00000000000E+00  0.00000000000E+00  0.14221749734E+04  0.14221749734E+04  0.00000000000E+00 0.  1.
         21   -1    0    0  501  502  0.00000000000E+00 -0.00000000000E+00 -0.12670015065E+02  0.12670015065E+02  0.00000000000E+00 0. -1.
        -13    1    1    2    0    0  0.14188068307E+02 -0.10169714023E+03  0.60535679558E+03  0.61400364065E+03  0.10566000000E+00 0.  1.
         13    1    1    2    0    0  0.34447009194E+02  0.10848172544E+03  0.61361147652E+03  0.62407846980E+03  0.10566000000E+00 0. -1.
          4    1    1    2  501    0 -0.48635077501E+02 -0.67845852024E+01  0.19053668623E+03  0.19676287800E+03  0.00000000000E+00 0.  1.
</event>
<event>
 6    1  0.2569591E-005  0.1007532E+04  0.7818608E-02  0.9209086E-01
         21   -1    0    0  501  502  0.00000000000E+00  0.00000000000E+00  0.41044466798E+03  0.41044466798E+03  0.00000000000E+00 0. -1.
         -4   -1    0    0    0  501 -0.00000000000E+00 -0.00000000000E+00 -0.85977834350E+03  0.85977834350E+03  0.00000000000E+00 0. -1.
   -9000010    2    1    2    0  502  0.16774994202E+03  0.57200399785E+00 -0.44755198594E+03  0.11024625995E+04  0.99346898945E+03 0.  0.
        -13    1    1    2    0    0 -0.16774994202E+03 -0.57200399785E+00 -0.17816895780E+01  0.16776041195E+03  0.10566000000E+00 0.  1.
         13    1    3    3    0    0  0.30384428618E+03  0.32177771719E+03  0.99535069609E+02  0.45361822138E+03  0.10566000000E+00 0. -1.
         -4    1    3    3    0  502 -0.13609434416E+03 -0.32120571319E+03 -0.54708705555E+03  0.64884437815E+03  0.00000000000E+00 0. -1.
</event>
<event>
 6    1  0.2569591E-005  0.1023995E+04  0.7818608E-02  0.9108190E-01
         21   -1    0    0  501  502  0.00000000000E+00  0.00000000000E+00  0.65827360798E+03  0.65827360798E+03  0.00000000000E+00 0.  1.
          4   -1    0    0  502    0 -0.00000000000E+00 -0.00000000000E+00 -0.66977993232E+03  0.66977993232E+03  0.00000000000E+00 0.  1.
    9000010    2    1    2  501    0  0.22283447890E+03  0.80850930916E+02 -0.17669125746E+03  0.10391276825E+04  0.99617993457E+03 0.  0.
        -13    1    3    3    0    0  0.41634935265E+03 -0.35116873420E+03 -0.38695096748E+02  0.54604357427E+03  0.10566000000E+00 0.  1.
         13    1    1    2    0    0 -0.22283447890E+03 -0.80850930916E+02  0.16518493312E+03  0.28892585781E+03  0.10566000000E+00 0. -1.
          4    1    3    3  501    0 -0.19351487375E+03  0.43201966512E+03 -0.13799616071E+03  0.49308410822E+03  0.00000000000E+00 0.  1.
</event>
<event>
 6    1  0.2569591E-005  0.1063699E+04  0.7818608E-02  0.8965499E-01
         21   -1    0    0  501  502  0.00000000000E+00  0.00000000000E+00  0.27028629961E+03  0.27028629961E+03  0.00000000000E+00 0. -1.
         -4   -1    0    0    0  501 -0.00000000000E+00 -0.00000000000E+00 -0.22892038151E+04  0.22892038151E+04  0.00000000000E+00 0. -1.
   -9000010    2    1    2    0  502 -0.36072552491E+03  0.10236395001E+03 -0.94804209116E+03  0.14248644195E+04  0.99541625707E+03 0.  0.
        -13    1    1    2    0    0  0.36072552491E+03 -0.10236395001E+03 -0.10708754243E+04  0.11346256952E+04  0.10566000000E+00 0.  1.
         13    1    3    3    0    0 -0.16473180769E+03 -0.18596219908E+03  0.13803383200E+03  0.28420390197E+03  0.10566000000E+00 0. -1.
         -4    1    3    3    0  502 -0.19599371722E+03  0.28832614909E+03 -0.10860759232E+04  0.11406605176E+04  0.00000000000E+00 0. -1.
</event>
<event>
 6    1  0.2569591E-005  0.1069420E+04  0.7818608E-02  0.8949345E-01
         -4   -1    0    0    0  501 -0.00000000000E+00  0.00000000000E+00  0.16190326078E+04  0.16190326078E+04  0.00000000000E+00 0. -1.
         21   -1    0    0  501  502  0.00000000000E+00 -0.00000000000E+00 -0.33092608233E+03  0.33092608233E+03  0.00000000000E+00 0. -1.
   -9000010    2    1    2    0  502  0.11603925224E+03 -0.37668996516E+03  0.92181258560E+03  0.14118771912E+04  0.99413194404E+03 0.  0.
        -13    1    1    2    0    0 -0.11603925224E+03  0.37668996516E+03  0.36629393982E+03  0.53808149887E+03  0.10566000000E+00 0.  1.
         13    1    3    3    0    0 -0.43028506706E+02 -0.69937659337E+03  0.52019135479E+03  0.87268443810E+03  0.10566000000E+00 0. -1.
         -4    1    3    3    0  502  0.15906775895E+03  0.32268662821E+03  0.40162123081E+03  0.53919275310E+03  0.00000000000E+00 0. -1.
</event>
<event>
 6    1  0.2569591E-005  0.1055098E+04  0.7818608E-02  0.9024323E-01
         21   -1    0    0  501  502  0.00000000000E+00  0.00000000000E+00  0.13868402318E+03  0.13868402318E+03  0.00000000000E+00 0. -1.
          4   -1    0    0  502    0 -0.00000000000E+00 -0.00000000000E+00 -0.42135056617E+04  0.42135056617E+04  0.00000000000E+00 0.  1.
    9000010    2    1    2  501    0  0.25256722392E+03 -0.16692867896E+03 -0.37984566288E+04  0.39422713806E+04  0.10107301770E+04 0.  0.
        -13    1    3    3    0    0 -0.27808257120E+03 -0.30612858277E+03 -0.87539570783E+03  0.96817471669E+03  0.10566000000E+00 0.  1.
         13    1    1    2    0    0 -0.25256722392E+03  0.16692867896E+03 -0.27636500971E+03  0.40991830432E+03  0.10566000000E+00 0. -1.
          4    1    3    3  501    0  0.53064979512E+03  0.13919990381E+03 -0.29230609210E+04  0.29740966639E+04  0.00000000000E+00 0.  1.
</event>
<event>
 5    1  0.2569591E-005  0.2601407E+03  0.7818608E-02  0.1065018E+00
         21   -1    0    0  501  502  0.00000000000E+00  0.00000000000E+00  0.11005346419E+03  0.11005346419E+03  0.00000000000E+00 0.  1.
          4   -1    0    0  502    0 -0.00000000000E+00 -0.00000000000E+00 -0.30290771755E+03  0.30290771755E+03  0.00000000000E+00 0.  1.
        -13    1    1    2    0    0  0.39967994523E+02 -0.10654267444E+03 -0.13289076458E+03  0.17495356109E+03  0.10566000000E+00 0.  1.
         13    1    1    2    0    0 -0.73587899155E+02 -0.28383216199E+02  0.14621611631E+02  0.80215887170E+02  0.10566000000E+00 0. -1.
          4    1    1    2  501    0  0.33619904632E+02  0.13492589064E+03 -0.74585100413E+02  0.15779173348E+03  0.00000000000E+00 0.  1.
</event>
<event>
 6    1  0.2569591E-005  0.1046799E+04  0.7818608E-02  0.9005467E-01
         21   -1    0    0  501  502  0.00000000000E+00  0.00000000000E+00  0.51887633596E+03  0.51887633596E+03  0.00000000000E+00 0.  1.
          4   -1    0    0  502    0 -0.00000000000E+00 -0.00000000000E+00 -0.11731733105E+04  0.11731733105E+04  0.00000000000E+00 0.  1.
    9000010    2    1    2  501    0  0.30915611010E+02  0.33306362891E+03 -0.10916612050E+03  0.10524757140E+04  0.99191770363E+03 0.  0.
        -13    1    3    3    0    0  0.17876439538E+03  0.45718485448E+02  0.40507940074E+03  0.44512494991E+03  0.10566000000E+00 0.  1.
         13    1    1    2    0    0 -0.30915611010E+02 -0.33306362891E+03 -0.54513085399E+03  0.63957393243E+03  0.10566000000E+00 0. -1.
          4    1    3    3  501    0 -0.14784878437E+03  0.28734514346E+03 -0.51424552124E+03  0.60735076408E+03  0.00000000000E+00 0.  1.
</event>
<event>
 6    1  0.2569591E-005  0.1012246E+04  0.7818608E-02  0.9122636E-01
         21   -1    0    0  501  502  0.00000000000E+00  0.00000000000E+00  0.10367494986E+03  0.10367494986E+03  0.00000000000E+00 0.  1.
          4   -1    0    0  502    0 -0.00000000000E+00 -0.00000000000E+00 -0.38541712841E+04  0.38541712841E+04  0.00000000000E+00 0.  1.
    9000010    2    1    2  501    0  0.14536616240E+03  0.18055768598E+03 -0.27371910744E+04  0.29183656137E+04  0.98534789704E+03 0.  0.
        -13    1    3    3    0    0 -0.14224558634E+03 -0.16971181562E+03 -0.10080309036E+03  0.24330470893E+03  0.10566000000E+00 0.  1.
         13    1    1    2    0    0 -0.14536616240E+03 -0.18055768598E+03 -0.10133052599E+04  0.10394806203E+04  0.10566000000E+00 0. -1.
          4    1    3    3  501    0  0.28761174874E+03  0.35026950160E+03 -0.26363879840E+04  0.26750609047E+04  0.00000000000E+00 0.  1.
</event>
<event>
 6    1  0.2569591E-005  0.1013169E+04  0.7818608E-02  0.9189151E-01
          4   -1    0    0  502    0 -0.00000000000E+00  0.00000000000E+00  0.33687852761E+04  0.33687852761E+04  0.00000000000E+00 0.  1.
         21   -1    0    0  501  502  0.00000000000E+00 -0.00000000000E+00 -0.10876701462E+03  0.10876701462E+03  0.00000000000E+00 0.  1.
    9000010    2    1    2  501    0  0.17657993754E+03 -0.24084142881E+02  0.29599868552E+04  0.31285832717E+04  0.99737183893E+03 0.  0.
        -13    1    3    3    0    0 -0.11142223114E+03  0.32238888374E+03  0.38453547545E+03  0.51402047527E+03  0.10566000000E+00 0.  1.
         13    1    1    2    0    0 -0.17657993754E+03  0.24084142881E+02  0.30003140628E+03  0.34896901897E+03  0.10566000000E+00 0. -1.
          4    1    3    3  501    0  0.28800216868E+03 -0.34647302662E+03  0.25754513797E+04  0.26145627965E+04  0.00000000000E+00 0.  1.
</event>
<event>
 6    1  0.2569591E-005  0.1104819E+04  0.7818608E-02  0.8890754E-01
         -4   -1    0    0    0  501 -0.00000000000E+00  0.00000000000E+00  0.12727053417E+04  0.12727053417E+04  0.00000000000E+00 0. -1.
         21   -1    0    0  501  502  0.00000000000E+00 -0.00000000000E+00 -0.86531345700E+03  0.86531345700E+03  0.00000000000E+00 0. -1.
   -9000010    2    1    2    0  502  0.41928087626E+03  0.17695699564E+03 -0.42951996870E+03  0.11853742202E+04  0.10067345265E+04 0.  0.
        -13    1    1    2    0    0 -0.41928087626E+03 -0.17695699564E+03  0.83691185339E+03  0.95264457853E+03  0.10566000000E+00 0.  1.
         13    1    3    3    0    0 -0.26828834148E+03  0.18944258226E+03 -0.37057559033E+03  0.49517007731E+03  0.10566000000E+00 0. -1.
         -4    1    3    3    0  502  0.68756921774E+03 -0.12485586621E+02 -0.58944378369E+02  0.69020414285E+03  0.00000000000E+00 0. -1.
</event>
<event>
 6    1  0.2569591E-005  0.1341332E+04  0.7818608E-02  0.8596514E-01
         21   -1    0    0  501  502  0.00000000000E+00  0.00000000000E+00  0.96931291069E+03  0.96931291069E+03  0.00000000000E+00 0. -1.
          4   -1    0    0  502    0 -0.00000000000E+00 -0.00000000000E+00 -0.13825084704E+04  0.13825084704E+04  0.00000000000E+00 0.  1.
    9000010    2    1    2  501    0  0.21646490985E+03  0.87190037883E+03 -0.53725328857E+03  0.14449268674E+04  0.99604479225E+03 0.  0.
        -13    1    3    3    0    0 -0.14467715270E+03  0.36393230237E+03  0.23175027259E+03  0.45506746668E+03  0.10566000000E+00 0.  1.
         13    1    1    2    0    0 -0.21646490985E+03 -0.87190037883E+03  0.12405772883E+03  0.90689451374E+03  0.10566000000E+00 0. -1.
          4    1    3    3  501    0  0.36114206255E+03  0.50796807647E+03 -0.76900356116E+03  0.98985940069E+03  0.00000000000E+00 0.  1.
</event>
<event>
 5    1  0.2569591E-005  0.1204146E+04  0.7818608E-02  0.8635302E-01
          4   -1    0    0  502    0 -0.00000000000E+00  0.00000000000E+00  0.14554481144E+04  0.14554481144E+04  0.00000000000E+00 0.  1.
         21   -1    0    0  501  502  0.00000000000E+00 -0.00000000000E+00 -0.11692710853E+04  0.11692710853E+04  0.00000000000E+00 0. -1.
        -13    1    1    2    0    0  0.76785163114E+03  0.66159569955E+03 -0.48260609789E+03  0.11225923811E+04  0.10566000000E+00 0.  1.
         13    1    1    2    0    0 -0.89976106146E+03 -0.53386048380E+03  0.79849304307E+03  0.13161185869E+04  0.10566000000E+00 0. -1.
          4    1    1    2  501    0  0.13190943031E+03 -0.12773521575E+03 -0.29709916168E+02  0.18600823172E+03  0.00000000000E+00 0.  1.
</event>
<event>
 6    1  0.2569591E-005  0.9670000E+03  0.7818608E-02  0.9290804E-01
         -4   -1    0    0    0  501 -0.00000000000E+00  0.00000000000E+00  0.92916375157E+03  0.92916375157E+03  0.00000000000E+00 0. -1.
         21   -1    0    0  501  502  0.00000000000E+00 -0.00000000000E+00 -0.34925589880E+03  0.34925589880E+03  0.00000000000E+00 0. -1.
   -9000010    2    1    2    0  502 -0.13715539116E+03  0.20829958776E+02  0.38872565531E+03  0.10422076009E+04  0.95699715770E+03 0.  0.
        -13    1    1    2    0    0  0.13715539116E+03 -0.20829958776E+02  0.19118219747E+03  0.23621204944E+03  0.10566000000E+00 0.  1.
         13    1    3    3    0    0 -0.98108752679E+02 -0.33500932149E+03 -0.16241628956E+03  0.38501381159E+03  0.10566000000E+00 0. -1.
         -4    1    3    3    0  502 -0.39046638479E+02  0.35583928027E+03  0.55114194487E+03  0.65719378934E+03  0.00000000000E+00 0. -1.
</event>
<event>
 6    1  0.2569591E-005  0.1165423E+04  0.7818608E-02  0.8787570E-01
         21   -1    0    0  501  502  0.00000000000E+00  0.00000000000E+00  0.82994749573E+03  0.82994749573E+03  0.00000000000E+00 0.  1.
          4   -1    0    0  502    0 -0.00000000000E+00 -0.00000000000E+00 -0.12490947819E+04  0.12490947819E+04  0.00000000000E+00 0.  1.
    9000010    2    1    2  501    0  0.39949676987E+01  0.59782948655E+03  0.23923644615E+03  0.11897250087E+04  0.10003976531E+04 0.  0.
        -13    1    3    3    0    0 -0.14710286381E+03  0.74336618769E+03  0.45895974986E+03  0.88593261860E+03  0.10566000000E+00 0.  1.
         13    1    1    2    0    0 -0.39949676987E+01 -0.59782948655E+03 -0.65838373228E+03  0.88931726894E+03  0.10566000000E+00 0. -1.
          4    1    3    3  501    0  0.15109783150E+03 -0.14553670114E+03 -0.21972330371E+03  0.30379239006E+03  0.00000000000E+00 0.  1.
</event>
<event>
 6    1  0.2569591E-005  0.9619192E+03  0.7818608E-02  0.9173126E-01
         -4   -1    0    0    0  501 -0.00000000000E+00  0.00000000000E+00  0.77159663453E+03  0.77159663453E+03  0.00000000000E+00 0. -1.
         21   -1    0    0  501  502  0.00000000000E+00 -0.00000000000E+00 -0.50861965705E+03  0.50861965705E+03  0.00000000000E+00 0. -1.
   -9000010    2    1    2    0  502  0.80101856400E+02  0.20665812939E+03  0.35437657820E+02  0.96257176858E+03  0.93603669385E+03 0.  0.
        -13    1    1    2    0    0 -0.80101856400E+02 -0.20665812939E+03  0.22753931965E+03  0.31764452300E+03  0.10566000000E+00 0.  1.
         13    1    3    3    0    0  0.17290153263E+03  0.16987139983E+03 -0.42617866860E+03  0.49028512236E+03  0.10566000000E+00 0. -1.
         -4    1    3    3    0  502 -0.92799676232E+02  0.36786729554E+02  0.46161632642E+03  0.47228664622E+03  0.00000000000E+00 0. -1.
</event>
<event>
 5    1  0.2569591E-005  0.7593759E+03  0.7818608E-02  0.9190304E-01
         21   -1    0    0  501  502  0.00000000000E+00  0.00000000000E+00  0.23444326479E+03  0.23444326479E+03  0.00000000000E+00 0. -1.
         -4   -1    0    0    0  501 -0.00000000000E+00 -0.00000000000E+00 -0.18870349021E+04  0.18870349021E+04  0.00000000000E+00 0. -1.
        -13    1    1    2    0    0  0.39689744924E+03  0.14153963530E+03 -0.16740363532E+03  0.45341486726E+03  0.10566000000E+00 0.  1.
         13    1    1    2    0    0 -0.45125710304E+03  0.13451799032E+03 -0.81571659057E+03  0.94187134474E+03  0.10566000000E+00 0. -1.
         -4    1    1    2    0  502  0.54359653803E+02 -0.27605762562E+03 -0.66947141138E+03  0.72619195484E+03  0.00000000000E+00 0. -1.
</event>
<event>
 6    1  0.2569591E-005  0.1495090E+04  0.7818608E-02  0.8479751E-01
         21   -1    0    0  501  502  0.00000000000E+00  0.00000000000E+00  0.82667221536E+03  0.82667221536E+03  0.00000000000E+00 0. -1.
          4   -1    0    0  502    0 -0.00000000000E+00 -0.00000000000E+00 -0.20328030600E+04  0.20328030600E+04  0.00000000000E+00 0.  1.
    9000010    2    1    2  501    0 -0.67854399353E+03  0.86178997551E+03 -0.72854401129E+03  0.16631504417E+04  0.10159670774E+04 0.  0.
        -13    1    3    3    0    0  0.24189107500E+03  0.18044717388E+03 -0.33821830347E+03  0.45328148726E+03  0.10566000000E+00 0.  1.
         13    1    1    2    0    0  0.67854399353E+03 -0.86178997551E+03 -0.47758683331E+03  0.11963248336E+04  0.10566000000E+00 0. -1.
          4    1    3    3  501    0 -0.92043506853E+03  0.68134280163E+03 -0.39032570782E+03  0.12098689544E+04  0.00000000000E+00 0.  1.
</event>
<event>
 5    1  0.2569591E-005  0.6298083E+03  0.7818608E-02  0.9954599E-01
         21   -1    0    0  501  502  0.00000000000E+00  0.00000000000E+00  0.82429575292E+03  0.82429575292E+03  0.00000000000E+00 0. -1.
         -4   -1    0    0    0  501 -0.00000000000E+00 -0.00000000000E+00 -0.15305380659E+03  0.15305380659E+03  0.00000000000E+00 0. -1.
        -13    1    1    2    0    0 -0.47089476607E+02  0.79338378121E+01 -0.10838732942E+02  0.48967886266E+02  0.10566000000E+00 0.  1.
         13    1    1    2    0    0  0.64991319930E+02 -0.12631334288E+03  0.76799378397E+03  0.78102073957E+03  0.10566000000E+00 0. -1.
         -4    1    1    2    0  502 -0.17901843323E+02  0.11837950506E+03 -0.85913104698E+02  0.14736093367E+03  0.00000000000E+00 0. -1.
</event>
<event>
 6    1  0.2569591E-005  0.1089537E+04  0.7818608E-02  0.8912792E-01
         21   -1    0    0  501  502  0.00000000000E+00  0.00000000000E+00  0.74984294331E+03  0.74984294331E+03  0.00000000000E+00 0.  1.
         -4   -1    0    0    0  501 -0.00000000000E+00 -0.00000000000E+00 -0.78055105956E+03  0.78055105956E+03  0.00000000000E+00 0. -1.
   -9000010    2    1    2    0  502 -0.10450596476E+02  0.43302870103E+03 -0.89779268016E+02  0.10932298655E+04  0.99973404011E+03 0.  0.
        -13    1    1    2    0    0  0.10450596476E+02 -0.43302870103E+03  0.59071151764E+02  0.43716413738E+03  0.10566000000E+00 0.  1.
         13    1    3    3    0    0 -0.20895713329E+03  0.47724815462E+03  0.33699254470E+03  0.62047793756E+03  0.10566000000E+00 0. -1.
         -4    1    3    3    0  502  0.19850653682E+03 -0.44219453593E+02 -0.42677181272E+03  0.47275192794E+03  0.00000000000E+00 0. -1.
</event>
<event>
 6    1  0.2569591E-005  0.1392190E+04  0.7818608E-02  0.8553776E-01
         21   -1    0    0  501  502  0.00000000000E+00  0.00000000000E+00  0.55442045882E+03  0.55442045882E+03  0.00000000000E+00 0.  1.
         -4   -1    0    0    0  501 -0.00000000000E+00 -0.00000000000E+00 -0.25560464749E+04  0.25560464749E+04  0.00000000000E+00 0. -1.
   -9000010    2    1    2    0  502  0.23471947039E+03  0.94340129261E+03 -0.99619047802E+03  0.17118962844E+04  0.99654111380E+03 0.  0.
        -13    1    1    2    0    0 -0.23471947039E+03 -0.94340129261E+03 -0.10054355380E+04  0.13985706493E+04  0.10566000000E+00 0.  1.
         13    1    3    3    0    0 -0.19030447141E+03 -0.13465999667E+03 -0.17888534938E+03  0.29385214978E+03  0.10566000000E+00 0. -1.
         -4    1    3    3    0  502  0.42502394180E+03  0.10780612893E+04 -0.81730512864E+03  0.14180441347E+04  0.00000000000E+00 0. -1.
</event>
<event>
 6    1  0.2569591E-005  0.1163342E+04  0.7818608E-02  0.8788383E-01
         21   -1    0    0  501  502  0.00000000000E+00  0.00000000000E+00  0.29874537065E+03  0.29874537065E+03  0.00000000000E+00 0.  1.
          4   -1    0    0  502    0 -0.00000000000E+00 -0.00000000000E+00 -0.26498622319E+04  0.26498622319E+04  0.00000000000E+00 0.  1.
    9000010    2    1    2  501    0  0.34924245409E+03  0.48663451050E+03 -0.17384354738E+04  0.20917751030E+04  0.99728719358E+03 0.  0.
        -13    1    3    3    0    0 -0.14303029743E+03  0.65551842917E+02  0.68967605869E+02  0.17178839285E+03  0.10566000000E+00 0.  1.
         13    1    1    2    0    0 -0.34924245409E+03 -0.48663451050E+03 -0.61268138744E+03  0.85683249951E+03  0.10566000000E+00 0. -1.
          4    1    3    3  501    0  0.49227275153E+03  0.42108266758E+03 -0.18074030796E+04  0.19199867101E+04  0.00000000000E+00 0.  1.
</event>
<event>
 6    1  0.2569591E-005  0.1213614E+04  0.7818608E-02  0.8704257E-01
         21   -1    0    0  501  502  0.00000000000E+00  0.00000000000E+00  0.65734842642E+03  0.65734842642E+03  0.00000000000E+00 0. -1.
         -4   -1    0    0    0  501 -0.00000000000E+00 -0.00000000000E+00 -0.15823687135E+04  0.15823687135E+04  0.00000000000E+00 0. -1.
   -9000010    2    1    2    0  502 -0.39277761283E+03  0.64656434619E+03 -0.27987470657E+03  0.12454674036E+04  0.94896759441E+03 0.  0.
        -13    1    1    2    0    0  0.39277761283E+03 -0.64656434619E+03 -0.64514558054E+03  0.99424973631E+03  0.10566000000E+00 0.  1.
         13    1    3    3    0    0  0.20861321990E+03 -0.11815687851E+03 -0.75580693619E+02  0.25138213117E+03  0.10566000000E+00 0. -1.
         -4    1    3    3    0  502 -0.60139083273E+03  0.76472122470E+03 -0.20429401295E+03  0.99408527247E+03  0.00000000000E+00 0. -1.
</event>
<event>
 5    1  0.2569591E-005  0.5636895E+02  0.7818608E-02  0.1274839E+00
         21   -1    0    0  501  502  0.00000000000E+00  0.00000000000E+00  0.38213828432E+02  0.38213828432E+02  0.00000000000E+00 0. -1.
          4   -1    0    0  502    0 -0.00000000000E+00 -0.00000000000E+00 -0.72792260248E+02  0.72792260248E+02  0.00000000000E+00 0.  1.
        -13    1    1    2    0    0 -0.52860498145E+01 -0.29387312084E+02 -0.16481771809E+02  0.34105958426E+02  0.10566000000E+00 0.  1.
         13    1    1    2    0    0 -0.13647153703E+02  0.46955591650E+02 -0.12530667155E+02  0.50478720019E+02  0.10566000000E+00 0. -1.
          4    1    1    2  501    0  0.18933203517E+02 -0.17568279566E+02 -0.55659928528E+01  0.26421410234E+02  0.00000000000E+00 0.  1.
</event>
<event>
 6    1  0.2569591E-005  0.1217008E+04  0.7818608E-02  0.8731150E-01
          4   -1    0    0  502    0 -0.00000000000E+00  0.00000000000E+00  0.29105104371E+04  0.29105104371E+04  0.00000000000E+00 0.  1.
         21   -1    0    0  501  502  0.00000000000E+00 -0.00000000000E+00 -0.31247172760E+03  0.31247172760E+03  0.00000000000E+00 0. -1.
    9000010    2    1    2  501    0 -0.66762132776E+03 -0.24598190647E+02  0.14336295757E+04  0.18805321841E+04  0.10172434453E+04 0.  0.
        -13    1    3    3    0    0  0.27068436079E+03  0.44592591322E+02  0.28179749298E+03  0.39327898570E+03  0.10566000000E+00 0.  1.
         13    1    1    2    0    0  0.66762132776E+03  0.24598190647E+02  0.11644091338E+04  0.13424499805E+04  0.10566000000E+00 0. -1.
          4    1    3    3  501    0 -0.93830568855E+03 -0.69190781969E+02  0.11518320827E+04  0.14872531984E+04  0.00000000000E+00 0.  1.
</event>
<event>
 6    1  0.2569591E-005  0.1034676E+04  0.7818608E-02  0.8983476E-01
          4   -1    0    0  502    0 -0.00000000000E+00  0.00000000000E+00  0.10006955091E+04  0.10006955091E+04  0.00000000000E+00 0.  1.
         21   -1    0    0  501  502  0.00000000000E+00 -0.00000000000E+00 -0.49989917040E+03  0.49989917040E+03  0.00000000000E+00 0. -1.
    9000010    2    1    2  501    0  0.30859417308E+02 -0.37740991417E+03  0.39398708910E+03  0.11071499262E+04  0.96289386009E+03 0.  0.
        -13    1    3    3    0    0  0.13867587163E+02  0.11103229442E+03 -0.26444940969E+03  0.28714801380E+03  0.10566000000E+00 0.  1.
         13    1    1    2    0    0 -0.30859417308E+02  0.37740991417E+03  0.10680924964E+03  0.39344475333E+03  0.10566000000E+00 0. -1.
          4    1    3    3  501    0  0.16991830146E+02 -0.48844220859E+03  0.65843649879E+03  0.82000191242E+03  0.00000000000E+00 0.  1.
</event>
<event>
 6    1  0.2569591E-005  0.1000485E+04  0.7818608E-02  0.9184681E-01
         21   -1    0    0  501  502  0.00000000000E+00  0.00000000000E+00  0.15582748891E+03  0.15582748891E+03  0.00000000000E+00 0. -1.
         -4   -1    0    0    0  501 -0.00000000000E+00 -0.00000000000E+00 -0.23849524167E+04  0.23849524167E+04  0.00000000000E+00 0. -1.
   -9000010    2    1    2    0  502 -0.30089262261E+02  0.18590218744E+03 -0.16280510295E+04  0.19108951309E+04  0.98260117023E+03 0.  0.
        -13    1    1    2    0    0  0.30089262261E+02 -0.18590218744E+03 -0.60107389828E+03  0.62988477467E+03  0.10566000000E+00 0.  1.
         13    1    3    3    0    0 -0.37845946098E+03  0.14584255061E+03 -0.22321344636E+03  0.46295341772E+03  0.10566000000E+00 0. -1.
         -4    1    3    3    0  502  0.34837019872E+03  0.40059636825E+02 -0.14048375831E+04  0.14479417132E+04  0.00000000000E+00 0. -1.
</event>
<event>
 6    1  0.2569591E-005  0.1128094E+04  0.7818608E-02  0.8845904E-01
          4   -1    0    0  502    0 -0.00000000000E+00  0.00000000000E+00  0.22866371349E+04  0.22866371349E+04  0.00000000000E+00 0.  1.
         21   -1    0    0  501  502  0.00000000000E+00 -0.00000000000E+00 -0.31113329837E+03  0.31113329837E+03  0.00000000000E+00 0.  1.
    9000010    2    1    2  501    0  0.29660850341E+03 -0.42150495835E+03  0.10643633347E+04  0.15509561902E+04  0.10034703591E+04 0.  0.
        -13    1    3    3    0    0  0.36224986403E+03 -0.33083576832E+03  0.10023551533E+02  0.49069109666E+03  0.10566000000E+00 0.  1.
         13    1    1    2    0    0 -0.29660850341E+03  0.42150495835E+03  0.91114050176E+03  0.10468142430E+04  0.10566000000E+00 0. -1.
          4    1    3    3  501    0 -0.65641360628E+02 -0.90669190030E+02  0.10543397832E+04  0.10602650936E+04  0.00000000000E+00 0.  1.
</event>
<event>
 6    1  0.2569591E-005  0.1736187E+04  0.7818608E-02  0.8327236E-01
         21   -1    0    0  501  502  0.00000000000E+00  0.00000000000E+00  0.14594775501E+04  0.14594775501E+04  0.00000000000E+00 0.  1.
         -4   -1    0    0    0  501 -0.00000000000E+00 -0.00000000000E+00 -0.17097120877E+04  0.17097120877E+04  0.00000000000E+00 0. -1.
   -9000010    2    1    2    0  502 -0.16026447407E+03  0.14126342550E+04 -0.18470206937E+03  0.17459838356E+04  0.99655630026E+03 0.  0.
        -13    1    1    2    0    0  0.16026447407E+03 -0.14126342550E+04 -0.65532468236E+02  0.14232058023E+04  0.10566000000E+00 0.  1.
         13    1    3    3    0    0 -0.46015709470E+03  0.31037911015E+03  0.11093059655E+03  0.56602592894E+03  0.10566000000E+00 0. -1.
         -4    1    3    3    0  502  0.29989262063E+03  0.11022551448E+04 -0.29563266592E+03  0.11799579066E+04  0.00000000000E+00 0. -1.
</event>
<event>
 6    1  0.2569591E-005  0.9069571E+03  0.7818608E-02  0.9194716E-01
         -4   -1    0    0    0  501 -0.00000000000E+00  0.00000000000E+00  0.48957885045E+03  0.48957885045E+03  0.00000000000E+00 0. -1.
         21   -1    0    0  501  502  0.00000000000E+00 -0.00000000000E+00 -0.67760353646E+03  0.67760353646E+03  0.00000000000E+00 0. -1.
   -9000010    2    1    2    0  502 -0.19336073309E+03  0.14740051549E+03 -0.12112043300E+03  0.91500888452E+03  0.87375958616E+03 0.  0.
        -13    1    1    2    0    0  0.19336073309E+03 -0.14740051549E+03 -0.66904253008E+02  0.25217350238E+03  0.10566000000E+00 0.  1.
         13    1    3    3    0    0  0.22046645479E+03 -0.21705646045E+03  0.93614683623E+02  0.32323781472E+03  0.10566000000E+00 0. -1.
         -4    1    3    3    0  502 -0.41382718788E+03  0.36445697594E+03 -0.21473511662E+03  0.59177106980E+03  0.00000000000E+00 0. -1.
</event>
<event>
 5    1  0.2569591E-005  0.1009768E+03  0.7818608E-02  0.1198886E+00
          4   -1    0    0  502    0 -0.00000000000E+00  0.00000000000E+00  0.85467327249E+02  0.85467327249E+02  0.00000000000E+00 0.  1.
         21   -1    0    0  501  502  0.00000000000E+00 -0.00000000000E+00 -0.12932379428E+03  0.12932379428E+03  0.00000000000E+00 0. -1.
        -13    1    1    2    0    0 -0.37123656949E+02 -0.15818023697E+02  0.57241050900E+02  0.70035168673E+02  0.10566000000E+00 0.  1.
         13    1    1    2    0    0  0.58522847939E+01  0.42980719509E+02 -0.92904672070E+02  0.10253233999E+03  0.10566000000E+00 0. -1.
          4    1    1    2  501    0  0.31271372155E+02 -0.27162695812E+02 -0.81928458595E+01  0.42223612867E+02  0.00000000000E+00 0.  1.
</event>
<event>
 5    1  0.2569591E-005  0.6364514E+02  0.7818608E-02  0.1269373E+00
         21   -1    0    0  501  502  0.00000000000E+00  0.00000000000E+00  0.63850254739E+02  0.63850254739E+02  0.00000000000E+00 0. -1.
          4   -1    0    0  502    0 -0.00000000000E+00 -0.00000000000E+00 -0.43045903412E+02  0.43045903412E+02  0.00000000000E+00 0.  1.
        -13    1    1    2    0    0  0.41040810671E+01  0.24485738522E+02 -0.24240829155E+01  0.24945585068E+02  0.10566000000E+00 0.  1.
         13    1    1    2    0    0 -0.37585408431E+02 -0.52370055738E+01  0.20749656727E+02  0.43250995048E+02  0.10566000000E+00 0. -1.
          4    1    1    2  501    0  0.33481327364E+02 -0.19248732948E+02  0.24787775159E+01  0.38699578036E+02  0.00000000000E+00 0.  1.
</event>
<event>
 5    1  0.2569591E-005  0.9156593E+02  0.7818608E-02  0.1245030E+00
         21   -1    0    0  501  502  0.00000000000E+00  0.00000000000E+00  0.27916999103E+02  0.27916999103E+02  0.00000000000E+00 0.  1.
          4   -1    0    0  502    0 -0.00000000000E+00 -0.00000000000E+00 -0.15804150022E+03  0.15804150022E+03  0.00000000000E+00 0.  1.
        -13    1    1    2    0    0 -0.44065269842E+02 -0.10807498818E+02 -0.61892495547E+01  0.45791571397E+02  0.10566000000E+00 0.  1.
         13    1    1    2    0    0  0.15719777492E+02 -0.14097486243E+02 -0.77548386794E+02  0.80371723766E+02  0.10566000000E+00 0. -1.
          4    1    1    2  501    0  0.28345492350E+02  0.24904985061E+02 -0.46386864771E+02  0.59795204162E+02  0.00000000000E+00 0.  1.
</event>
<event>
 5    1  0.2569591E-005  0.3238262E+03  0.7818608E-02  0.1011534E+00
         21   -1    0    0  501  502  0.00000000000E+00  0.00000000000E+00  0.50339356692E+02  0.50339356692E+02  0.00000000000E+00 0.  1.
         -4   -1    0    0    0  501 -0.00000000000E+00 -0.00000000000E+00 -0.14930110260E+04  0.14930110260E+04  0.00000000000E+00 0. -1.
        -13    1    1    2    0    0  0.92617518204E+02  0.18646104048E+03 -0.39131428841E+03  0.44325230713E+03  0.10566000000E+00 0.  1.
         13    1    1    2    0    0 -0.11665045139E+03  0.16443232624E+02 -0.33172670158E+03  0.35202318590E+03  0.10566000000E+00 0. -1.
         -4    1    1    2    0  502  0.24032933186E+02 -0.20290427311E+03 -0.71963067927E+03  0.74807488962E+03  0.00000000000E+00 0. -1.
</event>
<event>
 6    1  0.2569591E-005  0.1073716E+04  0.7818608E-02  0.8965487E-01
         -4   -1    0    0    0  501 -0.00000000000E+00  0.00000000000E+00  0.37561781915E+04  0.37561781915E+04  0.00000000000E+00 0. -1.
         21   -1    0    0  501  502  0.00000000000E+00 -0.00000000000E+00 -0.14316885375E+03  0.14316885375E+03  0.00000000000E+00 0.  1.
   -9000010    2    1    2    0  502  0.14497904090E+03  0.33452431706E+03  0.23291454728E+04  0.25647190537E+04  0.10099206651E+04 0.  0.
        -13    1    1    2    0    0 -0.14497904090E+03 -0.33452431706E+03  0.12838638649E+04  0.13346279915E+04  0.10566000000E+00 0.  1.
         13    1    3    3    0    0 -0.95817616142E+02  0.92470034621E+02 -0.63717717681E+02  0.14762005818E+03  0.10566000000E+00 0. -1.
         -4    1    3    3    0  502  0.24079665704E+03  0.24205428244E+03  0.23928631905E+04  0.24170989955E+04  0.00000000000E+00 0. -1.
</event>
<event>
 5    1  0.2569591E-005  0.4770098E+03  0.7818608E-02  0.9592137E-01
         21   -1    0    0  501  502  0.00000000000E+00  0.00000000000E+00  0.79156937275E+03  0.79156937275E+03  0.00000000000E+00 0. -1.
          4   -1    0    0  502    0 -0.00000000000E+00 -0.00000000000E+00 -0.23590039449E+03  0.23590039449E+03  0.00000000000E+00 0.  1.
        -13    1    1    2    0    0  0.89333919849E+01  0.28961173750E+03  0.10196071544E+03  0.30716569250E+03  0.10566000000E+00 0.  1.
         13    1    1    2    0    0 -0.18073394729E+03 -0.33595517393E+03  0.30615141122E+03  0.48914142776E+03  0.10566000000E+00 0. -1.
          4    1    1    2  501    0  0.17180055531E+03  0.46343436425E+02  0.14755685160E+03  0.23116264697E+03  0.00000000000E+00 0.  1.
</event>
<event>
 6    1  0.2569591E-005  0.1509624E+04  0.7818608E-02  0.8462916E-01
         21   -1    0    0  501  502  0.00000000000E+00  0.00000000000E+00  0.68438431004E+03  0.68438431004E+03  0.00000000000E+00 0. -1.
          4   -1    0    0  502    0 -0.00000000000E+00 -0.00000000000E+00 -0.30084742258E+04  0.30084742258E+04  0.00000000000E+00 0.  1.
    9000010    2    1    2  501    0  0.10393978354E+04 -0.49359658389E+03 -0.60963409075E+03  0.16280718071E+04  0.97723008381E+03 0.  0.
        -13    1    3    3    0    0 -0.14338682108E+03 -0.10850339273E+03  0.89829645243E+02  0.20100284332E+03  0.10566000000E+00 0.  1.
         13    1    1    2    0    0 -0.10393978354E+04  0.49359658389E+03 -0.17144558250E+04  0.20647867287E+04  0.10566000000E+00 0. -1.
          4    1    3    3  501    0  0.11827846565E+04 -0.38509319116E+03 -0.69946373599E+03  0.14270689638E+04  0.00000000000E+00 0.  1.
</event>
<event>
 6    1  0.2569591E-005  0.1661916E+04  0.7818608E-02  0.8366671E-01
         21   -1    0    0  501  502  0.00000000000E+00  0.00000000000E+00  0.11786274486E+04  0.11786274486E+04  0.00000000000E+00 0.  1.
         -4   -1    0    0    0  501 -0.00000000000E+00 -0.00000000000E+00 -0.19832231679E+04  0.19832231679E+04  0.00000000000E+00 0. -1.
   -9000010    2    1    2    0  502 -0.96806009937E+03 -0.93578493058E+03 -0.16152682763E+03  0.16697476030E+04  0.97423423736E+03 0.  0.
        -13    1    1    2    0    0  0.96806009937E+03  0.93578493058E+03 -0.64306889169E+03  0.14921030135E+04  0.10566000000E+00 0.  1.
         13    1    3    3    0    0 -0.37326511963E+03 -0.15735351444E+03 -0.49066859704E+03  0.63627247412E+03  0.10566000000E+00 0. -1.
         -4    1    3    3    0  502 -0.59479497973E+03 -0.77843141614E+03  0.32914176941E+03  0.10334751288E+04  0.00000000000E+00 0. -1.
</event>
<event>
 6    1  0.2569591E-005  0.1009511E+04  0.7818608E-02  0.9102359E-01
         21   -1    0    0  501  502  0.00000000000E+00  0.00000000000E+00  0.88285280478E+03  0.88285280478E+03  0.00000000000E+00 0. -1.
         -4   -1    0    0    0  501 -0.00000000000E+00 -0.00000000000E+00 -0.45154338887E+03  0.45154338887E+03  0.00000000000E+00 0. -1.
   -9000010    2    1    2    0  502  0.93605251219E+02 -0.23522929412E+03  0.33848596626E+03  0.10647464804E+04  0.97724999584E+03 0.  0.
        -13    1    1    2    0    0 -0.93605251219E+02  0.23522929412E+03  0.92823449655E+02  0.26964971322E+03  0.10566000000E+00 0.  1.
         13    1    3    3    0    0 -0.27682184105E+03 -0.10237582286E+03  0.54539679488E+03  0.62013612685E+03  0.10566000000E+00 0. -1.
         -4    1    3    3    0  502  0.37042709227E+03 -0.13285347126E+03 -0.20691082862E+03  0.44461035358E+03  0.00000000000E+00 0. -1.
</event>
<event>
 6    1  0.2569591E-005  0.1347171E+04  0.7818608E-02  0.8597628E-01
         -4   -1    0    0    0  501 -0.00000000000E+00  0.00000000000E+00  0.21366597941E+04  0.21366597941E+04  0.00000000000E+00 0. -1.
         21   -1    0    0  501  502  0.00000000000E+00 -0.00000000000E+00 -0.59206635789E+03  0.59206635789E+03  0.00000000000E+00 0.  1.
   -9000010    2    1    2    0  502  0.86558726899E+03  0.17127324054E+03  0.11078206699E+04  0.17441722918E+04  0.10179855124E+04 0.  0.
        -13    1    1    2    0    0 -0.86558726899E+03 -0.17127324054E+03  0.43677276633E+03  0.98455386025E+03  0.10566000000E+00 0.  1.
         13    1    3    3    0    0  0.34301573285E+03  0.45180629057E+03  0.10179565982E+03  0.57632550239E+03  0.10566000000E+00 0. -1.
         -4    1    3    3    0  502  0.52257153614E+03 -0.28053305003E+03  0.10060250101E+04  0.11678467894E+04  0.00000000000E+00 0. -1.
</event>
<event>
 5    1  0.2569591E-005  0.4906661E+02  0.7818608E-02  0.1303233E+00
         -4   -1    0    0    0  501 -0.00000000000E+00  0.00000000000E+00  0.18152272103E+03  0.18152272103E+03  0.00000000000E+00 0. -1.
         21   -1    0    0  501  502  0.00000000000E+00 -0.00000000000E+00 -0.13855948336E+02  0.13855948336E+02  0.00000000000E+00 0.  1.
        -13    1    1    2    0    0 -0.13800672261E+02  0.40024828687E+02  0.38571446537E+02  0.57273144827E+02  0.10566000000E+00 0.  1.
         13    1    1    2    0    0 -0.32110970058E+01 -0.27110219254E+02  0.81121155861E+02  0.85591636416E+02  0.10566000000E+00 0. -1.
         -4    1    1    2    0  502  0.17011769267E+02 -0.12914609433E+02  0.47974170296E+02  0.52513888125E+02  0.00000000000E+00 0. -1.
</event>
<event>
 6    1  0.2569591E-005  0.1081435E+04  0.7818608E-02  0.8930677E-01
         21   -1    0    0  501  502  0.00000000000E+00  0.00000000000E+00  0.19840953327E+03  0.19840953327E+03  0.00000000000E+00 0. -1.
          4   -1    0    0  502    0 -0.00000000000E+00 -0.00000000000E+00 -0.29041945112E+04  0.29041945112E+04  0.00000000000E+00 0.  1.
    9000010    2    1    2  501    0 -0.12539984903E+03  0.39192968288E+03 -0.21927736462E+04  0.24449455951E+04  0.10000843469E+04 0.  0.
        -13    1    3    3    0    0  0.41341395405E+03  0.45572667933E+02 -0.61837325072E+03  0.74523382494E+03  0.10566000000E+00 0.  1.
         13    1    1    2    0    0  0.12539984903E+03 -0.39192968288E+03 -0.51301133176E+03  0.65765844945E+03  0.10566000000E+00 0. -1.
          4    1    3    3  501    0 -0.53881380308E+03  0.34635701494E+03 -0.15744003955E+04  0.16997117701E+04  0.00000000000E+00 0.  1.
</event>
<event>
 6    1  0.2569591E-005  0.1066291E+04  0.7818608E-02  0.8978147E-01
          4   -1    0    0  502    0 -0.00000000000E+00  0.00000000000E+00  0.38268368243E+03  0.38268368243E+03  0.00000000000E+00 0.  1.
         21   -1    0    0  501  502  0.00000000000E+00 -0.00000000000E+00 -0.13213680636E+04  0.13213680636E+04  0.00000000000E+00 0. -1.
    9000010    2    1    2  501    0  0.30468429864E+03  0.17934967983E+03 -0.74663111942E+03  0.13017045129E+04  0.10059710636E+04 0.  0.
        -13    1    3    3    0    0  0.15159926061E+03 -0.41839399261E+03 -0.37057752034E+03  0.57910584405E+03  0.10566000000E+00 0.  1.
         13    1    1    2    0    0 -0.30468429864E+03 -0.17934967983E+03 -0.19205326172E+03  0.40234723311E+03  0.10566000000E+00 0. -1.
          4    1    3    3  501    0  0.15308503803E+03  0.59774367244E+03 -0.37605359908E+03  0.72259866883E+03  0.00000000000E+00 0.  1.
</event>
<event>
 5    1  0.2569591E-005  0.8359866E+02  0.7818608E-02  0.1231349E+00
         21   -1    0    0  501  502  0.00000000000E+00  0.00000000000E+00  0.71671167701E+02  0.71671167701E+02  0.00000000000E+00 0.  1.
         -4   -1    0    0    0  501 -0.00000000000E+00 -0.00000000000E+00 -0.63802681355E+02  0.63802681355E+02  0.00000000000E+00 0. -1.
        -13    1    1    2    0    0  0.19020718023E+02 -0.31940433335E+02  0.31361650334E+02  0.48636850962E+02  0.10566000000E+00 0.  1.
         13    1    1    2    0    0 -0.13149869103E+02  0.53654740924E+02 -0.13299676889E+01  0.55258757307E+02  0.10566000000E+00 0. -1.
         -4    1    1    2    0  502 -0.58708489199E+01 -0.21714307588E+02 -0.22163196299E+02  0.31578240788E+02  0.00000000000E+00 0. -1.
</event>
<event>
 5    1  0.2569591E-005  0.8498247E+02  0.7818608E-02  0.1259969E+00
          4   -1    0    0  502    0 -0.00000000000E+00  0.00000000000E+00  0.30390861394E+02  0.30390861394E+02  0.00000000000E+00 0.  1.
         21   -1    0    0  501  502  0.00000000000E+00 -0.00000000000E+00 -0.10755700971E+03  0.10755700971E+03  0.00000000000E+00 0. -1.
        -13    1    1    2    0    0  0.26641174770E+02 -0.17999666244E+02 -0.45467553576E+02  0.55687070045E+02  0.10566000000E+00 0.  1.
         13    1    1    2    0    0  0.84828943780E+01  0.17367836286E+02 -0.41507450453E+02  0.45787343682E+02  0.10566000000E+00 0. -1.
          4    1    1    2  501    0 -0.35124069148E+02  0.63182995713E+00  0.98088557129E+01  0.36473457376E+02  0.00000000000E+00 0.  1.
</event>
<event>
 6    1  0.2569591E-005  0.1224421E+04  0.7818608E-02  0.8711920E-01
         -4   -1    0    0    0  501 -0.00000000000E+00  0.00000000000E+00  0.16412087001E+04  0.16412087001E+04  0.00000000000E+00 0. -1.
         21   -1    0    0  501  502  0.00000000000E+00 -0.00000000000E+00 -0.57168325201E+03  0.57168325201E+03  0.00000000000E+00 0.  1.
   -9000010    2    1    2    0  502  0.64536968941E+03  0.30231490691E+03  0.69050068227E+03  0.14057016875E+04  0.99564537017E+03 0.  0.
        -13    1    1    2    0    0 -0.64536968941E+03 -0.30231490691E+03  0.37902476579E+03  0.80719026456E+03  0.10566000000E+00 0.  1.
         13    1    3    3    0    0  0.64683293324E+03  0.24058488962E+03 -0.22052328344E+02  0.69047827554E+03  0.10566000000E+00 0. -1.
         -4    1    3    3    0  502 -0.14632438339E+01  0.61730017299E+02  0.71255301061E+03  0.71522341198E+03  0.00000000000E+00 0. -1.
</event>
<event>
 5    1  0.2569591E-005  0.3160390E+03  0.7818608E-02  0.1004537E+00
         -4   -1    0    0    0  501 -0.00000000000E+00  0.00000000000E+00  0.25326301704E+03  0.25326301704E+03  0.00000000000E+00 0. -1.
         21   -1    0    0  501  502  0.00000000000E+00 -0.00000000000E+00 -0.77074863660E+03  0.77074863660E+03  0.00000000000E+00 0.  1.
        -13    1    1    2    0    0 -0.81270964998E+02 -0.26865683528E+03  0.12557212300E+03  0.30748956752E+03  0.10566000000E+00 0.  1.
         13    1    1    2    0    0 -0.66181179456E+01  0.20288294564E+03 -0.46451619511E+03  0.50693253574E+03  0.10566000000E+00 0. -1.
         -4    1    1    2    0  502  0.87889082944E+02  0.65773889635E+02 -0.17854154746E+03  0.20958955038E+03  0.00000000000E+00 0. -1.
</event>
<event>
 5    1  0.2569591E-005  0.1240354E+03  0.7818608E-02  0.1157044E+00
         21   -1    0    0  501  502  0.00000000000E+00  0.00000000000E+00  0.31126648344E+02  0.31126648344E+02  0.00000000000E+00 0.  1.
         -4   -1    0    0    0  501 -0.00000000000E+00 -0.00000000000E+00 -0.42127223608E+03  0.42127223608E+03  0.00000000000E+00 0. -1.
        -13    1    1    2    0    0 -0.59429969449E+02 -0.20639459942E+02 -0.26650379144E+02  0.68323952227E+02  0.10566000000E+00 0.  1.
         13    1    1    2    0    0  0.69847550446E+02 -0.26458905018E+02 -0.19514798730E+03  0.20895334903E+03  0.10566000000E+00 0. -1.
         -4    1    1    2    0  502 -0.10417580998E+02  0.47098364960E+02 -0.16834722129E+03  0.17512158317E+03  0.00000000000E+00 0. -1.
</event>
<event>
 6    1  0.2569591E-005  0.1333570E+04  0.7818608E-02  0.8598409E-01
         21   -1    0    0  501  502  0.00000000000E+00  0.00000000000E+00  0.94602055115E+03  0.94602055115E+03  0.00000000000E+00 0.  1.
         -4   -1    0    0    0  501 -0.00000000000E+00 -0.00000000000E+00 -0.14245825899E+04  0.14245825899E+04  0.00000000000E+00 0. -1.
   -9000010    2    1    2    0  502 -0.58874322411E+03  0.68928935419E+03  0.24654220252E+02  0.13337979461E+04  0.97809546203E+03 0.  0.
        -13    1    1    2    0    0  0.58874322411E+03 -0.68928935419E+03 -0.50321625905E+03  0.10368051949E+04  0.10566000000E+00 0.  1.
         13    1    3    3    0    0  0.45025939107E+02  0.59493439969E+03 -0.23659121807E+03  0.64183307079E+03  0.10566000000E+00 0. -1.
         -4    1    3    3    0  502 -0.63376916321E+03  0.94354954496E+02  0.26124543833E+03  0.69196487535E+03  0.00000000000E+00 0. -1.
</event>
<event>
 6    1  0.2569591E-005  0.1803026E+04  0.7818608E-02  0.8292624E-01
         -4   -1    0    0    0  501 -0.00000000000E+00  0.00000000000E+00  0.31058955154E+04  0.31058955154E+04  0.00000000000E+00 0. -1.
         21   -1    0    0  501  502  0.00000000000E+00 -0.00000000000E+00 -0.10593166248E+04  0.10593166248E+04  0.00000000000E+00 0.  1.
   -9000010    2    1    2    0  502  0.14318088746E+04  0.43392225304E+03  0.23901453810E+03  0.18187991172E+04  0.10062490270E+04 0.  0.
        -13    1    1    2    0    0 -0.14318088746E+04 -0.43392225304E+03  0.18075643524E+04  0.23464130230E+04  0.10566000000E+00 0.  1.
         13    1    3    3    0    0  0.94189598260E+03 -0.22728052305E+03  0.22987352172E+03  0.99582444504E+03  0.10566000000E+00 0. -1.
         -4    1    3    3    0  502  0.48991289202E+03  0.66120277610E+03  0.91410163750E+01  0.82297467219E+03  0.00000000000E+00 0. -1.
</event>
<event>
 6    1  0.2569591E-005  0.1020491E+04  0.7818608E-02  0.9031858E-01
         21   -1    0    0  501  502  0.00000000000E+00  0.00000000000E+00  0.47079857191E+03  0.47079857191E+03  0.00000000000E+00 0. -1.
         -4   -1    0    0    0  501 -0.00000000000E+00 -0.00000000000E+00 -0.96923389336E+03  0.96923389336E+03  0.00000000000E+00 0. -1.
   -9000010    2    1    2    0  502  0.31295283332E+03 -0.86245324326E+02 -0.43468250919E+03  0.11092120244E+04  0.96748369467E+03 0.  0.
        -13    1    1    2    0    0 -0.31295283332E+03  0.86245324326E+02 -0.63752812261E+02  0.33082044085E+03  0.10566000000E+00 0.  1.
         13    1    3    3    0    0  0.41302522404E+03 -0.46034941673E+03 -0.17433557282E+03  0.64257631788E+03  0.10566000000E+00 0. -1.
         -4    1    3    3    0  502 -0.10007239073E+03  0.37410409240E+03 -0.26034693637E+03  0.46663570654E+03  0.00000000000E+00 0. -1.
</event>
<event>
 5    1  0.2569591E-005  0.5223411E+03  0.7818608E-02  0.9436679E-01
          4   -1    0    0  502    0 -0.00000000000E+00  0.00000000000E+00  0.62208865856E+03  0.62208865856E+03  0.00000000000E+00 0.  1.
         21   -1    0    0  501  502  0.00000000000E+00 -0.00000000000E+00 -0.42976309708E+03  0.42976309708E+03  0.00000000000E+00 0. -1.
        -13    1    1    2    0    0  0.68229997946E+02 -0.32104132250E+03  0.65911182852E+02  0.33476433287E+03  0.10566000000E+00 0.  1.
         13    1    1    2    0    0 -0.18432046400E+03  0.47576203335E+03  0.66169672207E+02  0.51449196545E+03  0.10566000000E+00 0. -1.
          4    1    1    2  501    0  0.11609046606E+03 -0.15472071086E+03  0.60244706415E+02  0.20259545732E+03  0.00000000000E+00 0.  1.
</event>
<event>
 6    1  0.2569591E-005  0.1008691E+04  0.7818608E-02  0.9245617E-01
         -4   -1    0    0    0  501 -0.00000000000E+00  0.00000000000E+00  0.92307618498E+03  0.92307618498E+03  0.00000000000E+00 0. -1.
         21   -1    0    0  501  502  0.00000000000E+00 -0.00000000000E+00 -0.38011010352E+03  0.38011010352E+03  0.00000000000E+00 0. -1.
   -9000010    2    1    2    0  502 -0.14440785411E+03 -0.15474230641E+02  0.36321050750E+03  0.10720907289E+04  0.99818013306E+03 0.  0.
        -13    1    1    2    0    0  0.14440785411E+03  0.15474230641E+02  0.17975557396E+03  0.23109555962E+03  0.10566000000E+00 0.  1.
         13    1    3    3    0    0 -0.67882523749E+02  0.35500767075E+03 -0.18499062330E+03  0.40602958660E+03  0.10566000000E+00 0. -1.
         -4    1    3    3    0  502 -0.76525330365E+02 -0.37048190139E+03  0.54820113080E+03  0.66606114228E+03  0.00000000000E+00 0. -1.
</event>
<event>
 6    1  0.2569591E-005  0.8211640E+03  0.7818608E-02  0.9195220E-01
         -4   -1    0    0    0  501 -0.00000000000E+00  0.00000000000E+00  0.96460447546E+03  0.96460447546E+03  0.00000000000E+00 0. -1.
         21   -1    0    0  501  502  0.00000000000E+00 -0.00000000000E+00 -0.51710344105E+03  0.51710344105E+03  0.00000000000E+00 0. -1.
   -9000010    2    1    2    0  502 -0.56464146600E+02  0.32202981711E+03 -0.11690719142E+03  0.82944412056E+03  0.75327209876E+03 0.  0.
        -13    1    1    2    0    0  0.56464146600E+02 -0.32202981711E+03  0.56440822583E+03  0.65226379595E+03  0.10566000000E+00 0.  1.
         13    1    3    3    0    0  0.19205495238E+03 -0.55340933204E+01 -0.31815239176E+03  0.37166744069E+03  0.10566000000E+00 0. -1.
         -4    1    3    3    0  502 -0.24851909898E+03  0.32756391043E+03  0.20124520034E+03  0.45777667987E+03  0.00000000000E+00 0. -1.
</event>
<event>
 6    1  0.2569591E-005  0.1038752E+04  0.7818608E-02  0.9021427E-01
         21   -1    0    0  501  502  0.00000000000E+00  0.00000000000E+00  0.15033717783E+03  0.15033717783E+03  0.00000000000E+00 0.  1.
          4   -1    0    0  502    0 -0.00000000000E+00 -0.00000000000E+00 -0.30745700711E+04  0.30745700711E+04  0.00000000000E+00 0.  1.
    9000010    2    1    2  501    0  0.26933402313E+03 -0.17461505994E+03 -0.22317072757E+04  0.24616098119E+04  0.98791409877E+03 0.  0.
        -13    1    3    3    0    0  0.23477197131E+03  0.39788939131E+03 -0.90016800946E+03  0.10117985485E+04  0.10566000000E+00 0.  1.
         13    1    1    2    0    0 -0.26933402313E+03  0.17461505994E+03 -0.69252561756E+03  0.76329743699E+03  0.10566000000E+00 0. -1.
          4    1    3    3  501    0  0.34562051817E+02 -0.57250445126E+03 -0.13315392662E+04  0.14498112634E+04  0.00000000000E+00 0.  1.
</event>
<event>
 6    1  0.2569591E-005  0.1005447E+04  0.7818608E-02  0.9251239E-01
          4   -1    0    0  502    0 -0.00000000000E+00  0.00000000000E+00  0.13292768472E+04  0.13292768472E+04  0.00000000000E+00 0.  1.
         21   -1    0    0  501  502  0.00000000000E+00 -0.00000000000E+00 -0.26204290018E+03  0.26204290018E+03  0.00000000000E+00 0.  1.
    9000010    2    1    2  501    0 -0.12793083185E+03 -0.65047400804E+02  0.78830549025E+03  0.12776343042E+04  0.99515144942E+03 0.  0.
        -13    1    3    3    0    0  0.39627097637E+02 -0.50353210107E+03  0.25052973367E+03  0.56380851563E+03  0.10566000000E+00 0.  1.
         13    1    1    2    0    0  0.12793083185E+03  0.65047400804E+02  0.27892845678E+03  0.31368544316E+03  0.10566000000E+00 0. -1.
          4    1    3    3  501    0 -0.16755792948E+03  0.43848470027E+03  0.53777575658E+03  0.71382578860E+03  0.00000000000E+00 0.  1.
</event>
<event>
 6    1  0.2569591E-005  0.1008752E+04  0.7818608E-02  0.9388652E-01
          4   -1    0    0  502    0 -0.00000000000E+00  0.00000000000E+00  0.22564650705E+04  0.22564650705E+04  0.00000000000E+00 0.  1.
         21   -1    0    0  501  502  0.00000000000E+00 -0.00000000000E+00 -0.13435681504E+03  0.13435681504E+03  0.00000000000E+00 0.  1.
    9000010    2    1    2  501    0 -0.73098692990E+02  0.42612835292E+02  0.18676189609E+04  0.21226352250E+04  0.10051967185E+04 0.  0.
        -13    1    3    3    0    0  0.31502998397E+03 -0.30033373057E+03  0.51527453695E+03  0.67450137147E+03  0.10566000000E+00 0.  1.
         13    1    1    2    0    0  0.73098692990E+02 -0.42612835292E+02  0.25448929462E+03  0.26818666054E+03  0.10566000000E+00 0. -1.
          4    1    3    3  501    0 -0.38812867697E+03  0.34294656586E+03  0.13523444239E+04  0.14481338536E+04  0.00000000000E+00 0.  1.
</event>
<event>
 6    1  0.2569591E-005  0.1179194E+04  0.7818608E-02  0.8766486E-01
         21   -1    0    0  501  502  0.00000000000E+00  0.00000000000E+00  0.77078585504E+03  0.77078585504E+03  0.00000000000E+00 0.  1.
          4   -1    0    0  502    0 -0.00000000000E+00 -0.00000000000E+00 -0.14157249201E+04  0.14157249201E+04  0.00000000000E+00 0.  1.
    9000010    2    1    2  501    0  0.40644826229E+03  0.48306715769E+03  0.13071190916E+03  0.11864165227E+04  0.99596410246E+03 0.  0.
        -13    1    3    3    0    0  0.20387876030E+03  0.51727901297E+03  0.51037422405E+03  0.75473570599E+03  0.10566000000E+00 0.  1.
         13    1    1    2    0    0 -0.40644826229E+03 -0.48306715769E+03 -0.77565097420E+03  0.10000942524E+04  0.10566000000E+00 0. -1.
          4    1    3    3  501    0  0.20256950199E+03 -0.34211855278E+02 -0.37966231488E+03  0.43168081671E+03  0.00000000000E+00 0.  1.
</event>
<event>
 6    1  0.2569591E-005  0.1047345E+04  0.7818608E-02  0.9017152E-01
          4   -1    0    0  502    0 -0.00000000000E+00  0.00000000000E+00  0.19997789251E+04  0.19997789251E+04  0.00000000000E+00 0.  1.
         21   -1    0    0  501  502  0.00000000000E+00 -0.00000000000E+00 -0.75173142138E+03  0.75173142138E+03  0.00000000000E+00 0.  1.
    9000010    2    1    2  501    0 -0.31066583842E+03 -0.70607059910E+02 -0.36360883430E+03  0.11086668411E+04  0.99771346596E+03 0.  0.
        -13    1    3    3    0    0  0.36659239783E+03 -0.47799080644E+02 -0.12641626162E+03  0.39071194072E+03  0.10566000000E+00 0.  1.
         13    1    1    2    0    0  0.31066583842E+03  0.70607059910E+02  0.16116563380E+04  0.16428435053E+04  0.10566000000E+00 0. -1.
          4    1    3    3  501    0 -0.67725823625E+03 -0.22807979267E+02 -0.23719257267E+03  0.71795490040E+03  0.00000000000E+00 0.  1.
</event>
<event>
 5    1  0.2569591E-005  0.8847816E+03  0.7818608E-02  0.8899659E-01
         21   -1    0    0  501  502  0.00000000000E+00  0.00000000000E+00  0.20422758911E+03  0.20422758911E+03  0.00000000000E+00 0.  1.
         -4   -1    0    0    0  501 -0.00000000000E+00 -0.00000000000E+00 -0.38197580319E+04  0.38197580319E+04  0.00000000000E+00 0. -1.
        -13    1    1    2    0    0 -0.14066284236E+03 -0.84229768392E+03 -0.21317141936E+04  0.22964008444E+04  0.10566000000E+00 0.  1.
         13    1    1    2    0    0  0.19799023173E+03  0.75085815854E+03 -0.13178833822E+04  0.15296420256E+04  0.10566000000E+00 0. -1.
         -4    1    1    2    0  502 -0.57327389363E+02  0.91439525374E+02 -0.16593286698E+03  0.19794275111E+03  0.00000000000E+00 0. -1.
</event>
<event>
 5    1  0.2569591E-005  0.6644727E+03  0.7818608E-02  0.9239395E-01
         -4   -1    0    0    0  501 -0.00000000000E+00  0.00000000000E+00  0.24843630968E+04  0.24843630968E+04  0.00000000000E+00 0. -1.
         21   -1    0    0  501  502  0.00000000000E+00 -0.00000000000E+00 -0.19202674894E+03  0.19202674894E+03  0.00000000000E+00 0.  1.
        -13    1    1    2    0    0 -0.39936755282E+03  0.33355027333E+03  0.17278966931E+04  0.18045434936E+04  0.10566000000E+00 0.  1.
         13    1    1    2    0    0  0.15438503270E+03 -0.38118860243E+03  0.30635027041E+03  0.51282549497E+03  0.10566000000E+00 0. -1.
         -4    1    1    2    0  502  0.24498252012E+03  0.47638329105E+02  0.25808938431E+03  0.35902085714E+03  0.00000000000E+00 0. -1.
</event>
<event>
 5    1  0.2569591E-005  0.5554398E+03  0.7818608E-02  0.9421112E-01
         21   -1    0    0  501  502  0.00000000000E+00  0.00000000000E+00  0.11917276961E+03  0.11917276961E+03  0.00000000000E+00 0. -1.
          4   -1    0    0  502    0 -0.00000000000E+00 -0.00000000000E+00 -0.21447827015E+04  0.21447827015E+04  0.00000000000E+00 0.  1.
        -13    1    1    2    0    0  0.44050410050E+03  0.14900121772E+03 -0.78271588725E+03  0.91043363116E+03  0.10566000000E+00 0.  1.
         13    1    1    2    0    0 -0.44501248580E+03 -0.62679410633E+02 -0.10326528793E+04  0.11262046002E+04  0.10566000000E+00 0. -1.
          4    1    1    2  501    0  0.45083853096E+01 -0.86321807087E+02 -0.21024116527E+03  0.22731723976E+03  0.00000000000E+00 0.  1.
</event>
<event>
 5    1  0.2569591E-005  0.4626726E+03  0.7818608E-02  0.9772021E-01
         21   -1    0    0  501  502  0.00000000000E+00  0.00000000000E+00  0.57369937691E+02  0.57369937691E+02  0.00000000000E+00 0.  1.
         -4   -1    0    0    0  501 -0.00000000000E+00 -0.00000000000E+00 -0.20527602633E+04  0.20527602633E+04  0.00000000000E+00 0. -1.
        -13    1    1    2    0    0 -0.21959631649E+03 -0.38109355255E+02 -0.60204668112E+03  0.64197747826E+03  0.10566000000E+00 0.  1.
         13    1    1    2    0    0  0.17171646056E+03  0.21722270928E+03 -0.80545946182E+03  0.85172601466E+03  0.10566000000E+00 0. -1.
         -4    1    1    2    0  502  0.47879855930E+02 -0.17911335402E+03 -0.58788418269E+03  0.61642670810E+03  0.00000000000E+00 0. -1.
</event>
<event>
 6    1  0.2569591E-005  0.9830607E+03  0.7818608E-02  0.9179086E-01
         -4   -1    0    0    0  501 -0.00000000000E+00  0.00000000000E+00  0.19106503862E+04  0.19106503862E+04  0.00000000000E+00 0. -1.
         21   -1    0    0  501  502  0.00000000000E+00 -0.00000000000E+00 -0.18417217731E+03  0.18417217731E+03  0.00000000000E+00 0. -1.
   -9000010    2    1    2    0  502  0.19537745148E+03  0.54665300970E+02  0.14527137976E+04  0.17540768992E+04  0.96189799201E+03 0.  0.
        -13    1    1    2    0    0 -0.19537745148E+03 -0.54665300970E+02  0.27376441131E+03  0.34074566430E+03  0.10566000000E+00 0.  1.
         13    1    3    3    0    0  0.35967200294E+03 -0.26471016273E+03  0.27883321235E+03  0.52648209032E+03  0.10566000000E+00 0. -1.
         -4    1    3    3    0  502 -0.16429455146E+03  0.31937546370E+03  0.11738805853E+04  0.12275948089E+04  0.00000000000E+00 0. -1.
</event>
<event>
 6    1  0.2569591E-005  0.1173104E+04  0.7818608E-02  0.8806177E-01
         21   -1    0    0  501  502  0.00000000000E+00  0.00000000000E+00  0.29470494554E+03  0.29470494554E+03  0.00000000000E+00 0.  1.
          4   -1    0    0  502    0 -0.00000000000E+00 -0.00000000000E+00 -0.29360124560E+04  0.29360124560E+04  0.00000000000E+00 0.  1.
    9000010    2    1    2  501    0 -0.41022455364E+03 -0.35384100721E+03 -0.11446250281E+04  0.16390057106E+04  0.10405218026E+04 0.  0.
        -13    1    3    3    0    0 -0.92512786579E+02 -0.30051162571E+02  0.19865812813E+03  0.22119392191E+03  0.10566000000E+00 0.  1.
         13    1    1    2    0    0  0.41022455364E+03  0.35384100721E+03 -0.14966824823E+04  0.15917116908E+04  0.10566000000E+00 0. -1.
          4    1    3    3  501    0 -0.31771176706E+03 -0.32378984464E+03 -0.13432831562E+04  0.14178117887E+04  0.00000000000E+00 0.  1.
</event>
<event>
 6    1  0.2569591E-005  0.1301194E+04  0.7818608E-02  0.8637921E-01
         21   -1    0    0  501  502  0.00000000000E+00  0.00000000000E+00  0.66888854624E+03  0.66888854624E+03  0.00000000000E+00 0. -1.
          4   -1    0    0  502    0 -0.00000000000E+00 -0.00000000000E+00 -0.24989447231E+04  0.24989447231E+04  0.00000000000E+00 0.  1.
    9000010    2    1    2  501    0 -0.61135983897E+02 -0.81737870161E+03 -0.16454837909E+03  0.13115569467E+04  0.10105740473E+04 0.  0.
        -13    1    3    3    0    0 -0.12011074681E+03 -0.86965002863E+03  0.23136170931E+03  0.90787995654E+03  0.10566000000E+00 0.  1.
         13    1    1    2    0    0  0.61135983897E+02  0.81737870161E+03 -0.16655077978E+04  0.18562763227E+04  0.10566000000E+00 0. -1.
          4    1    3    3  501    0  0.58974762909E+02  0.52271327019E+02 -0.39591008840E+03  0.40367699016E+03  0.00000000000E+00 0.  1.
</event>
<event>
 5    1  0.2569591E-005  0.2056706E+03  0.7818608E-02  0.1062148E+00
          4   -1    0    0  502    0 -0.00000000000E+00  0.00000000000E+00  0.94062092583E+03  0.94062092583E+03  0.00000000000E+00 0.  1.
         21   -1    0    0  501  502  0.00000000000E+00 -0.00000000000E+00 -0.42664772277E+02  0.42664772277E+02  0.00000000000E+00 0. -1.
        -13    1    1    2    0    0  0.16280881842E+02 -0.17828398250E+03  0.24581440670E+03  0.30409698985E+03  0.10566000000E+00 0.  1.
         13    1    1    2    0    0 -0.22528969978E+01  0.17343021378E+03  0.57332726382E+03  0.59898854514E+03  0.10566000000E+00 0. -1.
          4    1    1    2  501    0 -0.14027984844E+02  0.48537687188E+01  0.78814483026E+02  0.80200163118E+02  0.00000000000E+00 0.  1.
</event>
<event>
 6    1  0.2569591E-005  0.8825936E+03  0.7818608E-02  0.9185935E-01
         -4   -1    0    0    0  501 -0.00000000000E+00  0.00000000000E+00  0.32471562641E+04  0.32471562641E+04  0.00000000000E+00 0. -1.
         21   -1    0    0  501  502  0.00000000000E+00 -0.00000000000E+00 -0.10744092046E+03  0.10744092046E+03  0.00000000000E+00 0. -1.
   -9000010    2    1    2    0  502  0.15278078152E+03 -0.22622314581E+03  0.20640287541E+04  0.22448131835E+04  0.83931677704E+03 0.  0.
        -13    1    1    2    0    0 -0.15278078152E+03  0.22622314581E+03  0.10756865896E+04  0.11097840011E+04  0.10566000000E+00 0.  1.
         13    1    3    3    0    0  0.28607642641E+03 -0.14736895410E+03  0.20985546939E+03  0.38418310683E+03  0.10566000000E+00 0. -1.
         -4    1    3    3    0  502 -0.13329564488E+03 -0.78854191710E+02  0.18541732847E+04  0.18606300767E+04  0.00000000000E+00 0. -1.
</event>
<event>
 6    1  0.2569591E-005  0.1026641E+04  0.7818608E-02  0.9102446E-01
         -4   -1    0    0    0  501 -0.00000000000E+00  0.00000000000E+00  0.24071931898E+04  0.24071931898E+04  0.00000000000E+00 0. -1.
         21   -1    0    0  501  502  0.00000000000E+00 -0.00000000000E+00 -0.21335296172E+03  0.21335296172E+03  0.00000000000E+00 0.  1.
   -9000010    2    1    2    0  502 -0.23367478215E+03 -0.57410496416E+02  0.21406621340E+04  0.23741160605E+04  0.99804450202E+03 0.  0.
        -13    1    1    2    0    0  0.23367478215E+03  0.57410496416E+02  0.53178094141E+02  0.24643009104E+03  0.10566000000E+00 0.  1.
         13    1    3    3    0    0 -0.25685103247E+02  0.39897070851E+03  0.41168987641E+03  0.57386925016E+03  0.10566000000E+00 0. -1.
         -4    1    3    3    0  502 -0.20798967890E+03 -0.45638120492E+03  0.17289722576E+04  0.18002468104E+04  0.00000000000E+00 0. -1.
</event>
<event>
 6    1  0.2569591E-005  0.1071385E+04  0.7818608E-02  0.8920900E-01
         21   -1    0    0  501  502  0.00000000000E+00  0.00000000000E+00  0.86701959779E+03  0.86701959779E+03  0.00000000000E+00 0.  1.
          4   -1    0    0  502    0 -0.00000000000E+00 -0.00000000000E+00 -0.93194162604E+03  0.93194162604E+03  0.00000000000E+00 0.  1.
    9000010    2    1    2  501    0  0.49379088696E+02 -0.43779185828E+03  0.41365986269E+03  0.11484686081E+04  0.97660926490E+03 0.  0.
        -13    1    3    3    0    0  0.25992450028E+03  0.18722018799E+03  0.36723764851E+03  0.48731473021E+03  0.10566000000E+00 0.  1.
         13    1    1    2    0    0 -0.49379088696E+02  0.43779185828E+03 -0.47858189094E+03  0.65049261569E+03  0.10566000000E+00 0. -1.
          4    1    3    3  501    0 -0.21054541158E+03 -0.62501204627E+03  0.46422214185E+02  0.66115387792E+03  0.00000000000E+00 0.  1.
</event>
<event>
 6    1  0.2569591E-005  0.1013214E+04  0.7818608E-02  0.9217604E-01
         21   -1    0    0  501  502  0.00000000000E+00  0.00000000000E+00  0.26217872078E+03  0.26217872078E+03  0.00000000000E+00 0. -1.
         -4   -1    0    0    0  501 -0.00000000000E+00 -0.00000000000E+00 -0.15081861364E+04  0.15081861364E+04  0.00000000000E+00 0. -1.
   -9000010    2    1    2    0  502  0.98311172791E+02  0.12573374809E+03 -0.78265406196E+03  0.12802930220E+04  0.10005642305E+04 0.  0.
        -13    1    1    2    0    0 -0.98311172791E+02 -0.12573374809E+03 -0.46335335361E+03  0.49007183511E+03  0.10566000000E+00 0.  1.
         13    1    3    3    0    0 -0.39420058028E+03  0.13653926372E+03 -0.84204862578E+02  0.42559081061E+03  0.10566000000E+00 0. -1.
         -4    1    3    3    0  502  0.49251175307E+03 -0.10805515624E+02 -0.69844919938E+03  0.85470221141E+03  0.00000000000E+00 0. -1.
</event>
<event>
 5    1  0.2569591E-005  0.2517441E+03  0.7818608E-02  0.1060441E+00
         21   -1    0    0  501  502  0.00000000000E+00  0.00000000000E+00  0.15973014313E+03  0.15973014313E+03  0.00000000000E+00 0.  1.
         -4   -1    0    0    0  501 -0.00000000000E+00 -0.00000000000E+00 -0.47668035632E+03  0.47668035632E+03  0.00000000000E+00 0. -1.
        -13    1    1    2    0    0  0.11208287973E+02 -0.98762432842E+02  0.10530522993E+03  0.14480623769E+03  0.10566000000E+00 0.  1.
         13    1    1    2    0    0  0.88609750373E+02  0.91087262281E+02 -0.33681031982E+03  0.35998580515E+03  0.10566000000E+00 0. -1.
         -4    1    1    2    0  502 -0.99818038346E+02  0.76751705603E+01 -0.85445123305E+02  0.13161845660E+03  0.00000000000E+00 0. -1.
</event>
<event>
 6    1  0.2569591E-005  0.1049304E+04  0.7818608E-02  0.8962808E-01
         -4   -1    0    0    0  501 -0.00000000000E+00  0.00000000000E+00  0.91590375417E+03  0.91590375417E+03  0.00000000000E+00 0. -1.
         21   -1    0    0  501  502  0.00000000000E+00 -0.00000000000E+00 -0.59297952100E+03  0.59297952100E+03  0.00000000000E+00 0. -1.
   -9000010    2    1    2    0  502  0.29387093391E+03  0.26382753958E+03  0.96691219003E+02  0.10537497955E+04  0.97214934206E+03 0.  0.
        -13    1    1    2    0    0 -0.29387093391E+03 -0.26382753958E+03  0.22623301417E+03  0.45513347965E+03  0.10566000000E+00 0.  1.
         13    1    3    3    0    0  0.11824339443E+03  0.29974947039E+03 -0.40699687561E+03  0.51911242833E+03  0.10566000000E+00 0. -1.
         -4    1    3    3    0  502  0.17562753948E+03 -0.35921930814E+02  0.50368809461E+03  0.53463736718E+03  0.00000000000E+00 0. -1.
</event>
<event>
 6    1  0.2569591E-005  0.1283918E+04  0.7818608E-02  0.8650752E-01
          4   -1    0    0  502    0 -0.00000000000E+00  0.00000000000E+00  0.25048229451E+04  0.25048229451E+04  0.00000000000E+00 0.  1.
         21   -1    0    0  501  502  0.00000000000E+00 -0.00000000000E+00 -0.51091451996E+03  0.51091451996E+03  0.00000000000E+00 0.  1.
    9000010    2    1    2  501    0 -0.50863488106E+03 -0.62587955824E+03  0.62746149698E+03  0.14290390431E+04  0.99900450089E+03 0.  0.
        -13    1    3    3    0    0 -0.43300910471E+03 -0.47446953125E+03 -0.12788805543E+03  0.65496075205E+03  0.10566000000E+00 0.  1.
         13    1    1    2    0    0  0.50863488106E+03  0.62587955824E+03  0.13664469282E+04  0.15866984220E+04  0.10566000000E+00 0. -1.
          4    1    3    3  501    0 -0.75625776355E+02 -0.15141002699E+03  0.75534955241E+03  0.77407829103E+03  0.00000000000E+00 0.  1.
</event>
<event>
 6    1  0.2569591E-005  0.1179900E+04  0.7818608E-02  0.8763873E-01
         21   -1    0    0  501  502  0.00000000000E+00  0.00000000000E+00  0.43487410814E+03  0.43487410814E+03  0.00000000000E+00 0.  1.
         -4   -1    0    0    0  501 -0.00000000000E+00 -0.00000000000E+00 -0.38381658120E+04  0.38381658120E+04  0.00000000000E+00 0. -1.
   -9000010    2    1    2    0  502 -0.16871519219E+03 -0.61450192266E+03 -0.46792309278E+03  0.12692978668E+04  0.99301944836E+03 0.  0.
        -13    1    1    2    0    0  0.16871519219E+03  0.61450192266E+03 -0.29353686111E+04  0.30037420534E+04  0.10566000000E+00 0.  1.
         13    1    3    3    0    0 -0.28268519128E+03 -0.75622192310E+02  0.23568858898E+03  0.37573761521E+03  0.10566000000E+00 0. -1.
         -4    1    3    3    0  502  0.11396999909E+03 -0.53887973035E+03 -0.70361168177E+03  0.89356025157E+03  0.00000000000E+00 0. -1.
</event>
<event>
 6    1  0.2569591E-005  0.1106026E+04  0.7818608E-02  0.8889795E-01
         21   -1    0    0  501  502  0.00000000000E+00  0.00000000000E+00  0.54777503174E+03  0.54777503174E+03  0.00000000000E+00 0. -1.
         -4   -1    0    0    0  501 -0.00000000000E+00 -0.00000000000E+00 -0.12833343623E+04  0.12833343623E+04  0.00000000000E+00 0. -1.
   -9000010    2    1    2    0  502 -0.39606595055E+03  0.22479473899E+03 -0.19297979392E+03  0.11227355686E+04  0.10079151970E+04 0.  0.
        -13    1    1    2    0    0  0.39606595055E+03 -0.22479473899E+03 -0.54257953667E+03  0.70837382549E+03  0.10566000000E+00 0.  1.
         13    1    3    3    0    0  0.16757833072E+03  0.15775741224E+03  0.29502495690E+03  0.37417861297E+03  0.10566000000E+00 0. -1.
         -4    1    3    3    0  502 -0.56364428127E+03  0.67037326751E+02 -0.48800475082E+03  0.74855695562E+03  0.00000000000E+00 0. -1.
</event>
<event>
 6    1  0.2569591E-005  0.1101476E+04  0.7818608E-02  0.8920085E-01
         21   -1    0    0  501  502  0.00000000000E+00  0.00000000000E+00  0.21655665933E+03  0.21655665933E+03  0.00000000000E+00 0. -1.
         -4   -1    0    0    0  501 -0.00000000000E+00 -0.00000000000E+00 -0.29576843627E+04  0.29576843627E+04  0.00000000000E+00 0. -1.
   -9000010    2    1    2    0  502 -0.40279700170E+03 -0.56930676482E+02 -0.14523967646E+04  0.18228291788E+04  0.10236031099E+04 0.  0.
        -13    1    1    2    0    0  0.40279700170E+03  0.56930676482E+02 -0.12887309388E+04  0.13514118433E+04  0.10566000000E+00 0.  1.
         13    1    3    3    0    0  0.26606341967E+03  0.24886181538E+03 -0.43397803981E+03  0.56662059320E+03  0.10566000000E+00 0. -1.
         -4    1    3    3    0  502 -0.66886042138E+03 -0.30579249186E+03 -0.10184187248E+04  0.12562085856E+04  0.00000000000E+00 0. -1.
</event>
<event>
 5    1  0.2569591E-005  0.2095235E+03  0.7818608E-02  0.1062632E+00
         21   -1    0    0  501  502  0.00000000000E+00  0.00000000000E+00  0.28340582476E+03  0.28340582476E+03  0.00000000000E+00 0.  1.
         -4   -1    0    0    0  501 -0.00000000000E+00 -0.00000000000E+00 -0.19324127599E+03  0.19324127599E+03  0.00000000000E+00 0. -1.
        -13    1    1    2    0    0  0.16136233031E+03 -0.11321319286E+02  0.18578359790E+03  0.24633621400E+03  0.10566000000E+00 0.  1.
         13    1    1    2    0    0 -0.34287522754E+02 -0.56638167652E+01  0.33560118639E+02  0.48311548972E+02  0.10566000000E+00 0. -1.
         -4    1    1    2    0  502 -0.12707480756E+03  0.16985136051E+02 -0.12917916777E+03  0.18199933777E+03  0.00000000000E+00 0. -1.
</event>
<event>
 5    1  0.2569591E-005  0.1219255E+03  0.7818608E-02  0.1204551E+00
         21   -1    0    0  501  502  0.00000000000E+00  0.00000000000E+00  0.31970160548E+02  0.31970160548E+02  0.00000000000E+00 0. -1.
         -4   -1    0    0    0  501 -0.00000000000E+00 -0.00000000000E+00 -0.22326300149E+03  0.22326300149E+03  0.00000000000E+00 0. -1.
        -13    1    1    2    0    0 -0.12940341594E+02  0.17377760547E+02 -0.10156353779E+03  0.10384894017E+03  0.10566000000E+00 0.  1.
         13    1    1    2    0    0 -0.43918609086E+02 -0.99308863317E+01 -0.15646570051E+00  0.45027795559E+02  0.10566000000E+00 0. -1.
         -4    1    1    2    0  502  0.56858950680E+02 -0.74468742148E+01 -0.89572837454E+02  0.10635642631E+03  0.00000000000E+00 0. -1.
</event>
<event>
 6    1  0.2569591E-005  0.1195521E+04  0.7818608E-02  0.8749608E-01
          4   -1    0    0  502    0 -0.00000000000E+00  0.00000000000E+00  0.16075401906E+04  0.16075401906E+04  0.00000000000E+00 0.  1.
         21   -1    0    0  501  502  0.00000000000E+00 -0.00000000000E+00 -0.53151806801E+03  0.53151806801E+03  0.00000000000E+00 0. -1.
    9000010    2    1    2  501    0 -0.55196873420E+03  0.34534782971E+03  0.64766130265E+03  0.13596818347E+04  0.10026639125E+04 0.  0.
        -13    1    3    3    0    0  0.14727858547E+02  0.34534597446E+03 -0.15361751453E+03  0.37825798580E+03  0.10566000000E+00 0.  1.
         13    1    1    2    0    0  0.55196873420E+03 -0.34534782971E+03  0.42836081997E+03  0.77937642399E+03  0.10566000000E+00 0. -1.
          4    1    3    3  501    0 -0.56669659275E+03  0.18552518046E-02  0.80127881718E+03  0.98142384885E+03  0.00000000000E+00 0.  1.
</event>
<event>
 5    1  0.2569591E-005  0.1314518E+03  0.7818608E-02  0.1145970E+00
         21   -1    0    0  501  502  0.00000000000E+00  0.00000000000E+00  0.44494272000E+03  0.44494272000E+03  0.00000000000E+00 0.  1.
         -4   -1    0    0    0  501 -0.00000000000E+00 -0.00000000000E+00 -0.36288321660E+02  0.36288321660E+02  0.00000000000E+00 0. -1.
        -13    1    1    2    0    0 -0.12786834927E+02 -0.68307131249E+02  0.30779889613E+03  0.31554641331E+03  0.10566000000E+00 0.  1.
         13    1    1    2    0    0 -0.26929700913E+02  0.37323991942E+02 -0.70868575965E+01  0.46567412214E+02  0.10566000000E+00 0. -1.
         -4    1    1    2    0  502  0.39716535840E+02  0.30983139307E+02  0.10794235980E+03  0.11911721614E+03  0.00000000000E+00 0. -1.
</event>
<event>
 5    1  0.2569591E-005  0.3698238E+02  0.7818608E-02  0.1401604E+00
          4   -1    0    0  502    0 -0.00000000000E+00  0.00000000000E+00  0.39819196795E+02  0.39819196795E+02  0.00000000000E+00 0.  1.
         21   -1    0    0  501  502  0.00000000000E+00 -0.00000000000E+00 -0.19763047459E+02  0.19763047459E+02  0.00000000000E+00 0.  1.
        -13    1    1    2    0    0  0.26601355239E+02  0.18910757130E+01  0.43368495121E+01  0.27019024698E+02  0.10566000000E+00 0.  1.
         13    1    1    2    0    0 -0.16476591834E+02 -0.38438471739E+01  0.14303261138E+02  0.22155082549E+02  0.10566000000E+00 0. -1.
          4    1    1    2  501    0 -0.10124763405E+02  0.19527714609E+01  0.14160386862E+01  0.10408137006E+02  0.00000000000E+00 0.  1.
</event>
<event>
 6    1  0.2569591E-005  0.1064559E+04  0.7818608E-02  0.8935025E-01
         -4   -1    0    0    0  501 -0.00000000000E+00  0.00000000000E+00  0.93536422516E+03  0.93536422516E+03  0.00000000000E+00 0. -1.
         21   -1    0    0  501  502  0.00000000000E+00 -0.00000000000E+00 -0.63833182417E+03  0.63833182417E+03  0.00000000000E+00 0. -1.
   -9000010    2    1    2    0  502 -0.33154916616E+03  0.26388737192E+03  0.14982766975E+02  0.10646642214E+04  0.97658795117E+03 0.  0.
        -13    1    1    2    0    0  0.33154916616E+03 -0.26388737192E+03  0.28204963402E+03  0.50903182794E+03  0.10566000000E+00 0.  1.
         13    1    3    3    0    0 -0.12677276001E+03  0.50926083298E+03 -0.30945917687E+03  0.60924783299E+03  0.10566000000E+00 0. -1.
         -4    1    3    3    0  502 -0.20477640615E+03 -0.24537346105E+03  0.32444194385E+03  0.45541638841E+03  0.00000000000E+00 0. -1.
</event>
<event>
 6    1  0.2569591E-005  0.1047097E+04  0.7818608E-02  0.9032385E-01
         -4   -1    0    0    0  501 -0.00000000000E+00  0.00000000000E+00  0.21074280163E+04  0.21074280163E+04  0.00000000000E+00 0. -1.
         21   -1    0    0  501  502  0.00000000000E+00 -0.00000000000E+00 -0.26008260030E+03  0.26008260030E+03  0.00000000000E+00 0.  1.
   -9000010    2    1    2    0  502 -0.19119823161E+03  0.23099796451E+03  0.17721251204E+04  0.20583586679E+04  0.10032428121E+04 0.  0.
        -13    1    1    2    0    0  0.19119823161E+03 -0.23099796451E+03  0.75220295671E+02  0.30915194876E+03  0.10566000000E+00 0.  1.
         13    1    3    3    0    0 -0.46366724867E+03 -0.18521644292E+03  0.57226657363E+03  0.75946131611E+03  0.10566000000E+00 0. -1.
         -4    1    3    3    0  502  0.27246901706E+03  0.41621440743E+03  0.11998585468E+04  0.12988973518E+04  0.00000000000E+00 0. -1.
</event>
<event>
 6    1  0.2569591E-005  0.1132300E+04  0.7818608E-02  0.8852145E-01
         -4   -1    0    0    0  501 -0.00000000000E+00  0.00000000000E+00  0.10112793492E+04  0.10112793492E+04  0.00000000000E+00 0. -1.
         21   -1    0    0  501  502  0.00000000000E+00 -0.00000000000E+00 -0.66399148778E+03  0.66399148778E+03  0.00000000000E+00 0. -1.
   -9000010    2    1    2    0  502 -0.19500476248E+03  0.45664048366E+03  0.32593331636E+03  0.11782764543E+04  0.10176224680E+04 0.  0.
        -13    1    1    2    0    0  0.19500476248E+03 -0.45664048366E+03  0.21354545090E+02  0.49699438273E+03  0.10566000000E+00 0.  1.
         13    1    3    3    0    0  0.21203750582E+03  0.57495941176E+03 -0.45741915164E+02  0.61451652786E+03  0.10566000000E+00 0. -1.
         -4    1    3    3    0  502 -0.40704226829E+03 -0.11831892810E+03  0.37167523153E+03  0.56375992644E+03  0.00000000000E+00 0. -1.
</event>
<event>
 6    1  0.2569591E-005  0.1009472E+04  0.7818608E-02  0.9206995E-01
         21   -1    0    0  501  502  0.00000000000E+00  0.00000000000E+00  0.16820073480E+03  0.16820073480E+03  0.00000000000E+00 0.  1.
          4   -1    0    0  502    0 -0.00000000000E+00 -0.00000000000E+00 -0.20622051300E+04  0.20622051300E+04  0.00000000000E+00 0.  1.
    9000010    2    1    2  501    0  0.15136862183E+03 -0.73201522310E+02 -0.16406163447E+04  0.19263064767E+04  0.99537115145E+03 0.  0.
        -13    1    3    3    0    0 -0.24839229074E+03  0.29395227667E+03 -0.32714824476E+03  0.50510657912E+03  0.10566000000E+00 0.  1.
         13    1    1    2    0    0 -0.15136862183E+03  0.73201522310E+02 -0.25338805053E+03  0.30409938813E+03  0.10566000000E+00 0. -1.
          4    1    3    3  501    0  0.39976091257E+03 -0.36715379898E+03 -0.13134680999E+04  0.14211998975E+04  0.00000000000E+00 0.  1.
</event>
<event>
 5    1  0.2569591E-005  0.2529376E+03  0.7818608E-02  0.1031714E+00
         21   -1    0    0  501  502  0.00000000000E+00  0.00000000000E+00  0.43587688001E+03  0.43587688001E+03  0.00000000000E+00 0. -1.
          4   -1    0    0  502    0 -0.00000000000E+00 -0.00000000000E+00 -0.15476912142E+03  0.15476912142E+03  0.00000000000E+00 0.  1.
        -13    1    1    2    0    0  0.17144267758E+03  0.15645638393E+02  0.11487012128E+03  0.20696022232E+03  0.10566000000E+00 0.  1.
         13    1    1    2    0    0 -0.22895485529E+03 -0.35905110182E+02  0.29061877222E+02  0.23356820539E+03  0.10566000000E+00 0. -1.
          4    1    1    2  501    0  0.57512177706E+02  0.20259471788E+02  0.13717576009E+03  0.15011757372E+03  0.00000000000E+00 0.  1.
</event>
<event>
 6    1  0.2569591E-005  0.1183578E+04  0.7818608E-02  0.8769874E-01
          4   -1    0    0  502    0 -0.00000000000E+00  0.00000000000E+00  0.12297330984E+04  0.12297330984E+04  0.00000000000E+00 0.  1.
         21   -1    0    0  501  502  0.00000000000E+00 -0.00000000000E+00 -0.66640274531E+03  0.66640274531E+03  0.00000000000E+00 0. -1.
    9000010    2    1    2  501    0 -0.31085074231E+03 -0.53108710395E+03  0.26787854679E+03  0.12135133441E+04  0.10110262235E+04 0.  0.
        -13    1    3    3    0    0  0.37186992629E+03 -0.22480333501E+03  0.77457906933E+02  0.44138817386E+03  0.10566000000E+00 0.  1.
         13    1    1    2    0    0  0.31085074231E+03  0.53108710395E+03  0.29545180634E+03  0.68262249964E+03  0.10566000000E+00 0. -1.
          4    1    3    3  501    0 -0.68272066861E+03 -0.30628376894E+03  0.19042063986E+03  0.77212517026E+03  0.00000000000E+00 0.  1.
</event>
<event>
 6    1  0.2569591E-005  0.1042528E+04  0.7818608E-02  0.9078351E-01
         21   -1    0    0  501  502  0.00000000000E+00  0.00000000000E+00  0.13683519380E+04  0.13683519380E+04  0.00000000000E+00 0. -1.
         -4   -1    0    0    0  501 -0.00000000000E+00 -0.00000000000E+00 -0.34186223993E+03  0.34186223993E+03  0.00000000000E+00 0. -1.
   -9000010    2    1    2    0  502 -0.14988079506E+02 -0.25239250996E+03  0.10181769241E+04  0.14572403947E+04  0.10114043195E+04 0.  0.
        -13    1    1    2    0    0  0.14988079506E+02  0.25239250996E+03  0.83127739416E+01  0.25297378320E+03  0.10566000000E+00 0.  1.
         13    1    3    3    0    0 -0.25767385243E+03  0.54381111964E+01  0.10689110479E+04  0.10995436448E+04  0.10566000000E+00 0. -1.
         -4    1    3    3    0  502  0.24268577292E+03 -0.25783062116E+03 -0.50734123800E+02  0.35769674992E+03  0.00000000000E+00 0. -1.
</event>
<event>
 6    1  0.2569591E-005  0.1336727E+04  0.7818608E-02  0.8605959E-01
         21   -1    0    0  501  502  0.00000000000E+00  0.00000000000E+00  0.15987876794E+04  0.15987876794E+04  0.00000000000E+00 0.  1.
         -4   -1    0    0    0  501 -0.00000000000E+00 -0.00000000000E+00 -0.80741887621E+03  0.80741887621E+03  0.00000000000E+00 0. -1.
   -9000010    2    1    2    0  502  0.41663412945E+03 -0.76429260993E+03  0.19461518827E+03  0.13508193852E+04  0.10144509591E+04 0.  0.
        -13    1    1    2    0    0 -0.41663412945E+03  0.76429260993E+03  0.59675361495E+03  0.10553871704E+04  0.10566000000E+00 0.  1.
         13    1    3    3    0    0 -0.23965641392E+03 -0.91823002295E+02 -0.20623939577E+03  0.32924361804E+03  0.10566000000E+00 0. -1.
         -4    1    3    3    0  502  0.65629054337E+03 -0.67246960763E+03  0.40085458404E+03  0.10215757672E+04  0.00000000000E+00 0. -1.
</event>
<event>
 6    1  0.2569591E-005  0.9773031E+03  0.7818608E-02  0.9373068E-01
          4   -1    0    0  502    0 -0.00000000000E+00  0.00000000000E+00  0.15997138337E+04  0.15997138337E+04  0.00000000000E+00 0.  1.
         21   -1    0    0  501  502  0.00000000000E+00 -0.00000000000E+00 -0.21760765938E+03  0.21760765938E+03  0.00000000000E+00 0.  1.
    9000010    2    1    2  501    0  0.98604789026E+02  0.50885841717E+00  0.91116297008E+03  0.13361659297E+04  0.97231593137E+03 0.  0.
        -13    1    3    3    0    0 -0.64637586798E+01  0.33648274362E+03 -0.23545779597E+02  0.33736750264E+03  0.10566000000E+00 0.  1.
         13    1    1    2    0    0 -0.98604789026E+02 -0.50885841717E+00  0.47094320422E+03  0.48115556333E+03  0.10566000000E+00 0. -1.
          4    1    3    3  501    0  0.10506854771E+03 -0.33597388521E+03  0.93470874968E+03  0.99879842710E+03  0.00000000000E+00 0.  1.
</event>
<event>
 6    1  0.2569591E-005  0.9895867E+03  0.7818608E-02  0.9278062E-01
         -4   -1    0    0    0  501 -0.00000000000E+00  0.00000000000E+00  0.50632324634E+03  0.50632324634E+03  0.00000000000E+00 0. -1.
         21   -1    0    0  501  502  0.00000000000E+00 -0.00000000000E+00 -0.64616791690E+03  0.64616791690E+03  0.00000000000E+00 0. -1.
   -9000010    2    1    2    0  502  0.13503494197E+03 -0.15053920804E+02 -0.18999343711E+03  0.10076603446E+04  0.98021467435E+03 0.  0.
        -13    1    1    2    0    0 -0.13503494197E+03  0.15053920804E+02  0.50148766549E+02  0.14483081866E+03  0.10566000000E+00 0.  1.
         13    1    3    3    0    0  0.26538241852E+03  0.21177324775E+03 -0.49851500209E+03  0.60315251388E+03  0.10566000000E+00 0. -1.
         -4    1    3    3    0  502 -0.13034747655E+03 -0.22682716855E+03  0.30852156499E+03  0.40450783070E+03  0.00000000000E+00 0. -1.
</event>
<event>
 6    1  0.2569591E-005  0.1098225E+04  0.7818608E-02  0.8913705E-01
         21   -1    0    0  501  502  0.00000000000E+00  0.00000000000E+00  0.37316419464E+03  0.37316419464E+03  0.00000000000E+00 0.  1.
          4   -1    0    0  502    0 -0.00000000000E+00 -0.00000000000E+00 -0.18637736274E+04  0.18637736274E+04  0.00000000000E+00 0.  1.
    9000010    2    1    2  501    0 -0.33859269543E+03  0.25080514882E+03 -0.59943230832E+03  0.12511665938E+04  0.10141747962E+04 0.  0.
        -13    1    3    3    0    0  0.21080664330E+03 -0.56848120452E+02  0.15553887704E+03  0.26807368967E+03  0.10566000000E+00 0.  1.
         13    1    1    2    0    0  0.33859269543E+03 -0.25080514882E+03 -0.89117712442E+03  0.98577122819E+03  0.10566000000E+00 0. -1.
          4    1    3    3  501    0 -0.54939933873E+03  0.30765326927E+03 -0.75497118536E+03  0.98309290417E+03  0.00000000000E+00 0.  1.
</event>
<event>
 6    1  0.2569591E-005  0.1208193E+04  0.7818608E-02  0.8744165E-01
         -4   -1    0    0    0  501 -0.00000000000E+00  0.00000000000E+00  0.89545493151E+03  0.89545493151E+03  0.00000000000E+00 0. -1.
         21   -1    0    0  501  502  0.00000000000E+00 -0.00000000000E+00 -0.13592375762E+04  0.13592375762E+04  0.00000000000E+00 0.  1.
   -9000010    2    1    2    0  502  0.31950759925E+03  0.56111685860E+03 -0.87268268375E+03  0.14904042846E+04  0.10211721843E+04 0.  0.
        -13    1    1    2    0    0 -0.31950759925E+03 -0.56111685860E+03  0.40890003903E+03  0.76428822317E+03  0.10566000000E+00 0.  1.
         13    1    3    3    0    0 -0.11925061841E+03  0.16798281464E+03 -0.87740476141E+03  0.90126470169E+03  0.10566000000E+00 0. -1.
         -4    1    3    3    0  502  0.43875821766E+03  0.39313404397E+03  0.47220776566E+01  0.58913958287E+03  0.00000000000E+00 0. -1.
</event>
<event>
 5    1  0.2569591E-005  0.1789681E+03  0.7818608E-02  0.1111520E+00
         21   -1    0    0  501  502  0.00000000000E+00  0.00000000000E+00  0.54455367666E+02  0.54455367666E+02  0.00000000000E+00 0. -1.
         -4   -1    0    0    0  501 -0.00000000000E+00 -0.00000000000E+00 -0.33094154336E+03  0.33094154336E+03  0.00000000000E+00 0. -1.
        -13    1    1    2    0    0 -0.57143073448E+02  0.34657780518E+02 -0.14941483125E+02  0.68481761627E+02  0.10566000000E+00 0.  1.
         13    1    1    2    0    0  0.74018419663E+02 -0.86490128198E+02 -0.12082178515E+03  0.16600356519E+03  0.10566000000E+00 0. -1.
         -4    1    1    2    0  502 -0.16875346214E+02  0.51832347681E+02 -0.14072290742E+03  0.15091158421E+03  0.00000000000E+00 0. -1.
</event>
<event>
 5    1  0.2569591E-005  0.4443523E+02  0.7818608E-02  0.1338428E+00
         -4   -1    0    0    0  501 -0.00000000000E+00  0.00000000000E+00  0.17921794150E+03  0.17921794150E+03  0.00000000000E+00 0. -1.
         21   -1    0    0  501  502  0.00000000000E+00 -0.00000000000E+00 -0.45375414438E+02  0.45375414438E+02  0.00000000000E+00 0.  1.
        -13    1    1    2    0    0 -0.13243771388E+02  0.26270667442E+02 -0.37453998222E+02  0.47627288347E+02  0.10566000000E+00 0.  1.
         13    1    1    2    0    0 -0.40996187272E+01 -0.25922524411E+02  0.85663084500E+02  0.89593299725E+02  0.10566000000E+00 0. -1.
         -4    1    1    2    0  502  0.17343390115E+02 -0.34814303183E+00  0.85633440787E+02  0.87372767870E+02  0.00000000000E+00 0. -1.
</event>
<event>
 5    1  0.2569591E-005  0.5391634E+03  0.7818608E-02  0.9601663E-01
         21   -1    0    0  501  502  0.00000000000E+00  0.00000000000E+00  0.71692315890E+02  0.71692315890E+02  0.00000000000E+00 0. -1.
          4   -1    0    0  502    0 -0.00000000000E+00 -0.00000000000E+00 -0.26924640854E+04  0.26924640854E+04  0.00000000000E+00 0.  1.
        -13    1    1    2    0    0 -0.24275305237E+03 -0.19537760550E+03 -0.41613855013E+03  0.51987763679E+03  0.10566000000E+00 0.  1.
         13    1    1    2    0    0  0.87791531872E+02  0.23980652527E+03 -0.14863345603E+04  0.15081130458E+04  0.10566000000E+00 0. -1.
          4    1    1    2  501    0  0.15496152049E+03 -0.44428919779E+02 -0.71829865912E+03  0.73616571873E+03  0.00000000000E+00 0.  1.
</event>
<event>
 6    1  0.2569591E-005  0.1094596E+04  0.7818608E-02  0.8872201E-01
          4   -1    0    0  502    0 -0.00000000000E+00  0.00000000000E+00  0.19700924612E+04  0.19700924612E+04  0.00000000000E+00 0.  1.
         21   -1    0    0  501  502  0.00000000000E+00 -0.00000000000E+00 -0.34729709766E+03  0.34729709766E+03  0.00000000000E+00 0.  1.
    9000010    2    1    2  501    0 -0.46985660502E+03  0.18641349915E+03  0.81584455739E+03  0.13651895606E+04  0.97088875400E+03 0.  0.
        -13    1    3    3    0    0 -0.46325393056E+02 -0.39769012491E+02 -0.21741245988E+03  0.22582250834E+03  0.10566000000E+00 0.  1.
         13    1    1    2    0    0  0.46985660502E+03 -0.18641349915E+03  0.80695080611E+03  0.95219999821E+03  0.10566000000E+00 0. -1.
          4    1    3    3  501    0 -0.42353121196E+03  0.22618251164E+03  0.10332570173E+04  0.11393670523E+04  0.00000000000E+00 0.  1.
</event>
<event>
 5    1  0.2569591E-005  0.2372664E+03  0.7818608E-02  0.1076436E+00
         21   -1    0    0  501  502  0.00000000000E+00  0.00000000000E+00  0.31622302460E+02  0.31622302460E+02  0.00000000000E+00 0. -1.
          4   -1    0    0  502    0 -0.00000000000E+00 -0.00000000000E+00 -0.94219881009E+03  0.94219881009E+03  0.00000000000E+00 0.  1.
        -13    1    1    2    0    0 -0.73483655910E+02  0.65288608024E+02 -0.94409993697E+02  0.13629272944E+03  0.10566000000E+00 0.  1.
         13    1    1    2    0    0  0.62760952014E+02  0.41067917589E+02 -0.44495946852E+03  0.45123657957E+03  0.10566000000E+00 0. -1.
          4    1    1    2  501    0  0.10722703897E+02 -0.10635652561E+03 -0.37120704541E+03  0.38629180354E+03  0.00000000000E+00 0.  1.
</event>
<event>
 5    1  0.2569591E-005  0.1035122E+03  0.7818608E-02  0.1164593E+00
         -4   -1    0    0    0  501 -0.00000000000E+00  0.00000000000E+00  0.58518503230E+02  0.58518503230E+02  0.00000000000E+00 0. -1.
         21   -1    0    0  501  502  0.00000000000E+00 -0.00000000000E+00 -0.16078604940E+03  0.16078604940E+03  0.00000000000E+00 0.  1.
        -13    1    1    2    0    0  0.59050460407E+02 -0.68027279201E+02 -0.40529072054E+02  0.98778967576E+02  0.10566000000E+00 0.  1.
         13    1    1    2    0    0 -0.65874255526E+02  0.47892307721E+02 -0.42560957030E+02  0.91894161443E+02  0.10566000000E+00 0. -1.
         -4    1    1    2    0  502  0.68237951190E+01  0.20134971480E+02 -0.19177517082E+02  0.28631423607E+02  0.00000000000E+00 0. -1.
</event>
<event>
 6    1  0.2569591E-005  0.1237636E+04  0.7818608E-02  0.8723857E-01
         21   -1    0    0  501  502  0.00000000000E+00  0.00000000000E+00  0.32188429279E+03  0.32188429279E+03  0.00000000000E+00 0. -1.
         -4   -1    0    0    0  501 -0.00000000000E+00 -0.00000000000E+00 -0.34919905918E+04  0.34919905918E+04  0.00000000000E+00 0. -1.
   -9000010    2    1    2    0  502  0.30455134546E+03  0.58041594689E+03 -0.11476419255E+04  0.16878465812E+04  0.10498142212E+04 0.  0.
        -13    1    1    2    0    0 -0.30455134546E+03 -0.58041594689E+03 -0.20224643735E+04  0.21260283033E+04  0.10566000000E+00 0.  1.
         13    1    3    3    0    0 -0.21159001745E+02 -0.28427902208E+03 -0.13002799113E+03  0.31332021223E+03  0.10566000000E+00 0. -1.
         -4    1    3    3    0  502  0.32571034721E+03  0.86469496897E+03 -0.10176139344E+04  0.13745263690E+04  0.00000000000E+00 0. -1.
</event>
<event>
 6    1  0.2569591E-005  0.1017124E+04  0.7818608E-02  0.9088504E-01
          4   -1    0    0  502    0 -0.00000000000E+00  0.00000000000E+00  0.22921185566E+04  0.22921185566E+04  0.00000000000E+00 0.  1.
         21   -1    0    0  501  502  0.00000000000E+00 -0.00000000000E+00 -0.18706150248E+03  0.18706150248E+03  0.00000000000E+00 0. -1.
    9000010    2    1    2  501    0  0.54366724678E+02  0.25578177145E+03  0.18643911776E+04  0.21237927624E+04  0.98293498216E+03 0.  0.
        -13    1    3    3    0    0  0.61610704193E+00  0.35605801284E+03  0.12006042487E+03  0.37575551211E+03  0.10566000000E+00 0.  1.
         13    1    1    2    0    0 -0.54366724678E+02 -0.25578177145E+03  0.24066587653E+03  0.35538729669E+03  0.10566000000E+00 0. -1.
          4    1    3    3  501    0  0.53750617636E+02 -0.10027624139E+03  0.17443307527E+04  0.17480372503E+04  0.00000000000E+00 0.  1.
</event>
<event>
 5    1  0.2569591E-005  0.3674531E+03  0.7818608E-02  0.9867062E-01
         -4   -1    0    0    0  501 -0.00000000000E+00  0.00000000000E+00  0.21878710832E+04  0.21878710832E+04  0.00000000000E+00 0. -1.
         21   -1    0    0  501  502  0.00000000000E+00 -0.00000000000E+00 -0.63122018688E+02  0.63122018688E+02  0.00000000000E+00 0.  1.
        -13    1    1    2    0    0  0.17471653367E+03  0.27053680360E+03  0.58275892495E+03  0.66582580681E+03  0.10566000000E+00 0.  1.
         13    1    1    2    0    0 -0.69844789166E+02 -0.24533863677E+03  0.96270441902E+03  0.99592627781E+03  0.10566000000E+00 0. -1.
         -4    1    1    2    0  502 -0.10487174450E+03 -0.25198166830E+02  0.57928572055E+03  0.58924101727E+03  0.00000000000E+00 0. -1.
</event>
<event>
 6    1  0.2569591E-005  0.9772995E+03  0.7818608E-02  0.9278473E-01
         21   -1    0    0  501  502  0.00000000000E+00  0.00000000000E+00  0.23346131588E+03  0.23346131588E+03  0.00000000000E+00 0.  1.
          4   -1    0    0  502    0 -0.00000000000E+00 -0.00000000000E+00 -0.14322632212E+04  0.14322632212E+04  0.00000000000E+00 0.  1.
    9000010    2    1    2  501    0  0.11304736684E+03 -0.84001250361E+02 -0.87162209357E+03  0.13095187572E+04  0.96709791869E+03 0.  0.
        -13    1    3    3    0    0 -0.22232101433E+03 -0.39478744473E+03 -0.19585648998E+03  0.49360260915E+03  0.10566000000E+00 0.  1.
         13    1    1    2    0    0 -0.11304736684E+03  0.84001250361E+02 -0.32717981176E+03  0.35620577985E+03  0.10566000000E+00 0. -1.
          4    1    3    3  501    0  0.33536838117E+03  0.31078619437E+03 -0.67576560359E+03  0.81591614808E+03  0.00000000000E+00 0.  1.
</event>
<event>
 6    1  0.2569591E-005  0.1039997E+04  0.7818608E-02  0.9133532E-01
         21   -1    0    0  501  502  0.00000000000E+00  0.00000000000E+00  0.23072453656E+03  0.23072453656E+03  0.00000000000E+00 0.  1.
          4   -1    0    0  502    0 -0.00000000000E+00 -0.00000000000E+00 -0.20725277558E+04  0.20725277558E+04  0.00000000000E+00 0.  1.
    9000010    2    1    2  501    0  0.16909555809E+03  0.11548382903E+03 -0.18214904026E+04  0.20974794948E+04  0.10196387212E+04 0.  0.
        -13    1    3    3    0    0  0.16366120606E+03  0.44227000069E+03 -0.34256500891E+03  0.58287094658E+03  0.10566000000E+00 0.  1.
         13    1    1    2    0    0 -0.16909555809E+03 -0.11548382903E+03 -0.20312816619E+02  0.20577279756E+03  0.10566000000E+00 0. -1.
          4    1    3    3  501    0  0.54343520301E+01 -0.32678617166E+03 -0.14789253937E+04  0.15146085482E+04  0.00000000000E+00 0.  1.
</event>
<event>
 6    1  0.2569591E-005  0.1053599E+04  0.7818608E-02  0.9010795E-01
          4   -1    0    0  502    0 -0.00000000000E+00  0.00000000000E+00  0.36427832917E+03  0.36427832917E+03  0.00000000000E+00 0.  1.
         21   -1    0    0  501  502  0.00000000000E+00 -0.00000000000E+00 -0.13297424242E+04  0.13297424242E+04  0.00000000000E+00 0.  1.
    9000010    2    1    2  501    0 -0.18395446677E+03  0.26315623132E+03 -0.84679930463E+03  0.13517170993E+04  0.10034837349E+04 0.  0.
        -13    1    3    3    0    0  0.17308328238E+03  0.45540192406E+03 -0.80911351344E+03  0.94446462288E+03  0.10566000000E+00 0.  1.
         13    1    1    2    0    0  0.18395446677E+03 -0.26315623132E+03 -0.11866479036E+03  0.34230365403E+03  0.10566000000E+00 0. -1.
          4    1    3    3  501    0 -0.35703774915E+03 -0.19224569274E+03 -0.37685791191E+02  0.40725247643E+03  0.00000000000E+00 0.  1.
</event>
<event>
 6    1  0.2569591E-005  0.1076533E+04  0.7818608E-02  0.8942309E-01
         -4   -1    0    0    0  501 -0.00000000000E+00  0.00000000000E+00  0.47372417620E+04  0.47372417620E+04  0.00000000000E+00 0. -1.
         21   -1    0    0  501  502  0.00000000000E+00 -0.00000000000E+00 -0.12587819608E+03  0.12587819608E+03  0.00000000000E+00 0. -1.
   -9000010    2    1    2    0  502  0.74642518563E+02 -0.39062931368E+03  0.26220611110E+04  0.28344536389E+04  0.10003800253E+04 0.  0.
        -13    1    1    2    0    0 -0.74642518563E+02  0.39062931368E+03  0.19893024549E+04  0.20286663192E+04  0.10566000000E+00 0.  1.
         13    1    3    3    0    0 -0.70904944882E+02  0.28997704218E+03  0.35961372891E+03  0.46737163091E+03  0.10566000000E+00 0. -1.
         -4    1    3    3    0  502  0.14554746344E+03 -0.68060635586E+03  0.22624473821E+04  0.23670820080E+04  0.00000000000E+00 0. -1.
</event>
<event>
 6    1  0.2569591E-005  0.9943553E+03  0.7818608E-02  0.9086455E-01
         21   -1    0    0  501  502  0.00000000000E+00  0.00000000000E+00  0.11595953429E+03  0.11595953429E+03  0.00000000000E+00 0. -1.
         -4   -1    0    0    0  501 -0.00000000000E+00 -0.00000000000E+00 -0.35169976820E+04  0.35169976820E+04  0.00000000000E+00 0. -1.
   -9000010    2    1    2    0  502  0.94905941401E+02  0.26571925649E+03 -0.26986902430E+04  0.28760513757E+04  0.95348236871E+03 0.  0.
        -13    1    1    2    0    0 -0.94905941401E+02 -0.26571925649E+03 -0.70234790473E+03  0.75690584053E+03  0.10566000000E+00 0.  1.
         13    1    3    3    0    0  0.12846993095E+03 -0.34083390147E+03 -0.73098714841E+03  0.81670955293E+03  0.10566000000E+00 0. -1.
         -4    1    3    3    0  502 -0.33563989550E+02  0.60655315797E+03 -0.19677030946E+04  0.20593418228E+04  0.00000000000E+00 0. -1.
</event>
<event>
 5    1  0.2569591E-005  0.1830761E+03  0.7818608E-02  0.1073307E+00
          4   -1    0    0  502    0 -0.00000000000E+00  0.00000000000E+00  0.22481649072E+03  0.22481649072E+03  0.00000000000E+00 0.  1.
         21   -1    0    0  501  502  0.00000000000E+00 -0.00000000000E+00 -0.21364126835E+03  0.21364126835E+03  0.00000000000E+00 0. -1.
        -13    1    1    2    0    0 -0.12076046548E+03  0.84694655295E+02  0.11289003059E+03  0.18574295365E+03  0.10566000000E+00 0.  1.
         13    1    1    2    0    0  0.15538856622E+03 -0.87671593455E+02 -0.11843463904E+03  0.21414642117E+03  0.10566000000E+00 0. -1.
          4    1    1    2  501    0 -0.34628100738E+02  0.29769381593E+01  0.16719830811E+02  0.38568384253E+02  0.00000000000E+00 0.  1.
</event>
<event>
 6    1  0.2569591E-005  0.1091299E+04  0.7818608E-02  0.8926597E-01
         21   -1    0    0  501  502  0.00000000000E+00  0.00000000000E+00  0.42696501935E+03  0.42696501935E+03  0.00000000000E+00 0.  1.
          4   -1    0    0  502    0 -0.00000000000E+00 -0.00000000000E+00 -0.22940942567E+04  0.22940942567E+04  0.00000000000E+00 0.  1.
    9000010    2    1    2  501    0  0.40477503725E+03 -0.44556734166E+02 -0.34370050576E+03  0.11441435380E+04  0.10124753156E+04 0.  0.
        -13    1    3    3    0    0 -0.24188361609E+03 -0.27985559922E+03  0.10804844560E+02  0.37005890879E+03  0.10566000000E+00 0.  1.
         13    1    1    2    0    0 -0.40477503725E+03  0.44556734166E+02 -0.15234287316E+04  0.15769157380E+04  0.10566000000E+00 0. -1.
          4    1    3    3  501    0  0.64665865334E+03  0.23529886506E+03 -0.35450535032E+03  0.77408462925E+03  0.00000000000E+00 0.  1.
</event>
<event>
 6    1  0.2569591E-005  0.1020259E+04  0.7818608E-02  0.9125758E-01
          4   -1    0    0  502    0 -0.00000000000E+00  0.00000000000E+00  0.38870259970E+04  0.38870259970E+04  0.00000000000E+00 0.  1.
         21   -1    0    0  501  502  0.00000000000E+00 -0.00000000000E+00 -0.10356111040E+03  0.10356111040E+03  0.00000000000E+00 0.  1.
    9000010    2    1    2  501    0  0.14888751254E+03 -0.16684588548E+03  0.27488449735E+04  0.29320771091E+04  0.99545087481E+03 0.  0.
        -13    1    3    3    0    0  0.21741791145E+03  0.69716569465E+02  0.65608875932E+02  0.23756153738E+03  0.10566000000E+00 0.  1.
         13    1    1    2    0    0 -0.14888751254E+03  0.16684588548E+03  0.10346199131E+04  0.10585099984E+04  0.10566000000E+00 0. -1.
          4    1    3    3  501    0 -0.68530398902E+02 -0.23656245494E+03  0.26832360976E+04  0.26945155717E+04  0.00000000000E+00 0.  1.
</event>
<event>
 6    1  0.2569591E-005  0.1196719E+04  0.7818608E-02  0.8745455E-01
         -4   -1    0    0    0  501 -0.00000000000E+00  0.00000000000E+00  0.13816460743E+04  0.13816460743E+04  0.00000000000E+00 0. -1.
         21   -1    0    0  501  502  0.00000000000E+00 -0.00000000000E+00 -0.75972490506E+03  0.75972490506E+03  0.00000000000E+00 0. -1.
   -9000010    2    1    2    0  502  0.60905831352E+03 -0.25631488359E+03 -0.51590750614E+02  0.11978310140E+04  0.99774154158E+03 0.  0.
        -13    1    1    2    0    0 -0.60905831352E+03  0.25631488359E+03  0.67351191982E+03  0.94353996530E+03  0.10566000000E+00 0.  1.
         13    1    3    3    0    0  0.26313767648E+03 -0.47254433764E+03 -0.39080299667E+03  0.66728298434E+03  0.10566000000E+00 0. -1.
         -4    1    3    3    0  502  0.34592063704E+03  0.21622945405E+03  0.33921224606E+03  0.53054802969E+03  0.00000000000E+00 0. -1.
</event>
<event>
 6    1  0.2569591E-005  0.1057054E+04  0.7818608E-02  0.9012255E-01
         -4   -1    0    0    0  501 -0.00000000000E+00  0.00000000000E+00  0.16028159535E+04  0.16028159535E+04  0.00000000000E+00 0. -1.
         21   -1    0    0  501  502  0.00000000000E+00 -0.00000000000E+00 -0.35320480176E+03  0.35320480176E+03  0.00000000000E+00 0. -1.
   -9000010    2    1    2    0  502 -0.30421984540E+03 -0.85740870595E+02  0.55728954835E+03  0.11949620027E+04  0.10086928848E+04 0.  0.
        -13    1    1    2    0    0  0.30421984540E+03  0.85740870595E+02  0.69232160341E+03  0.76105875262E+03  0.10566000000E+00 0.  1.
         13    1    3    3    0    0 -0.58908296794E+02 -0.49424662314E+03  0.52035183498E+02  0.50045737421E+03  0.10566000000E+00 0. -1.
         -4    1    3    3    0  502 -0.24531154861E+03  0.40850575254E+03  0.50525436485E+03  0.69450462845E+03  0.00000000000E+00 0. -1.
</event>
<event>
 6    1  0.2569591E-005  0.1467079E+04  0.7818608E-02  0.8495440E-01
         -4   -1    0    0    0  501 -0.00000000000E+00  0.00000000000E+00  0.29137571868E+04  0.29137571868E+04  0.00000000000E+00 0. -1.
         21   -1    0    0  501  502  0.00000000000E+00 -0.00000000000E+00 -0.60351175320E+03  0.60351175320E+03  0.00000000000E+00 0.  1.
   -9000010    2    1    2    0  502 -0.42380939371E+03 -0.99435080910E+03  0.83385396406E+03  0.16874930750E+04  0.99195388550E+03 0.  0.
        -13    1    1    2    0    0  0.42380939371E+03  0.99435080910E+03  0.14763914695E+04  0.18297758650E+04  0.10566000000E+00 0.  1.
         13    1    3    3    0    0  0.40124297303E+02 -0.97801724462E+03  0.41839443853E+03  0.10645100316E+04  0.10566000000E+00 0. -1.
         -4    1    3    3    0  502 -0.46393369101E+03 -0.16333564476E+02  0.41545952554E+03  0.62298304338E+03  0.00000000000E+00 0. -1.
</event>
<event>
 6    1  0.2569591E-005  0.1007456E+04  0.7818608E-02  0.9265401E-01
          4   -1    0    0  502    0 -0.00000000000E+00  0.00000000000E+00  0.25574384397E+04  0.25574384397E+04  0.00000000000E+00 0.  1.
         21   -1    0    0  501  502  0.00000000000E+00 -0.00000000000E+00 -0.13919767469E+03  0.13919767469E+03  0.00000000000E+00 0.  1.
    9000010    2    1    2  501    0  0.76074197046E+02 -0.11169280056E+03  0.17901128221E+04  0.20541353058E+04  0.99835132781E+03 0.  0.
        -13    1    3    3    0    0 -0.29455776546E+03  0.55852567643E+02  0.10042118442E+03  0.31617750070E+03  0.10566000000E+00 0.  1.
         13    1    1    2    0    0 -0.76074197046E+02  0.11169280056E+03  0.62812794298E+03  0.64250080862E+03  0.10566000000E+00 0. -1.
          4    1    3    3  501    0  0.37063196250E+03 -0.16754536821E+03  0.16896916377E+04  0.17379578051E+04  0.00000000000E+00 0.  1.
</event>
<event>
 6    1  0.2569591E-005  0.1009657E+04  0.7818608E-02  0.9281631E-01
         -4   -1    0    0    0  501 -0.00000000000E+00  0.00000000000E+00  0.13569910757E+04  0.13569910757E+04  0.00000000000E+00 0. -1.
         21   -1    0    0  501  502  0.00000000000E+00 -0.00000000000E+00 -0.29561320521E+03  0.29561320521E+03  0.00000000000E+00 0. -1.
   -9000010    2    1    2    0  502  0.95231710917E+01  0.12584239281E+03  0.60045044964E+03  0.11747119321E+04  0.10017386796E+04 0.  0.
        -13    1    1    2    0    0 -0.95231710917E+01 -0.12584239281E+03  0.46092742088E+03  0.47789234886E+03  0.10566000000E+00 0.  1.
         13    1    3    3    0    0 -0.16064569041E+03 -0.30624523581E+03 -0.76118670118E+02  0.35410061481E+03  0.10566000000E+00 0. -1.
         -4    1    3    3    0  502  0.17016886151E+03  0.43208762862E+03  0.67656911975E+03  0.82061131727E+03  0.00000000000E+00 0. -1.
</event>
<event>
 6    1  0.2569591E-005  0.1031649E+04  0.7818608E-02  0.9119622E-01
         21   -1    0    0  501  502  0.00000000000E+00  0.00000000000E+00  0.54167873050E+03  0.54167873050E+03  0.00000000000E+00 0.  1.
          4   -1    0    0  502    0 -0.00000000000E+00 -0.00000000000E+00 -0.72496392564E+03  0.72496392564E+03  0.00000000000E+00 0.  1.
    9000010    2    1    2  501    0 -0.11008666826E+03 -0.19230319102E+03 -0.14547251362E+03  0.10418551969E+04  0.10075715395E+04 0.  0.
        -13    1    3    3    0    0  0.44629639155E+03 -0.11010753579E+02 -0.67644220952E+02  0.45152791453E+03  0.10566000000E+00 0.  1.
         13    1    1    2    0    0  0.11008666826E+03  0.19230319102E+03 -0.37812681521E+02  0.22478745928E+03  0.10566000000E+00 0. -1.
          4    1    3    3  501    0 -0.55638305981E+03 -0.18129243744E+03 -0.77828292664E+02  0.59032728232E+03  0.00000000000E+00 0.  1.
</event>
<event>
 6    1  0.2569591E-005  0.1011706E+04  0.7818608E-02  0.9307604E-01
         21   -1    0    0  501  502  0.00000000000E+00  0.00000000000E+00  0.11572346727E+03  0.11572346727E+03  0.00000000000E+00 0.  1.
          4   -1    0    0  502    0 -0.00000000000E+00 -0.00000000000E+00 -0.32674149061E+04  0.32674149061E+04  0.00000000000E+00 0.  1.
    9000010    2    1    2  501    0 -0.94164298161E+02 -0.63660446189E+02 -0.30949232813E+04  0.32560864064E+04  0.10053004530E+04 0.  0.
        -13    1    3    3    0    0  0.11584510697E+03 -0.43559713748E+03 -0.76976680922E+03  0.89202349001E+03  0.10566000000E+00 0.  1.
         13    1    1    2    0    0  0.94164298161E+02  0.63660446189E+02 -0.56768157514E+02  0.12705196704E+03  0.10566000000E+00 0. -1.
          4    1    3    3  501    0 -0.21000940513E+03  0.37193669129E+03 -0.23251564721E+04  0.23640629163E+04  0.00000000000E+00 0.  1.
</event>
<event>
 5    1  0.2569591E-005  0.1280512E+03  0.7818608E-02  0.1165016E+00
         -4   -1    0    0    0  501 -0.00000000000E+00  0.00000000000E+00  0.95729097128E+02  0.95729097128E+02  0.00000000000E+00 0. -1.
         21   -1    0    0  501  502  0.00000000000E+00 -0.00000000000E+00 -0.15111250237E+03  0.15111250237E+03  0.00000000000E+00 0.  1.
        -13    1    1    2    0    0  0.10798294700E+02 -0.45845354486E+02 -0.10056897799E+03  0.11105192567E+03  0.10566000000E+00 0.  1.
         13    1    1    2    0    0 -0.47638289293E+02  0.68947917583E+02  0.22645641074E+02  0.86810472695E+02  0.10566000000E+00 0. -1.
         -4    1    1    2    0  502  0.36839994593E+02 -0.23102563098E+02  0.22539931679E+02  0.48979201131E+02  0.00000000000E+00 0. -1.
</event>
<event>
 5    1  0.2569591E-005  0.2059400E+03  0.7818608E-02  0.1068877E+00
         21   -1    0    0  501  502  0.00000000000E+00  0.00000000000E+00  0.58662220483E+02  0.58662220483E+02  0.00000000000E+00 0.  1.
         -4   -1    0    0    0  501 -0.00000000000E+00 -0.00000000000E+00 -0.56722436121E+03  0.56722436121E+03  0.00000000000E+00 0. -1.
        -13    1    1    2    0    0 -0.15804318997E+02  0.14137375636E+03 -0.11993795303E+03  0.18606837245E+03  0.10566000000E+00 0.  1.
         13    1    1    2    0    0 -0.44968811142E+02 -0.13252769618E+03 -0.22414431634E+03  0.26424698663E+03  0.10566000000E+00 0. -1.
         -4    1    1    2    0  502  0.60773130139E+02 -0.88460601765E+01 -0.16447987136E+03  0.17557122261E+03  0.00000000000E+00 0. -1.
</event>
<event>
 5    1  0.2569591E-005  0.4118578E+03  0.7818608E-02  0.9704705E-01
         -4   -1    0    0    0  501 -0.00000000000E+00  0.00000000000E+00  0.16873725918E+04  0.16873725918E+04  0.00000000000E+00 0. -1.
         21   -1    0    0  501  502  0.00000000000E+00 -0.00000000000E+00 -0.10623782724E+03  0.10623782724E+03  0.00000000000E+00 0.  1.
        -13    1    1    2    0    0  0.14108588889E+03 -0.37294644097E+03  0.10381895893E+04  0.11121294486E+04  0.10566000000E+00 0.  1.
         13    1    1    2    0    0 -0.15400674785E+03  0.30294313049E+03  0.46458622131E+03  0.57561531155E+03  0.10566000000E+00 0. -1.
         -4    1    1    2    0  502  0.12920858960E+02  0.70003310476E+02  0.78358953942E+02  0.10586565891E+03  0.00000000000E+00 0. -1.
</event>
<event>
 6    1  0.2569591E-005  0.1127106E+04  0.7818608E-02  0.8884974E-01
         21   -1    0    0  501  502  0.00000000000E+00  0.00000000000E+00  0.75306530003E+03  0.75306530003E+03  0.00000000000E+00 0. -1.
         -4   -1    0    0    0  501 -0.00000000000E+00 -0.00000000000E+00 -0.87431846419E+03  0.87431846419E+03  0.00000000000E+00 0. -1.
   -9000010    2    1    2    0  502  0.42584075864E+03 -0.10682949707E+03  0.10769173125E+03  0.11322386648E+04  0.10380818812E+04 0.  0.
        -13    1    1    2    0    0 -0.42584075864E+03  0.10682949707E+03 -0.22894489541E+03  0.49514509940E+03  0.10566000000E+00 0.  1.
         13    1    3    3    0    0 -0.22128668474E+03 -0.66590478991E+02  0.36719387097E+03  0.43385877746E+03  0.10566000000E+00 0. -1.
         -4    1    3    3    0  502  0.64712744338E+03 -0.40239018075E+02 -0.25950213972E+03  0.69837988737E+03  0.00000000000E+00 0. -1.
</event>
<event>
 6    1  0.2569591E-005  0.1070872E+04  0.7818608E-02  0.8984491E-01
         21   -1    0    0  501  502  0.00000000000E+00  0.00000000000E+00  0.20777646279E+04  0.20777646279E+04  0.00000000000E+00 0.  1.
          4   -1    0    0  502    0 -0.00000000000E+00 -0.00000000000E+00 -0.63002314516E+03  0.63002314516E+03  0.00000000000E+00 0.  1.
    9000010    2    1    2  501    0 -0.28658904217E+02  0.33894162864E+03  0.18764567039E+04  0.21605222867E+04  0.10154132308E+04 0.  0.
        -13    1    3    3    0    0  0.38350649339E+03 -0.16262355834E+03  0.83837878042E+03  0.93616379059E+03  0.10566000000E+00 0.  1.
         13    1    1    2    0    0  0.28658904217E+02 -0.33894162864E+03 -0.42871522122E+03  0.54726548630E+03  0.10566000000E+00 0. -1.
          4    1    3    3  501    0 -0.41216539760E+03  0.50156518698E+03  0.10380779235E+04  0.12243584961E+04  0.00000000000E+00 0.  1.
</event>
<event>
 6    1  0.2569591E-005  0.1046146E+04  0.7818608E-02  0.9060291E-01
         -4   -1    0    0    0  501 -0.00000000000E+00  0.00000000000E+00  0.18572337725E+04  0.18572337725E+04  0.00000000000E+00 0. -1.
         21   -1    0    0  501  502  0.00000000000E+00 -0.00000000000E+00 -0.25392613145E+03  0.25392613145E+03  0.00000000000E+00 0. -1.
   -9000010    2    1    2    0  502 -0.53960201972E+02  0.26342313871E+03  0.98488603839E+03  0.14368092954E+04  0.10109980165E+04 0.  0.
        -13    1    1    2    0    0  0.53960201972E+02 -0.26342313871E+03  0.61842160260E+03  0.67435060847E+03  0.10566000000E+00 0.  1.
         13    1    3    3    0    0  0.41112241455E+03 -0.13373209139E+03  0.36199172436E+03  0.56386517154E+03  0.10566000000E+00 0. -1.
         -4    1    3    3    0  502 -0.46508261652E+03  0.39715523010E+03  0.62289431403E+03  0.87294412389E+03  0.00000000000E+00 0. -1.
</event>
<event>
 5    1  0.2569591E-005  0.1120332E+03  0.7818608E-02  0.1178448E+00
         21   -1    0    0  501  502  0.00000000000E+00  0.00000000000E+00  0.15952368319E+03  0.15952368319E+03  0.00000000000E+00 0. -1.
         -4   -1    0    0    0  501 -0.00000000000E+00 -0.00000000000E+00 -0.42342317995E+02  0.42342317995E+02  0.00000000000E+00 0. -1.
        -13    1    1    2    0    0  0.18077810586E+02 -0.47718473314E+02  0.25203119143E+02  0.56912813228E+02  0.10566000000E+00 0.  1.
         13    1    1    2    0    0  0.40251894769E+02  0.26698779603E+02  0.53044727880E+02  0.71741161021E+02  0.10566000000E+00 0. -1.
         -4    1    1    2    0  502 -0.58329705355E+02  0.21019693711E+02  0.38933518169E+02  0.73212026932E+02  0.00000000000E+00 0. -1.
</event>
<event>
 6    1  0.2569591E-005  0.1112336E+04  0.7818608E-02  0.8854989E-01
         21   -1    0    0  501  502  0.00000000000E+00  0.00000000000E+00  0.25939376187E+03  0.25939376187E+03  0.00000000000E+00 0.  1.
          4   -1    0    0  502    0 -0.00000000000E+00 -0.00000000000E+00 -0.29081419639E+04  0.29081419639E+04  0.00000000000E+00 0.  1.
    9000010    2    1    2  501    0  0.43550905472E+03 -0.27964354172E+03 -0.12352722952E+04  0.16622839869E+04  0.98459218080E+03 0.  0.
        -13    1    3    3    0    0 -0.20774485235E+03  0.10218372320E+03 -0.16301065507E+02  0.23208871766E+03  0.10566000000E+00 0.  1.
         13    1    1    2    0    0 -0.43550905472E+03  0.27964354172E+03 -0.14134759068E+04  0.15052517389E+04  0.10566000000E+00 0. -1.
          4    1    3    3  501    0  0.64325390707E+03 -0.38182726492E+03 -0.12189712297E+04  0.14301952692E+04  0.00000000000E+00 0.  1.
</event>
<event>
 6    1  0.2569591E-005  0.1011508E+04  0.7818608E-02  0.9295108E-01
         21   -1    0    0  501  502  0.00000000000E+00  0.00000000000E+00  0.54530088727E+03  0.54530088727E+03  0.00000000000E+00 0.  1.
          4   -1    0    0  502    0 -0.00000000000E+00 -0.00000000000E+00 -0.59741592599E+03  0.59741592599E+03  0.00000000000E+00 0.  1.
    9000010    2    1    2  501    0  0.17553341320E+02 -0.11794608805E+03  0.26149212145E+01  0.10115117099E+04  0.10044549278E+04 0.  0.
        -13    1    3    3    0    0  0.19312499664E+03 -0.41915514585E+03  0.30235688730E+03  0.55173181808E+03  0.10566000000E+00 0.  1.
         13    1    1    2    0    0 -0.17553341320E+02  0.11794608805E+03 -0.54729959938E+02  0.13120510339E+03  0.10566000000E+00 0. -1.
          4    1    3    3  501    0 -0.17557165532E+03  0.30120905781E+03 -0.29974196608E+03  0.45977989179E+03  0.00000000000E+00 0.  1.
</event>
<event>
 6    1  0.2569591E-005  0.1025839E+04  0.7818608E-02  0.9031410E-01
         21   -1    0    0  501  502  0.00000000000E+00  0.00000000000E+00  0.25833038280E+03  0.25833038280E+03  0.00000000000E+00 0. -1.
          4   -1    0    0  502    0 -0.00000000000E+00 -0.00000000000E+00 -0.19801592564E+04  0.19801592564E+04  0.00000000000E+00 0.  1.
    9000010    2    1    2  501    0  0.49665487292E+02  0.31626902994E+03 -0.93100285925E+03  0.13853199280E+04  0.97460362155E+03 0.  0.
        -13    1    3    3    0    0 -0.29638452262E+03  0.36995539911E+03 -0.10129590832E+03  0.48473874900E+03  0.10566000000E+00 0.  1.
         13    1    1    2    0    0 -0.49665487292E+02 -0.31626902994E+03 -0.79082601435E+03  0.85316971118E+03  0.10566000000E+00 0. -1.
          4    1    3    3  501    0  0.34605000991E+03 -0.53686369167E+02 -0.82970695093E+03  0.90058117903E+03  0.00000000000E+00 0.  1.
</event>
<event>
 6    1  0.2569591E-005  0.1050521E+04  0.7818608E-02  0.9411485E-01
          4   -1    0    0  502    0 -0.00000000000E+00  0.00000000000E+00  0.71828317248E+03  0.71828317248E+03  0.00000000000E+00 0.  1.
         21   -1    0    0  501  502  0.00000000000E+00 -0.00000000000E+00 -0.43664656097E+03  0.43664656097E+03  0.00000000000E+00 0.  1.
    9000010    2    1    2  501    0 -0.49723630185E+02 -0.47596194311E+02  0.25425370773E+03  0.10808509126E+04  0.10482632829E+04 0.  0.
        -13    1    3    3    0    0  0.20961152074E+03 -0.29970895731E+03 -0.26243582653E+03  0.45015000048E+03  0.10566000000E+00 0.  1.
         13    1    1    2    0    0  0.49723630185E+02  0.47596194311E+02  0.27382903782E+02  0.74078820828E+02  0.10566000000E+00 0. -1.
          4    1    3    3  501    0 -0.25933515092E+03  0.25211276300E+03  0.51668953425E+03  0.63070091214E+03  0.00000000000E+00 0.  1.
</event>
<event>
 6    1  0.2569591E-005  0.1009593E+04  0.7818608E-02  0.9291567E-01
          4   -1    0    0  502    0 -0.00000000000E+00  0.00000000000E+00  0.20544208298E+04  0.20544208298E+04  0.00000000000E+00 0.  1.
         21   -1    0    0  501  502  0.00000000000E+00 -0.00000000000E+00 -0.15700484578E+03  0.15700484578E+03  0.00000000000E+00 0.  1.
    9000010    2    1    2  501    0 -0.10773018390E+03  0.56285074197E+02  0.16244379318E+04  0.19126099627E+04  0.10022497059E+04 0.  0.
        -13    1    3    3    0    0 -0.23490475757E+03 -0.23268195196E+03  0.85352022826E+02  0.34147637526E+03  0.10566000000E+00 0.  1.
         13    1    1    2    0    0  0.10773018390E+03 -0.56285074197E+02  0.27297805219E+03  0.29881571284E+03  0.10566000000E+00 0. -1.
          4    1    3    3  501    0  0.12717457367E+03  0.28896702615E+03  0.15390859090E+04  0.15711335874E+04  0.00000000000E+00 0.  1.
</event>
<event>
 5    1  0.3651791E-005  0.1732839E+03  0.7818608E-02  0.1084843E+00
         21   -1    0    0  501  502  0.00000000000E+00  0.00000000000E+00  0.79766282725E+03  0.79766282725E+03  0.00000000000E+00 0.  1.
         -4   -1    0    0    0  501 -0.00000000000E+00 -0.00000000000E+00 -0.35823177775E+02  0.35823177775E+02  0.00000000000E+00 0. -1.
        -13    1    1    2    0    0  0.15188815355E+03  0.72553430503E+01  0.47099540933E+03  0.49493367026E+03  0.10566000000E+00 0.  1.
         13    1    1    2    0    0 -0.98549224099E+02 -0.19320351705E+02  0.10699365788E+03  0.14674085850E+03  0.10566000000E+00 0. -1.
         -4    1    1    2    0  502 -0.53338929447E+02  0.12065008655E+02  0.18385058226E+03  0.19181147626E+03  0.00000000000E+00 0. -1.
</event>
<event>
 6    1  0.2569591E-005  0.1190251E+04  0.7818608E-02  0.8752489E-01
         21   -1    0    0  501  502  0.00000000000E+00  0.00000000000E+00  0.38382302564E+03  0.38382302564E+03  0.00000000000E+00 0.  1.
         -4   -1    0    0    0  501 -0.00000000000E+00 -0.00000000000E+00 -0.22173505143E+04  0.22173505143E+04  0.00000000000E+00 0. -1.
   -9000010    2    1    2    0  502 -0.58156573847E+02 -0.64910235379E+03 -0.11116425146E+04  0.16286335769E+04  0.99598302938E+03 0.  0.
        -13    1    1    2    0    0  0.58156573847E+02  0.64910235379E+03 -0.72188497411E+03  0.97253996308E+03  0.10566000000E+00 0.  1.
         13    1    3    3    0    0  0.43769113557E+03 -0.99635998957E+02 -0.38389752814E+03  0.59065911127E+03  0.10566000000E+00 0. -1.
         -4    1    3    3    0  502 -0.49584770942E+03 -0.54946635483E+03 -0.72774498645E+03  0.10379744656E+04  0.00000000000E+00 0. -1.
</event>
<event>
 6    1  0.2569591E-005  0.1342230E+04  0.7818608E-02  0.8581316E-01
         21   -1    0    0  501  502  0.00000000000E+00  0.00000000000E+00  0.79580733469E+03  0.79580733469E+03  0.00000000000E+00 0. -1.
          4   -1    0    0  502    0 -0.00000000000E+00 -0.00000000000E+00 -0.18430792585E+04  0.18430792585E+04  0.00000000000E+00 0.  1.
    9000010    2    1    2  501    0  0.85065396955E+03  0.44329295649E+03 -0.10084810066E+04  0.16788732768E+04  0.93886139439E+03 0.  0.
        -13    1    3    3    0    0 -0.11316903365E+03 -0.13005311965E+03 -0.31846479803E+03  0.36213379138E+03  0.10566000000E+00 0.  1.
         13    1    1    2    0    0 -0.85065396955E+03 -0.44329295649E+03 -0.38790917260E+02  0.96001331637E+03  0.10566000000E+00 0. -1.
          4    1    3    3  501    0  0.96382300320E+03  0.57334607614E+03 -0.69001620853E+03  0.13167394855E+04  0.00000000000E+00 0.  1.
</event>
<event>
 5    1  0.3549515E-005  0.1066030E+03  0.7818608E-02  0.1163145E+00
         21   -1    0    0  501  502  0.00000000000E+00  0.00000000000E+00  0.50822949900E+02  0.50822949900E+02  0.00000000000E+00 0. -1.
          4   -1    0    0  502    0 -0.00000000000E+00 -0.00000000000E+00 -0.27478940585E+03  0.27478940585E+03  0.00000000000E+00 0.  1.
        -13    1    1    2    0    0  0.48497026901E+02 -0.50800139818E+02 -0.20436539493E+03  0.21609683393E+03  0.10566000000E+00 0.  1.
         13    1    1    2    0    0 -0.46117959633E+02  0.71890596275E+02 -0.92780880657E+01  0.85914015828E+02  0.10566000000E+00 0. -1.
          4    1    1    2  501    0 -0.23790672682E+01 -0.21090456457E+02 -0.10322972952E+02  0.23601505995E+02  0.00000000000E+00 0.  1.
</event>
<event>
 6    1  0.2569591E-005  0.1189570E+04  0.7818608E-02  0.8761114E-01
          4   -1    0    0  502    0 -0.00000000000E+00  0.00000000000E+00  0.29097602869E+04  0.29097602869E+04  0.00000000000E+00 0.  1.
         21   -1    0    0  501  502  0.00000000000E+00 -0.00000000000E+00 -0.28431247150E+03  0.28431247150E+03  0.00000000000E+00 0. -1.
    9000010    2    1    2  501    0 -0.37445809695E+03  0.50563641880E+03  0.16879105469E+04  0.20649743591E+04  0.10095494217E+04 0.  0.
        -13    1    3    3    0    0 -0.55378995176E+03 -0.90416681221E+02  0.69722376428E+03  0.89497456698E+03  0.10566000000E+00 0.  1.
         13    1    1    2    0    0  0.37445809695E+03 -0.50563641880E+03  0.93753726853E+03  0.11290983994E+04  0.10566000000E+00 0. -1.
          4    1    3    3  501    0  0.17933185481E+03  0.59605310002E+03  0.99068678262E+03  0.11699997921E+04  0.00000000000E+00 0.  1.
</event>
<event>
 6    1  0.2569591E-005  0.1698627E+04  0.7818608E-02  0.8350476E-01
         21   -1    0    0  501  502  0.00000000000E+00  0.00000000000E+00  0.94031965718E+03  0.94031965718E+03  0.00000000000E+00 0. -1.
          4   -1    0    0  502    0 -0.00000000000E+00 -0.00000000000E+00 -0.26624523459E+04  0.26624523459E+04  0.00000000000E+00 0.  1.
    9000010    2    1    2  501    0  0.49768515608E+03  0.12662551431E+04 -0.49169708862E+03  0.17683608226E+04  0.10169765827E+04 0.  0.
        -13    1    3    3    0    0  0.65736103006E+03  0.71648581336E+03 -0.65577475691E+03  0.11728239372E+04  0.10566000000E+00 0.  1.
         13    1    1    2    0    0 -0.49768515608E+03 -0.12662551431E+04 -0.12304356001E+04  0.18344111805E+04  0.10566000000E+00 0. -1.
          4    1    3    3  501    0 -0.15967587398E+03  0.54976932975E+03  0.16407766829E+03  0.59553688542E+03  0.00000000000E+00 0.  1.
</event>
<event>
 6    1  0.2569591E-005  0.1140761E+04  0.7818608E-02  0.8824368E-01
          4   -1    0    0  502    0 -0.00000000000E+00  0.00000000000E+00  0.94749057832E+03  0.94749057832E+03  0.00000000000E+00 0.  1.
         21   -1    0    0  501  502  0.00000000000E+00 -0.00000000000E+00 -0.87052489821E+03  0.87052489821E+03  0.00000000000E+00 0. -1.
    9000010    2    1    2  501    0 -0.48400482186E+03 -0.25186850161E+03 -0.26888246073E+03  0.11720206179E+04  0.10018164210E+04 0.  0.
        -13    1    3    3    0    0  0.78070028229E+01 -0.48765744181E+03 -0.37644567157E+03  0.61610233294E+03  0.10566000000E+00 0.  1.
         13    1    1    2    0    0  0.48400482186E+03  0.25186850161E+03  0.34584814083E+03  0.64599485863E+03  0.10566000000E+00 0. -1.
          4    1    3    3  501    0 -0.49181182468E+03  0.23578894020E+03  0.10756321084E+03  0.55591828496E+03  0.00000000000E+00 0.  1.
</event>
<event>
 6    1  0.2569591E-005  0.1063239E+04  0.7818608E-02  0.8965934E-01
         21   -1    0    0  501  502  0.00000000000E+00  0.00000000000E+00  0.25939846442E+03  0.25939846442E+03  0.00000000000E+00 0.  1.
         -4   -1    0    0    0  501 -0.00000000000E+00 -0.00000000000E+00 -0.22904220474E+04  0.22904220474E+04  0.00000000000E+00 0. -1.
   -9000010    2    1    2    0  502 -0.66772299193E+02  0.36879334983E+03 -0.18496130483E+04  0.21334350317E+04  0.99499222658E+03 0.  0.
        -13    1    1    2    0    0  0.66772299193E+02 -0.36879334983E+03 -0.18141053461E+03  0.41638548012E+03  0.10566000000E+00 0.  1.
         13    1    3    3    0    0 -0.10339765231E+03 -0.33893836375E+03 -0.63623070604E+03  0.72825806648E+03  0.10566000000E+00 0. -1.
         -4    1    3    3    0  502  0.36625353119E+02  0.70773171358E+03 -0.12133823423E+04  0.14051769652E+04  0.00000000000E+00 0. -1.
</event>
<event>
 6    1  0.2569591E-005  0.1304151E+04  0.7818608E-02  0.8634940E-01
         -4   -1    0    0    0  501 -0.00000000000E+00  0.00000000000E+00  0.34914616048E+04  0.34914616048E+04  0.00000000000E+00 0. -1.
         21   -1    0    0  501  502  0.00000000000E+00 -0.00000000000E+00 -0.34764329114E+03  0.34764329114E+03  0.00000000000E+00 0. -1.
   -9000010    2    1    2    0  502  0.73252912251E+03  0.37915267314E+03  0.23852050573E+04  0.27184578736E+04  0.10101754205E+04 0.  0.
        -13    1    1    2    0    0 -0.73252912251E+03 -0.37915267314E+03  0.75861325637E+03  0.11206470224E+04  0.10566000000E+00 0.  1.
         13    1    3    3    0    0 -0.24356500235E+03 -0.26468956078E+02  0.39044174371E+03  0.46094390375E+03  0.10566000000E+00 0. -1.
         -4    1    3    3    0  502  0.97609412486E+03  0.40562162922E+03  0.19947633136E+04  0.22575139698E+04  0.00000000000E+00 0. -1.
</event>
<event>
 6    1  0.2569591E-005  0.9852399E+03  0.7818608E-02  0.9282200E-01
         -4   -1    0    0    0  501 -0.00000000000E+00  0.00000000000E+00  0.12420279388E+04  0.12420279388E+04  0.00000000000E+00 0. -1.
         21   -1    0    0  501  502  0.00000000000E+00 -0.00000000000E+00 -0.36025559878E+03  0.36025559878E+03  0.00000000000E+00 0. -1.
   -9000010    2    1    2    0  502  0.38274785238E+02  0.13000871671E+03  0.33757967777E+03  0.10414690492E+04  0.97587423161E+03 0.  0.
        -13    1    1    2    0    0 -0.38274785238E+02 -0.13000871671E+03  0.54419266226E+03  0.56081448843E+03  0.10566000000E+00 0.  1.
         13    1    3    3    0    0  0.14277549421E+03  0.60379854863E+02 -0.32872071189E+03  0.36343897178E+03  0.10566000000E+00 0. -1.
         -4    1    3    3    0  502 -0.10450070898E+03  0.69628861851E+02  0.66630038966E+03  0.67803007738E+03  0.00000000000E+00 0. -1.
</event>
<event>
 6    1  0.2569591E-005  0.1128405E+04  0.7818608E-02  0.8841699E-01
         21   -1    0    0  501  502  0.00000000000E+00  0.00000000000E+00  0.82475550409E+03  0.82475550409E+03  0.00000000000E+00 0.  1.
          4   -1    0    0  502    0 -0.00000000000E+00 -0.00000000000E+00 -0.13279256707E+04  0.13279256707E+04  0.00000000000E+00 0.  1.
    9000010    2    1    2  501    0  0.35244875062E+03  0.38794389318E+03  0.32349313161E+03  0.11738590225E+04  0.99928805276E+03 0.  0.
        -13    1    3    3    0    0  0.21063062575E+03  0.15111606154E+03  0.67723689325E+03  0.72515594551E+03  0.10566000000E+00 0.  1.
         13    1    1    2    0    0 -0.35244875062E+03 -0.38794389318E+03 -0.82666329818E+03  0.97882215228E+03  0.10566000000E+00 0. -1.
          4    1    3    3  501    0  0.14181812487E+03  0.23682783165E+03 -0.35374376165E+03  0.44870307697E+03  0.00000000000E+00 0.  1.
</event>
<event>
 6    1  0.2569591E-005  0.1326798E+04  0.7818608E-02  0.8604119E-01
          4   -1    0    0  502    0 -0.00000000000E+00  0.00000000000E+00  0.20285796154E+04  0.20285796154E+04  0.00000000000E+00 0.  1.
         21   -1    0    0  501  502  0.00000000000E+00 -0.00000000000E+00 -0.89899832259E+03  0.89899832259E+03  0.00000000000E+00 0. -1.
    9000010    2    1    2  501    0 -0.57858936591E+02 -0.89558216098E+03  0.14585450314E+04  0.19717368340E+04  0.97722948699E+03 0.  0.
        -13    1    3    3    0    0  0.28816238385E+03  0.51605462616E+02  0.50591933436E+03  0.58451267504E+03  0.10566000000E+00 0.  1.
         13    1    1    2    0    0  0.57858936591E+02  0.89558216098E+03 -0.32896373860E+03  0.95584110399E+03  0.10566000000E+00 0. -1.
          4    1    3    3  501    0 -0.34602132044E+03 -0.94718762359E+03  0.95262569703E+03  0.13872241589E+04  0.00000000000E+00 0.  1.
</event>
<event>
 6    1  0.2569591E-005  0.1435535E+04  0.7818608E-02  0.8520727E-01
         -4   -1    0    0    0  501 -0.00000000000E+00  0.00000000000E+00  0.10566900229E+04  0.10566900229E+04  0.00000000000E+00 0. -1.
         21   -1    0    0  501  502  0.00000000000E+00 -0.00000000000E+00 -0.15174418325E+04  0.15174418325E+04  0.00000000000E+00 0.  1.
   -9000010    2    1    2    0  502 -0.98309638934E+03  0.30350102702E+03  0.26343538425E+02  0.14357763427E+04  0.10010835830E+04 0.  0.
        -13    1    1    2    0    0  0.98309638934E+03 -0.30350102702E+03 -0.48709534802E+03  0.11383555127E+04  0.10566000000E+00 0.  1.
         13    1    3    3    0    0 -0.23475473230E+03  0.55013426059E+03 -0.17370645901E+03  0.62284141969E+03  0.10566000000E+00 0. -1.
         -4    1    3    3    0  502 -0.74834165704E+03 -0.24663323357E+03  0.20004999744E+03  0.81293492301E+03  0.00000000000E+00 0. -1.
</event>
<event>
 6    1  0.2569591E-005  0.1005146E+04  0.7818608E-02  0.9204466E-01
          4   -1    0    0  502    0 -0.00000000000E+00  0.00000000000E+00  0.14246026392E+04  0.14246026392E+04  0.00000000000E+00 0.  1.
         21   -1    0    0  501  502  0.00000000000E+00 -0.00000000000E+00 -0.24839082900E+03  0.24839082900E+03  0.00000000000E+00 0.  1.
    9000010    2    1    2  501    0  0.68855104154E+02  0.15761128416E+03  0.90899431303E+03  0.13552080937E+04  0.99032114686E+03 0.  0.
        -13    1    3    3    0    0  0.39871555378E+02  0.24893692053E+02 -0.21650068473E+03  0.22154456546E+03  0.10566000000E+00 0.  1.
         13    1    1    2    0    0 -0.68855104154E+02 -0.15761128416E+03  0.26721749714E+03  0.31778537443E+03  0.10566000000E+00 0. -1.
          4    1    3    3  501    0  0.28983548776E+02  0.13271759211E+03  0.11254949978E+04  0.11336635283E+04  0.00000000000E+00 0.  1.
</event>
<event>
 5    1  0.2569591E-005  0.4221046E+03  0.7818608E-02  0.9710222E-01
         21   -1    0    0  501  502  0.00000000000E+00  0.00000000000E+00  0.40594074461E+03  0.40594074461E+03  0.00000000000E+00 0.  1.
         -4   -1    0    0    0  501 -0.00000000000E+00 -0.00000000000E+00 -0.39010532697E+03  0.39010532697E+03  0.00000000000E+00 0. -1.
        -13    1    1    2    0    0 -0.34354413523E+03  0.11836139166E+03  0.71367080764E+02  0.37030428470E+03  0.10566000000E+00 0.  1.
         13    1    1    2    0    0  0.17212441863E+03 -0.14099212678E+03 -0.10481137076E+03  0.24594924254E+03  0.10566000000E+00 0. -1.
         -4    1    1    2    0  502  0.17141971660E+03  0.22630735118E+02  0.49279707639E+02  0.17979254433E+03  0.00000000000E+00 0. -1.
</event>
<event>
 6    1  0.2569591E-005  0.1027822E+04  0.7818608E-02  0.9126262E-01
          4   -1    0    0  502    0 -0.00000000000E+00  0.00000000000E+00  0.31384566196E+04  0.31384566196E+04  0.00000000000E+00 0.  1.
         21   -1    0    0  501  502  0.00000000000E+00 -0.00000000000E+00 -0.14435505573E+03  0.14435505573E+03  0.00000000000E+00 0.  1.
    9000010    2    1    2  501    0  0.13821426442E+03  0.16895205456E+03  0.18341888012E+04  0.21025381444E+04  0.10043754829E+04 0.  0.
        -13    1    3    3    0    0 -0.23300734918E+03  0.42770379391E+03  0.51929896505E+03  0.71196515811E+03  0.10566000000E+00 0.  1.
         13    1    1    2    0    0 -0.13821426442E+03 -0.16895205456E+03  0.11599127627E+04  0.11802735310E+04  0.10566000000E+00 0. -1.
          4    1    3    3  501    0  0.37122161360E+03 -0.25875173936E+03  0.13148898361E+04  0.13905729863E+04  0.00000000000E+00 0.  1.
</event>
<event>
 6    1  0.2569591E-005  0.1012175E+04  0.7818608E-02  0.9145943E-01
          4   -1    0    0  502    0 -0.00000000000E+00  0.00000000000E+00  0.26365613130E+03  0.26365613130E+03  0.00000000000E+00 0.  1.
         21   -1    0    0  501  502  0.00000000000E+00 -0.00000000000E+00 -0.15835524176E+04  0.15835524176E+04  0.00000000000E+00 0.  1.
    9000010    2    1    2  501    0  0.63442514641E+02  0.20182336254E+03 -0.81408248344E+03  0.12989337668E+04  0.98981867957E+03 0.  0.
        -13    1    3    3    0    0 -0.41416927618E+03  0.16013655664E+01 -0.62055223503E+03  0.74607227617E+03  0.10566000000E+00 0.  1.
         13    1    1    2    0    0 -0.63442514641E+02 -0.20182336254E+03 -0.50581380286E+03  0.54827478207E+03  0.10566000000E+00 0. -1.
          4    1    3    3  501    0  0.47761179082E+03  0.20022199697E+03 -0.19353024841E+03  0.55286149066E+03  0.00000000000E+00 0.  1.
</event>
<event>
 6    1  0.2569591E-005  0.9996452E+03  0.7818608E-02  0.9311881E-01
         21   -1    0    0  501  502  0.00000000000E+00  0.00000000000E+00  0.48701579652E+03  0.48701579652E+03  0.00000000000E+00 0. -1.
         -4   -1    0    0    0  501 -0.00000000000E+00 -0.00000000000E+00 -0.64459760517E+03  0.64459760517E+03  0.00000000000E+00 0. -1.
   -9000010    2    1    2    0  502 -0.50023415403E+02 -0.10459048769E+03 -0.10780327907E+03  0.10054411965E+04  0.99289925992E+03 0.  0.
        -13    1    1    2    0    0  0.50023415403E+02  0.10459048769E+03 -0.49778529574E+02  0.12617220523E+03  0.10566000000E+00 0.  1.
         13    1    3    3    0    0  0.79943274866E+02 -0.36591065481E+03  0.31656268948E+03  0.49040134791E+03  0.10566000000E+00 0. -1.
         -4    1    3    3    0  502 -0.12996669027E+03  0.26132016712E+03 -0.42436596855E+03  0.51503984854E+03  0.00000000000E+00 0. -1.
</event>
<event>
 6    1  0.2569591E-005  0.1053307E+04  0.7818608E-02  0.8884612E-01
         -4   -1    0    0    0  501 -0.00000000000E+00  0.00000000000E+00  0.17325861202E+04  0.17325861202E+04  0.00000000000E+00 0. -1.
         21   -1    0    0  501  502  0.00000000000E+00 -0.00000000000E+00 -0.36627169967E+03  0.36627169967E+03  0.00000000000E+00 0.  1.
   -9000010    2    1    2    0  502  0.37378718727E+03  0.38798117040E+03  0.94185860162E+03  0.14129941283E+04  0.90510139285E+03 0.  0.
        -13    1    1    2    0    0 -0.37378718727E+03 -0.38798117040E+03  0.42445581889E+03  0.68586369149E+03  0.10566000000E+00 0.  1.
         13    1    3    3    0    0  0.47225826665E+03  0.10131557258E+03  0.67636087820E+02  0.48771648240E+03  0.10566000000E+00 0. -1.
         -4    1    3    3    0  502 -0.98471079384E+02  0.28666559783E+03  0.87422251380E+03  0.92527764594E+03  0.00000000000E+00 0. -1.
</event>
<event>
 6    1  0.2569591E-005  0.1009403E+04  0.7818608E-02  0.9204395E-01
         21   -1    0    0  501  502  0.00000000000E+00  0.00000000000E+00  0.23661203339E+03  0.23661203339E+03  0.00000000000E+00 0.  1.
          4   -1    0    0  502    0 -0.00000000000E+00 -0.00000000000E+00 -0.14708533473E+04  0.14708533473E+04  0.00000000000E+00 0.  1.
    9000010    2    1    2  501    0  0.16915225467E+03  0.15649194863E+02 -0.10370537278E+04  0.14471956402E+04  0.99500623315E+03 0.  0.
        -13    1    3    3    0    0 -0.34107824156E+03 -0.53802716494E+02 -0.71069106382E+02  0.35253358451E+03  0.10566000000E+00 0.  1.
         13    1    1    2    0    0 -0.16915225467E+03 -0.15649194863E+02 -0.19718758613E+03  0.26026974055E+03  0.10566000000E+00 0. -1.
          4    1    3    3  501    0  0.51023049622E+03  0.69451911357E+02 -0.96598462141E+03  0.10946620556E+04  0.00000000000E+00 0.  1.
</event>
<event>
 5    1  0.2569591E-005  0.2811158E+03  0.7818608E-02  0.1017734E+00
          4   -1    0    0  502    0 -0.00000000000E+00  0.00000000000E+00  0.10265851299E+04  0.10265851299E+04  0.00000000000E+00 0.  1.
         21   -1    0    0  501  502  0.00000000000E+00 -0.00000000000E+00 -0.89029856464E+02  0.89029856464E+02  0.00000000000E+00 0. -1.
        -13    1    1    2    0    0 -0.91028012854E+01 -0.26072193322E+03  0.66929922961E+03  0.71834550001E+03  0.10566000000E+00 0.  1.
         13    1    1    2    0    0  0.29117025453E+02  0.25958114322E+03  0.20843419217E+03  0.33417808832E+03  0.10566000000E+00 0. -1.
          4    1    1    2  501    0 -0.20014224167E+02  0.11407900028E+01  0.59821851649E+02  0.63091398032E+02  0.00000000000E+00 0.  1.
</event>
<event>
 6    1  0.2569591E-005  0.9888602E+03  0.7818608E-02  0.9526374E-01
         21   -1    0    0  501  502  0.00000000000E+00  0.00000000000E+00  0.27205182278E+03  0.27205182278E+03  0.00000000000E+00 0. -1.
         -4   -1    0    0    0  501 -0.00000000000E+00 -0.00000000000E+00 -0.10149879092E+04  0.10149879092E+04  0.00000000000E+00 0. -1.
   -9000010    2    1    2    0  502  0.53864394853E+02 -0.61730842056E+01 -0.73531950889E+03  0.12322902715E+04  0.98737280350E+03 0.  0.
        -13    1    1    2    0    0 -0.53864394853E+02  0.61730842056E+01 -0.76165774992E+01  0.54749460439E+02  0.10566000000E+00 0.  1.
         13    1    3    3    0    0 -0.22895186693E+03 -0.14983239838E+03  0.13561616313E+03  0.30538575579E+03  0.10566000000E+00 0. -1.
         -4    1    3    3    0  502  0.28281626178E+03  0.14365931417E+03 -0.87093567202E+03  0.92690451572E+03  0.00000000000E+00 0. -1.
</event>
<event>
 5    1  0.2569591E-005  0.1942004E+03  0.7818608E-02  0.1084438E+00
         -4   -1    0    0    0  501 -0.00000000000E+00  0.00000000000E+00  0.17009096717E+03  0.17009096717E+03  0.00000000000E+00 0. -1.
         21   -1    0    0  501  502  0.00000000000E+00 -0.00000000000E+00 -0.29909863418E+03  0.29909863418E+03  0.00000000000E+00 0.  1.
        -13    1    1    2    0    0 -0.10663910189E+03  0.23778464908E+02 -0.22680852204E+03  0.25175271653E+03  0.10566000000E+00 0.  1.
         13    1    1    2    0    0  0.13692601608E+03  0.14140902954E+02  0.97881314652E+02  0.16890666636E+03  0.10566000000E+00 0. -1.
         -4    1    1    2    0  502 -0.30286914192E+02 -0.37919367862E+02 -0.80459624697E-01  0.48530218463E+02  0.00000000000E+00 0. -1.
</event>
<event>
 5    1  0.2569591E-005  0.2704391E+03  0.7818608E-02  0.1029085E+00
          4   -1    0    0  502    0 -0.00000000000E+00  0.00000000000E+00  0.28295417440E+03  0.28295417440E+03  0.00000000000E+00 0.  1.
         21   -1    0    0  501  502  0.00000000000E+00 -0.00000000000E+00 -0.22049878155E+03  0.22049878155E+03  0.00000000000E+00 0. -1.
        -13    1    1    2    0    0  0.18887134147E+03  0.48465027188E+02  0.11972228490E+03  0.22881144892E+03  0.10566000000E+00 0.  1.
         13    1    1    2    0    0 -0.17408689548E+03 -0.10946730187E+03 -0.48256234388E+02  0.21122976276E+03  0.10566000000E+00 0. -1.
          4    1    1    2  501    0 -0.14784445995E+02  0.61002274678E+02 -0.90106576554E+01  0.63411744264E+02  0.00000000000E+00 0.  1.
</event>
<event>
 6    1  0.2569591E-005  0.1289786E+04  0.7818608E-02  0.8647129E-01
         21   -1    0    0  501  502  0.00000000000E+00  0.00000000000E+00  0.95632503917E+03  0.95632503917E+03  0.00000000000E+00 0. -1.
         -4   -1    0    0    0  501 -0.00000000000E+00 -0.00000000000E+00 -0.12044870002E+04  0.12044870002E+04  0.00000000000E+00 0. -1.
   -9000010    2    1    2    0  502  0.13965874175E+03 -0.79611068714E+03  0.71173749912E+02  0.12917481189E+04  0.10051122872E+04 0.  0.
        -13    1    1    2    0    0 -0.13965874175E+03  0.79611068714E+03 -0.31933571094E+03  0.86906392042E+03  0.10566000000E+00 0.  1.
         13    1    3    3    0    0  0.29544655091E+03  0.14674891534E+03  0.64230774916E+02  0.33607962183E+03  0.10566000000E+00 0. -1.
         -4    1    3    3    0  502 -0.15578780916E+03 -0.94285960248E+03  0.69429749953E+01  0.95566849711E+03  0.00000000000E+00 0. -1.
</event>
<event>
 6    1  0.2569591E-005  0.1049165E+04  0.7818608E-02  0.9198727E-01
         21   -1    0    0  501  502  0.00000000000E+00  0.00000000000E+00  0.10737258418E+03  0.10737258418E+03  0.00000000000E+00 0.  1.
          4   -1    0    0  502    0 -0.00000000000E+00 -0.00000000000E+00 -0.35393070171E+04  0.35393070171E+04  0.00000000000E+00 0.  1.
    9000010    2    1    2  501    0 -0.15454205117E+03 -0.55365700923E+01 -0.26604667462E+04  0.28598655813E+04  0.10377060935E+04 0.  0.
        -13    1    3    3    0    0 -0.18653479400E+03 -0.39293500801E+03 -0.49143880263E+03  0.65628138614E+03  0.10566000000E+00 0.  1.
         13    1    1    2    0    0  0.15454205117E+03  0.55365700923E+01 -0.77146768673E+03  0.78681401997E+03  0.10566000000E+00 0. -1.
          4    1    3    3  501    0  0.31992742834E+02  0.38739843792E+03 -0.21690279436E+04  0.22035841952E+04  0.00000000000E+00 0.  1.
</event>
<event>
 6    1  0.2569591E-005  0.1583786E+04  0.7818608E-02  0.8418656E-01
         21   -1    0    0  501  502  0.00000000000E+00  0.00000000000E+00  0.98220254653E+03  0.98220254653E+03  0.00000000000E+00 0. -1.
          4   -1    0    0  502    0 -0.00000000000E+00 -0.00000000000E+00 -0.42859851605E+04  0.42859851605E+04  0.00000000000E+00 0.  1.
    9000010    2    1    2  501    0 -0.10104683550E+04 -0.68618508709E+03  0.16335898633E+03  0.15921889097E+04  0.10082078634E+04 0.  0.
        -13    1    3    3    0    0 -0.54793809675E+03  0.70872441175E+02  0.39029576261E+03  0.67645388185E+03  0.10566000000E+00 0.  1.
         13    1    1    2    0    0  0.10104683550E+04  0.68618508709E+03 -0.34671416003E+04  0.36759987973E+04  0.10566000000E+00 0. -1.
          4    1    3    3  501    0 -0.46253025820E+03 -0.75705752827E+03 -0.22693677628E+03  0.91573502788E+03  0.00000000000E+00 0.  1.
</event>
<event>
 6    1  0.2569591E-005  0.1140136E+04  0.7818608E-02  0.8785774E-01
         21   -1    0    0  501  502  0.00000000000E+00  0.00000000000E+00  0.11770372205E+04  0.11770372205E+04  0.00000000000E+00 0. -1.
         -4   -1    0    0    0  501 -0.00000000000E+00 -0.00000000000E+00 -0.72902606571E+03  0.72902606571E+03  0.00000000000E+00 0. -1.
   -9000010    2    1    2    0  502  0.15725455464E+03 -0.62388414147E+03  0.53029155529E+03  0.12574258741E+04  0.94124931778E+03 0.  0.
        -13    1    1    2    0    0 -0.15725455464E+03  0.62388414147E+03 -0.82280400517E+02  0.64863741213E+03  0.10566000000E+00 0.  1.
         13    1    3    3    0    0 -0.22176122206E+03 -0.46757735907E+03  0.64950882174E+03  0.83046273066E+03  0.10566000000E+00 0. -1.
         -4    1    3    3    0  502  0.37901577670E+03 -0.15630678240E+03 -0.11921726645E+03  0.42696314341E+03  0.00000000000E+00 0. -1.
</event>
<event>
 6    1  0.2569591E-005  0.9974423E+03  0.7818608E-02  0.9298854E-01
         -4   -1    0    0    0  501 -0.00000000000E+00  0.00000000000E+00  0.18697906659E+04  0.18697906659E+04  0.00000000000E+00 0. -1.
         21   -1    0    0  501  502  0.00000000000E+00 -0.00000000000E+00 -0.20620720219E+03  0.20620720219E+03  0.00000000000E+00 0. -1.
   -9000010    2    1    2    0  502 -0.79942502612E+02 -0.92960919039E+02  0.10420384255E+04  0.14424753493E+04  0.98987803128E+03 0.  0.
        -13    1    1    2    0    0  0.79942502612E+02  0.92960919039E+02  0.62154503815E+03  0.63352251878E+03  0.10566000000E+00 0.  1.
         13    1    3    3    0    0  0.29300222771E+03 -0.23407319607E+03  0.56406107346E+02  0.37923900996E+03  0.10566000000E+00 0. -1.
         -4    1    3    3    0  502 -0.37294473033E+03  0.14111227704E+03  0.98563231818E+03  0.10632363393E+04  0.00000000000E+00 0. -1.
</event>
<event>
 5    1  0.2569591E-005  0.1765333E+03  0.7818608E-02  0.1089319E+00
         -4   -1    0    0    0  501 -0.00000000000E+00  0.00000000000E+00  0.28675587991E+02  0.28675587991E+02  0.00000000000E+00 0. -1.
         21   -1    0    0  501  502  0.00000000000E+00 -0.00000000000E+00 -0.92409242877E+03  0.92409242877E+03  0.00000000000E+00 0.  1.
        -13    1    1    2    0    0  0.64388440161E+02 -0.10949520280E+03 -0.55441936678E+03  0.56878459551E+03  0.10566000000E+00 0.  1.
         13    1    1    2    0    0 -0.66256720234E+02  0.31735758643E+02 -0.67943909131E+02  0.10006746377E+03  0.10566000000E+00 0. -1.
         -4    1    1    2    0  502  0.18682800733E+01  0.77759444161E+02 -0.27305356486E+03  0.28391595748E+03  0.00000000000E+00 0. -1.
</event>
<event>
 6    1  0.2569591E-005  0.1030492E+04  0.7818608E-02  0.9110421E-01
          4   -1    0    0  502    0 -0.00000000000E+00  0.00000000000E+00  0.24318141204E+04  0.24318141204E+04  0.00000000000E+00 0.  1.
         21   -1    0    0  501  502  0.00000000000E+00 -0.00000000000E+00 -0.19025101876E+03  0.19025101876E+03  0.00000000000E+00 0. -1.
    9000010    2    1    2  501    0  0.22745940688E+03 -0.37635988162E+02  0.21294774864E+04  0.23657109981E+04  0.10043704056E+04 0.  0.
        -13    1    3    3    0    0 -0.20864611537E+03 -0.40224650140E+02  0.22047161767E+02  0.21362891294E+03  0.10566000000E+00 0.  1.
         13    1    1    2    0    0 -0.22745940688E+03  0.37635988162E+02  0.11208561524E+03  0.25635414116E+03  0.10566000000E+00 0. -1.
          4    1    3    3  501    0  0.43610552225E+03  0.25886619780E+01  0.21074303247E+04  0.21520820851E+04  0.00000000000E+00 0.  1.
</event>
<event>
 6    1  0.2569591E-005  0.9978022E+03  0.7818608E-02  0.9363557E-01
         -4   -1    0    0    0  501 -0.00000000000E+00  0.00000000000E+00  0.91698558993E+03  0.91698558993E+03  0.00000000000E+00 0. -1.
         21   -1    0    0  501  502  0.00000000000E+00 -0.00000000000E+00 -0.40620398045E+03  0.40620398045E+03  0.00000000000E+00 0. -1.
   -9000010    2    1    2    0  502  0.79823395055E+02  0.53334436253E+02  0.22657066580E+03  0.10232025571E+04  0.99317313179E+03 0.  0.
        -13    1    1    2    0    0 -0.79823395055E+02 -0.53334436253E+02  0.28421094368E+03  0.29998701331E+03  0.10566000000E+00 0.  1.
         13    1    3    3    0    0  0.57214955152E+02 -0.74453699829E+02 -0.38588712009E+03  0.39714705731E+03  0.10566000000E+00 0. -1.
         -4    1    3    3    0  502  0.22608439902E+02  0.12778813608E+03  0.61245778590E+03  0.62605549976E+03  0.00000000000E+00 0. -1.
</event>
<event>
 5    1  0.2569591E-005  0.1030726E+03  0.7818608E-02  0.1161212E+00
         -4   -1    0    0    0  501 -0.00000000000E+00  0.00000000000E+00  0.13295276598E+03  0.13295276598E+03  0.00000000000E+00 0. -1.
         21   -1    0    0  501  502  0.00000000000E+00 -0.00000000000E+00 -0.76805697147E+02  0.76805697147E+02  0.00000000000E+00 0.  1.
        -13    1    1    2    0    0  0.82058509551E+01  0.98690397059E+02  0.27256066857E+02  0.10271336235E+03  0.10566000000E+00 0.  1.
         13    1    1    2    0    0  0.10179498123E+02 -0.46516978576E+02  0.10620020261E+02  0.48787779948E+02  0.10566000000E+00 0. -1.
         -4    1    1    2    0  502 -0.18385349078E+02 -0.52173418483E+02  0.18270981715E+02  0.58257320825E+02  0.00000000000E+00 0. -1.
</event>
<event>
 6    1  0.2569591E-005  0.9801432E+03  0.7818608E-02  0.9207816E-01
         -4   -1    0    0    0  501 -0.00000000000E+00  0.00000000000E+00  0.25134313337E+04  0.25134313337E+04  0.00000000000E+00 0. -1.
         21   -1    0    0  501  502  0.00000000000E+00 -0.00000000000E+00 -0.13658723835E+03  0.13658723835E+03  0.00000000000E+00 0. -1.
   -9000010    2    1    2    0  502 -0.14256504772E+03  0.11490719105E+03  0.21082013706E+04  0.23249072371E+04  0.96288742163E+03 0.  0.
        -13    1    1    2    0    0  0.14256504772E+03 -0.11490719105E+03  0.26864272478E+03  0.32511133498E+03  0.10566000000E+00 0.  1.
         13    1    3    3    0    0 -0.41374665774E+03  0.29586817069E+02  0.34670058356E+03  0.54061352401E+03  0.10566000000E+00 0. -1.
         -4    1    3    3    0  502  0.27118161002E+03  0.85320373985E+02  0.17615007871E+04  0.17842937131E+04  0.00000000000E+00 0. -1.
</event>
<event>
 6    1  0.2569591E-005  0.1036319E+04  0.7818608E-02  0.8958845E-01
         21   -1    0    0  501  502  0.00000000000E+00  0.00000000000E+00  0.34983088347E+03  0.34983088347E+03  0.00000000000E+00 0.  1.
         -4   -1    0    0    0  501 -0.00000000000E+00 -0.00000000000E+00 -0.19609584514E+04  0.19609584514E+04  0.00000000000E+00 0. -1.
   -9000010    2    1    2    0  502 -0.34743400146E+03 -0.22996025853E+03 -0.55528034109E+03  0.11757098295E+04  0.94887577698E+03 0.  0.
        -13    1    1    2    0    0  0.34743400146E+03  0.22996025853E+03 -0.10558472268E+04  0.11350795053E+04  0.10566000000E+00 0.  1.
         13    1    3    3    0    0 -0.24868066810E+03  0.20208761272E+03  0.14120670118E+03  0.35017255964E+03  0.10566000000E+00 0. -1.
         -4    1    3    3    0  502 -0.98753333363E+02 -0.43204787126E+03 -0.69648704227E+03  0.82553726988E+03  0.00000000000E+00 0. -1.
</event>
<event>
 6    1  0.2569591E-005  0.1080559E+04  0.7818608E-02  0.8944152E-01
         21   -1    0    0  501  502  0.00000000000E+00  0.00000000000E+00  0.21186380845E+03  0.21186380845E+03  0.00000000000E+00 0.  1.
         -4   -1    0    0    0  501 -0.00000000000E+00 -0.00000000000E+00 -0.27821729213E+04  0.27821729213E+04  0.00000000000E+00 0. -1.
   -9000010    2    1    2    0  502  0.88072719597E+02 -0.38024098048E+03 -0.22224464112E+04  0.24712093419E+04  0.10076048598E+04 0.  0.
        -13    1    1    2    0    0 -0.88072719597E+02  0.38024098048E+03 -0.34786270166E+03  0.52282738790E+03  0.10566000000E+00 0.  1.
         13    1    3    3    0    0 -0.59929780672E+02 -0.19757154066E+02  0.98935921881E+02  0.11734671513E+03  0.10566000000E+00 0. -1.
         -4    1    3    3    0  502  0.14800250027E+03 -0.36048382641E+03 -0.23213823331E+04  0.23538626268E+04  0.00000000000E+00 0. -1.
</event>
<event>
 5    1  0.2569591E-005  0.5983765E+02  0.7818608E-02  0.1293630E+00
          4   -1    0    0  502    0 -0.00000000000E+00  0.00000000000E+00  0.24986529775E+03  0.24986529775E+03  0.00000000000E+00 0.  1.
         21   -1    0    0  501  502  0.00000000000E+00 -0.00000000000E+00 -0.12788737515E+02  0.12788737515E+02  0.00000000000E+00 0. -1.
        -13    1    1    2    0    0  0.32896169550E+02 -0.15126550014E+02  0.14521141933E+03  0.14965740193E+03  0.10566000000E+00 0.  1.
         13    1    1    2    0    0 -0.27101667694E+02 -0.75588084450E+01  0.13497744806E+02  0.31206349607E+02  0.10566000000E+00 0. -1.
          4    1    1    2  501    0 -0.57945018556E+01  0.22685358459E+02  0.78367396105E+02  0.81790283729E+02  0.00000000000E+00 0.  1.
</event>
<event>
 6    1  0.2569591E-005  0.1057451E+04  0.7818608E-02  0.8961332E-01
         -4   -1    0    0    0  501 -0.00000000000E+00  0.00000000000E+00  0.64166760579E+03  0.64166760579E+03  0.00000000000E+00 0. -1.
         21   -1    0    0  501  502  0.00000000000E+00 -0.00000000000E+00 -0.87719446274E+03  0.87719446274E+03  0.00000000000E+00 0. -1.
   -9000010    2    1    2    0  502  0.76276693635E+02 -0.38063004092E+03  0.13712768746E+02  0.10575403107E+04  0.98361888287E+03 0.  0.
        -13    1    1    2    0    0 -0.76276693635E+02  0.38063004092E+03 -0.24923962569E+03  0.46132175780E+03  0.10566000000E+00 0.  1.
         13    1    3    3    0    0 -0.60254495244E+02  0.32888402850E+03  0.20379904689E+02  0.33497859645E+03  0.10566000000E+00 0. -1.
         -4    1    3    3    0  502  0.13653118888E+03 -0.70951406942E+03 -0.66671359428E+01  0.72256171428E+03  0.00000000000E+00 0. -1.
</event>
<event>
 6    1  0.2569591E-005  0.1014516E+04  0.7818608E-02  0.9214866E-01
         21   -1    0    0  501  502  0.00000000000E+00  0.00000000000E+00  0.16179427333E+04  0.16179427333E+04  0.00000000000E+00 0. -1.
         -4   -1    0    0    0  501 -0.00000000000E+00 -0.00000000000E+00 -0.47488861090E+03  0.47488861090E+03  0.00000000000E+00 0. -1.
   -9000010    2    1    2    0  502 -0.13157314026E+03  0.92234061601E+02  0.14362902709E+04  0.17584572074E+04  0.10017102348E+04 0.  0.
        -13    1    1    2    0    0  0.13157314026E+03 -0.92234061601E+02 -0.29323614855E+03  0.33437413676E+03  0.10566000000E+00 0.  1.
         13    1    3    3    0    0  0.18768866952E+03 -0.15134130843E+03  0.13179394575E+04  0.13398117976E+04  0.10566000000E+00 0. -1.
         -4    1    3    3    0  502 -0.31926180978E+03  0.24357537003E+03  0.11835081341E+03  0.41864540975E+03  0.00000000000E+00 0. -1.
</event>
<event>
 6    1  0.2569591E-005  0.1128945E+04  0.7818608E-02  0.8839131E-01
         21   -1    0    0  501  502  0.00000000000E+00  0.00000000000E+00  0.71492295393E+03  0.71492295393E+03  0.00000000000E+00 0. -1.
         -4   -1    0    0    0  501 -0.00000000000E+00 -0.00000000000E+00 -0.16563172859E+04  0.16563172859E+04  0.00000000000E+00 0. -1.
   -9000010    2    1    2    0  502 -0.30158811663E+03  0.43467890084E+03  0.16873869309E+03  0.11414855962E+04  0.99730410656E+03 0.  0.
        -13    1    1    2    0    0  0.30158811663E+03 -0.43467890084E+03 -0.11101330251E+04  0.12297546436E+04  0.10566000000E+00 0.  1.
         13    1    3    3    0    0  0.44411060797E+02  0.55133397108E+03  0.42318487038E+03  0.69643875227E+03  0.10566000000E+00 0. -1.
         -4    1    3    3    0  502 -0.34599917742E+03 -0.11665507025E+03 -0.25444617729E+03  0.44504684397E+03  0.00000000000E+00 0. -1.
</event>
<event>
 6    1  0.2569591E-005  0.1008348E+04  0.7818608E-02  0.9290950E-01
         -4   -1    0    0    0  501 -0.00000000000E+00  0.00000000000E+00  0.12782354193E+04  0.12782354193E+04  0.00000000000E+00 0. -1.
         21   -1    0    0  501  502  0.00000000000E+00 -0.00000000000E+00 -0.33112937574E+03  0.33112937574E+03  0.00000000000E+00 0. -1.
   -9000010    2    1    2    0  502 -0.70135479841E+02  0.10017256284E+03  0.46211643375E+03  0.11091963627E+04  0.10009053127E+04 0.  0.
        -13    1    1    2    0    0  0.70135479841E+02 -0.10017256284E+03  0.48498960979E+03  0.50016843228E+03  0.10566000000E+00 0.  1.
         13    1    3    3    0    0 -0.20249851130E+03 -0.33020730194E+03 -0.89078877657E+02  0.39746391904E+03  0.10566000000E+00 0. -1.
         -4    1    3    3    0  502  0.13236303146E+03  0.43037986478E+03  0.55119531141E+03  0.71173244371E+03  0.00000000000E+00 0. -1.
</event>
<event>
 6    1  0.2569591E-005  0.1214774E+04  0.7818608E-02  0.8804984E-01
         21   -1    0    0  501  502  0.00000000000E+00  0.00000000000E+00  0.69236671362E+03  0.69236671362E+03  0.00000000000E+00 0.  1.
         -4   -1    0    0    0  501 -0.00000000000E+00 -0.00000000000E+00 -0.11558243274E+04  0.11558243274E+04  0.00000000000E+00 0. -1.
   -9000010    2    1    2    0  502 -0.48989947033E+03  0.21076954244E+02 -0.65267825542E+02  0.12165259022E+04  0.11114088593E+04 0.  0.
        -13    1    1    2    0    0  0.48989947033E+03 -0.21076954244E+02 -0.39818978822E+03  0.63166513885E+03  0.10566000000E+00 0.  1.
         13    1    3    3    0    0  0.28869079093E+03  0.50266336262E+02  0.24094769459E+03  0.37937432704E+03  0.10566000000E+00 0. -1.
         -4    1    3    3    0  502 -0.77859026126E+03 -0.29189382018E+02 -0.30621552013E+03  0.83715157511E+03  0.00000000000E+00 0. -1.
</event>
<event>
 6    1  0.2569591E-005  0.1237260E+04  0.7818608E-02  0.8704215E-01
         21   -1    0    0  501  502  0.00000000000E+00  0.00000000000E+00  0.90630932133E+03  0.90630932133E+03  0.00000000000E+00 0. -1.
         -4   -1    0    0    0  501 -0.00000000000E+00 -0.00000000000E+00 -0.11989685556E+04  0.11989685556E+04  0.00000000000E+00 0. -1.
   -9000010    2    1    2    0  502  0.71244449514E+03  0.48581794436E+02  0.17803835392E+03  0.12500038974E+04  0.10103834612E+04 0.  0.
        -13    1    1    2    0    0 -0.71244449514E+03 -0.48581794436E+02 -0.47069758824E+03  0.85527397958E+03  0.10566000000E+00 0.  1.
         13    1    3    3    0    0  0.66928427847E+03  0.77074099665E+02  0.55293234723E+03  0.87155955277E+03  0.10566000000E+00 0. -1.
         -4    1    3    3    0  502  0.43160216666E+02 -0.28492305228E+02 -0.37489399330E+03  0.37844434462E+03  0.00000000000E+00 0. -1.
</event>
<event>
 6    1  0.2569591E-005  0.1041527E+04  0.7818608E-02  0.9044885E-01
          4   -1    0    0  502    0 -0.00000000000E+00  0.00000000000E+00  0.16997216769E+04  0.16997216769E+04  0.00000000000E+00 0.  1.
         21   -1    0    0  501  502  0.00000000000E+00 -0.00000000000E+00 -0.26098308844E+03  0.26098308844E+03  0.00000000000E+00 0.  1.
    9000010    2    1    2  501    0 -0.28490304912E+03 -0.53052510622E+02  0.10981924272E+04  0.15135403488E+04  0.10003966534E+04 0.  0.
        -13    1    3    3    0    0  0.16129208311E+03  0.14901576865E+02 -0.12830235866E+03  0.20663663631E+03  0.10566000000E+00 0.  1.
         13    1    1    2    0    0  0.28490304912E+03  0.53052510622E+02  0.34054616125E+03  0.44716441651E+03  0.10566000000E+00 0. -1.
          4    1    3    3  501    0 -0.44619513223E+03 -0.67954087487E+02  0.12264947858E+04  0.13069037125E+04  0.00000000000E+00 0.  1.
</event>
<event>
 6    1  0.2569591E-005  0.1231724E+04  0.7818608E-02  0.8707834E-01
         21   -1    0    0  501  502  0.00000000000E+00  0.00000000000E+00  0.38073919304E+03  0.38073919304E+03  0.00000000000E+00 0. -1.
          4   -1    0    0  502    0 -0.00000000000E+00 -0.00000000000E+00 -0.25784947332E+04  0.25784947332E+04  0.00000000000E+00 0.  1.
    9000010    2    1    2  501    0 -0.45651052154E+02 -0.71106724846E+03 -0.11052606609E+04  0.16549158198E+04  0.10047111982E+04 0.  0.
        -13    1    3    3    0    0  0.96398596058E+02 -0.50761121165E+03  0.55643209506E+01  0.51671346445E+03  0.10566000000E+00 0.  1.
         13    1    1    2    0    0  0.45651052154E+02  0.71106724846E+03 -0.10924948793E+04  0.13043181065E+04  0.10566000000E+00 0. -1.
          4    1    3    3  501    0 -0.14204964821E+03 -0.20345603681E+03 -0.11108249818E+04  0.11382023553E+04  0.00000000000E+00 0.  1.
</event>
<event>
 6    1  0.2569591E-005  0.1095702E+04  0.7818608E-02  0.8919299E-01
          4   -1    0    0  502    0 -0.00000000000E+00  0.00000000000E+00  0.18210505148E+04  0.18210505148E+04  0.00000000000E+00 0.  1.
         21   -1    0    0  501  502  0.00000000000E+00 -0.00000000000E+00 -0.41700314023E+03  0.41700314023E+03  0.00000000000E+00 0.  1.
    9000010    2    1    2  501    0 -0.32353718440E+03 -0.25927458161E+03  0.42572292942E+03  0.11755009036E+04  0.10142301235E+04 0.  0.
        -13    1    3    3    0    0 -0.13539056130E+03 -0.44067779073E+03 -0.19610339847E+03  0.50098310688E+03  0.10566000000E+00 0.  1.
         13    1    1    2    0    0  0.32353718440E+03  0.25927458161E+03  0.97832444515E+03  0.10625527514E+04  0.10566000000E+00 0. -1.
          4    1    3    3  501    0 -0.18814662311E+03  0.18140320911E+03  0.62182632789E+03  0.67451779674E+03  0.00000000000E+00 0.  1.
</event>
<event>
 6    1  0.2569591E-005  0.1109960E+04  0.7818608E-02  0.8896168E-01
         -4   -1    0    0    0  501 -0.00000000000E+00  0.00000000000E+00  0.28188088460E+04  0.28188088460E+04  0.00000000000E+00 0. -1.
         21   -1    0    0  501  502  0.00000000000E+00 -0.00000000000E+00 -0.28727333126E+03  0.28727333126E+03  0.00000000000E+00 0. -1.
   -9000010    2    1    2    0  502 -0.36597843423E+03 -0.24215516330E+03  0.93799001187E+03  0.14532159944E+04  0.10195254419E+04 0.  0.
        -13    1    1    2    0    0  0.36597843423E+03  0.24215516330E+03  0.15935455029E+04  0.16528661829E+04  0.10566000000E+00 0.  1.
         13    1    3    3    0    0 -0.10837252411E+03 -0.16769809047E+03 -0.20086332168E+03  0.28321959447E+03  0.10566000000E+00 0. -1.
         -4    1    3    3    0  502 -0.25760591011E+03 -0.74457072834E+02  0.11388533335E+04  0.11699964000E+04  0.00000000000E+00 0. -1.
</event>
<event>
 5    1  0.2569591E-005  0.3455865E+03  0.7818608E-02  0.1020750E+00
         21   -1    0    0  501  502  0.00000000000E+00  0.00000000000E+00  0.21627642801E+03  0.21627642801E+03  0.00000000000E+00 0.  1.
         -4   -1    0    0    0  501 -0.00000000000E+00 -0.00000000000E+00 -0.26587570484E+03  0.26587570484E+03  0.00000000000E+00 0. -1.
        -13    1    1    2    0    0  0.11874144648E+03 -0.47340712161E+02 -0.48047116392E+02  0.13656211297E+03  0.10566000000E+00 0.  1.
         13    1    1    2    0    0 -0.48028032507E+01 -0.12882621540E+03  0.32730070010E+02  0.13300574927E+03  0.10566000000E+00 0. -1.
         -4    1    1    2    0  502 -0.11393864323E+03  0.17616692756E+03 -0.34282230454E+02  0.21258427061E+03  0.00000000000E+00 0. -1.
</event>
<event>
 6    1  0.2569591E-005  0.1035759E+04  0.7818608E-02  0.9302876E-01
         -4   -1    0    0    0  501 -0.00000000000E+00  0.00000000000E+00  0.71293912435E+03  0.71293912435E+03  0.00000000000E+00 0. -1.
         21   -1    0    0  501  502  0.00000000000E+00 -0.00000000000E+00 -0.46080744327E+03  0.46080744327E+03  0.00000000000E+00 0. -1.
   -9000010    2    1    2    0  502 -0.79469634178E+02  0.72898977331E+02  0.20402826829E+03  0.10556634057E+04  0.10301300928E+04 0.  0.
        -13    1    1    2    0    0  0.79469634178E+02 -0.72898977331E+02  0.48103412786E+02  0.11808316196E+03  0.10566000000E+00 0.  1.
         13    1    3    3    0    0  0.18949711642E+03  0.28577985078E+03 -0.29349585463E+03  0.45135253194E+03  0.10566000000E+00 0. -1.
         -4    1    3    3    0  502 -0.26896675060E+03 -0.21288087345E+03  0.49752412292E+03  0.60431087372E+03  0.00000000000E+00 0. -1.
</event>
<event>
 5    1  0.2569591E-005  0.1573598E+03  0.7818608E-02  0.1102378E+00
          4   -1    0    0  502    0 -0.00000000000E+00  0.00000000000E+00  0.47656464799E+02  0.47656464799E+02  0.00000000000E+00 0.  1.
         21   -1    0    0  501  502  0.00000000000E+00 -0.00000000000E+00 -0.59512497724E+03  0.59512497724E+03  0.00000000000E+00 0. -1.
        -13    1    1    2    0    0 -0.81217179488E+02  0.52546517903E+02 -0.70216905561E+02  0.11953155139E+03  0.10566000000E+00 0.  1.
         13    1    1    2    0    0  0.61258319242E+02 -0.10959445466E+03 -0.42564545809E+03  0.44377651282E+03  0.10566000000E+00 0. -1.
          4    1    1    2  501    0  0.19958860246E+02  0.57047936762E+02 -0.51606148790E+02  0.79473377832E+02  0.00000000000E+00 0.  1.
</event>
<event>
 5    1  0.2569591E-005  0.9088947E+02  0.7818608E-02  0.1221168E+00
         21   -1    0    0  501  502  0.00000000000E+00  0.00000000000E+00  0.17257816383E+03  0.17257816383E+03  0.00000000000E+00 0. -1.
          4   -1    0    0  502    0 -0.00000000000E+00 -0.00000000000E+00 -0.46718807228E+02  0.46718807228E+02  0.00000000000E+00 0.  1.
        -13    1    1    2    0    0 -0.61716710911E+02 -0.12557741113E+02  0.74099171423E+01  0.63415828494E+02  0.10566000000E+00 0.  1.
         13    1    1    2    0    0  0.34751990895E+02  0.98260624319E+01  0.12318322981E+03  0.12836810992E+03  0.10566000000E+00 0. -1.
          4    1    1    2  501    0  0.26964720016E+02  0.27316786808E+01 -0.47337903533E+01  0.27513032640E+02  0.00000000000E+00 0.  1.
</event>
<event>
 5    1  0.2569591E-005  0.3159916E+03  0.7818608E-02  0.1026882E+00
         -4   -1    0    0    0  501 -0.00000000000E+00  0.00000000000E+00  0.14542032530E+04  0.14542032530E+04  0.00000000000E+00 0. -1.
         21   -1    0    0  501  502  0.00000000000E+00 -0.00000000000E+00 -0.40251714394E+02  0.40251714394E+02  0.00000000000E+00 0. -1.
        -13    1    1    2    0    0  0.12487729925E+03 -0.58800277999E+02  0.22270115812E+03  0.26200692654E+03  0.10566000000E+00 0.  1.
         13    1    1    2    0    0 -0.16698686265E+03  0.40728116066E+01  0.34422060249E+03  0.38260819964E+03  0.10566000000E+00 0. -1.
         -4    1    1    2    0  502  0.42109563402E+02  0.54727466392E+02  0.84702977803E+03  0.84983984126E+03  0.00000000000E+00 0. -1.
</event>
<event>
 6    1  0.2569591E-005  0.1127012E+04  0.7818608E-02  0.8842644E-01
         21   -1    0    0  501  502  0.00000000000E+00  0.00000000000E+00  0.19538210989E+03  0.19538210989E+03  0.00000000000E+00 0. -1.
          4   -1    0    0  502    0 -0.00000000000E+00 -0.00000000000E+00 -0.35328533766E+04  0.35328533766E+04  0.00000000000E+00 0.  1.
    9000010    2    1    2  501    0  0.37841867195E+03  0.36246159864E+03 -0.24665158773E+04  0.27117993580E+04  0.99778558988E+03 0.  0.
        -13    1    3    3    0    0 -0.25250509811E+03  0.25150491173E+02 -0.16753617693E+03  0.30407195451E+03  0.10566000000E+00 0.  1.
         13    1    1    2    0    0 -0.37841867195E+03 -0.36246159864E+03 -0.87095538940E+03  0.10164361285E+04  0.10566000000E+00 0. -1.
          4    1    3    3  501    0  0.63092377005E+03  0.33731110747E+03 -0.22989797004E+04  0.24077274035E+04  0.00000000000E+00 0.  1.
</event>
<event>
 5    1  0.2569591E-005  0.1662806E+03  0.7818608E-02  0.1092135E+00
          4   -1    0    0  502    0 -0.00000000000E+00  0.00000000000E+00  0.90395649255E+03  0.90395649255E+03  0.00000000000E+00 0.  1.
         21   -1    0    0  501  502  0.00000000000E+00 -0.00000000000E+00 -0.27464451302E+02  0.27464451302E+02  0.00000000000E+00 0. -1.
        -13    1    1    2    0    0  0.99423526939E+02  0.65449640472E+01  0.34514153785E+03  0.35923608752E+03  0.10566000000E+00 0.  1.
         13    1    1    2    0    0 -0.13052387361E+03  0.52393016890E+02  0.29831334675E+03  0.32980657031E+03  0.10566000000E+00 0. -1.
          4    1    1    2  501    0  0.31100346671E+02 -0.58937980938E+02  0.23303715665E+03  0.24237828603E+03  0.00000000000E+00 0.  1.
</event>
<event>
 6    1  0.2569591E-005  0.1000622E+04  0.7818608E-02  0.9245155E-01
         -4   -1    0    0    0  501 -0.00000000000E+00  0.00000000000E+00  0.12519839683E+04  0.12519839683E+04  0.00000000000E+00 0. -1.
         21   -1    0    0  501  502  0.00000000000E+00 -0.00000000000E+00 -0.26541451990E+03  0.26541451990E+03  0.00000000000E+00 0. -1.
   -9000010    2    1    2    0  502  0.14833735382E+03  0.14460928881E+02  0.81832051028E+03  0.12926301511E+04  0.98946003510E+03 0.  0.
        -13    1    1    2    0    0 -0.14833735382E+03 -0.14460928881E+02  0.16824893811E+03  0.22476833706E+03  0.10566000000E+00 0.  1.
         13    1    3    3    0    0 -0.34498424322E+03 -0.85791892342E+02  0.29299764757E+02  0.35669716040E+03  0.10566000000E+00 0. -1.
         -4    1    3    3    0  502  0.49332159704E+03  0.10025282122E+03  0.78902074552E+03  0.93593299073E+03  0.00000000000E+00 0. -1.
</event>
<event>
 6    1  0.2569591E-005  0.1022183E+04  0.7818608E-02  0.8984425E-01
         21   -1    0    0  501  502  0.00000000000E+00  0.00000000000E+00  0.11802114464E+04  0.11802114464E+04  0.00000000000E+00 0. -1.
         -4   -1    0    0    0  501 -0.00000000000E+00 -0.00000000000E+00 -0.47769132068E+03  0.47769132068E+03  0.00000000000E+00 0. -1.
   -9000010    2    1    2    0  502 -0.12025806102E+03 -0.37227088550E+03  0.23602242760E+03  0.10490778933E+04  0.94435704391E+03 0.  0.
        -13    1    1    2    0    0  0.12025806102E+03  0.37227088550E+03  0.46649769808E+03  0.60882487376E+03  0.10566000000E+00 0.  1.
         13    1    3    3    0    0 -0.40955073559E+03 -0.19877102565E+03  0.45760519077E+03  0.64547985827E+03  0.10566000000E+00 0. -1.
         -4    1    3    3    0  502  0.28929267456E+03 -0.17349985984E+03 -0.22158276316E+03  0.40359803500E+03  0.00000000000E+00 0. -1.
</event>
<event>
 6    1  0.2569591E-005  0.1037812E+04  0.7818608E-02  0.9016286E-01
         21   -1    0    0  501  502  0.00000000000E+00  0.00000000000E+00  0.20686796120E+03  0.20686796120E+03  0.00000000000E+00 0. -1.
          4   -1    0    0  502    0 -0.00000000000E+00 -0.00000000000E+00 -0.24604371098E+04  0.24604371098E+04  0.00000000000E+00 0.  1.
    9000010    2    1    2  501    0 -0.31861633508E+03 -0.80357857015E+02 -0.19964130135E+04  0.22500485034E+04  0.98441840360E+03 0.  0.
        -13    1    3    3    0    0 -0.33072120535E+03 -0.44541986485E+03 -0.64800905368E+03  0.85304813258E+03  0.10566000000E+00 0.  1.
         13    1    1    2    0    0  0.31861633508E+03  0.80357857015E+02 -0.25715613514E+03  0.41725656756E+03  0.10566000000E+00 0. -1.
          4    1    3    3  501    0  0.12104870274E+02  0.36506200783E+03 -0.13484039598E+04  0.13970003709E+04  0.00000000000E+00 0.  1.
</event>
<event>
 6    1  0.2569591E-005  0.1018417E+04  0.7818608E-02  0.9157543E-01
         21   -1    0    0  501  502  0.00000000000E+00  0.00000000000E+00  0.47701286792E+03  0.47701286792E+03  0.00000000000E+00 0.  1.
          4   -1    0    0  502    0 -0.00000000000E+00 -0.00000000000E+00 -0.93045193840E+03  0.93045193840E+03  0.00000000000E+00 0.  1.
    9000010    2    1    2  501    0 -0.56695578757E+02 -0.19020308210E+03 -0.12820536918E+03  0.10264548685E+04  0.99889007367E+03 0.  0.
        -13    1    3    3    0    0 -0.53086956352E+02  0.41168871718E+03 -0.25756753119E+02  0.41589571564E+03  0.10566000000E+00 0.  1.
         13    1    1    2    0    0  0.56695578757E+02  0.19020308210E+03 -0.32523370130E+03  0.38100993782E+03  0.10566000000E+00 0. -1.
          4    1    3    3  501    0 -0.36086224044E+01 -0.60189179929E+03 -0.10244861606E+03  0.61055915286E+03  0.00000000000E+00 0.  1.
</event>
<event>
 6    1  0.2569591E-005  0.1149498E+04  0.7818608E-02  0.8753272E-01
         -4   -1    0    0    0  501 -0.00000000000E+00  0.00000000000E+00  0.33603868342E+04  0.33603868342E+04  0.00000000000E+00 0. -1.
         21   -1    0    0  501  502  0.00000000000E+00 -0.00000000000E+00 -0.26732136093E+03  0.26732136093E+03  0.00000000000E+00 0. -1.
   -9000010    2    1    2    0  502  0.18039344154E+03 -0.69815601918E+03  0.16054662540E+04  0.19745551262E+04  0.89519966093E+03 0.  0.
        -13    1    1    2    0    0 -0.18039344154E+03  0.69815601918E+03  0.14875992193E+04  0.16531530690E+04  0.10566000000E+00 0.  1.
         13    1    3    3    0    0  0.35162411560E+03 -0.61186674658E+03  0.53113436459E+03  0.88324637483E+03  0.10566000000E+00 0. -1.
         -4    1    3    3    0  502 -0.17123067406E+03 -0.86289272607E+02  0.10743318894E+04  0.10913087514E+04  0.00000000000E+00 0. -1.
</event>
<event>
 6    1  0.2569591E-005  0.1228398E+04  0.7818608E-02  0.8707821E-01
         -4   -1    0    0    0  501 -0.00000000000E+00  0.00000000000E+00  0.14625023666E+04  0.14625023666E+04  0.00000000000E+00 0. -1.
         21   -1    0    0  501  502  0.00000000000E+00 -0.00000000000E+00 -0.77062940972E+03  0.77062940972E+03  0.00000000000E+00 0. -1.
   -9000010    2    1    2    0  502 -0.18373857644E+03  0.69448051899E+03 -0.10505991694E+02  0.12284431408E+04  0.99644323404E+03 0.  0.
        -13    1    1    2    0    0  0.18373857644E+03 -0.69448051899E+03  0.70237894861E+03  0.10046886355E+04  0.10566000000E+00 0.  1.
         13    1    3    3    0    0  0.39977162317E+03  0.14050811052E+03 -0.94119839237E+01  0.42384959174E+03  0.10566000000E+00 0. -1.
         -4    1    3    3    0  502 -0.58351019961E+03  0.55397240848E+03 -0.10940077700E+01  0.80459354910E+03  0.00000000000E+00 0. -1.
</event>
<event>
 6    1  0.2569591E-005  0.1084888E+04  0.7818608E-02  0.8975864E-01
         21   -1    0    0  501  502  0.00000000000E+00  0.00000000000E+00  0.46318640048E+03  0.46318640048E+03  0.00000000000E+00 0. -1.
         -4   -1    0    0    0  501 -0.00000000000E+00 -0.00000000000E+00 -0.11594274460E+04  0.11594274460E+04  0.00000000000E+00 0. -1.
   -9000010    2    1    2    0  502 -0.25973088448E+03  0.21756239301E+03 -0.35437946561E+03  0.11413001461E+04  0.10306249030E+04 0.  0.
        -13    1    1    2    0    0  0.25973088448E+03 -0.21756239301E+03 -0.34186157990E+03  0.48131370038E+03  0.10566000000E+00 0.  1.
         13    1    3    3    0    0  0.66237104624E+02  0.40425185045E+03  0.21232718278E+03  0.46139977929E+03  0.10566000000E+00 0. -1.
         -4    1    3    3    0  502 -0.32596798910E+03 -0.18668945744E+03 -0.56670664838E+03  0.67990036679E+03  0.00000000000E+00 0. -1.
</event>
<event>
 5    1  0.2569591E-005  0.5113576E+03  0.7818608E-02  0.9531841E-01
         21   -1    0    0  501  502  0.00000000000E+00  0.00000000000E+00  0.13538643434E+03  0.13538643434E+03  0.00000000000E+00 0. -1.
          4   -1    0    0  502    0 -0.00000000000E+00 -0.00000000000E+00 -0.14854696903E+04  0.14854696903E+04  0.00000000000E+00 0.  1.
        -13    1    1    2    0    0  0.58067506097E+02 -0.78850659983E+02 -0.15014300094E+03  0.17925455012E+03  0.10566000000E+00 0.  1.
         13    1    1    2    0    0  0.34545031425E+03  0.16862530484E+03 -0.53910242325E+03  0.66211920903E+03  0.10566000000E+00 0. -1.
          4    1    1    2  501    0 -0.40351782035E+03 -0.89774644857E+02 -0.66083783174E+03  0.77948236545E+03  0.00000000000E+00 0.  1.
</event>
<event>
 6    1  0.2569591E-005  0.1009170E+04  0.7818608E-02  0.9129802E-01
         -4   -1    0    0    0  501 -0.00000000000E+00  0.00000000000E+00  0.64979790930E+03  0.64979790930E+03  0.00000000000E+00 0. -1.
         21   -1    0    0  501  502  0.00000000000E+00 -0.00000000000E+00 -0.73081721507E+03  0.73081721507E+03  0.00000000000E+00 0. -1.
   -9000010    2    1    2    0  502 -0.20427289155E+03 -0.99968520310E+02 -0.31216451299E+03  0.10563478931E+04  0.98321059233E+03 0.  0.
        -13    1    1    2    0    0  0.20427289155E+03  0.99968520310E+02  0.23114520722E+03  0.32426723125E+03  0.10566000000E+00 0.  1.
         13    1    3    3    0    0 -0.43182226288E+03  0.31562981488E+03 -0.18175841848E+03  0.56491484368E+03  0.10566000000E+00 0. -1.
         -4    1    3    3    0  502  0.22754937132E+03 -0.41559833519E+03 -0.13040609450E+03  0.49143304944E+03  0.00000000000E+00 0. -1.
</event>
<event>
 6    1  0.2569591E-005  0.1075340E+04  0.7818608E-02  0.8923956E-01
          4   -1    0    0  502    0 -0.00000000000E+00  0.00000000000E+00  0.31851442362E+04  0.31851442362E+04  0.00000000000E+00 0.  1.
         21   -1    0    0  501  502  0.00000000000E+00 -0.00000000000E+00 -0.17899523758E+03  0.17899523758E+03  0.00000000000E+00 0. -1.
    9000010    2    1    2  501    0  0.39505088522E+03 -0.17049972620E+03  0.22607858619E+04  0.25034992613E+04  0.98550519006E+03 0.  0.
        -13    1    3    3    0    0  0.25968184166E+03  0.40284491150E+03  0.87444017158E+03  0.99717817187E+03  0.10566000000E+00 0.  1.
         13    1    1    2    0    0 -0.39505088522E+03  0.17049972620E+03  0.74536313680E+03  0.86064021252E+03  0.10566000000E+00 0. -1.
          4    1    3    3  501    0  0.13536904355E+03 -0.57334463770E+03  0.13863456903E+04  0.15063210894E+04  0.00000000000E+00 0.  1.
</event>
<event>
 5    1  0.2569591E-005  0.5404554E+02  0.7818608E-02  0.1289135E+00
         21   -1    0    0  501  502  0.00000000000E+00  0.00000000000E+00  0.15750501497E+03  0.15750501497E+03  0.00000000000E+00 0.  1.
         -4   -1    0    0    0  501 -0.00000000000E+00 -0.00000000000E+00 -0.21769517707E+02  0.21769517707E+02  0.00000000000E+00 0. -1.
        -13    1    1    2    0    0  0.20710383417E+02  0.36210209953E+02  0.11333963156E+03  0.12077244111E+03  0.10566000000E+00 0.  1.
         13    1    1    2    0    0 -0.27065364529E+02 -0.19504679443E+02  0.23159922437E+02  0.40612309078E+02  0.10566000000E+00 0. -1.
         -4    1    1    2    0  502  0.63549811120E+01 -0.16705530510E+02 -0.76405673928E+00  0.17889782482E+02  0.00000000000E+00 0. -1.
</event>
<event>
 5    1  0.2569591E-005  0.1654091E+03  0.7818608E-02  0.1094561E+00
         21   -1    0    0  501  502  0.00000000000E+00  0.00000000000E+00  0.23843210906E+03  0.23843210906E+03  0.00000000000E+00 0. -1.
          4   -1    0    0  502    0 -0.00000000000E+00 -0.00000000000E+00 -0.19263277489E+03  0.19263277489E+03  0.00000000000E+00 0.  1.
        -13    1    1    2    0    0 -0.29050301885E+02 -0.10611001486E+03 -0.59066302817E+02  0.12486830898E+03  0.10566000000E+00 0.  1.
         13    1    1    2    0    0  0.76735915479E+02  0.10946518585E+03  0.17567907709E+03  0.22075818655E+03  0.10566000000E+00 0. -1.
          4    1    1    2  501    0 -0.47685613594E+02 -0.33551709816E+01 -0.70813440105E+02  0.85438388420E+02  0.00000000000E+00 0.  1.
</event>
<event>
 6    1  0.2569591E-005  0.1024421E+04  0.7818608E-02  0.9069668E-01
         -4   -1    0    0    0  501 -0.00000000000E+00  0.00000000000E+00  0.17230154823E+04  0.17230154823E+04  0.00000000000E+00 0. -1.
         21   -1    0    0  501  502  0.00000000000E+00 -0.00000000000E+00 -0.24543021671E+03  0.24543021671E+03  0.00000000000E+00 0. -1.
   -9000010    2    1    2    0  502  0.27581879053E+03 -0.43916472088E+01  0.11463405342E+04  0.15373791438E+04  0.98658132950E+03 0.  0.
        -13    1    1    2    0    0 -0.27581879053E+03  0.43916472088E+01  0.33124473142E+03  0.43106655523E+03  0.10566000000E+00 0.  1.
         13    1    3    3    0    0 -0.14332964446E+03  0.18004622539E+02 -0.12966081823E+03  0.19411206135E+03  0.10566000000E+00 0. -1.
         -4    1    3    3    0  502  0.41914843499E+03 -0.22396269748E+02  0.12760013524E+04  0.13432670825E+04  0.00000000000E+00 0. -1.
</event>
<event>
 6    1  0.2569591E-005  0.9889732E+03  0.7818608E-02  0.9252075E-01
          4   -1    0    0  502    0 -0.00000000000E+00  0.00000000000E+00  0.49183607938E+03  0.49183607938E+03  0.00000000000E+00 0.  1.
         21   -1    0    0  501  502  0.00000000000E+00 -0.00000000000E+00 -0.90335860340E+03  0.90335860340E+03  0.00000000000E+00 0.  1.
    9000010    2    1    2  501    0  0.10213558411E+03 -0.11030326534E+03 -0.59796657139E+03  0.11556954514E+04  0.97748118545E+03 0.  0.
        -13    1    3    3    0    0 -0.36153595724E+03  0.12823774771E+03 -0.49154255482E+03  0.62351203892E+03  0.10566000000E+00 0.  1.
         13    1    1    2    0    0 -0.10213558411E+03  0.11030326534E+03  0.18644404737E+03  0.23949923142E+03  0.10566000000E+00 0. -1.
          4    1    3    3  501    0  0.46367154135E+03 -0.23854101305E+03 -0.10642401657E+03  0.53218341244E+03  0.00000000000E+00 0.  1.
</event>
<event>
 5    1  0.2569591E-005  0.6595360E+03  0.7818608E-02  0.9289949E-01
         -4   -1    0    0    0  501 -0.00000000000E+00  0.00000000000E+00  0.17571450099E+04  0.17571450099E+04  0.00000000000E+00 0. -1.
         21   -1    0    0  501  502  0.00000000000E+00 -0.00000000000E+00 -0.21524169590E+03  0.21524169590E+03  0.00000000000E+00 0. -1.
        -13    1    1    2    0    0  0.17005673337E+03  0.40436772255E+03  0.21046237990E+03  0.48654596096E+03  0.10566000000E+00 0.  1.
         13    1    1    2    0    0 -0.28080053406E+03 -0.17578788147E+03  0.39484314141E+03  0.51541384991E+03  0.10566000000E+00 0. -1.
         -4    1    1    2    0  502  0.11074380069E+03 -0.22857984108E+03  0.93659779272E+03  0.97042689496E+03  0.00000000000E+00 0. -1.
</event>
<event>
 6    1  0.2569591E-005  0.1299989E+04  0.7818608E-02  0.8631327E-01
          4   -1    0    0  502    0 -0.00000000000E+00  0.00000000000E+00  0.76939241681E+03  0.76939241681E+03  0.00000000000E+00 0.  1.
         21   -1    0    0  501  502  0.00000000000E+00 -0.00000000000E+00 -0.16832704975E+04  0.16832704975E+04  0.00000000000E+00 0. -1.
    9000010    2    1    2  501    0  0.14683942967E+03 -0.83328749359E+03 -0.14264501077E+03  0.13077916008E+04  0.98693536114E+03 0.  0.
        -13    1    3    3    0    0 -0.12105424345E+03  0.28525695474E+02  0.28362563303E+03  0.30969558607E+03  0.10566000000E+00 0.  1.
         13    1    1    2    0    0 -0.14683942967E+03  0.83328749359E+03 -0.77123306990E+03  0.11448713134E+04  0.10566000000E+00 0. -1.
          4    1    3    3  501    0  0.26789367311E+03 -0.86181318907E+03 -0.42627064380E+03  0.99809601477E+03  0.00000000000E+00 0.  1.
</event>
<event>
 6    1  0.2569591E-005  0.1123985E+04  0.7818608E-02  0.8854011E-01
         21   -1    0    0  501  502  0.00000000000E+00  0.00000000000E+00  0.48411601170E+03  0.48411601170E+03  0.00000000000E+00 0. -1.
         -4   -1    0    0    0  501 -0.00000000000E+00 -0.00000000000E+00 -0.21632506521E+04  0.21632506521E+04  0.00000000000E+00 0. -1.
   -9000010    2    1    2    0  502 -0.49361399255E+03 -0.10024786043E+03 -0.27715503269E+03  0.11576515102E+04  0.10048072949E+04 0.  0.
        -13    1    1    2    0    0  0.49361399255E+03  0.10024786043E+03 -0.14019796077E+04  0.14897151535E+04  0.10566000000E+00 0.  1.
         13    1    3    3    0    0 -0.49008654568E+03 -0.81677030840E+02  0.29986418225E+03  0.58032275380E+03  0.10566000000E+00 0. -1.
         -4    1    3    3    0  502 -0.35274468725E+01 -0.18570829594E+02 -0.57701921494E+03  0.57732875643E+03  0.00000000000E+00 0. -1.
</event>
<event>
 6    1  0.2569591E-005  0.1055789E+04  0.7818608E-02  0.8993723E-01
         21   -1    0    0  501  502  0.00000000000E+00  0.00000000000E+00  0.72521011999E+03  0.72521011999E+03  0.00000000000E+00 0. -1.
         -4   -1    0    0    0  501 -0.00000000000E+00 -0.00000000000E+00 -0.77304715063E+03  0.77304715063E+03  0.00000000000E+00 0. -1.
   -9000010    2    1    2    0  502  0.69074880934E+02 -0.33484061915E+03  0.20183306129E+03  0.10749078341E+04  0.99889973864E+03 0.  0.
        -13    1    1    2    0    0 -0.69074880934E+02  0.33484061915E+03 -0.24967009193E+03  0.42334943649E+03  0.10566000000E+00 0.  1.
         13    1    3    3    0    0  0.30355776902E+03 -0.21589795702E+03  0.53411695101E+03  0.65118367263E+03  0.10566000000E+00 0. -1.
         -4    1    3    3    0  502 -0.23448288808E+03 -0.11894266213E+03 -0.33228388972E+03  0.42372416151E+03  0.00000000000E+00 0. -1.
</event>
<event>
 6    1  0.2569591E-005  0.1541966E+04  0.7818608E-02  0.8443130E-01
         21   -1    0    0  501  502  0.00000000000E+00  0.00000000000E+00  0.96485442750E+03  0.96485442750E+03  0.00000000000E+00 0.  1.
         -4   -1    0    0    0  501 -0.00000000000E+00 -0.00000000000E+00 -0.22810508030E+04  0.22810508030E+04  0.00000000000E+00 0. -1.
   -9000010    2    1    2    0  502 -0.95093252831E+03  0.70257864621E+03 -0.93103318172E+02  0.15447744109E+04  0.98983348351E+03 0.  0.
        -13    1    1    2    0    0  0.95093252831E+03 -0.70257864621E+03 -0.12230930573E+04  0.17011308197E+04  0.10566000000E+00 0.  1.
         13    1    3    3    0    0 -0.66131268140E+03  0.89310240280E+03  0.14999122280E+03  0.11213669081E+04  0.10566000000E+00 0. -1.
         -4    1    3    3    0  502 -0.28961984691E+03 -0.19052375659E+03 -0.24309454097E+03  0.42340750277E+03  0.00000000000E+00 0. -1.
</event>
<event>
 6    1  0.2569591E-005  0.1057647E+04  0.7818608E-02  0.9035089E-01
         21   -1    0    0  501  502  0.00000000000E+00  0.00000000000E+00  0.45566763034E+03  0.45566763034E+03  0.00000000000E+00 0. -1.
          4   -1    0    0  502    0 -0.00000000000E+00 -0.00000000000E+00 -0.12153208118E+04  0.12153208118E+04  0.00000000000E+00 0.  1.
    9000010    2    1    2  501    0 -0.25761437556E+03 -0.12839287254E+03 -0.86310525385E+03  0.13651253377E+04  0.10177261971E+04 0.  0.
        -13    1    3    3    0    0  0.17295160439E+03 -0.45214739495E+03 -0.58353093104E+03  0.75819382935E+03  0.10566000000E+00 0.  1.
         13    1    1    2    0    0  0.25761437556E+03  0.12839287254E+03  0.10345207238E+03  0.30586310444E+03  0.10566000000E+00 0. -1.
          4    1    3    3  501    0 -0.43056597995E+03  0.32375452241E+03 -0.27957432281E+03  0.60693150836E+03  0.00000000000E+00 0.  1.
</event>
<event>
 5    1  0.2569591E-005  0.7959277E+02  0.7818608E-02  0.1209685E+00
         -4   -1    0    0    0  501 -0.00000000000E+00  0.00000000000E+00  0.56471300071E+02  0.56471300071E+02  0.00000000000E+00 0. -1.
         21   -1    0    0  501  502  0.00000000000E+00 -0.00000000000E+00 -0.23652306111E+03  0.23652306111E+03  0.00000000000E+00 0.  1.
        -13    1    1    2    0    0  0.69336191776E+02 -0.26564976920E+01 -0.19936263112E+03  0.21109247812E+03  0.10566000000E+00 0.  1.
         13    1    1    2    0    0 -0.28205915737E+02  0.18872243993E+02  0.73168641252E+00  0.33945276622E+02  0.10566000000E+00 0. -1.
         -4    1    1    2    0  502 -0.41130276039E+02 -0.16215746301E+02  0.18579183667E+02  0.47956606436E+02  0.00000000000E+00 0. -1.
</event>
<event>
 6    1  0.2569591E-005  0.1091319E+04  0.7818608E-02  0.8945939E-01
         -4   -1    0    0    0  501 -0.00000000000E+00  0.00000000000E+00  0.82225481971E+03  0.82225481971E+03  0.00000000000E+00 0. -1.
         21   -1    0    0  501  502  0.00000000000E+00 -0.00000000000E+00 -0.88673208779E+03  0.88673208779E+03  0.00000000000E+00 0.  1.
   -9000010    2    1    2    0  502  0.37572148798E+03  0.17143516556E+02  0.35307890392E+03  0.11470138613E+04  0.10244586614E+04 0.  0.
        -13    1    1    2    0    0 -0.37572148798E+03 -0.17143516556E+02 -0.41755617200E+03  0.56197304618E+03  0.10566000000E+00 0.  1.
         13    1    3    3    0    0  0.19436746072E+02 -0.26186709185E+03 -0.27020166534E+03  0.37677727109E+03  0.10566000000E+00 0. -1.
         -4    1    3    3    0  502  0.35628474190E+03  0.27901060840E+03  0.62328056927E+03  0.77023659024E+03  0.00000000000E+00 0. -1.
</event>
<event>
 6    1  0.2569591E-005  0.1066469E+04  0.7818608E-02  0.8976825E-01
          4   -1    0    0  502    0 -0.00000000000E+00  0.00000000000E+00  0.21695589843E+04  0.21695589843E+04  0.00000000000E+00 0.  1.
         21   -1    0    0  501  502  0.00000000000E+00 -0.00000000000E+00 -0.23355521090E+03  0.23355521090E+03  0.00000000000E+00 0.  1.
    9000010    2    1    2  501    0 -0.33899224219E+03  0.10633868737E+03  0.13967896743E+04  0.17573777842E+04  0.10055504092E+04 0.  0.
        -13    1    3    3    0    0  0.32912917872E+03 -0.34860819985E+02  0.22198096468E+03  0.39851832191E+03  0.10566000000E+00 0.  1.
         13    1    1    2    0    0  0.33899224219E+03 -0.10633868737E+03  0.53921409905E+03  0.64573641099E+03  0.10566000000E+00 0. -1.
          4    1    3    3  501    0 -0.66812142091E+03  0.14119950735E+03  0.11748087097E+04  0.13588594623E+04  0.00000000000E+00 0.  1.
</event>
<event>
 6    1  0.2569591E-005  0.1156323E+04  0.7818608E-02  0.8801262E-01
         21   -1    0    0  501  502  0.00000000000E+00  0.00000000000E+00  0.36670211958E+03  0.36670211958E+03  0.00000000000E+00 0. -1.
         -4   -1    0    0    0  501 -0.00000000000E+00 -0.00000000000E+00 -0.20887582159E+04  0.20887582159E+04  0.00000000000E+00 0. -1.
   -9000010    2    1    2    0  502 -0.21872053831E+03 -0.53454057075E+03 -0.13017343513E+04  0.17411476055E+04  0.10017536460E+04 0.  0.
        -13    1    1    2    0    0  0.21872053831E+03  0.53454057075E+03 -0.42032174505E+03  0.71431272996E+03  0.10566000000E+00 0.  1.
         13    1    3    3    0    0 -0.25914643522E+03 -0.78028865627E+03 -0.66508496746E+03  0.10575184571E+04  0.10566000000E+00 0. -1.
         -4    1    3    3    0  502  0.40425896914E+02  0.24574808552E+03 -0.63664938381E+03  0.68362914844E+03  0.00000000000E+00 0. -1.
</event>
<event>
 6    1  0.2569591E-005  0.1115595E+04  0.7818608E-02  0.8851388E-01
         -4   -1    0    0    0  501 -0.00000000000E+00  0.00000000000E+00  0.21100744799E+04  0.21100744799E+04  0.00000000000E+00 0. -1.
         21   -1    0    0  501  502  0.00000000000E+00 -0.00000000000E+00 -0.97803156082E+03  0.97803156082E+03  0.00000000000E+00 0. -1.
   -9000010    2    1    2    0  502  0.51969246198E+03 -0.34302434087E+02 -0.60888469732E+03  0.12709417970E+04  0.98655743098E+03 0.  0.
        -13    1    1    2    0    0 -0.51969246198E+03  0.34302434087E+02  0.17409276164E+04  0.18171642438E+04  0.10566000000E+00 0.  1.
         13    1    3    3    0    0 -0.57800106379E+02  0.30420689855E+03 -0.50665776206E+03  0.59378850481E+03  0.10566000000E+00 0. -1.
         -4    1    3    3    0  502  0.57749256836E+03 -0.33850933263E+03 -0.10222693526E+03  0.67715329216E+03  0.00000000000E+00 0. -1.
</event>
<event>
 6    1  0.2569591E-005  0.1221600E+04  0.7818608E-02  0.8720623E-01
         21   -1    0    0  501  502  0.00000000000E+00  0.00000000000E+00  0.42844017403E+04  0.42844017403E+04  0.00000000000E+00 0.  1.
         -4   -1    0    0    0  501 -0.00000000000E+00 -0.00000000000E+00 -0.23273833983E+03  0.23273833983E+03  0.00000000000E+00 0. -1.
   -9000010    2    1    2    0  502 -0.69109221078E+03 -0.10915170801E+02  0.31673295136E+04  0.33947435284E+04  0.10072635162E+04 0.  0.
        -13    1    1    2    0    0  0.69109221078E+03  0.10915170801E+02  0.88433388691E+03  0.11223965518E+04  0.10566000000E+00 0.  1.
         13    1    3    3    0    0 -0.53993427567E+03 -0.41144031849E+03  0.25808933450E+04  0.26686743201E+04  0.10566000000E+00 0. -1.
         -4    1    3    3    0  502 -0.15115793511E+03  0.40052514769E+03  0.58643616861E+03  0.72606920823E+03  0.00000000000E+00 0. -1.
</event>
<event>
 5    1  0.2569591E-005  0.2611663E+03  0.7818608E-02  0.1049917E+00
          4   -1    0    0  502    0 -0.00000000000E+00  0.00000000000E+00  0.15279762549E+04  0.15279762549E+04  0.00000000000E+00 0.  1.
         21   -1    0    0  501  502  0.00000000000E+00 -0.00000000000E+00 -0.24069205554E+02  0.24069205554E+02  0.00000000000E+00 0. -1.
        -13    1    1    2    0    0  0.37728135685E+02  0.13527856258E+03  0.40316214279E+03  0.42692320886E+03  0.10566000000E+00 0.  1.
         13    1    1    2    0    0 -0.10505026783E+03 -0.60787172169E+02  0.42615922306E+03  0.44310533018E+03  0.10566000000E+00 0. -1.
          4    1    1    2  501    0  0.67322132146E+02 -0.74491390410E+02  0.67458568350E+03  0.68201692142E+03  0.00000000000E+00 0.  1.
</event>
<event>
 6    1  0.2569591E-005  0.1006999E+04  0.7818608E-02  0.9254737E-01
         21   -1    0    0  501  502  0.00000000000E+00  0.00000000000E+00  0.76992818241E+03  0.76992818241E+03  0.00000000000E+00 0.  1.
          4   -1    0    0  502    0 -0.00000000000E+00 -0.00000000000E+00 -0.54788721188E+03  0.54788721188E+03  0.00000000000E+00 0.  1.
    9000010    2    1    2  501    0  0.36379229518E+02 -0.13617960871E+03  0.40625622369E+03  0.10858593536E+04  0.99708479191E+03 0.  0.
        -13    1    3    3    0    0  0.27519358840E+03  0.23654757073E+03  0.51501717384E+03  0.63002298754E+03  0.10566000000E+00 0.  1.
         13    1    1    2    0    0 -0.36379229518E+02  0.13617960871E+03 -0.18421525315E+03  0.23195604072E+03  0.10566000000E+00 0. -1.
          4    1    3    3  501    0 -0.23881435888E+03 -0.37272717945E+03 -0.10876095016E+03  0.45583636602E+03  0.00000000000E+00 0.  1.
</event>
<event>
 6    1  0.2569591E-005  0.1717676E+04  0.7818608E-02  0.8338096E-01
         -4   -1    0    0    0  501 -0.00000000000E+00  0.00000000000E+00  0.16547336415E+04  0.16547336415E+04  0.00000000000E+00 0. -1.
         21   -1    0    0  501  502  0.00000000000E+00 -0.00000000000E+00 -0.16945083139E+04  0.16945083139E+04  0.00000000000E+00 0.  1.
   -9000010    2    1    2    0  502 -0.33518923652E+03  0.13538869797E+04  0.59366950756E+03  0.18173759957E+04  0.10025219435E+04 0.  0.
        -13    1    1    2    0    0  0.33518923652E+03 -0.13538869797E+04 -0.63344418001E+03  0.15318659597E+04  0.10566000000E+00 0.  1.
         13    1    3    3    0    0  0.11917300124E+03  0.49175476595E+03  0.67029547603E+03  0.83983390644E+03  0.10566000000E+00 0. -1.
         -4    1    3    3    0  502 -0.45436223777E+03  0.86213221380E+03 -0.76625968472E+02  0.97754208924E+03  0.00000000000E+00 0. -1.
</event>
<event>
 6    1  0.2569591E-005  0.1041422E+04  0.7818608E-02  0.9015192E-01
         21   -1    0    0  501  502  0.00000000000E+00  0.00000000000E+00  0.99611391294E+03  0.99611391294E+03  0.00000000000E+00 0. -1.
         -4   -1    0    0    0  501 -0.00000000000E+00 -0.00000000000E+00 -0.68700221219E+03  0.68700221219E+03  0.00000000000E+00 0. -1.
   -9000010    2    1    2    0  502 -0.49855198807E+02 -0.32279889042E+03  0.63660450640E+03  0.12205837334E+04  0.98887546642E+03 0.  0.
        -13    1    1    2    0    0  0.49855198807E+02  0.32279889042E+03 -0.32749280566E+03  0.46253239176E+03  0.10566000000E+00 0.  1.
         13    1    3    3    0    0  0.44713281155E+03 -0.34694168161E+02  0.39412338273E+03  0.59704663842E+03  0.10566000000E+00 0. -1.
         -4    1    3    3    0  502 -0.49698801036E+03 -0.28810472226E+03  0.24248112367E+03  0.62353709494E+03  0.00000000000E+00 0. -1.
</event>
<event>
 5    1  0.2569591E-005  0.9557051E+02  0.7818608E-02  0.1178524E+00
          4   -1    0    0  502    0 -0.00000000000E+00  0.00000000000E+00  0.35007054388E+03  0.35007054388E+03  0.00000000000E+00 0.  1.
         21   -1    0    0  501  502  0.00000000000E+00 -0.00000000000E+00 -0.22736361077E+02  0.22736361077E+02  0.00000000000E+00 0. -1.
        -13    1    1    2    0    0  0.27292092063E+02  0.79014227177E+02  0.15935604283E+03  0.17995128767E+03  0.10566000000E+00 0.  1.
         13    1    1    2    0    0 -0.36685014112E+02 -0.73396969580E+02  0.13368626152E+03  0.15685959674E+03  0.10566000000E+00 0. -1.
          4    1    1    2  501    0  0.93929220496E+01 -0.56172575969E+01  0.34291878450E+02  0.35996020546E+02  0.00000000000E+00 0.  1.
</event>
<event>
 6    1  0.2569591E-005  0.1019118E+04  0.7818608E-02  0.9191239E-01
         21   -1    0    0  501  502  0.00000000000E+00  0.00000000000E+00  0.15034107775E+04  0.15034107775E+04  0.00000000000E+00 0.  1.
          4   -1    0    0  502    0 -0.00000000000E+00 -0.00000000000E+00 -0.25064336480E+03  0.25064336480E+03  0.00000000000E+00 0.  1.
    9000010    2    1    2  501    0 -0.11251104559E+03  0.13233390057E+03  0.89490913805E+03  0.13562683299E+04  0.10042063636E+04 0.  0.
        -13    1    3    3    0    0  0.31359963541E+01  0.36924209028E+03  0.10049152771E+04  0.10706093036E+04  0.10566000000E+00 0.  1.
         13    1    1    2    0    0  0.11251104559E+03 -0.13233390057E+03  0.35785827461E+03  0.39778581233E+03  0.10566000000E+00 0. -1.
          4    1    3    3  501    0 -0.11564704194E+03 -0.23690818971E+03 -0.11000613906E+03  0.28565902628E+03  0.00000000000E+00 0.  1.
</event>
<event>
 6    1  0.2569591E-005  0.1233227E+04  0.7818608E-02  0.8697094E-01
          4   -1    0    0  502    0 -0.00000000000E+00  0.00000000000E+00  0.32413448620E+04  0.32413448620E+04  0.00000000000E+00 0.  1.
         21   -1    0    0  501  502  0.00000000000E+00 -0.00000000000E+00 -0.64757066543E+03  0.64757066543E+03  0.00000000000E+00 0.  1.
    9000010    2    1    2  501    0  0.22606986294E+03 -0.70851160669E+03  0.45208179643E+02  0.12340548845E+04  0.98374356344E+03 0.  0.
        -13    1    3    3    0    0  0.91824856045E+01 -0.48633416304E+03 -0.44139209876E+03  0.65683501140E+03  0.10566000000E+00 0.  1.
         13    1    1    2    0    0 -0.22606986294E+03  0.70851160669E+03  0.25485660169E+04  0.26548606430E+04  0.10566000000E+00 0. -1.
          4    1    3    3  501    0  0.21688737733E+03 -0.22217744365E+03  0.48660027840E+03  0.57721987306E+03  0.00000000000E+00 0.  1.
</event>
<event>
 5    1  0.2569591E-005  0.8818516E+02  0.7818608E-02  0.1196228E+00
          4   -1    0    0  502    0 -0.00000000000E+00  0.00000000000E+00  0.38895556470E+03  0.38895556470E+03  0.00000000000E+00 0.  1.
         21   -1    0    0  501  502  0.00000000000E+00 -0.00000000000E+00 -0.16197267064E+02  0.16197267064E+02  0.00000000000E+00 0. -1.
        -13    1    1    2    0    0 -0.25787810742E+02 -0.68145352290E+02  0.14061792799E+03  0.15837365013E+03  0.10566000000E+00 0.  1.
         13    1    1    2    0    0  0.36757060946E+02  0.58635542797E+02  0.19051563520E+03  0.20269540406E+03  0.10566000000E+00 0. -1.
          4    1    1    2  501    0 -0.10969250204E+02  0.95098094929E+01  0.41624734452E+02  0.44083777570E+02  0.00000000000E+00 0.  1.
</event>
<event>
 6    1  0.2569591E-005  0.1268832E+04  0.7818608E-02  0.8759207E-01
          4   -1    0    0  502    0 -0.00000000000E+00  0.00000000000E+00  0.26875563965E+04  0.26875563965E+04  0.00000000000E+00 0.  1.
         21   -1    0    0  501  502  0.00000000000E+00 -0.00000000000E+00 -0.34500728363E+03  0.34500728363E+03  0.00000000000E+00 0.  1.
    9000010    2    1    2  501    0  0.48031969168E+03 -0.20626415222E+03  0.10805624095E+04  0.16665979567E+04  0.11561495241E+04 0.  0.
        -13    1    3    3    0    0  0.16935006865E+03  0.39793882488E+03  0.54465169189E+02  0.43589129369E+03  0.10566000000E+00 0.  1.
         13    1    1    2    0    0 -0.48031969168E+03  0.20626415222E+03  0.12619867034E+04  0.13659657233E+04  0.10566000000E+00 0. -1.
          4    1    3    3  501    0  0.31096962302E+03 -0.60420297710E+03  0.10260972403E+04  0.12307066631E+04  0.00000000000E+00 0.  1.
</event>
<event>
 6    1  0.2569591E-005  0.1015584E+04  0.7818608E-02  0.9172871E-01
         21   -1    0    0  501  502  0.00000000000E+00  0.00000000000E+00  0.19034597342E+03  0.19034597342E+03  0.00000000000E+00 0. -1.
          4   -1    0    0  502    0 -0.00000000000E+00 -0.00000000000E+00 -0.20600199674E+04  0.20600199674E+04  0.00000000000E+00 0.  1.
    9000010    2    1    2  501    0  0.12625885172E+02 -0.18809210928E+03 -0.17607461354E+04  0.20326428504E+04  0.99793384031E+03 0.  0.
        -13    1    3    3    0    0 -0.34962073352E+03  0.13413825960E+03 -0.26093065058E+03  0.45641269217E+03  0.10566000000E+00 0.  1.
         13    1    1    2    0    0 -0.12625885172E+02  0.18809210928E+03 -0.10892785863E+03  0.21772309042E+03  0.10566000000E+00 0. -1.
          4    1    3    3  501    0  0.36224661870E+03 -0.32223036889E+03 -0.14998154848E+04  0.15762301582E+04  0.00000000000E+00 0.  1.
</event>
<event>
 5    1  0.2569591E-005  0.3133416E+03  0.7818608E-02  0.1006884E+00
          4   -1    0    0  502    0 -0.00000000000E+00  0.00000000000E+00  0.18957838110E+04  0.18957838110E+04  0.00000000000E+00 0.  1.
         21   -1    0    0  501  502  0.00000000000E+00 -0.00000000000E+00 -0.71654464167E+02  0.71654464167E+02  0.00000000000E+00 0. -1.
        -13    1    1    2    0    0 -0.11473703928E+03 -0.20614859097E+03  0.11646227959E+04  0.11882794695E+04  0.10566000000E+00 0.  1.
         13    1    1    2    0    0  0.59390613028E+02  0.26020540774E+03  0.26132241478E+03  0.37352846580E+03  0.10566000000E+00 0. -1.
          4    1    1    2  501    0  0.55346426250E+02 -0.54056816771E+02  0.39818413618E+03  0.40563033990E+03  0.00000000000E+00 0.  1.
</event>
<event>
 6    1  0.2569591E-005  0.1019216E+04  0.7818608E-02  0.9048553E-01
         -4   -1    0    0    0  501 -0.00000000000E+00  0.00000000000E+00  0.27587471762E+04  0.27587471762E+04  0.00000000000E+00 0. -1.
         21   -1    0    0  501  502  0.00000000000E+00 -0.00000000000E+00 -0.16258485947E+03  0.16258485947E+03  0.00000000000E+00 0. -1.
   -9000010    2    1    2    0  502  0.64290015354E+02 -0.29788419337E+03  0.17951286049E+04  0.20642887361E+04  0.97259091043E+03 0.  0.
        -13    1    1    2    0    0 -0.64290015354E+02  0.29788419337E+03  0.80103371185E+03  0.85704329961E+03  0.10566000000E+00 0.  1.
         13    1    3    3    0    0 -0.31045038168E+03  0.18338287120E+02  0.14553001202E+03  0.34335801697E+03  0.10566000000E+00 0. -1.
         -4    1    3    3    0  502  0.37474039703E+03 -0.31622248049E+03  0.16495985929E+04  0.17209307191E+04  0.00000000000E+00 0. -1.
</event>
<event>
 6    1  0.2569591E-005  0.1040109E+04  0.7818608E-02  0.9267544E-01
         -4   -1    0    0    0  501 -0.00000000000E+00  0.00000000000E+00  0.21343964109E+03  0.21343964109E+03  0.00000000000E+00 0. -1.
         21   -1    0    0  501  502  0.00000000000E+00 -0.00000000000E+00 -0.16895769814E+04  0.16895769814E+04  0.00000000000E+00 0. -1.
   -9000010    2    1    2    0  502  0.44359572955E+02  0.11344145420E+03 -0.14392568753E+04  0.17757495211E+04  0.10329517285E+04 0.  0.
        -13    1    1    2    0    0 -0.44359572955E+02 -0.11344145420E+03 -0.36880465065E+02  0.12726710145E+03  0.10566000000E+00 0.  1.
         13    1    3    3    0    0  0.56504970834E+02  0.54626058994E+03 -0.10859188316E+04  0.12168866684E+04  0.10566000000E+00 0. -1.
         -4    1    3    3    0  502 -0.12145397879E+02 -0.43281913574E+03 -0.35333804372E+03  0.55886285267E+03  0.00000000000E+00 0. -1.
</event>
<event>
 6    1  0.2569591E-005  0.1016148E+04  0.7818608E-02  0.9143797E-01
         21   -1    0    0  501  502  0.00000000000E+00  0.00000000000E+00  0.20502471133E+04  0.20502471133E+04  0.00000000000E+00 0.  1.
          4   -1    0    0  502    0 -0.00000000000E+00 -0.00000000000E+00 -0.19024950644E+03  0.19024950644E+03  0.00000000000E+00 0.  1.
    9000010    2    1    2  501    0  0.22816564227E+02  0.20961725680E+03  0.16793067848E+04  0.19628112325E+04  0.99403051606E+03 0.  0.
        -13    1    3    3    0    0  0.39202220614E+03  0.98415813804E+02  0.14690171630E+04  0.15236070749E+04  0.10566000000E+00 0.  1.
         13    1    1    2    0    0 -0.22816564227E+02 -0.20961725680E+03  0.18069082199E+03  0.27768538721E+03  0.10566000000E+00 0. -1.
          4    1    3    3  501    0 -0.36920564192E+03  0.11120144299E+03  0.21028962184E+03  0.43920415754E+03  0.00000000000E+00 0.  1.
</event>
<event>
 5    1  0.2569591E-005  0.1330225E+03  0.7818608E-02  0.1134567E+00
         21   -1    0    0  501  502  0.00000000000E+00  0.00000000000E+00  0.24526348219E+03  0.24526348219E+03  0.00000000000E+00 0. -1.
          4   -1    0    0  502    0 -0.00000000000E+00 -0.00000000000E+00 -0.51631126542E+02  0.51631126542E+02  0.00000000000E+00 0.  1.
        -13    1    1    2    0    0 -0.15797499634E+02  0.30906413590E+01 -0.12257266740E+02  0.20232765769E+02  0.10566000000E+00 0.  1.
         13    1    1    2    0    0  0.28189190972E+02 -0.84840220145E+02  0.56035922454E+02  0.10551080140E+03  0.10566000000E+00 0. -1.
          4    1    1    2  501    0 -0.12391691338E+02  0.81749578786E+02  0.14985369993E+03  0.17115104157E+03  0.00000000000E+00 0.  1.
</event>
<event>
 6    1  0.2569591E-005  0.1007916E+04  0.7818608E-02  0.9224738E-01
         21   -1    0    0  501  502  0.00000000000E+00  0.00000000000E+00  0.72297926160E+03  0.72297926160E+03  0.00000000000E+00 0.  1.
          4   -1    0    0  502    0 -0.00000000000E+00 -0.00000000000E+00 -0.54349348622E+03  0.54349348622E+03  0.00000000000E+00 0.  1.
    9000010    2    1    2  501    0 -0.15342626653E+03  0.36620951266E+02  0.31764639233E+03  0.10567846924E+04  0.99549683187E+03 0.  0.
        -13    1    3    3    0    0  0.88848561516E+02  0.45438290940E+03  0.33829593441E+03  0.57341263122E+03  0.10566000000E+00 0.  1.
         13    1    1    2    0    0  0.15342626653E+03 -0.36620951266E+02 -0.13816061695E+03  0.20968805539E+03  0.10566000000E+00 0. -1.
          4    1    3    3  501    0 -0.24227482805E+03 -0.41776195813E+03 -0.20649542080E+02  0.48337206121E+03  0.00000000000E+00 0.  1.
</event>
<event>
 6    1  0.2569591E-005  0.1111154E+04  0.7818608E-02  0.8874406E-01
         -4   -1    0    0    0  501 -0.00000000000E+00  0.00000000000E+00  0.12304650911E+04  0.12304650911E+04  0.00000000000E+00 0. -1.
         21   -1    0    0  501  502  0.00000000000E+00 -0.00000000000E+00 -0.67913631770E+03  0.67913631770E+03  0.00000000000E+00 0. -1.
   -9000010    2    1    2    0  502  0.26064452061E+03  0.40164459076E+03 -0.83689886883E+02  0.11143010546E+04  0.10027008026E+04 0.  0.
        -13    1    1    2    0    0 -0.26064452061E+03 -0.40164459076E+03  0.63501866032E+03  0.79530035429E+03  0.10566000000E+00 0.  1.
         13    1    3    3    0    0  0.45327391379E+03  0.15953842699E+03 -0.43359103066E+03  0.64723329923E+03  0.10566000000E+00 0. -1.
         -4    1    3    3    0  502 -0.19262939317E+03  0.24210616377E+03  0.34990114377E+03  0.46706775532E+03  0.00000000000E+00 0. -1.
</event>
<event>
 6    1  0.2569591E-005  0.1013076E+04  0.7818608E-02  0.9128054E-01
         -4   -1    0    0    0  501 -0.00000000000E+00  0.00000000000E+00  0.26442847139E+04  0.26442847139E+04  0.00000000000E+00 0. -1.
         21   -1    0    0  501  502  0.00000000000E+00 -0.00000000000E+00 -0.14983944150E+03  0.14983944150E+03  0.00000000000E+00 0. -1.
   -9000010    2    1    2    0  502 -0.17331970631E+03 -0.14558982486E+03  0.18234086257E+04  0.20859389324E+04  0.98746447822E+03 0.  0.
        -13    1    1    2    0    0  0.17331970631E+03  0.14558982486E+03  0.67103664673E+03  0.70818522303E+03  0.10566000000E+00 0.  1.
         13    1    3    3    0    0 -0.43015235338E+03  0.25202926585E+03  0.63922722286E+03  0.81065482887E+03  0.10566000000E+00 0. -1.
         -4    1    3    3    0  502  0.25683264707E+03 -0.39761909071E+03  0.11841814028E+04  0.12752841035E+04  0.00000000000E+00 0. -1.
</event>
<event>
 6    1  0.2569591E-005  0.1254003E+04  0.7818608E-02  0.8685539E-01
          4   -1    0    0  502    0 -0.00000000000E+00  0.00000000000E+00  0.29887230542E+04  0.29887230542E+04  0.00000000000E+00 0.  1.
         21   -1    0    0  501  502  0.00000000000E+00 -0.00000000000E+00 -0.33688951475E+03  0.33688951475E+03  0.00000000000E+00 0.  1.
    9000010    2    1    2  501    0  0.92766080791E+02 -0.73790480051E+03  0.15082055713E+04  0.19614300368E+04  0.10096606873E+04 0.  0.
        -13    1    3    3    0    0 -0.20331004541E+03 -0.31487849074E+03  0.80479785615E+01  0.37489761218E+03  0.10566000000E+00 0.  1.
         13    1    1    2    0    0 -0.92766080791E+02  0.73790480051E+03  0.11436279681E+04  0.13641825321E+04  0.10566000000E+00 0. -1.
          4    1    3    3  501    0  0.29607612620E+03 -0.42302630977E+03  0.15001575928E+04  0.15865324246E+04  0.00000000000E+00 0.  1.
</event>
<event>
 6    1  0.2569591E-005  0.1081081E+04  0.7818608E-02  0.8892400E-01
         -4   -1    0    0    0  501 -0.00000000000E+00  0.00000000000E+00  0.44016219754E+03  0.44016219754E+03  0.00000000000E+00 0. -1.
         21   -1    0    0  501  502  0.00000000000E+00 -0.00000000000E+00 -0.16745111878E+04  0.16745111878E+04  0.00000000000E+00 0.  1.
   -9000010    2    1    2    0  502  0.47631550585E+03  0.76569663027E+02 -0.12227108055E+04  0.16321023202E+04  0.96746932534E+03 0.  0.
        -13    1    1    2    0    0 -0.47631550585E+03 -0.76569663027E+02 -0.11638184837E+02  0.48257106515E+03  0.10566000000E+00 0.  1.
         13    1    3    3    0    0  0.26570876796E+03 -0.38885877464E+03 -0.93219443975E+03  0.10444131274E+04  0.10566000000E+00 0. -1.
         -4    1    3    3    0  502  0.21060673789E+03  0.46542843766E+03 -0.29051636570E+03  0.58768919283E+03  0.00000000000E+00 0. -1.
</event>
<event>
 6    1  0.2569591E-005  0.1211579E+04  0.7818608E-02  0.8726761E-01
         -4   -1    0    0    0  501 -0.00000000000E+00  0.00000000000E+00  0.66482632498E+03  0.66482632498E+03  0.00000000000E+00 0. -1.
         21   -1    0    0  501  502  0.00000000000E+00 -0.00000000000E+00 -0.13866298370E+04  0.13866298370E+04  0.00000000000E+00 0. -1.
   -9000010    2    1    2    0  502  0.68635361950E+03 -0.70797573540E+02 -0.59542205497E+03  0.13499820917E+04  0.99590694189E+03 0.  0.
        -13    1    1    2    0    0 -0.68635361950E+03  0.70797573540E+02 -0.12638145701E+03  0.70147407027E+03  0.10566000000E+00 0.  1.
         13    1    3    3    0    0  0.27575824186E+03  0.35692808030E+03  0.72535424662E+02  0.45683876965E+03  0.10566000000E+00 0. -1.
         -4    1    3    3    0  502  0.41059537764E+03 -0.42772565384E+03 -0.66795747963E+03  0.89314332203E+03  0.00000000000E+00 0. -1.
</event>
<event>
 5    1  0.2569591E-005  0.1230585E+03  0.7818608E-02  0.1145060E+00
          4   -1    0    0  502    0 -0.00000000000E+00  0.00000000000E+00  0.28711334678E+03  0.28711334678E+03  0.00000000000E+00 0.  1.
         21   -1    0    0  501  502  0.00000000000E+00 -0.00000000000E+00 -0.41508795130E+02  0.41508795130E+02  0.00000000000E+00 0. -1.
        -13    1    1    2    0    0 -0.60352615080E+02  0.63288890678E+02  0.12691512224E+03  0.15412780816E+03  0.10566000000E+00 0.  1.
         13    1    1    2    0    0  0.79803100432E+02 -0.33764926445E+02  0.58046148220E+02  0.10429751475E+03  0.10566000000E+00 0. -1.
          4    1    1    2  501    0 -0.19450485351E+02 -0.29523964233E+02  0.60643281196E+02  0.70196819006E+02  0.00000000000E+00 0.  1.
</event>
<event>
 6    1  0.2569591E-005  0.1056596E+04  0.7818608E-02  0.9072628E-01
          4   -1    0    0  502    0 -0.00000000000E+00  0.00000000000E+00  0.16368245087E+04  0.16368245087E+04  0.00000000000E+00 0.  1.
         21   -1    0    0  501  502  0.00000000000E+00 -0.00000000000E+00 -0.34881824450E+03  0.34881824450E+03  0.00000000000E+00 0.  1.
    9000010    2    1    2  501    0  0.21313729221E+03  0.12770370272E+03  0.51838991500E+03  0.11769122189E+04  0.10269656888E+04 0.  0.
        -13    1    3    3    0    0  0.13801673141E+03 -0.31812284453E+03 -0.14354882679E+03  0.37530925808E+03  0.10566000000E+00 0.  1.
         13    1    1    2    0    0 -0.21313729221E+03 -0.12770370272E+03  0.76961634924E+03  0.80873053436E+03  0.10566000000E+00 0. -1.
          4    1    3    3  501    0  0.75120560805E+02  0.44582654724E+03  0.66193874179E+03  0.80160296080E+03  0.00000000000E+00 0.  1.
</event>
<event>
 6    1  0.2569591E-005  0.1256815E+04  0.7818608E-02  0.8684668E-01
         -4   -1    0    0    0  501 -0.00000000000E+00  0.00000000000E+00  0.22991307241E+04  0.22991307241E+04  0.00000000000E+00 0. -1.
         21   -1    0    0  501  502  0.00000000000E+00 -0.00000000000E+00 -0.11523064629E+04  0.11523064629E+04  0.00000000000E+00 0. -1.
   -9000010    2    1    2    0  502 -0.46701137257E+03  0.57599984038E+03 -0.71599177636E+03  0.14464536361E+04  0.10147455145E+04 0.  0.
        -13    1    1    2    0    0  0.46701137257E+03 -0.57599984038E+03  0.18628160376E+04  0.20049835509E+04  0.10566000000E+00 0.  1.
         13    1    3    3    0    0 -0.61056210605E+03  0.75848400964E+03 -0.72521260046E+03  0.12140911849E+04  0.10566000000E+00 0. -1.
         -4    1    3    3    0  502  0.14355073347E+03 -0.18248416926E+03  0.92208240980E+01  0.23236245116E+03  0.00000000000E+00 0. -1.
</event>
<event>
 6    1  0.2569591E-005  0.1000385E+04  0.7818608E-02  0.9326752E-01
         21   -1    0    0  501  502  0.00000000000E+00  0.00000000000E+00  0.23183264947E+03  0.23183264947E+03  0.00000000000E+00 0.  1.
          4   -1    0    0  502    0 -0.00000000000E+00 -0.00000000000E+00 -0.17059756152E+04  0.17059756152E+04  0.00000000000E+00 0.  1.
    9000010    2    1    2  501    0 -0.73605274986E+02 -0.80891955732E+02 -0.87589976598E+03  0.13296502406E+04  0.99438831315E+03 0.  0.
        -13    1    3    3    0    0  0.20834602125E+03 -0.24419669035E+03  0.70571230905E+02  0.32866456752E+03  0.10566000000E+00 0.  1.
         13    1    1    2    0    0  0.73605274986E+02  0.80891955732E+02 -0.59824319975E+03  0.60815802406E+03  0.10566000000E+00 0. -1.
          4    1    3    3  501    0 -0.28195129623E+03  0.16330473462E+03 -0.94647099688E+03  0.10009856731E+04  0.00000000000E+00 0.  1.
</event>
<event>
 6    1  0.2569591E-005  0.1129130E+04  0.7818608E-02  0.8843875E-01
         21   -1    0    0  501  502  0.00000000000E+00  0.00000000000E+00  0.64657584476E+03  0.64657584476E+03  0.00000000000E+00 0.  1.
         -4   -1    0    0    0  501 -0.00000000000E+00 -0.00000000000E+00 -0.16726024502E+04  0.16726024502E+04  0.00000000000E+00 0. -1.
   -9000010    2    1    2    0  502 -0.27459384533E+03  0.43967318599E+03  0.44225775720E+02  0.11299960293E+04  0.10031055860E+04 0.  0.
        -13    1    1    2    0    0  0.27459384533E+03 -0.43967318599E+03 -0.10702523811E+04  0.11891822656E+04  0.10566000000E+00 0.  1.
         13    1    3    3    0    0 -0.45905475311E+03  0.92706178652E+02  0.38778616139E+03  0.60803274586E+03  0.10566000000E+00 0. -1.
         -4    1    3    3    0  502  0.18446090778E+03  0.34696700734E+03 -0.34356038567E+03  0.52196328346E+03  0.00000000000E+00 0. -1.
</event>
<event>
 5    1  0.2569591E-005  0.4344308E+03  0.7818608E-02  0.9639726E-01
          4   -1    0    0  502    0 -0.00000000000E+00  0.00000000000E+00  0.17818046289E+03  0.17818046289E+03  0.00000000000E+00 0.  1.
         21   -1    0    0  501  502  0.00000000000E+00 -0.00000000000E+00 -0.10453995529E+04  0.10453995529E+04  0.00000000000E+00 0. -1.
        -13    1    1    2    0    0 -0.29699612871E+03  0.27316764710E+03 -0.44009425634E+03  0.59708477582E+03  0.10566000000E+00 0.  1.
         13    1    1    2    0    0  0.32758910279E+03 -0.27326892344E+03 -0.38658255737E+03  0.57570531491E+03  0.10566000000E+00 0. -1.
          4    1    1    2  501    0 -0.30592974085E+02  0.10127634226E+00 -0.40542276304E+02  0.50789925066E+02  0.00000000000E+00 0.  1.
</event>
<event>
 5    1  0.2569591E-005  0.2063812E+03  0.7818608E-02  0.1058319E+00
         -4   -1    0    0    0  501 -0.00000000000E+00  0.00000000000E+00  0.14720793615E+03  0.14720793615E+03  0.00000000000E+00 0. -1.
         21   -1    0    0  501  502  0.00000000000E+00 -0.00000000000E+00 -0.46555890410E+03  0.46555890410E+03  0.00000000000E+00 0.  1.
        -13    1    1    2    0    0  0.18586762391E+03  0.47914068906E+02 -0.35460927297E+03  0.40322484950E+03  0.10566000000E+00 0.  1.
         13    1    1    2    0    0 -0.11781168134E+03 -0.66270073765E+01  0.51069462964E+02  0.12857531139E+03  0.10566000000E+00 0. -1.
         -4    1    1    2    0  502 -0.68055942563E+02 -0.41287061530E+02 -0.14811157949E+02  0.80966679367E+02  0.00000000000E+00 0. -1.
</event>
<event>
 5    1  0.2569591E-005  0.6228013E+02  0.7818608E-02  0.1282370E+00
          4   -1    0    0  502    0 -0.00000000000E+00  0.00000000000E+00  0.50806259324E+02  0.50806259324E+02  0.00000000000E+00 0.  1.
         21   -1    0    0  501  502  0.00000000000E+00 -0.00000000000E+00 -0.74897469411E+02  0.74897469411E+02  0.00000000000E+00 0. -1.
        -13    1    1    2    0    0  0.81882168058E+01  0.43736151206E+02  0.10667037496E+02  0.45756908437E+02  0.10566000000E+00 0.  1.
         13    1    1    2    0    0  0.11658690922E+01 -0.31151999235E+02 -0.49452160952E+02  0.58457965188E+02  0.10566000000E+00 0. -1.
          4    1    1    2  501    0 -0.93540858980E+01 -0.12584151970E+02  0.14693913369E+02  0.21488855109E+02  0.00000000000E+00 0.  1.
</event>
<event>
 5    1  0.2569591E-005  0.5133297E+03  0.7818608E-02  0.1027026E+00
         21   -1    0    0  501  502  0.00000000000E+00  0.00000000000E+00  0.39028199771E+03  0.39028199771E+03  0.00000000000E+00 0. -1.
         -4   -1    0    0    0  501 -0.00000000000E+00 -0.00000000000E+00 -0.24958756442E+03  0.24958756442E+03  0.00000000000E+00 0. -1.
        -13    1    1    2    0    0  0.15812759654E+02  0.27880899148E+02 -0.76148008725E+02  0.82619115839E+02  0.10566000000E+00 0.  1.
         13    1    1    2    0    0  0.16628972676E+02 -0.23832008037E+03  0.24532514242E+03  0.34242870807E+03  0.10566000000E+00 0. -1.
         -4    1    1    2    0  502 -0.32441732331E+02  0.21043918122E+03 -0.28482700403E+02  0.21482173822E+03  0.00000000000E+00 0. -1.
</event>
<event>
 6    1  0.2569591E-005  0.1017023E+04  0.7818608E-02  0.9142636E-01
          4   -1    0    0  502    0 -0.00000000000E+00  0.00000000000E+00  0.28201182769E+04  0.28201182769E+04  0.00000000000E+00 0.  1.
         21   -1    0    0  501  502  0.00000000000E+00 -0.00000000000E+00 -0.17503334828E+03  0.17503334828E+03  0.00000000000E+00 0. -1.
    9000010    2    1    2  501    0 -0.17593893798E+03 -0.11696624896E+03  0.25813537018E+04  0.27744769920E+04  0.99483668611E+03 0.  0.
        -13    1    3    3    0    0  0.13260342006E+03  0.38469915168E+03  0.78751477087E+03  0.88642914540E+03  0.10566000000E+00 0.  1.
         13    1    1    2    0    0  0.17593893798E+03  0.11696624896E+03  0.63731226821E+02  0.22067463318E+03  0.10566000000E+00 0. -1.
          4    1    3    3  501    0 -0.30854235804E+03 -0.50166540064E+03  0.17938389309E+04  0.18880478466E+04  0.00000000000E+00 0.  1.
</event>
<event>
 5    1  0.2569591E-005  0.9344099E+02  0.7818608E-02  0.1200859E+00
         -4   -1    0    0    0  501 -0.00000000000E+00  0.00000000000E+00  0.32244047481E+03  0.32244047481E+03  0.00000000000E+00 0. -1.
         21   -1    0    0  501  502  0.00000000000E+00 -0.00000000000E+00 -0.56830424091E+02  0.56830424091E+02  0.00000000000E+00 0.  1.
        -13    1    1    2    0    0  0.46149144389E+02 -0.24686871026E+02 -0.35996640542E+02  0.63521291102E+02  0.10566000000E+00 0.  1.
         13    1    1    2    0    0 -0.24951575287E+02  0.52344562395E+02  0.20531285983E+03  0.21334459426E+03  0.10566000000E+00 0. -1.
         -4    1    1    2    0  502 -0.21197569101E+02 -0.27657691369E+02  0.96293831427E+02  0.10240501354E+03  0.00000000000E+00 0. -1.
</event>
<event>
 6    1  0.2569591E-005  0.1262740E+04  0.7818608E-02  0.8670320E-01
         21   -1    0    0  501  502  0.00000000000E+00  0.00000000000E+00  0.89686603119E+03  0.89686603119E+03  0.00000000000E+00 0. -1.
          4   -1    0    0  502    0 -0.00000000000E+00 -0.00000000000E+00 -0.14511399631E+04  0.14511399631E+04  0.00000000000E+00 0.  1.
    9000010    2    1    2  501    0 -0.51642484725E+03 -0.58223879076E+03 -0.84259455992E+03  0.15180509183E+04  0.99439246071E+03 0.  0.
        -13    1    3    3    0    0 -0.56380762669E+03 -0.75600594871E+03 -0.37136911859E+03  0.10135773615E+04  0.10566000000E+00 0.  1.
         13    1    1    2    0    0  0.51642484725E+03  0.58223879076E+03  0.28832062805E+03  0.82995507592E+03  0.10566000000E+00 0. -1.
          4    1    3    3  501    0  0.47382779440E+02  0.17376715794E+03 -0.47122544132E+03  0.50447355681E+03  0.00000000000E+00 0.  1.
</event>
<event>
 6    1  0.2569591E-005  0.1121125E+04  0.7818608E-02  0.8855549E-01
         21   -1    0    0  501  502  0.00000000000E+00  0.00000000000E+00  0.34854218553E+03  0.34854218553E+03  0.00000000000E+00 0.  1.
          4   -1    0    0  502    0 -0.00000000000E+00 -0.00000000000E+00 -0.25874356614E+04  0.25874356614E+04  0.00000000000E+00 0.  1.
    9000010    2    1    2  501    0  0.31776079582E+03  0.39159403931E+03 -0.71235355960E+03  0.13282956824E+04  0.10013011590E+04 0.  0.
        -13    1    3    3    0    0 -0.63448824998E+02 -0.22925524456E+03  0.80896973604E+02  0.25125296427E+03  0.10566000000E+00 0.  1.
         13    1    1    2    0    0 -0.31776079582E+03 -0.39159403931E+03 -0.15265399163E+04  0.16076821645E+04  0.10566000000E+00 0. -1.
          4    1    3    3  501    0  0.38120962082E+03  0.62084928387E+03 -0.79325053320E+03  0.10770427181E+04  0.00000000000E+00 0.  1.
</event>
<event>
 5    1  0.2569591E-005  0.2747644E+03  0.7818608E-02  0.1023989E+00
         21   -1    0    0  501  502  0.00000000000E+00  0.00000000000E+00  0.15418613483E+03  0.15418613483E+03  0.00000000000E+00 0.  1.
         -4   -1    0    0    0  501 -0.00000000000E+00 -0.00000000000E+00 -0.43135013941E+03  0.43135013941E+03  0.00000000000E+00 0. -1.
        -13    1    1    2    0    0 -0.13115286873E+03 -0.18866088893E+03 -0.66175239005E+02  0.23910913703E+03  0.10566000000E+00 0.  1.
         13    1    1    2    0    0  0.64956350407E+02  0.17197804933E+03 -0.20870150838E+03  0.27812246885E+03  0.10566000000E+00 0. -1.
         -4    1    1    2    0  502  0.66196518328E+02  0.16682839594E+02 -0.22872571904E+01  0.68304668370E+02  0.00000000000E+00 0. -1.
</event>
<event>
 5    1  0.4336116E-005  0.6770908E+02  0.7818608E-02  0.1248549E+00
          4   -1    0    0  502    0 -0.00000000000E+00  0.00000000000E+00  0.11676035208E+03  0.11676035208E+03  0.00000000000E+00 0.  1.
         21   -1    0    0  501  502  0.00000000000E+00 -0.00000000000E+00 -0.44820810686E+02  0.44820810686E+02  0.00000000000E+00 0. -1.
        -13    1    1    2    0    0  0.33577818185E+02 -0.15814772498E+02  0.85266325185E+02  0.92994270134E+02  0.10566000000E+00 0.  1.
         13    1    1    2    0    0 -0.48109762889E+02  0.60390852418E+01 -0.15578771895E+02  0.50928667110E+02  0.10566000000E+00 0. -1.
          4    1    1    2  501    0  0.14531944703E+02  0.97756872560E+01  0.22519881053E+01  0.17658225523E+02  0.00000000000E+00 0.  1.
</event>
<event>
 6    1  0.2569591E-005  0.1220255E+04  0.7818608E-02  0.8714042E-01
         21   -1    0    0  501  502  0.00000000000E+00  0.00000000000E+00  0.43515657267E+03  0.43515657267E+03  0.00000000000E+00 0.  1.
          4   -1    0    0  502    0 -0.00000000000E+00 -0.00000000000E+00 -0.38872474540E+04  0.38872474540E+04  0.00000000000E+00 0.  1.
    9000010    2    1    2  501    0 -0.50224580469E+03 -0.50668422133E+03 -0.55819646072E+03  0.13418663776E+04  0.98997087745E+03 0.  0.
        -13    1    3    3    0    0  0.92396437249E+02 -0.24088670431E+03  0.21146456623E+03  0.33358773939E+03  0.10566000000E+00 0.  1.
         13    1    1    2    0    0  0.50224580469E+03  0.50668422133E+03 -0.28938944206E+04  0.29805376490E+04  0.10566000000E+00 0. -1.
          4    1    3    3  501    0 -0.59464224194E+03 -0.26579751701E+03 -0.76966102695E+03  0.10082786383E+04  0.00000000000E+00 0.  1.
</event>
<event>
 6    1  0.2569591E-005  0.1043242E+04  0.7818608E-02  0.8990858E-01
         21   -1    0    0  501  502  0.00000000000E+00  0.00000000000E+00  0.47545818799E+03  0.47545818799E+03  0.00000000000E+00 0. -1.
         -4   -1    0    0    0  501 -0.00000000000E+00 -0.00000000000E+00 -0.10335674339E+04  0.10335674339E+04  0.00000000000E+00 0. -1.
   -9000010    2    1    2    0  502  0.26564159135E+03 -0.24076554276E+03 -0.42814506018E+03  0.11276803684E+04  0.97970471017E+03 0.  0.
        -13    1    1    2    0    0 -0.26564159135E+03  0.24076554276E+03 -0.12996418577E+03  0.38134525352E+03  0.10566000000E+00 0.  1.
         13    1    3    3    0    0  0.59296722742E+03 -0.35147428072E+03 -0.21664857188E+03  0.72255167127E+03  0.10566000000E+00 0. -1.
         -4    1    3    3    0  502 -0.32732563607E+03  0.11070873795E+03 -0.21149648829E+03  0.40512869714E+03  0.00000000000E+00 0. -1.
</event>
<event>
 6    1  0.2569591E-005  0.1060094E+04  0.7818608E-02  0.8972804E-01
          4   -1    0    0  502    0 -0.00000000000E+00  0.00000000000E+00  0.18706047691E+04  0.18706047691E+04  0.00000000000E+00 0.  1.
         21   -1    0    0  501  502  0.00000000000E+00 -0.00000000000E+00 -0.29191577507E+03  0.29191577507E+03  0.00000000000E+00 0.  1.
    9000010    2    1    2  501    0 -0.36703378775E+03 -0.22063283213E+02  0.89993073522E+03  0.13905662872E+04  0.99428299847E+03 0.  0.
        -13    1    3    3    0    0  0.26918274010E+03 -0.25691033047E+03  0.41160993828E+03  0.55487387569E+03  0.10566000000E+00 0.  1.
         13    1    1    2    0    0  0.36703378775E+03  0.22063283213E+02  0.67875825886E+03  0.77195425703E+03  0.10566000000E+00 0. -1.
          4    1    3    3  501    0 -0.63621652785E+03  0.23484704725E+03  0.48832079694E+03  0.83569241150E+03  0.00000000000E+00 0.  1.
</event>
<event>
 5    1  0.2569591E-005  0.1404881E+03  0.7818608E-02  0.1116162E+00
          4   -1    0    0  502    0 -0.00000000000E+00  0.00000000000E+00  0.13422897888E+03  0.13422897888E+03  0.00000000000E+00 0.  1.
         21   -1    0    0  501  502  0.00000000000E+00 -0.00000000000E+00 -0.13616844084E+03  0.13616844084E+03  0.00000000000E+00 0. -1.
        -13    1    1    2    0    0  0.42054483810E+02 -0.87922172557E+02 -0.74334274566E+01  0.97745358168E+02  0.10566000000E+00 0.  1.
         13    1    1    2    0    0 -0.59278504239E+02  0.10687996421E+03 -0.32835383807E+02  0.12655212921E+03  0.10566000000E+00 0. -1.
          4    1    1    2  501    0  0.17224020429E+02 -0.18957791655E+02  0.38329349297E+02  0.46099932339E+02  0.00000000000E+00 0.  1.
</event>
<event>
 5    1  0.2569591E-005  0.2640887E+03  0.7818608E-02  0.1029057E+00
         21   -1    0    0  501  502  0.00000000000E+00  0.00000000000E+00  0.64280783756E+03  0.64280783756E+03  0.00000000000E+00 0.  1.
         -4   -1    0    0    0  501 -0.00000000000E+00 -0.00000000000E+00 -0.91890197529E+02  0.91890197529E+02  0.00000000000E+00 0. -1.
        -13    1    1    2    0    0  0.10043089768E+03  0.19688897285E+03  0.27414020153E+03  0.35214271836E+03  0.10566000000E+00 0.  1.
         13    1    1    2    0    0 -0.27734324520E+02 -0.16489857189E+03  0.11686556097E+03  0.20400564274E+03  0.10566000000E+00 0. -1.
         -4    1    1    2    0  502 -0.72696573156E+02 -0.31990400964E+02  0.15991187753E+03  0.17854967398E+03  0.00000000000E+00 0. -1.
</event>
<event>
 6    1  0.2569591E-005  0.1079173E+04  0.7818608E-02  0.8936588E-01
         21   -1    0    0  501  502  0.00000000000E+00  0.00000000000E+00  0.17726230376E+03  0.17726230376E+03  0.00000000000E+00 0.  1.
          4   -1    0    0  502    0 -0.00000000000E+00 -0.00000000000E+00 -0.31169113800E+04  0.31169113800E+04  0.00000000000E+00 0.  1.
    9000010    2    1    2  501    0  0.16347985376E+03 -0.36962230008E+03 -0.20381920487E+04  0.23062611922E+04  0.10006335753E+04 0.  0.
        -13    1    3    3    0    0  0.89571080245E+02 -0.40269112879E+03 -0.18638305284E+03  0.45268286600E+03  0.10566000000E+00 0.  1.
         13    1    1    2    0    0 -0.16347985376E+03  0.36962230008E+03 -0.90145702749E+03  0.98791249151E+03  0.10566000000E+00 0. -1.
          4    1    3    3  501    0  0.73908773511E+02  0.33068828706E+02 -0.18518089959E+04  0.18535783262E+04  0.00000000000E+00 0.  1.
</event>
<event>
 5    1  0.2569591E-005  0.7387141E+03  0.7818608E-02  0.9288310E-01
          4   -1    0    0  502    0 -0.00000000000E+00  0.00000000000E+00  0.43493666914E+03  0.43493666914E+03  0.00000000000E+00 0.  1.
         21   -1    0    0  501  502  0.00000000000E+00 -0.00000000000E+00 -0.72134925462E+03  0.72134925462E+03  0.00000000000E+00 0. -1.
        -13    1    1    2    0    0  0.16198852373E+03  0.10357530900E+03 -0.23544683135E+03  0.30397919009E+03  0.10566000000E+00 0.  1.
         13    1    1    2    0    0  0.27867690760E+03  0.14500388979E+03  0.90570005102E+02  0.32694018394E+03  0.10566000000E+00 0. -1.
          4    1    1    2  501    0 -0.44066543133E+03 -0.24857919879E+03 -0.14153575924E+03  0.52536654974E+03  0.00000000000E+00 0.  1.
</event>
<event>
 6    1  0.2569591E-005  0.1022523E+04  0.7818608E-02  0.9128548E-01
          4   -1    0    0  502    0 -0.00000000000E+00  0.00000000000E+00  0.26815062278E+04  0.26815062278E+04  0.00000000000E+00 0.  1.
         21   -1    0    0  501  502  0.00000000000E+00 -0.00000000000E+00 -0.14809225570E+03  0.14809225570E+03  0.00000000000E+00 0.  1.
    9000010    2    1    2  501    0  0.20373242275E+03  0.82252818075E+02  0.18778143882E+04  0.21381628381E+04  0.99863958441E+03 0.  0.
        -13    1    3    3    0    0  0.26815130270E+03  0.61402520843E+02  0.16466672349E+02  0.27558402197E+03  0.10566000000E+00 0.  1.
         13    1    1    2    0    0 -0.20373242275E+03 -0.82252818075E+02  0.65559958393E+03  0.69143564543E+03  0.10566000000E+00 0. -1.
          4    1    3    3  501    0 -0.64418879949E+02  0.20850297232E+02  0.18613477159E+04  0.18625788161E+04  0.00000000000E+00 0.  1.
</event>
<event>
 6    1  0.2569591E-005  0.9859933E+03  0.7818608E-02  0.9249764E-01
         -4   -1    0    0    0  501 -0.00000000000E+00  0.00000000000E+00  0.56209675781E+03  0.56209675781E+03  0.00000000000E+00 0. -1.
         21   -1    0    0  501  502  0.00000000000E+00 -0.00000000000E+00 -0.89054699891E+03  0.89054699891E+03  0.00000000000E+00 0.  1.
   -9000010    2    1    2    0  502  0.10804251804E+03 -0.10839466380E+03  0.10633350587E+03  0.99171045718E+03  0.97404323701E+03 0.  0.
        -13    1    1    2    0    0 -0.10804251804E+03  0.10839466380E+03 -0.43478374696E+03  0.46093329954E+03  0.10566000000E+00 0.  1.
         13    1    3    3    0    0 -0.32509042292E+03  0.23873968010E+03  0.16029193551E+03  0.43402066043E+03  0.10566000000E+00 0. -1.
         -4    1    3    3    0  502  0.43313294097E+03 -0.34713434390E+03 -0.53958429642E+02  0.55768979675E+03  0.00000000000E+00 0. -1.
</event>
<event>
 6    1  0.2569591E-005  0.1092494E+04  0.7818608E-02  0.8871734E-01
         21   -1    0    0  501  502  0.00000000000E+00  0.00000000000E+00  0.45606747294E+03  0.45606747294E+03  0.00000000000E+00 0.  1.
          4   -1    0    0  502    0 -0.00000000000E+00 -0.00000000000E+00 -0.22776402297E+04  0.22776402297E+04  0.00000000000E+00 0.  1.
    9000010    2    1    2  501    0 -0.37452071701E+03 -0.34528007918E+03 -0.30558808667E+03  0.11344286051E+04  0.96646783750E+03 0.  0.
        -13    1    3    3    0    0 -0.14787890244E+03  0.26964003727E+03  0.14410960139E+03  0.33961965176E+03  0.10566000000E+00 0.  1.
         13    1    1    2    0    0  0.37452071701E+03  0.34528007918E+03 -0.15159846700E+04  0.15992790974E+04  0.10566000000E+00 0. -1.
          4    1    3    3  501    0 -0.22664181457E+03 -0.61492011645E+03 -0.44969768807E+03  0.79480895338E+03  0.00000000000E+00 0.  1.
</event>
<event>
 6    1  0.2569591E-005  0.1033212E+04  0.7818608E-02  0.9072767E-01
         -4   -1    0    0    0  501 -0.00000000000E+00  0.00000000000E+00  0.23182566577E+04  0.23182566577E+04  0.00000000000E+00 0. -1.
         21   -1    0    0  501  502  0.00000000000E+00 -0.00000000000E+00 -0.20916335810E+03  0.20916335810E+03  0.00000000000E+00 0. -1.
   -9000010    2    1    2    0  502 -0.25741627711E+03  0.65317795402E+02  0.12159968093E+04  0.15956738560E+04  0.99849750146E+03 0.  0.
        -13    1    1    2    0    0  0.25741627711E+03 -0.65317795402E+02  0.89309649025E+03  0.93174615973E+03  0.10566000000E+00 0.  1.
         13    1    3    3    0    0 -0.24215713045E+03 -0.11665040297E+03 -0.85012208938E+02  0.28191218345E+03  0.10566000000E+00 0. -1.
         -4    1    3    3    0  502 -0.15259146656E+02  0.18196819837E+03  0.13010090182E+04  0.13137616726E+04  0.00000000000E+00 0. -1.
</event>
<event>
 6    1  0.2569591E-005  0.1167020E+04  0.7818608E-02  0.8778065E-01
          4   -1    0    0  502    0 -0.00000000000E+00  0.00000000000E+00  0.13992517525E+04  0.13992517525E+04  0.00000000000E+00 0.  1.
         21   -1    0    0  501  502  0.00000000000E+00 -0.00000000000E+00 -0.57296992464E+03  0.57296992464E+03  0.00000000000E+00 0. -1.
    9000010    2    1    2  501    0  0.33573230738E+03 -0.52115532145E+03  0.47769396963E+03  0.12610026129E+04  0.98874516926E+03 0.  0.
        -13    1    3    3    0    0 -0.32765839571E+03 -0.20430733407E+03  0.33694401787E+03  0.51247711498E+03  0.10566000000E+00 0.  1.
         13    1    1    2    0    0 -0.33573230738E+03  0.52115532145E+03  0.34858785821E+03  0.71121906425E+03  0.10566000000E+00 0. -1.
          4    1    3    3  501    0  0.66339070309E+03 -0.31684798739E+03  0.14074995176E+03  0.74852549788E+03  0.00000000000E+00 0.  1.
</event>
<event>
 6    1  0.2569591E-005  0.1014747E+04  0.7818608E-02  0.9205544E-01
         -4   -1    0    0    0  501 -0.00000000000E+00  0.00000000000E+00  0.17187587239E+04  0.17187587239E+04  0.00000000000E+00 0. -1.
         21   -1    0    0  501  502  0.00000000000E+00 -0.00000000000E+00 -0.26739487207E+03  0.26739487207E+03  0.00000000000E+00 0. -1.
   -9000010    2    1    2    0  502  0.13787509705E+03 -0.93276030650E+02  0.74087955705E+03  0.12564290558E+04  0.10010002467E+04 0.  0.
        -13    1    1    2    0    0 -0.13787509705E+03  0.93276030650E+02  0.71048429480E+03  0.72972454022E+03  0.10566000000E+00 0.  1.
         13    1    3    3    0    0  0.49294350983E+03 -0.14109052078E+02  0.76599087780E+02  0.49905891501E+03  0.10566000000E+00 0. -1.
         -4    1    3    3    0  502 -0.35506841278E+03 -0.79166978572E+02  0.66428046927E+03  0.75737014075E+03  0.00000000000E+00 0. -1.
</event>
<event>
 6    1  0.2569591E-005  0.1084065E+04  0.7818608E-02  0.8921565E-01
         21   -1    0    0  501  502  0.00000000000E+00  0.00000000000E+00  0.18221767790E+03  0.18221767790E+03  0.00000000000E+00 0. -1.
          4   -1    0    0  502    0 -0.00000000000E+00 -0.00000000000E+00 -0.31565992783E+04  0.31565992783E+04  0.00000000000E+00 0.  1.
    9000010    2    1    2  501    0  0.30627785947E+03  0.29338383058E+03 -0.22907176866E+04  0.25342819617E+04  0.99765592378E+03 0.  0.
        -13    1    3    3    0    0  0.54643772114E+03  0.46423542626E+03 -0.11426330214E+04  0.13489695871E+04  0.10566000000E+00 0.  1.
         13    1    1    2    0    0 -0.30627785947E+03 -0.29338383058E+03 -0.68366391375E+03  0.80453499450E+03  0.10566000000E+00 0. -1.
          4    1    3    3  501    0 -0.24015986167E+03 -0.17085159568E+03 -0.11480846652E+04  0.11853123746E+04  0.00000000000E+00 0.  1.
</event>
<event>
 6    1  0.2569591E-005  0.1216731E+04  0.7818608E-02  0.8718160E-01
         21   -1    0    0  501  502  0.00000000000E+00  0.00000000000E+00  0.11407958665E+04  0.11407958665E+04  0.00000000000E+00 0. -1.
          4   -1    0    0  502    0 -0.00000000000E+00 -0.00000000000E+00 -0.81861265123E+03  0.81861265123E+03  0.00000000000E+00 0.  1.
    9000010    2    1    2  501    0  0.60355254583E+03 -0.36815713555E+03  0.11212903135E+03  0.12218869090E+04  0.99026226156E+03 0.  0.
        -13    1    3    3    0    0 -0.61207012304E+01  0.30580099146E+03 -0.25883318761E+01  0.30587320901E+03  0.10566000000E+00 0.  1.
         13    1    1    2    0    0 -0.60355254583E+03  0.36815713555E+03  0.21005418394E+03  0.73752160876E+03  0.10566000000E+00 0. -1.
          4    1    3    3  501    0  0.60967324706E+03 -0.67395812701E+03  0.11471736323E+03  0.91601369999E+03  0.00000000000E+00 0.  1.
</event>
<event>
 6    1  0.2569591E-005  0.1397530E+04  0.7818608E-02  0.8566861E-01
         -4   -1    0    0    0  501 -0.00000000000E+00  0.00000000000E+00  0.16303008980E+04  0.16303008980E+04  0.00000000000E+00 0. -1.
         21   -1    0    0  501  502  0.00000000000E+00 -0.00000000000E+00 -0.83351694625E+03  0.83351694625E+03  0.00000000000E+00 0.  1.
   -9000010    2    1    2    0  502 -0.17511742542E+03  0.88932536829E+03  0.29693866627E+03  0.14287279718E+04  0.10637317907E+04 0.  0.
        -13    1    1    2    0    0  0.17511742542E+03 -0.88932536829E+03  0.49984528546E+03  0.10350898724E+04  0.10566000000E+00 0.  1.
         13    1    3    3    0    0  0.11371802703E+03  0.10173277595E+04  0.45014019927E+02  0.10246530306E+04  0.10566000000E+00 0. -1.
         -4    1    3    3    0  502 -0.28883545245E+03 -0.12800239118E+03  0.25192464634E+03  0.40407494128E+03  0.00000000000E+00 0. -1.
</event>
<event>
 6    1  0.2569591E-005  0.1029101E+04  0.7818608E-02  0.9035171E-01
         21   -1    0    0  501  502  0.00000000000E+00  0.00000000000E+00  0.28557685104E+04  0.28557685104E+04  0.00000000000E+00 0. -1.
          4   -1    0    0  502    0 -0.00000000000E+00 -0.00000000000E+00 -0.23438445680E+03  0.23438445680E+03  0.00000000000E+00 0.  1.
    9000010    2    1    2  501    0  0.14441899106E+03  0.27696549146E+03  0.98603896195E+03  0.14252444687E+04  0.98055200404E+03 0.  0.
        -13    1    3    3    0    0  0.27852151760E+03  0.60600314228E+03  0.56313787629E+03  0.87289078532E+03  0.10566000000E+00 0.  1.
         13    1    1    2    0    0 -0.14441899106E+03 -0.27696549146E+03  0.16353450916E+04  0.16649084985E+04  0.10566000000E+00 0. -1.
          4    1    3    3  501    0 -0.13410252654E+03 -0.32903765082E+03  0.42290108567E+03  0.55235368338E+03  0.00000000000E+00 0.  1.
</event>
<event>
 5    1  0.2569591E-005  0.2232047E+03  0.7818608E-02  0.1060073E+00
         -4   -1    0    0    0  501 -0.00000000000E+00  0.00000000000E+00  0.21922759947E+04  0.21922759947E+04  0.00000000000E+00 0. -1.
         21   -1    0    0  501  502  0.00000000000E+00 -0.00000000000E+00 -0.35793504408E+02  0.35793504408E+02  0.00000000000E+00 0.  1.
        -13    1    1    2    0    0 -0.11783680041E+03 -0.83024751443E+02  0.14576978884E+03  0.20500600817E+03  0.10566000000E+00 0.  1.
         13    1    1    2    0    0  0.38962173036E+02 -0.42603329384E+02  0.27337489900E+03  0.27940461909E+03  0.10566000000E+00 0. -1.
         -4    1    1    2    0  502  0.78874627376E+02  0.12562808083E+03  0.17373378025E+04  0.17436588719E+04  0.00000000000E+00 0. -1.
</event>
<event>
 6    1  0.2569591E-005  0.1022649E+04  0.7818608E-02  0.9157773E-01
         21   -1    0    0  501  502  0.00000000000E+00  0.00000000000E+00  0.26142683506E+03  0.26142683506E+03  0.00000000000E+00 0.  1.
          4   -1    0    0  502    0 -0.00000000000E+00 -0.00000000000E+00 -0.20085309915E+04  0.20085309915E+04  0.00000000000E+00 0.  1.
    9000010    2    1    2  501    0 -0.16645590209E+03 -0.10318479278E+03 -0.78790702312E+03  0.12909717079E+04  0.10037209795E+04 0.  0.
        -13    1    3    3    0    0 -0.57056983365E+03  0.43360808619E+02 -0.32013197991E+03  0.65567872508E+03  0.10566000000E+00 0.  1.
         13    1    1    2    0    0  0.16645590209E+03  0.10318479278E+03 -0.95919713334E+03  0.97898611868E+03  0.10566000000E+00 0. -1.
          4    1    3    3  501    0  0.40411393156E+03 -0.14654560139E+03 -0.46777504321E+03  0.63529298282E+03  0.00000000000E+00 0.  1.
</event>
<event>
 6    1  0.2569591E-005  0.1224832E+04  0.7818608E-02  0.8749723E-01
         21   -1    0    0  501  502  0.00000000000E+00  0.00000000000E+00  0.31341635419E+03  0.31341635419E+03  0.00000000000E+00 0. -1.
         -4   -1    0    0    0  501 -0.00000000000E+00 -0.00000000000E+00 -0.26712924891E+04  0.26712924891E+04  0.00000000000E+00 0. -1.
   -9000010    2    1    2    0  502  0.31748362030E+03  0.51520375558E+03 -0.15774914675E+04  0.19971709963E+04  0.10648858622E+04 0.  0.
        -13    1    1    2    0    0 -0.31748362030E+03 -0.51520375558E+03 -0.78038466741E+03  0.98753784698E+03  0.10566000000E+00 0.  1.
         13    1    3    3    0    0 -0.49198582519E+02 -0.21211815906E+03  0.45083972736E+01  0.21779566280E+03  0.10566000000E+00 0. -1.
         -4    1    3    3    0  502  0.36668220282E+03  0.72732191464E+03 -0.15819998647E+04  0.17793753335E+04  0.00000000000E+00 0. -1.
</event>
<event>
 6    1  0.2569591E-005  0.1216145E+04  0.7818608E-02  0.8727995E-01
         21   -1    0    0  501  502  0.00000000000E+00  0.00000000000E+00  0.26105850627E+03  0.26105850627E+03  0.00000000000E+00 0. -1.
          4   -1    0    0  502    0 -0.00000000000E+00 -0.00000000000E+00 -0.34644418336E+04  0.34644418336E+04  0.00000000000E+00 0.  1.
    9000010    2    1    2  501    0  0.54765243180E+03 -0.40078547395E+03 -0.18968730948E+04  0.22532499600E+04  0.10091856431E+04 0.  0.
        -13    1    3    3    0    0  0.72533722433E+02 -0.55998491946E+02  0.12096439725E+03  0.15175430325E+03  0.10566000000E+00 0.  1.
         13    1    1    2    0    0 -0.54765243180E+03  0.40078547395E+03 -0.13065102325E+04  0.14722503799E+04  0.10566000000E+00 0. -1.
          4    1    3    3  501    0  0.47511870937E+03 -0.34478698201E+03 -0.20178374920E+04  0.21014956567E+04  0.00000000000E+00 0.  1.
</event>
<event>
 5    1  0.2569591E-005  0.9530827E+02  0.7818608E-02  0.1209631E+00
         -4   -1    0    0    0  501 -0.00000000000E+00  0.00000000000E+00  0.33411381215E+03  0.33411381215E+03  0.00000000000E+00 0. -1.
         21   -1    0    0  501  502  0.00000000000E+00 -0.00000000000E+00 -0.14133423665E+02  0.14133423665E+02  0.00000000000E+00 0. -1.
        -13    1    1    2    0    0  0.11680336907E+02 -0.38738802851E+02  0.72130581389E+02  0.82704032865E+02  0.10566000000E+00 0.  1.
         13    1    1    2    0    0  0.32580744710E+02  0.39274149496E+02  0.13505263892E+03  0.14437170841E+03  0.10566000000E+00 0. -1.
         -4    1    1    2    0  502 -0.44261081617E+02 -0.53534664461E+00  0.11279716818E+03  0.12117149455E+03  0.00000000000E+00 0. -1.
</event>
<event>
 6    1  0.2569591E-005  0.1605439E+04  0.7818608E-02  0.8403605E-01
          4   -1    0    0  502    0 -0.00000000000E+00  0.00000000000E+00  0.12199036963E+04  0.12199036963E+04  0.00000000000E+00 0.  1.
         21   -1    0    0  501  502  0.00000000000E+00 -0.00000000000E+00 -0.16925983556E+04  0.16925983556E+04  0.00000000000E+00 0. -1.
    9000010    2    1    2  501    0 -0.81597404303E+03 -0.95660590664E+03 -0.39182378065E+03  0.16525621289E+04  0.99826209741E+03 0.  0.
        -13    1    3    3    0    0  0.22379684412E+03 -0.28580739669E+03 -0.14454048787E+03  0.39072094804E+03  0.10566000000E+00 0.  1.
         13    1    1    2    0    0  0.81597404303E+03  0.95660590664E+03 -0.80870878676E+02  0.12599399231E+04  0.10566000000E+00 0. -1.
          4    1    3    3  501    0 -0.10397708871E+04 -0.67079850995E+03 -0.24728329277E+03  0.12618411808E+04  0.00000000000E+00 0.  1.
</event>
<event>
 5    1  0.2569591E-005  0.8402395E+02  0.7818608E-02  0.1195308E+00
         -4   -1    0    0    0  501 -0.00000000000E+00  0.00000000000E+00  0.17797910524E+03  0.17797910524E+03  0.00000000000E+00 0. -1.
         21   -1    0    0  501  502  0.00000000000E+00 -0.00000000000E+00 -0.40725919199E+02  0.40725919199E+02  0.00000000000E+00 0.  1.
        -13    1    1    2    0    0 -0.27338873128E+02 -0.76999485551E+02  0.42632766148E+02  0.92162349539E+02  0.10566000000E+00 0.  1.
         13    1    1    2    0    0  0.16894335146E+02  0.67881470342E+02  0.75507420275E+02  0.10293053122E+03  0.10566000000E+00 0. -1.
         -4    1    1    2    0  502  0.10444537983E+02  0.91180152094E+01  0.19112999623E+02  0.23612143690E+02  0.00000000000E+00 0. -1.
</event>
<event>
 6    1  0.2569591E-005  0.1793176E+04  0.7818608E-02  0.8296538E-01
          4   -1    0    0  502    0 -0.00000000000E+00  0.00000000000E+00  0.26848830010E+04  0.26848830010E+04  0.00000000000E+00 0.  1.
         21   -1    0    0  501  502  0.00000000000E+00 -0.00000000000E+00 -0.10145852984E+04  0.10145852984E+04  0.00000000000E+00 0.  1.
    9000010    2    1    2  501    0  0.41198490509E+03  0.14348187306E+04  0.10860002604E+04  0.20963962910E+04  0.99350112826E+03 0.  0.
        -13    1    3    3    0    0 -0.33121202564E+03  0.43985185583E+03  0.36023230198E+03  0.65798053433E+03  0.10566000000E+00 0.  1.
         13    1    1    2    0    0 -0.41198490509E+03 -0.14348187306E+04  0.58429744218E+03  0.16030720083E+04  0.10566000000E+00 0. -1.
          4    1    3    3  501    0  0.74319693072E+03  0.99496687477E+03  0.72576795840E+03  0.14384157567E+04  0.00000000000E+00 0.  1.
</event>
<event>
 5    1  0.2569591E-005  0.4392147E+03  0.7818608E-02  0.9900252E-01
         21   -1    0    0  501  502  0.00000000000E+00  0.00000000000E+00  0.23756054219E+03  0.23756054219E+03  0.00000000000E+00 0.  1.
         -4   -1    0    0    0  501 -0.00000000000E+00 -0.00000000000E+00 -0.42671370849E+03  0.42671370849E+03  0.00000000000E+00 0. -1.
        -13    1    1    2    0    0  0.16210131771E+03 -0.46721445775E+02  0.33273228440E+02  0.17195013694E+03  0.10566000000E+00 0.  1.
         13    1    1    2    0    0 -0.29384576234E+03  0.58815318902E+02 -0.19405410617E+03  0.35701762011E+03  0.10566000000E+00 0. -1.
         -4    1    1    2    0  502  0.13174444463E+03 -0.12093873128E+02 -0.28372288564E+02  0.13530649362E+03  0.00000000000E+00 0. -1.
</event>
<event>
 6    1  0.2569591E-005  0.1267658E+04  0.7818608E-02  0.8663879E-01
          4   -1    0    0  502    0 -0.00000000000E+00  0.00000000000E+00  0.17972170813E+04  0.17972170813E+04  0.00000000000E+00 0.  1.
         21   -1    0    0  501  502  0.00000000000E+00 -0.00000000000E+00 -0.16354920660E+04  0.16354920660E+04  0.00000000000E+00 0.  1.
    9000010    2    1    2  501    0  0.64368589688E+03 -0.46002303714E+03 -0.12715975809E+04  0.17955266883E+04  0.99045593146E+03 0.  0.
        -13    1    3    3    0    0 -0.20612249134E+03 -0.21367055154E+03 -0.73002778431E+02  0.30573027795E+03  0.10566000000E+00 0.  1.
         13    1    1    2    0    0 -0.64368589688E+03  0.46002303714E+03  0.14333225961E+04  0.16371824591E+04  0.10566000000E+00 0. -1.
          4    1    3    3  501    0  0.84980838822E+03 -0.24635248560E+03 -0.11985948024E+04  0.14897964103E+04  0.00000000000E+00 0.  1.
</event>
<event>
 6    1  0.2569591E-005  0.1238938E+04  0.7818608E-02  0.8690953E-01
         21   -1    0    0  501  502  0.00000000000E+00  0.00000000000E+00  0.70272991107E+03  0.70272991107E+03  0.00000000000E+00 0.  1.
         -4   -1    0    0    0  501 -0.00000000000E+00 -0.00000000000E+00 -0.14408041024E+04  0.14408041024E+04  0.00000000000E+00 0. -1.
   -9000010    2    1    2    0  502 -0.70643385361E+03 -0.26143653003E+03 -0.30998676100E+03  0.12771295422E+04  0.98365147625E+03 0.  0.
        -13    1    1    2    0    0  0.70643385361E+03  0.26143653003E+03 -0.42808743038E+03  0.86640447135E+03  0.10566000000E+00 0.  1.
         13    1    3    3    0    0 -0.80605112989E+03 -0.16306952411E+03  0.11435182667E+03  0.83029298752E+03  0.10566000000E+00 0. -1.
         -4    1    3    3    0  502  0.99617276288E+02 -0.98367005920E+02 -0.42433858767E+03  0.44683655465E+03  0.00000000000E+00 0. -1.
</event>
<event>
 6    1  0.2569591E-005  0.1041849E+04  0.7818608E-02  0.8967386E-01
         21   -1    0    0  501  502  0.00000000000E+00  0.00000000000E+00  0.21973743741E+03  0.21973743741E+03  0.00000000000E+00 0. -1.
          4   -1    0    0  502    0 -0.00000000000E+00 -0.00000000000E+00 -0.28412191960E+04  0.28412191960E+04  0.00000000000E+00 0.  1.
    9000010    2    1    2  501    0 -0.17721954870E+02  0.39560237809E+03 -0.23776866168E+04  0.25959282563E+04  0.96365686571E+03 0.  0.
        -13    1    3    3    0    0 -0.33180043787E+03 -0.11462348548E+03 -0.14476814610E+04  0.14896347531E+04  0.10566000000E+00 0.  1.
         13    1    1    2    0    0  0.17721954870E+02 -0.39560237809E+03 -0.24379514183E+03  0.46502837717E+03  0.10566000000E+00 0. -1.
          4    1    3    3  501    0  0.31407848300E+03  0.51022586356E+03 -0.93000515573E+03  0.11062935031E+04  0.00000000000E+00 0.  1.
</event>
<event>
 6    1  0.2569591E-005  0.1157642E+04  0.7818608E-02  0.8793276E-01
         21   -1    0    0  501  502  0.00000000000E+00  0.00000000000E+00  0.12321411164E+04  0.12321411164E+04  0.00000000000E+00 0. -1.
         -4   -1    0    0    0  501 -0.00000000000E+00 -0.00000000000E+00 -0.12319830744E+04  0.12319830744E+04  0.00000000000E+00 0. -1.
   -9000010    2    1    2    0  502  0.34802560419E+03  0.48308160555E+03  0.84310067573E+03  0.14321154923E+04  0.99279724769E+03 0.  0.
        -13    1    1    2    0    0 -0.34802560419E+03 -0.48308160555E+03 -0.84294263380E+03  0.10320086985E+04  0.10566000000E+00 0.  1.
         13    1    3    3    0    0  0.38568033205E+03  0.50407316562E+03  0.10466467544E+04  0.12240541305E+04  0.10566000000E+00 0. -1.
         -4    1    3    3    0  502 -0.37654727860E+02 -0.20991560068E+02 -0.20354607865E+03  0.20806136176E+03  0.00000000000E+00 0. -1.
</event>
<event>
 6    1  0.2569591E-005  0.1094766E+04  0.7818608E-02  0.8921232E-01
         21   -1    0    0  501  502  0.00000000000E+00  0.00000000000E+00  0.31514393677E+03  0.31514393677E+03  0.00000000000E+00 0.  1.
          4   -1    0    0  502    0 -0.00000000000E+00 -0.00000000000E+00 -0.18042327399E+04  0.18042327399E+04  0.00000000000E+00 0.  1.
    9000010    2    1    2  501    0  0.16514893829E+03 -0.37785937433E+03 -0.11149802131E+04  0.15625920443E+04  0.10141307325E+04 0.  0.
        -13    1    3    3    0    0 -0.21920008511E+03  0.22682236824E+03 -0.12222206302E+03  0.33828288147E+03  0.10566000000E+00 0.  1.
         13    1    1    2    0    0 -0.16514893829E+03  0.37785937433E+03 -0.37410859006E+03  0.55678463243E+03  0.10566000000E+00 0. -1.
          4    1    3    3  501    0  0.38434902340E+03 -0.60468174257E+03 -0.99275815009E+03  0.12243091628E+04  0.00000000000E+00 0.  1.
</event>
<event>
 5    1  0.2569591E-005  0.5032144E+03  0.7818608E-02  0.9512037E-01
          4   -1    0    0  502    0 -0.00000000000E+00  0.00000000000E+00  0.16022637171E+04  0.16022637171E+04  0.00000000000E+00 0.  1.
         21   -1    0    0  501  502  0.00000000000E+00 -0.00000000000E+00 -0.13717681854E+03  0.13717681854E+03  0.00000000000E+00 0. -1.
        -13    1    1    2    0    0  0.26236612610E+03 -0.14617481257E+03  0.29250429795E+03  0.41923959192E+03  0.10566000000E+00 0.  1.
         13    1    1    2    0    0 -0.31615956595E+03  0.29633371741E+03  0.72006615853E+03  0.84039623216E+03  0.10566000000E+00 0. -1.
          4    1    1    2  501    0  0.53793439854E+02 -0.15015890484E+03  0.45251644214E+03  0.47980471160E+03  0.00000000000E+00 0.  1.
</event>
<event>
 6    1  0.2569591E-005  0.1097860E+04  0.7818608E-02  0.8875328E-01
         -4   -1    0    0    0  501 -0.00000000000E+00  0.00000000000E+00  0.23402257479E+04  0.23402257479E+04  0.00000000000E+00 0. -1.
         21   -1    0    0  501  502  0.00000000000E+00 -0.00000000000E+00 -0.28654622609E+03  0.28654622609E+03  0.00000000000E+00 0. -1.
   -9000010    2    1    2    0  502  0.49109619603E+03  0.57979905284E+02  0.11090877580E+04  0.15605680748E+04  0.98018361446E+03 0.  0.
        -13    1    1    2    0    0 -0.49109619603E+03 -0.57979905284E+02  0.94459176381E+03  0.10662038992E+04  0.10566000000E+00 0.  1.
         13    1    3    3    0    0 -0.29357242159E+03 -0.65327958308E+02  0.25606052040E+03  0.39499305073E+03  0.10566000000E+00 0. -1.
         -4    1    3    3    0  502  0.78466861762E+03  0.12330786359E+03  0.85302723762E+03  0.11655750241E+04  0.00000000000E+00 0. -1.
</event>
<event>
 5    1  0.2569591E-005  0.2406560E+03  0.7818608E-02  0.1045214E+00
          4   -1    0    0  502    0 -0.00000000000E+00  0.00000000000E+00  0.81628153134E+02  0.81628153134E+02  0.00000000000E+00 0.  1.
         21   -1    0    0  501  502  0.00000000000E+00 -0.00000000000E+00 -0.60864145339E+03  0.60864145339E+03  0.00000000000E+00 0. -1.
        -13    1    1    2    0    0  0.19452071457E+03 -0.96692408669E+00 -0.19591889199E+03  0.27608597708E+03  0.10566000000E+00 0.  1.
         13    1    1    2    0    0 -0.17809375685E+03 -0.12365685374E+02 -0.34528709086E+03  0.38870745128E+03  0.10566000000E+00 0. -1.
          4    1    1    2  501    0 -0.16426957720E+02  0.13332609461E+02  0.14192682588E+02  0.25476178167E+02  0.00000000000E+00 0.  1.
</event>
<event>
 6    1  0.2569591E-005  0.8194339E+03  0.7818608E-02  0.9185387E-01
         -4   -1    0    0    0  501 -0.00000000000E+00  0.00000000000E+00  0.22360356277E+04  0.22360356277E+04  0.00000000000E+00 0. -1.
         21   -1    0    0  501  502  0.00000000000E+00 -0.00000000000E+00 -0.17401241901E+03  0.17401241901E+03  0.00000000000E+00 0. -1.
   -9000010    2    1    2    0  502  0.30881805044E+03  0.14653499877E+03  0.99157534596E+03  0.12863489179E+04  0.74473537426E+03 0.  0.
        -13    1    1    2    0    0 -0.30881805044E+03 -0.14653499877E+03  0.10704478627E+04  0.11236991288E+04  0.10566000000E+00 0.  1.
         13    1    3    3    0    0  0.26683978272E+03  0.27390856122E+03  0.11463453463E+03  0.39921229596E+03  0.10566000000E+00 0. -1.
         -4    1    3    3    0  502  0.41978267715E+02 -0.12737356246E+03  0.87694081132E+03  0.88713662191E+03  0.00000000000E+00 0. -1.
</event>
<event>
 6    1  0.2569591E-005  0.1075296E+04  0.7818608E-02  0.8908114E-01
         -4   -1    0    0    0  501 -0.00000000000E+00  0.00000000000E+00  0.31742499597E+04  0.31742499597E+04  0.00000000000E+00 0. -1.
         21   -1    0    0  501  502  0.00000000000E+00 -0.00000000000E+00 -0.20407385435E+03  0.20407385435E+03  0.00000000000E+00 0. -1.
   -9000010    2    1    2    0  502 -0.45191594712E+02 -0.45715637562E+03  0.15559684837E+04  0.18913747765E+04  0.97222754066E+03 0.  0.
        -13    1    1    2    0    0  0.45191594712E+02  0.45715637562E+03  0.14142076217E+04  0.14869490376E+04  0.10566000000E+00 0.  1.
         13    1    3    3    0    0 -0.24775120280E+03  0.22257007756E+03  0.29638856142E+03  0.44582988731E+03  0.10566000000E+00 0. -1.
         -4    1    3    3    0  502  0.20255960809E+03 -0.67972645319E+03  0.12595799223E+04  0.14455448892E+04  0.00000000000E+00 0. -1.
</event>
<event>
 5    1  0.2569591E-005  0.1513205E+03  0.7818608E-02  0.1117837E+00
          4   -1    0    0  502    0 -0.00000000000E+00  0.00000000000E+00  0.50582741560E+02  0.50582741560E+02  0.00000000000E+00 0.  1.
         21   -1    0    0  501  502  0.00000000000E+00 -0.00000000000E+00 -0.44582209376E+03  0.44582209376E+03  0.00000000000E+00 0. -1.
        -13    1    1    2    0    0  0.86890767138E+02 -0.18185227785E+02 -0.60307643686E+02  0.10732069220E+03  0.10566000000E+00 0.  1.
         13    1    1    2    0    0 -0.82895928157E+02 -0.43452046393E+02 -0.30763027190E+03  0.32155281152E+03  0.10566000000E+00 0. -1.
          4    1    1    2  501    0 -0.39948389815E+01  0.61637274178E+02 -0.27301436610E+02  0.67531331599E+02  0.00000000000E+00 0.  1.
</event>
<event>
 6    1  0.2569591E-005  0.1109059E+04  0.7818608E-02  0.8867771E-01
         21   -1    0    0  501  502  0.00000000000E+00  0.00000000000E+00  0.81059391364E+03  0.81059391364E+03  0.00000000000E+00 0.  1.
         -4   -1    0    0    0  501 -0.00000000000E+00 -0.00000000000E+00 -0.91624840866E+03  0.91624840866E+03  0.00000000000E+00 0. -1.
   -9000010    2    1    2    0  502  0.46839046556E+03  0.16017292651E+03 -0.36554299102E+03  0.11677474859E+04  0.99245529765E+03 0.  0.
        -13    1    1    2    0    0 -0.46839046556E+03 -0.16017292651E+03  0.25988849600E+03  0.55909483644E+03  0.10566000000E+00 0.  1.
         13    1    3    3    0    0 -0.17064973790E+03 -0.17712804964E+03  0.14265966566E+03  0.28433689593E+03  0.10566000000E+00 0. -1.
         -4    1    3    3    0  502  0.63904020346E+03  0.33730097615E+03 -0.50820265667E+03  0.88341058993E+03  0.00000000000E+00 0. -1.
</event>
<event>
 5    1  0.2569591E-005  0.1475376E+03  0.7818608E-02  0.1107005E+00
         -4   -1    0    0    0  501 -0.00000000000E+00  0.00000000000E+00  0.24219854576E+03  0.24219854576E+03  0.00000000000E+00 0. -1.
         21   -1    0    0  501  502  0.00000000000E+00 -0.00000000000E+00 -0.16823724195E+03  0.16823724195E+03  0.00000000000E+00 0.  1.
        -13    1    1    2    0    0 -0.13044220463E+03  0.32920576744E+02 -0.11059487555E+03  0.17415559360E+03  0.10566000000E+00 0.  1.
         13    1    1    2    0    0  0.12059578192E+03 -0.47633114119E+02  0.15850661352E+03  0.20478431061E+03  0.10566000000E+00 0. -1.
         -4    1    1    2    0  502  0.98464227082E+01  0.14712537376E+02  0.26049565841E+02  0.31495883488E+02  0.00000000000E+00 0. -1.
</event>
<event>
 5    1  0.2569591E-005  0.7442262E+03  0.7818608E-02  0.9083872E-01
         21   -1    0    0  501  502  0.00000000000E+00  0.00000000000E+00  0.17963960170E+04  0.17963960170E+04  0.00000000000E+00 0.  1.
         -4   -1    0    0    0  501 -0.00000000000E+00 -0.00000000000E+00 -0.29450531436E+03  0.29450531436E+03  0.00000000000E+00 0. -1.
        -13    1    1    2    0    0  0.57176966561E+03  0.36793264946E+03  0.50547579800E+03  0.84723124268E+03  0.10566000000E+00 0.  1.
         13    1    1    2    0    0 -0.60504202505E+03 -0.32199349615E+03  0.89277703563E+03  0.11255249931E+04  0.10566000000E+00 0. -1.
         -4    1    1    2    0  502  0.33272359445E+02 -0.45939153311E+02  0.10363786897E+03  0.11814509552E+03  0.00000000000E+00 0. -1.
</event>
<event>
 6    1  0.2569591E-005  0.1022650E+04  0.7818608E-02  0.9066888E-01
         -4   -1    0    0    0  501 -0.00000000000E+00  0.00000000000E+00  0.20636295315E+03  0.20636295315E+03  0.00000000000E+00 0. -1.
         21   -1    0    0  501  502  0.00000000000E+00 -0.00000000000E+00 -0.21491781153E+04  0.21491781153E+04  0.00000000000E+00 0. -1.
   -9000010    2    1    2    0  502 -0.52901016596E+02 -0.27534374350E+03 -0.17036338241E+04  0.19870028502E+04  0.98346297621E+03 0.  0.
        -13    1    1    2    0    0  0.52901016596E+02  0.27534374350E+03 -0.23918133806E+03  0.36853821821E+03  0.10566000000E+00 0.  1.
         13    1    3    3    0    0  0.12767252156E+02  0.35850444495E+03 -0.84280610919E+03  0.91597521180E+03  0.10566000000E+00 0. -1.
         -4    1    3    3    0  502 -0.65668268753E+02 -0.63384818846E+03 -0.86082771487E+03  0.10710276384E+04  0.00000000000E+00 0. -1.
</event>
<event>
 5    1  0.2569591E-005  0.1747627E+03  0.7818608E-02  0.1119110E+00
         21   -1    0    0  501  502  0.00000000000E+00  0.00000000000E+00  0.12172501961E+03  0.12172501961E+03  0.00000000000E+00 0. -1.
         -4   -1    0    0    0  501 -0.00000000000E+00 -0.00000000000E+00 -0.11509468973E+03  0.11509468973E+03  0.00000000000E+00 0. -1.
        -13    1    1    2    0    0  0.55261133818E+02  0.19984298724E+02  0.18628185606E+02  0.61645645177E+02  0.10566000000E+00 0.  1.
         13    1    1    2    0    0  0.22230143693E+02 -0.64242969385E+02 -0.43305131087E+02  0.80602009569E+02  0.10566000000E+00 0. -1.
         -4    1    1    2    0  502 -0.77491277511E+02  0.44258670661E+02  0.31307275366E+02  0.94572054592E+02  0.00000000000E+00 0. -1.
</event>
<event>
 6    1  0.2569591E-005  0.1039198E+04  0.7818608E-02  0.8973878E-01
         21   -1    0    0  501  502  0.00000000000E+00  0.00000000000E+00  0.11807687498E+04  0.11807687498E+04  0.00000000000E+00 0. -1.
         -4   -1    0    0    0  501 -0.00000000000E+00 -0.00000000000E+00 -0.15535644606E+04  0.15535644606E+04  0.00000000000E+00 0. -1.
   -9000010    2    1    2    0  502  0.38518784788E+03 -0.51560418240E+02  0.91781813707E+03  0.13864785186E+04  0.96379686398E+03 0.  0.
        -13    1    1    2    0    0 -0.38518784788E+03  0.51560418240E+02 -0.12906138478E+04  0.13478546918E+04  0.10566000000E+00 0.  1.
         13    1    3    3    0    0 -0.17838753789E+03 -0.25381848356E+03  0.67021179798E+03  0.73853219401E+03  0.10566000000E+00 0. -1.
         -4    1    3    3    0  502  0.56357538578E+03  0.20225806532E+03  0.24760633909E+03  0.64794632463E+03  0.00000000000E+00 0. -1.
</event>
<event>
 5    1  0.2569591E-005  0.1611253E+03  0.7818608E-02  0.1093181E+00
          4   -1    0    0  502    0 -0.00000000000E+00  0.00000000000E+00  0.14807580739E+03  0.14807580739E+03  0.00000000000E+00 0.  1.
         21   -1    0    0  501  502  0.00000000000E+00 -0.00000000000E+00 -0.16400458632E+03  0.16400458632E+03  0.00000000000E+00 0. -1.
        -13    1    1    2    0    0 -0.26477079058E+02 -0.14162734635E+03 -0.25990491384E+02  0.14640648126E+03  0.10566000000E+00 0.  1.
         13    1    1    2    0    0  0.37190514332E+02  0.14552993211E+03 -0.38844061707E+00  0.15020738179E+03  0.10566000000E+00 0. -1.
          4    1    1    2  501    0 -0.10713435274E+02 -0.39025857556E+01  0.10450153076E+02  0.15466530648E+02  0.00000000000E+00 0.  1.
</event>
<event>
 6    1  0.2569591E-005  0.1008023E+04  0.7818608E-02  0.9266828E-01
         21   -1    0    0  501  502  0.00000000000E+00  0.00000000000E+00  0.75564837481E+03  0.75564837481E+03  0.00000000000E+00 0.  1.
          4   -1    0    0  502    0 -0.00000000000E+00 -0.00000000000E+00 -0.60730607822E+03  0.60730607822E+03  0.00000000000E+00 0.  1.
    9000010    2    1    2  501    0  0.11765296284E+03  0.64510057150E+02  0.39460642851E+03  0.10825087346E+04  0.99905313171E+03 0.  0.
        -13    1    3    3    0    0 -0.43793007302E+03  0.10595973366E+03  0.19021592594E+03  0.48907292263E+03  0.10566000000E+00 0.  1.
         13    1    1    2    0    0 -0.11765296284E+03 -0.64510057150E+02 -0.24626413192E+03  0.28044571841E+03  0.10566000000E+00 0. -1.
          4    1    3    3  501    0  0.55558303586E+03 -0.41449676505E+02  0.20439050257E+03  0.59343581199E+03  0.00000000000E+00 0.  1.
</event>
<event>
 5    1  0.2569591E-005  0.1919551E+03  0.7818608E-02  0.1109671E+00
         21   -1    0    0  501  502  0.00000000000E+00  0.00000000000E+00  0.63391957085E+03  0.63391957085E+03  0.00000000000E+00 0. -1.
          4   -1    0    0  502    0 -0.00000000000E+00 -0.00000000000E+00 -0.27575195061E+02  0.27575195061E+02  0.00000000000E+00 0.  1.
        -13    1    1    2    0    0  0.84228039730E+02  0.83195243022E+02  0.29139718194E+03  0.31452844060E+03  0.10566000000E+00 0.  1.
         13    1    1    2    0    0 -0.43223390701E+02 -0.36991198492E+02  0.25360731670E+03  0.25991016240E+03  0.10566000000E+00 0. -1.
          4    1    1    2  501    0 -0.41004649029E+02 -0.46204044531E+02  0.61339877148E+02  0.87056162915E+02  0.00000000000E+00 0.  1.
</event>
<event>
 6    1  0.2569591E-005  0.1065792E+04  0.7818608E-02  0.8946398E-01
         21   -1    0    0  501  502  0.00000000000E+00  0.00000000000E+00  0.22421572165E+03  0.22421572165E+03  0.00000000000E+00 0.  1.
          4   -1    0    0  502    0 -0.00000000000E+00 -0.00000000000E+00 -0.24055540727E+04  0.24055540727E+04  0.00000000000E+00 0.  1.
    9000010    2    1    2  501    0  0.34688402805E+03  0.20519474143E+03 -0.15800045785E+04  0.19058666738E+04  0.98665084973E+03 0.  0.
        -13    1    3    3    0    0  0.92629099436E+01 -0.37929951737E+03 -0.43979599010E+03  0.58083943517E+03  0.10566000000E+00 0.  1.
         13    1    1    2    0    0 -0.34688402805E+03 -0.20519474143E+03 -0.60133377255E+03  0.72390312059E+03  0.10566000000E+00 0. -1.
          4    1    3    3  501    0  0.33762111811E+03  0.58449425880E+03 -0.11402085884E+04  0.13250272386E+04  0.00000000000E+00 0.  1.
</event>
<event>
 6    1  0.2569591E-005  0.1054704E+04  0.7818608E-02  0.9090937E-01
          4   -1    0    0  502    0 -0.00000000000E+00  0.00000000000E+00  0.26659910647E+04  0.26659910647E+04  0.00000000000E+00 0.  1.
         21   -1    0    0  501  502  0.00000000000E+00 -0.00000000000E+00 -0.16086243266E+03  0.16086243266E+03  0.00000000000E+00 0.  1.
    9000010    2    1    2  501    0  0.23187279785E+03 -0.13673846199E+02  0.18212104299E+04  0.21045681750E+04  0.10288089254E+04 0.  0.
        -13    1    3    3    0    0 -0.39868455489E+03  0.55154428378E+02  0.52543162081E+03  0.66186840428E+03  0.10566000000E+00 0.  1.
         13    1    1    2    0    0 -0.23187279785E+03  0.13673846199E+02  0.68391820215E+03  0.72228532232E+03  0.10566000000E+00 0. -1.
          4    1    3    3  501    0  0.63055735274E+03 -0.68828274576E+02  0.12957788091E+04  0.14426997707E+04  0.00000000000E+00 0.  1.
</event>
<event>
 6    1  0.2569591E-005  0.1034661E+04  0.7818608E-02  0.9060924E-01
         -4   -1    0    0    0  501 -0.00000000000E+00  0.00000000000E+00  0.44883581772E+03  0.44883581772E+03  0.00000000000E+00 0. -1.
         21   -1    0    0  501  502  0.00000000000E+00 -0.00000000000E+00 -0.96974126800E+03  0.96974126800E+03  0.00000000000E+00 0. -1.
   -9000010    2    1    2    0  502 -0.24560894885E+03 -0.12861403366E+03 -0.47122474271E+03  0.11369150377E+04  0.99682381567E+03 0.  0.
        -13    1    1    2    0    0  0.24560894885E+03  0.12861403366E+03 -0.49680707564E+02  0.28166204799E+03  0.10566000000E+00 0.  1.
         13    1    3    3    0    0 -0.43767922034E+03  0.29125399802E+02 -0.68209926685E+03  0.81096905603E+03  0.10566000000E+00 0. -1.
         -4    1    3    3    0  502  0.19207027149E+03 -0.15773943346E+03  0.21087452415E+03  0.32594598171E+03  0.00000000000E+00 0. -1.
</event>
<event>
 6    1  0.2569591E-005  0.1066030E+04  0.7818608E-02  0.8988073E-01
         21   -1    0    0  501  502  0.00000000000E+00  0.00000000000E+00  0.72177828120E+03  0.72177828120E+03  0.00000000000E+00 0.  1.
          4   -1    0    0  502    0 -0.00000000000E+00 -0.00000000000E+00 -0.68464309972E+03  0.68464309972E+03  0.00000000000E+00 0.  1.
    9000010    2    1    2  501    0 -0.33864251209E+03 -0.28364761144E+02  0.34261666894E+02  0.10665808611E+04  0.10104145490E+04 0.  0.
        -13    1    3    3    0    0  0.12800853535E+03  0.22602209776E+03  0.35946721168E+03  0.44349617950E+03  0.10566000000E+00 0.  1.
         13    1    1    2    0    0  0.33864251209E+03  0.28364761144E+02  0.28735145906E+01  0.33984051983E+03  0.10566000000E+00 0. -1.
          4    1    3    3  501    0 -0.46665104744E+03 -0.25438685890E+03 -0.32520554478E+03  0.62308468158E+03  0.00000000000E+00 0.  1.
</event>
<event>
 5    1  0.2569591E-005  0.1505545E+03  0.7818608E-02  0.1102989E+00
          4   -1    0    0  502    0 -0.00000000000E+00  0.00000000000E+00  0.63845652681E+02  0.63845652681E+02  0.00000000000E+00 0.  1.
         21   -1    0    0  501  502  0.00000000000E+00 -0.00000000000E+00 -0.35034948432E+03  0.35034948432E+03  0.00000000000E+00 0. -1.
        -13    1    1    2    0    0  0.11903633780E+03 -0.64016449896E+02 -0.10384251549E+03  0.17044364101E+03  0.10566000000E+00 0.  1.
         13    1    1    2    0    0 -0.11949213666E+03  0.74883012592E+02 -0.18500933705E+03  0.23262481007E+03  0.10566000000E+00 0. -1.
          4    1    1    2  501    0  0.45579885574E+00 -0.10866562697E+02  0.23480209067E+01  0.11126685922E+02  0.00000000000E+00 0.  1.
</event>
<event>
 6    1  0.2569591E-005  0.1356897E+04  0.7818608E-02  0.8586445E-01
         -4   -1    0    0    0  501 -0.00000000000E+00  0.00000000000E+00  0.28484171020E+04  0.28484171020E+04  0.00000000000E+00 0. -1.
         21   -1    0    0  501  502  0.00000000000E+00 -0.00000000000E+00 -0.45888065320E+03  0.45888065320E+03  0.00000000000E+00 0.  1.
   -9000010    2    1    2    0  502  0.36928804370E+03 -0.82897436583E+03  0.16524402492E+04  0.21381600486E+04  0.10087603569E+04 0.  0.
        -13    1    1    2    0    0 -0.36928804370E+03  0.82897436583E+03  0.73709619957E+03  0.11691377066E+04  0.10566000000E+00 0.  1.
         13    1    3    3    0    0 -0.15176794039E+03 -0.73609903834E+03  0.13021069067E+04  0.15034486056E+04  0.10566000000E+00 0. -1.
         -4    1    3    3    0  502  0.52105598409E+03 -0.92875327492E+02  0.35033334250E+03  0.63471144300E+03  0.00000000000E+00 0. -1.
</event>
<event>
 6    1  0.2569591E-005  0.1233117E+04  0.7818608E-02  0.8719312E-01
         21   -1    0    0  501  502  0.00000000000E+00  0.00000000000E+00  0.10637217356E+04  0.10637217356E+04  0.00000000000E+00 0. -1.
          4   -1    0    0  502    0 -0.00000000000E+00 -0.00000000000E+00 -0.85883377960E+03  0.85883377960E+03  0.00000000000E+00 0.  1.
    9000010    2    1    2  501    0 -0.67294476827E+03  0.62048406112E+02  0.18103645241E+03  0.12463354539E+04  0.10314422915E+04 0.  0.
        -13    1    3    3    0    0 -0.13773486057E+03 -0.38210785820E+03 -0.20059667790E+03  0.45300810750E+03  0.10566000000E+00 0.  1.
         13    1    1    2    0    0  0.67294476827E+03 -0.62048406112E+02  0.23851503550E+02  0.67622006125E+03  0.10566000000E+00 0. -1.
          4    1    3    3  501    0 -0.53520990770E+03  0.44415626431E+03  0.38163313030E+03  0.79332734642E+03  0.00000000000E+00 0.  1.
</event>
<event>
 6    1  0.2569591E-005  0.1084773E+04  0.7818608E-02  0.8941374E-01
          4   -1    0    0  502    0 -0.00000000000E+00  0.00000000000E+00  0.80185214482E+03  0.80185214482E+03  0.00000000000E+00 0.  1.
         21   -1    0    0  501  502  0.00000000000E+00 -0.00000000000E+00 -0.10912551583E+04  0.10912551583E+04  0.00000000000E+00 0. -1.
    9000010    2    1    2  501    0  0.38594141644E+03 -0.57460814282E+02 -0.72773224620E+03  0.13062640110E+04  0.10121654619E+04 0.  0.
        -13    1    3    3    0    0  0.72521440232E+03 -0.98738672535E+02 -0.58032014092E+03  0.93405392344E+03  0.10566000000E+00 0.  1.
         13    1    1    2    0    0 -0.38594141644E+03  0.57460814282E+02  0.43832923269E+03  0.58684329212E+03  0.10566000000E+00 0. -1.
          4    1    3    3  501    0 -0.33927298587E+03  0.41277858253E+02 -0.14741210528E+03  0.37221008760E+03  0.00000000000E+00 0.  1.
</event>
<event>
 5    1  0.2569591E-005  0.4240121E+03  0.7818608E-02  0.9665247E-01
         21   -1    0    0  501  502  0.00000000000E+00  0.00000000000E+00  0.11314250603E+03  0.11314250603E+03  0.00000000000E+00 0. -1.
          4   -1    0    0  502    0 -0.00000000000E+00 -0.00000000000E+00 -0.16137543786E+04  0.16137543786E+04  0.00000000000E+00 0.  1.
        -13    1    1    2    0    0  0.38898195297E+03 -0.62893153984E+02 -0.80790516518E+03  0.89887333682E+03  0.10566000000E+00 0.  1.
         13    1    1    2    0    0 -0.41590260847E+03  0.54299984989E+02 -0.60729747942E+03  0.73806077512E+03  0.10566000000E+00 0. -1.
          4    1    1    2  501    0  0.26920655499E+02  0.85931689951E+01 -0.85409227935E+02  0.89962772647E+02  0.00000000000E+00 0.  1.
</event>
<event>
 5    1  0.2569591E-005  0.3265592E+03  0.7818608E-02  0.1000468E+00
         21   -1    0    0  501  502  0.00000000000E+00  0.00000000000E+00  0.76570173783E+03  0.76570173783E+03  0.00000000000E+00 0. -1.
          4   -1    0    0  502    0 -0.00000000000E+00 -0.00000000000E+00 -0.12629066740E+03  0.12629066740E+03  0.00000000000E+00 0.  1.
        -13    1    1    2    0    0 -0.24468870370E+03  0.17836788836E+03  0.38233931648E+03  0.48772023682E+03  0.10566000000E+00 0.  1.
         13    1    1    2    0    0  0.24412226948E+03 -0.15747621955E+03  0.24571229753E+03  0.38048519879E+03  0.10566000000E+00 0. -1.
          4    1    1    2  501    0  0.56643422238E+00 -0.20891668812E+02  0.11359456418E+02  0.23786969617E+02  0.00000000000E+00 0.  1.
</event>
<event>
 6    1  0.2569591E-005  0.1064931E+04  0.7818608E-02  0.8967014E-01
          4   -1    0    0  502    0 -0.00000000000E+00  0.00000000000E+00  0.15069946754E+04  0.15069946754E+04  0.00000000000E+00 0.  1.
         21   -1    0    0  501  502  0.00000000000E+00 -0.00000000000E+00 -0.34311234512E+03  0.34311234512E+03  0.00000000000E+00 0. -1.
    9000010    2    1    2  501    0  0.18737606968E+03 -0.32062960081E+03  0.82111570241E+03  0.13447337874E+04  0.99808057281E+03 0.  0.
        -13    1    3    3    0    0 -0.33050977286E+03  0.91607845329E+02  0.82178177326E+02  0.35267828297E+03  0.10566000000E+00 0.  1.
         13    1    1    2    0    0 -0.18737606968E+03  0.32062960081E+03  0.34276662786E+03  0.50537323311E+03  0.10566000000E+00 0. -1.
          4    1    3    3  501    0  0.51788584254E+03 -0.41223744614E+03  0.73893752509E+03  0.99205550444E+03  0.00000000000E+00 0.  1.
</event>
<event>
 5    1  0.2899013E-005  0.1618213E+03  0.7818608E-02  0.1097655E+00
         21   -1    0    0  501  502  0.00000000000E+00  0.00000000000E+00  0.63639600048E+03  0.63639600048E+03  0.00000000000E+00 0. -1.
          4   -1    0    0  502    0 -0.00000000000E+00 -0.00000000000E+00 -0.79909114577E+02  0.79909114577E+02  0.00000000000E+00 0.  1.
        -13    1    1    2    0    0  0.63722097190E+01 -0.13456236364E+03  0.10123055270E+02  0.13509301305E+03  0.10566000000E+00 0.  1.
         13    1    1    2    0    0 -0.31768337748E+02  0.12730853914E+03  0.53760513498E+03  0.55338592659E+03  0.10566000000E+00 0. -1.
          4    1    1    2  501    0  0.25396128029E+02  0.72538244939E+01  0.87586956466E+01  0.27826175412E+02  0.00000000000E+00 0.  1.
</event>
<event>
 5    1  0.2569591E-005  0.7327238E+02  0.7818608E-02  0.1227942E+00
         21   -1    0    0  501  502  0.00000000000E+00  0.00000000000E+00  0.11266035194E+03  0.11266035194E+03  0.00000000000E+00 0. -1.
          4   -1    0    0  502    0 -0.00000000000E+00 -0.00000000000E+00 -0.72524756300E+02  0.72524756300E+02  0.00000000000E+00 0.  1.
        -13    1    1    2    0    0 -0.45744049485E+02  0.91637821998E+01 -0.18849694156E+02  0.50317145203E+02  0.10566000000E+00 0.  1.
         13    1    1    2    0    0  0.58036488000E+02  0.12848885403E+02  0.81630047746E+02  0.10097922388E+03  0.10566000000E+00 0. -1.
          4    1    1    2  501    0 -0.12292438515E+02 -0.22012667603E+02 -0.22644757948E+02  0.33888739164E+02  0.00000000000E+00 0.  1.
</event>
<event>
 6    1  0.2569591E-005  0.1084824E+04  0.7818608E-02  0.8956423E-01
         21   -1    0    0  501  502  0.00000000000E+00  0.00000000000E+00  0.17142695841E+03  0.17142695841E+03  0.00000000000E+00 0. -1.
          4   -1    0    0  502    0 -0.00000000000E+00 -0.00000000000E+00 -0.31821519788E+04  0.31821519788E+04  0.00000000000E+00 0.  1.
    9000010    2    1    2  501    0  0.11725334178E+03 -0.34758470177E+03 -0.24956106476E+04  0.27211974864E+04  0.10209210473E+04 0.  0.
        -13    1    3    3    0    0  0.94544977739E+01  0.35284588057E+03 -0.11116636977E+04  0.11663557737E+04  0.10566000000E+00 0.  1.
         13    1    1    2    0    0 -0.11725334178E+03  0.34758470177E+03 -0.51511437284E+03  0.63238145081E+03  0.10566000000E+00 0. -1.
          4    1    3    3  501    0  0.10779884401E+03 -0.70043058235E+03 -0.13839469499E+04  0.15548417127E+04  0.00000000000E+00 0.  1.
</event>
<event>
 6    1  0.2569591E-005  0.1006642E+04  0.7818608E-02  0.9201246E-01
         -4   -1    0    0    0  501 -0.00000000000E+00  0.00000000000E+00  0.51679649369E+03  0.51679649369E+03  0.00000000000E+00 0. -1.
         21   -1    0    0  501  502  0.00000000000E+00 -0.00000000000E+00 -0.96903097809E+03  0.96903097809E+03  0.00000000000E+00 0. -1.
   -9000010    2    1    2    0  502 -0.17031987939E+03  0.32417975197E+02 -0.66868654278E+03  0.12084986216E+04  0.99159842647E+03 0.  0.
        -13    1    1    2    0    0  0.17031987939E+03 -0.32417975197E+02  0.21645205837E+03  0.27732885023E+03  0.10566000000E+00 0.  1.
         13    1    3    3    0    0 -0.17498410409E+03 -0.20407344231E+03 -0.86204439432E+03  0.90298723993E+03  0.10566000000E+00 0. -1.
         -4    1    3    3    0  502  0.46642246954E+01  0.23649141751E+03  0.19335785154E+03  0.30551138162E+03  0.00000000000E+00 0. -1.
</event>
<event>
 6    1  0.2569591E-005  0.1013742E+04  0.7818608E-02  0.9241953E-01
         21   -1    0    0  501  502  0.00000000000E+00  0.00000000000E+00  0.10085519762E+04  0.10085519762E+04  0.00000000000E+00 0. -1.
         -4   -1    0    0    0  501 -0.00000000000E+00 -0.00000000000E+00 -0.33432090531E+03  0.33432090531E+03  0.00000000000E+00 0. -1.
   -9000010    2    1    2    0  502 -0.81623512882E+02  0.11996532143E+03  0.61795680451E+03  0.11872422919E+04  0.10033043263E+04 0.  0.
        -13    1    1    2    0    0  0.81623512882E+02 -0.11996532143E+03  0.56274266383E+02  0.15563058961E+03  0.10566000000E+00 0.  1.
         13    1    3    3    0    0  0.19758778173E+03  0.37711200857E+03  0.68033813165E+03  0.80256736978E+03  0.10566000000E+00 0. -1.
         -4    1    3    3    0  502 -0.27921129461E+03 -0.25714668713E+03 -0.62381327139E+02  0.38467492213E+03  0.00000000000E+00 0. -1.
</event>
<event>
 6    1  0.2569591E-005  0.1135523E+04  0.7818608E-02  0.8855812E-01
         -4   -1    0    0    0  501 -0.00000000000E+00  0.00000000000E+00  0.29780879078E+04  0.29780879078E+04  0.00000000000E+00 0. -1.
         21   -1    0    0  501  502  0.00000000000E+00 -0.00000000000E+00 -0.34402566037E+03  0.34402566037E+03  0.00000000000E+00 0. -1.
   -9000010    2    1    2    0  502  0.40003224450E+03 -0.27391874538E+03  0.71299263751E+03  0.13408095196E+04  0.10268176035E+04 0.  0.
        -13    1    1    2    0    0 -0.40003224450E+03  0.27391874538E+03  0.19210696099E+04  0.19813040486E+04  0.10566000000E+00 0.  1.
         13    1    3    3    0    0 -0.27778763359E+03  0.16908642715E+03  0.18520941441E+03  0.37424420847E+03  0.10566000000E+00 0. -1.
         -4    1    3    3    0  502  0.67781987809E+03 -0.44300517253E+03  0.52778322310E+03  0.96656531109E+03  0.00000000000E+00 0. -1.
</event>
<event>
 6    1  0.2569591E-005  0.1312528E+04  0.7818608E-02  0.8620104E-01
         -4   -1    0    0    0  501 -0.00000000000E+00  0.00000000000E+00  0.12733692306E+04  0.12733692306E+04  0.00000000000E+00 0. -1.
         21   -1    0    0  501  502  0.00000000000E+00 -0.00000000000E+00 -0.98982846032E+03  0.98982846032E+03  0.00000000000E+00 0. -1.
   -9000010    2    1    2    0  502  0.51589542699E+03 -0.69280809132E+03 -0.10362100336E+03  0.13166115126E+04  0.98822943675E+03 0.  0.
        -13    1    1    2    0    0 -0.51589542699E+03  0.69280809132E+03  0.38716177367E+03  0.94658617840E+03  0.10566000000E+00 0.  1.
         13    1    3    3    0    0 -0.84556131845E+02 -0.49646698576E+03 -0.37616292292E+03  0.62859188917E+03  0.10566000000E+00 0. -1.
         -4    1    3    3    0  502  0.60045155883E+03 -0.19634110555E+03  0.27254191957E+03  0.68801962338E+03  0.00000000000E+00 0. -1.
</event>
<event>
 6    1  0.2569591E-005  0.9387587E+03  0.7818608E-02  0.9074783E-01
         -4   -1    0    0    0  501 -0.00000000000E+00  0.00000000000E+00  0.30266760951E+04  0.30266760951E+04  0.00000000000E+00 0. -1.
         21   -1    0    0  501  502  0.00000000000E+00 -0.00000000000E+00 -0.15141115658E+03  0.15141115658E+03  0.00000000000E+00 0.  1.
   -9000010    2    1    2    0  502  0.28836144363E+03  0.20054536618E+03  0.24667066457E+04  0.26393009713E+04  0.87057290063E+03 0.  0.
        -13    1    1    2    0    0 -0.28836144363E+03 -0.20054536618E+03  0.40855829279E+03  0.53878628030E+03  0.10566000000E+00 0.  1.
         13    1    3    3    0    0 -0.29033235943E+03  0.19504511632E+03  0.11246647496E+04  0.11777972179E+04  0.10566000000E+00 0. -1.
         -4    1    3    3    0  502  0.57869380306E+03  0.55002498692E+01  0.13420418961E+04  0.14615037535E+04  0.00000000000E+00 0. -1.
</event>
<event>
 6    1  0.2569591E-005  0.1143442E+04  0.7818608E-02  0.8827566E-01
         21   -1    0    0  501  502  0.00000000000E+00  0.00000000000E+00  0.64337425147E+03  0.64337425147E+03  0.00000000000E+00 0.  1.
          4   -1    0    0  502    0 -0.00000000000E+00 -0.00000000000E+00 -0.11389674763E+04  0.11389674763E+04  0.00000000000E+00 0.  1.
    9000010    2    1    2  501    0  0.17582553970E+03 -0.50479860912E+03 -0.49950522323E+03  0.12477843678E+04  0.10108036923E+04 0.  0.
        -13    1    3    3    0    0 -0.62475656240E+02  0.18627220960E+03  0.16752097408E+03  0.25819339963E+03  0.10566000000E+00 0.  1.
         13    1    1    2    0    0 -0.17582553970E+03  0.50479860912E+03  0.39119983720E+01  0.53455735995E+03  0.10566000000E+00 0. -1.
          4    1    3    3  501    0  0.23830119594E+03 -0.69107081873E+03 -0.66702619731E+03  0.98959096822E+03  0.00000000000E+00 0.  1.
</event>
<event>
 6    1  0.2569591E-005  0.1037353E+04  0.7818608E-02  0.9035372E-01
          4   -1    0    0  502    0 -0.00000000000E+00  0.00000000000E+00  0.28209682375E+04  0.28209682375E+04  0.00000000000E+00 0.  1.
         21   -1    0    0  501  502  0.00000000000E+00 -0.00000000000E+00 -0.16448324928E+03  0.16448324928E+03  0.00000000000E+00 0. -1.
    9000010    2    1    2  501    0  0.30374207357E+03 -0.24330975674E+02  0.22482695214E+04  0.24760487756E+04  0.99158986213E+03 0.  0.
        -13    1    3    3    0    0  0.22496825015E+03  0.42471357327E+03  0.61602898269E+03  0.78133478841E+03  0.10566000000E+00 0.  1.
         13    1    1    2    0    0 -0.30374207357E+03  0.24330975674E+02  0.40821546682E+03  0.50940271117E+03  0.10566000000E+00 0. -1.
          4    1    3    3  501    0  0.78773823420E+02 -0.44904454895E+03  0.16322405387E+04  0.16947139872E+04  0.00000000000E+00 0.  1.
</event>
<event>
 6    1  0.2569591E-005  0.9432568E+03  0.7818608E-02  0.9303137E-01
         -4   -1    0    0    0  501 -0.00000000000E+00  0.00000000000E+00  0.12423829271E+04  0.12423829271E+04  0.00000000000E+00 0. -1.
         21   -1    0    0  501  502  0.00000000000E+00 -0.00000000000E+00 -0.24004283105E+03  0.24004283105E+03  0.00000000000E+00 0. -1.
   -9000010    2    1    2    0  502 -0.13935548386E+03 -0.30432628380E+02  0.81233596031E+03  0.12448385562E+04  0.93240936446E+03 0.  0.
        -13    1    1    2    0    0  0.13935548386E+03  0.30432628380E+02  0.19000413577E+03  0.23758720194E+03  0.10566000000E+00 0.  1.
         13    1    3    3    0    0 -0.36330175830E+03 -0.15540800921E+03  0.22762925589E+01  0.39515188166E+03  0.10566000000E+00 0. -1.
         -4    1    3    3    0  502  0.22394627444E+03  0.12497538083E+03  0.81005966775E+03  0.84968667458E+03  0.00000000000E+00 0. -1.
</event>
<event>
 5    1  0.2569591E-005  0.7411492E+02  0.7818608E-02  0.1227697E+00
         21   -1    0    0  501  502  0.00000000000E+00  0.00000000000E+00  0.44611356138E+03  0.44611356138E+03  0.00000000000E+00 0.  1.
         -4   -1    0    0    0  501 -0.00000000000E+00 -0.00000000000E+00 -0.98729480240E+01  0.98729480240E+01  0.00000000000E+00 0. -1.
        -13    1    1    2    0    0  0.52350823889E+02 -0.24369198518E+02  0.16549987688E+03  0.17528458862E+03  0.10566000000E+00 0.  1.
         13    1    1    2    0    0 -0.21509780262E+02  0.23782159340E+02  0.63080449944E+02  0.70763098286E+02  0.10566000000E+00 0. -1.
         -4    1    1    2    0  502 -0.30841043628E+02  0.58703917767E+00  0.20766028653E+03  0.20993882249E+03  0.00000000000E+00 0. -1.
</event>
<event>
 5    1  0.2569591E-005  0.4528557E+03  0.7818608E-02  0.9647844E-01
          4   -1    0    0  502    0 -0.00000000000E+00  0.00000000000E+00  0.55337829713E+03  0.55337829713E+03  0.00000000000E+00 0.  1.
         21   -1    0    0  501  502  0.00000000000E+00 -0.00000000000E+00 -0.33797766890E+03  0.33797766890E+03  0.00000000000E+00 0. -1.
        -13    1    1    2    0    0 -0.25269715351E+03 -0.17142298394E+03  0.94175861173E+02  0.31954779738E+03  0.10566000000E+00 0.  1.
         13    1    1    2    0    0  0.22947606429E+03  0.28512565645E+03 -0.45345153534E+02  0.36879818080E+03  0.10566000000E+00 0. -1.
          4    1    1    2  501    0  0.23221089226E+02 -0.11370267252E+03  0.16656992059E+03  0.20300998785E+03  0.00000000000E+00 0.  1.
</event>
<event>
 6    1  0.2569591E-005  0.1022179E+04  0.7818608E-02  0.9123449E-01
         21   -1    0    0  501  502  0.00000000000E+00  0.00000000000E+00  0.21551681991E+03  0.21551681991E+03  0.00000000000E+00 0. -1.
         -4   -1    0    0    0  501 -0.00000000000E+00 -0.00000000000E+00 -0.21370513855E+04  0.21370513855E+04  0.00000000000E+00 0. -1.
   -9000010    2    1    2    0  502 -0.22392110516E+03  0.14519690008E+02 -0.11029178524E+04  0.15037544349E+04  0.99724527004E+03 0.  0.
        -13    1    1    2    0    0  0.22392110516E+03 -0.14519690008E+02 -0.81861671310E+03  0.84881377043E+03  0.10566000000E+00 0.  1.
         13    1    3    3    0    0  0.13864060443E+03  0.43722971486E+03 -0.41392315357E+03  0.61783770440E+03  0.10566000000E+00 0. -1.
         -4    1    3    3    0  502 -0.36256170959E+03 -0.42271002485E+03 -0.68899469887E+03  0.88591673054E+03  0.00000000000E+00 0. -1.
</event>
<event>
 6    1  0.2569591E-005  0.1290827E+04  0.7818608E-02  0.8646047E-01
         21   -1    0    0  501  502  0.00000000000E+00  0.00000000000E+00  0.77887356382E+03  0.77887356382E+03  0.00000000000E+00 0.  1.
         -4   -1    0    0    0  501 -0.00000000000E+00 -0.00000000000E+00 -0.14657245759E+04  0.14657245759E+04  0.00000000000E+00 0. -1.
   -9000010    2    1    2    0  502  0.79318696030E+03  0.16490752246E+03 -0.61912294863E+03  0.14316238801E+04  0.10049346564E+04 0.  0.
        -13    1    1    2    0    0 -0.79318696030E+03 -0.16490752246E+03 -0.67728063408E+02  0.81297425955E+03  0.10566000000E+00 0.  1.
         13    1    3    3    0    0  0.40163687003E+03  0.32950201093E+03  0.16056623552E+03  0.54375111745E+03  0.10566000000E+00 0. -1.
         -4    1    3    3    0  502  0.39155009027E+03 -0.16459448847E+03 -0.77968918415E+03  0.88787276267E+03  0.00000000000E+00 0. -1.
</event>
<event>
 6    1  0.2569591E-005  0.9819989E+03  0.7818608E-02  0.9349765E-01
         21   -1    0    0  501  502  0.00000000000E+00  0.00000000000E+00  0.43275975058E+03  0.43275975058E+03  0.00000000000E+00 0. -1.
         -4   -1    0    0    0  501 -0.00000000000E+00 -0.00000000000E+00 -0.94747516876E+03  0.94747516876E+03  0.00000000000E+00 0. -1.
   -9000010    2    1    2    0  502  0.97675198329E+02  0.41297480381E+02 -0.14137249123E+03  0.99212297863E+03  0.97625606128E+03 0.  0.
        -13    1    1    2    0    0 -0.97675198329E+02 -0.41297480381E+02 -0.37334292695E+03  0.38811194071E+03  0.10566000000E+00 0.  1.
         13    1    3    3    0    0 -0.11550103955E+02 -0.34983220206E+03  0.24842749129E+03  0.42922279074E+03  0.10566000000E+00 0. -1.
         -4    1    3    3    0  502  0.10922530228E+03  0.39112968244E+03 -0.38979998253E+03  0.56290018789E+03  0.00000000000E+00 0. -1.
</event>
<event>
 5    1  0.2569591E-005  0.9284658E+02  0.7818608E-02  0.1191882E+00
         -4   -1    0    0    0  501 -0.00000000000E+00  0.00000000000E+00  0.21135619208E+03  0.21135619208E+03  0.00000000000E+00 0. -1.
         21   -1    0    0  501  502  0.00000000000E+00 -0.00000000000E+00 -0.36591884987E+02  0.36591884987E+02  0.00000000000E+00 0.  1.
        -13    1    1    2    0    0  0.35363600600E+02  0.55162796337E+02  0.21884540145E+02  0.69083012446E+02  0.10566000000E+00 0.  1.
         13    1    1    2    0    0  0.10100600046E+02 -0.44779100980E+02  0.68568958213E+02  0.82516078435E+02  0.10566000000E+00 0. -1.
         -4    1    1    2    0  502 -0.45464200646E+02 -0.10383695357E+02  0.84310808737E+02  0.96348986188E+02  0.00000000000E+00 0. -1.
</event>
<event>
 5    1  0.2569591E-005  0.2388775E+03  0.7818608E-02  0.1039686E+00
         -4   -1    0    0    0  501 -0.00000000000E+00  0.00000000000E+00  0.11096795235E+04  0.11096795235E+04  0.00000000000E+00 0. -1.
         21   -1    0    0  501  502  0.00000000000E+00 -0.00000000000E+00 -0.46791653772E+02  0.46791653772E+02  0.00000000000E+00 0.  1.
        -13    1    1    2    0    0  0.10626089091E+03 -0.18765816264E+03  0.46249597782E+03  0.51030334469E+03  0.10566000000E+00 0.  1.
         13    1    1    2    0    0 -0.77677175498E+02  0.12927313229E+03  0.52686162087E+03  0.54802232166E+03  0.10566000000E+00 0. -1.
         -4    1    1    2    0  502 -0.28583715407E+02  0.58385030344E+02  0.73530271039E+02  0.98145510921E+02  0.00000000000E+00 0. -1.
</event>
<event>
 5    1  0.3285038E-005  0.6744607E+02  0.7818608E-02  0.1293107E+00
         -4   -1    0    0    0  501 -0.00000000000E+00  0.00000000000E+00  0.50212448160E+02  0.50212448160E+02  0.00000000000E+00 0. -1.
         21   -1    0    0  501  502  0.00000000000E+00 -0.00000000000E+00 -0.13867809375E+03  0.13867809375E+03  0.00000000000E+00 0.  1.
        -13    1    1    2    0    0 -0.90506035151E+00  0.19829786813E+02 -0.11478667941E+03  0.11649048250E+03  0.10566000000E+00 0.  1.
         13    1    1    2    0    0  0.18089402634E+02 -0.33666478141E+02  0.31742074870E+02  0.49681271312E+02  0.10566000000E+00 0. -1.
         -4    1    1    2    0  502 -0.17184342282E+02  0.13836691328E+02 -0.54210410513E+01  0.22718788099E+02  0.00000000000E+00 0. -1.
</event>
<event>
 6    1  0.2569591E-005  0.1011583E+04  0.7818608E-02  0.9202863E-01
          4   -1    0    0  502    0 -0.00000000000E+00  0.00000000000E+00  0.20836076710E+04  0.20836076710E+04  0.00000000000E+00 0.  1.
         21   -1    0    0  501  502  0.00000000000E+00 -0.00000000000E+00 -0.24225449733E+03  0.24225449733E+03  0.00000000000E+00 0.  1.
    9000010    2    1    2  501    0 -0.22608973705E+02 -0.16827085768E+03  0.85354939133E+03  0.13235735019E+04  0.99723317449E+03 0.  0.
        -13    1    3    3    0    0  0.30700445276E+03  0.41654142314E+02 -0.72725309578E+02  0.31823856367E+03  0.10566000000E+00 0.  1.
         13    1    1    2    0    0  0.22608973705E+02  0.16827085768E+03  0.98780378230E+03  0.10022886664E+04  0.10566000000E+00 0. -1.
          4    1    3    3  501    0 -0.32961342647E+03 -0.20992499999E+03  0.92627470090E+03  0.10053349382E+04  0.00000000000E+00 0.  1.
</event>
<event>
 5    1  0.2569591E-005  0.1422467E+03  0.7818608E-02  0.1171327E+00
         21   -1    0    0  501  502  0.00000000000E+00  0.00000000000E+00  0.32076088443E+03  0.32076088443E+03  0.00000000000E+00 0.  1.
          4   -1    0    0  502    0 -0.00000000000E+00 -0.00000000000E+00 -0.25678704652E+02  0.25678704652E+02  0.00000000000E+00 0.  1.
        -13    1    1    2    0    0  0.47106930709E+02 -0.55861429085E+01  0.22105764818E+03  0.22609016542E+03  0.10566000000E+00 0.  1.
         13    1    1    2    0    0  0.14404914715E+02  0.25771965907E+02  0.16953188956E+02  0.34045815814E+02  0.10566000000E+00 0. -1.
          4    1    1    2  501    0 -0.61511845424E+02 -0.20185822999E+02  0.57071342641E+02  0.86303607853E+02  0.00000000000E+00 0.  1.
</event>
<event>
 6    1  0.2569591E-005  0.9570842E+03  0.7818608E-02  0.9251872E-01
         21   -1    0    0  501  502  0.00000000000E+00  0.00000000000E+00  0.26212224641E+03  0.26212224641E+03  0.00000000000E+00 0. -1.
         -4   -1    0    0    0  501 -0.00000000000E+00 -0.00000000000E+00 -0.17450345698E+04  0.17450345698E+04  0.00000000000E+00 0. -1.
   -9000010    2    1    2    0  502 -0.12643981096E+03 -0.10754326643E+03 -0.64779399389E+03  0.11557020521E+04  0.94258028553E+03 0.  0.
        -13    1    1    2    0    0  0.12643981096E+03  0.10754326643E+03 -0.83511832949E+03  0.85145476413E+03  0.10566000000E+00 0.  1.
         13    1    3    3    0    0  0.20050107102E+03  0.34393046774E+03 -0.23759184488E+03  0.46361486391E+03  0.10566000000E+00 0. -1.
         -4    1    3    3    0  502 -0.32694088199E+03 -0.45147373417E+03 -0.41020214901E+03  0.69208718815E+03  0.00000000000E+00 0. -1.
</event>
<event>
 5    1  0.2569591E-005  0.2613223E+03  0.7818608E-02  0.1032432E+00
         21   -1    0    0  501  502  0.00000000000E+00  0.00000000000E+00  0.49601167402E+02  0.49601167402E+02  0.00000000000E+00 0. -1.
          4   -1    0    0  502    0 -0.00000000000E+00 -0.00000000000E+00 -0.10998570833E+04  0.10998570833E+04  0.00000000000E+00 0.  1.
        -13    1    1    2    0    0  0.16340124496E+03  0.62733372990E+02 -0.26607873512E+03  0.31848602385E+03  0.10566000000E+00 0.  1.
         13    1    1    2    0    0 -0.19511411888E+03 -0.64686682114E+02 -0.44355167481E+03  0.48886806566E+03  0.10566000000E+00 0. -1.
          4    1    1    2  501    0  0.31712873928E+02  0.19533091239E+01 -0.34062550597E+03  0.34210416120E+03  0.00000000000E+00 0.  1.
</event>
<event>
 6    1  0.2569591E-005  0.1064141E+04  0.7818608E-02  0.8969256E-01
         -4   -1    0    0    0  501 -0.00000000000E+00  0.00000000000E+00  0.58947083744E+03  0.58947083744E+03  0.00000000000E+00 0. -1.
         21   -1    0    0  501  502  0.00000000000E+00 -0.00000000000E+00 -0.88204379087E+03  0.88204379087E+03  0.00000000000E+00 0. -1.
   -9000010    2    1    2    0  502 -0.30014260181E+03  0.21432362866E+03 -0.28900778062E+03  0.11026882181E+04  0.99818615995E+03 0.  0.
        -13    1    1    2    0    0  0.30014260181E+03 -0.21432362866E+03 -0.35651728153E+01  0.36882641018E+03  0.10566000000E+00 0.  1.
         13    1    3    3    0    0 -0.94755986066E+02 -0.17412842729E+03 -0.55479546882E+03  0.58914975131E+03  0.10566000000E+00 0. -1.
         -4    1    3    3    0  502 -0.20538661575E+03  0.38845205595E+03  0.26578768820E+03  0.51353846681E+03  0.00000000000E+00 0. -1.
</event>
<event>
 5    1  0.2569591E-005  0.7900418E+02  0.7818608E-02  0.1240642E+00
          4   -1    0    0  502    0 -0.00000000000E+00  0.00000000000E+00  0.65553536392E+03  0.65553536392E+03  0.00000000000E+00 0.  1.
         21   -1    0    0  501  502  0.00000000000E+00 -0.00000000000E+00 -0.55210968869E+01  0.55210968869E+01  0.00000000000E+00 0.  1.
        -13    1    1    2    0    0 -0.28641128605E+02  0.34136339209E+02  0.18407196695E+03  0.18938876441E+03  0.10566000000E+00 0.  1.
         13    1    1    2    0    0  0.86783112277E+01 -0.35023338257E+02  0.12403012529E+03  0.12917209625E+03  0.10566000000E+00 0. -1.
          4    1    1    2  501    0  0.19962817377E+02  0.88699904801E+00  0.34191217479E+03  0.34249560014E+03  0.00000000000E+00 0.  1.
</event>
<event>
 5    1  0.2569591E-005  0.2389983E+03  0.7818608E-02  0.1042686E+00
         21   -1    0    0  501  502  0.00000000000E+00  0.00000000000E+00  0.14022699154E+03  0.14022699154E+03  0.00000000000E+00 0. -1.
          4   -1    0    0  502    0 -0.00000000000E+00 -0.00000000000E+00 -0.33979391446E+03  0.33979391446E+03  0.00000000000E+00 0.  1.
        -13    1    1    2    0    0  0.82195114706E+01 -0.20191238877E+03 -0.80312781863E+02  0.21745419564E+03  0.10566000000E+00 0.  1.
         13    1    1    2    0    0  0.18261305562E+02  0.19580756651E+03 -0.74675810844E+02  0.21035818566E+03  0.10566000000E+00 0. -1.
          4    1    1    2  501    0 -0.26480817033E+02  0.61048222577E+01 -0.44578330214E+02  0.52208524689E+02  0.00000000000E+00 0.  1.
</event>
<event>
 6    1  0.2569591E-005  0.1223657E+04  0.7818608E-02  0.8706774E-01
         -4   -1    0    0    0  501 -0.00000000000E+00  0.00000000000E+00  0.19664031525E+04  0.19664031525E+04  0.00000000000E+00 0. -1.
         21   -1    0    0  501  502  0.00000000000E+00 -0.00000000000E+00 -0.54700505146E+03  0.54700505146E+03  0.00000000000E+00 0.  1.
   -9000010    2    1    2    0  502  0.13234806340E+03 -0.71795828358E+03  0.12788076127E+04  0.17699394397E+04  0.98201660027E+03 0.  0.
        -13    1    1    2    0    0 -0.13234806340E+03  0.71795828358E+03  0.14059048838E+03  0.74346876426E+03  0.10566000000E+00 0.  1.
         13    1    3    3    0    0 -0.18277224094E+03 -0.59222288305E+03  0.21930691122E+03  0.65744137970E+03  0.10566000000E+00 0. -1.
         -4    1    3    3    0  502  0.31512030433E+03 -0.12573540052E+03  0.10595007015E+04  0.11124980600E+04  0.00000000000E+00 0. -1.
</event>
<event>
 6    1  0.2569591E-005  0.1081553E+04  0.7818608E-02  0.9050710E-01
         21   -1    0    0  501  502  0.00000000000E+00  0.00000000000E+00  0.19082825344E+03  0.19082825344E+03  0.00000000000E+00 0. -1.
         -4   -1    0    0    0  501 -0.00000000000E+00 -0.00000000000E+00 -0.27342333913E+04  0.27342333913E+04  0.00000000000E+00 0. -1.
   -9000010    2    1    2    0  502  0.22907364802E+03 -0.10701278068E+03 -0.14864417034E+04  0.18382782328E+04  0.10515852092E+04 0.  0.
        -13    1    1    2    0    0 -0.22907364802E+03  0.10701278068E+03 -0.10569634345E+04  0.10867834119E+04  0.10566000000E+00 0.  1.
         13    1    3    3    0    0 -0.30455284854E+03  0.28346180586E+03 -0.49598238257E+03  0.64738054336E+03  0.10566000000E+00 0. -1.
         -4    1    3    3    0  502  0.53362649656E+03 -0.39047458653E+03 -0.99045932078E+03  0.11908976894E+04  0.00000000000E+00 0. -1.
</event>
<event>
 5    1  0.2569591E-005  0.7718854E+02  0.7818608E-02  0.1262232E+00
         21   -1    0    0  501  502  0.00000000000E+00  0.00000000000E+00  0.12637435038E+02  0.12637435038E+02  0.00000000000E+00 0. -1.
          4   -1    0    0  502    0 -0.00000000000E+00 -0.00000000000E+00 -0.23712287924E+03  0.23712287924E+03  0.00000000000E+00 0.  1.
        -13    1    1    2    0    0  0.38686354599E+02 -0.17197098144E+02 -0.11347261441E+03  0.12111325114E+03  0.10566000000E+00 0.  1.
         13    1    1    2    0    0 -0.45616253956E+01  0.24192767480E+02 -0.21834612205E+02  0.32906836353E+02  0.10566000000E+00 0. -1.
          4    1    1    2  501    0 -0.34124729204E+02 -0.69956693363E+01 -0.89178217585E+02  0.95740226782E+02  0.00000000000E+00 0.  1.
</event>
<event>
 5    1  0.2569591E-005  0.1869863E+03  0.7818608E-02  0.1070235E+00
         -4   -1    0    0    0  501 -0.00000000000E+00  0.00000000000E+00  0.11001296494E+04  0.11001296494E+04  0.00000000000E+00 0. -1.
         21   -1    0    0  501  502  0.00000000000E+00 -0.00000000000E+00 -0.31110575132E+02  0.31110575132E+02  0.00000000000E+00 0.  1.
        -13    1    1    2    0    0 -0.18224331987E+03  0.14198255379E+02  0.50888078226E+03  0.54071608059E+03  0.10566000000E+00 0.  1.
         13    1    1    2    0    0  0.16327825584E+03 -0.14654520251E+00  0.49571761866E+03  0.52191549021E+03  0.10566000000E+00 0. -1.
         -4    1    1    2    0  502  0.18965064023E+02 -0.14051710177E+02  0.64420673322E+02  0.68608653708E+02  0.00000000000E+00 0. -1.
</event>
<event>
 5    1  0.2569591E-005  0.1308810E+03  0.7818608E-02  0.1128065E+00
         21   -1    0    0  501  502  0.00000000000E+00  0.00000000000E+00  0.94516162115E+02  0.94516162115E+02  0.00000000000E+00 0. -1.
          4   -1    0    0  502    0 -0.00000000000E+00 -0.00000000000E+00 -0.15689492131E+03  0.15689492131E+03  0.00000000000E+00 0.  1.
        -13    1    1    2    0    0  0.46994032940E+02 -0.89769634032E+02 -0.54274130986E+02  0.11494659101E+03  0.10566000000E+00 0.  1.
         13    1    1    2    0    0 -0.70778511657E+02  0.85340726303E+02 -0.13457858771E+02  0.11168599915E+03  0.10566000000E+00 0. -1.
          4    1    1    2  501    0  0.23784478717E+02  0.44289077282E+01  0.53532305597E+01  0.24778493274E+02  0.00000000000E+00 0.  1.
</event>
<event>
 5    1  0.2569591E-005  0.3660114E+03  0.7818608E-02  0.9850189E-01
         21   -1    0    0  501  502  0.00000000000E+00  0.00000000000E+00  0.88739477015E+03  0.88739477015E+03  0.00000000000E+00 0.  1.
         -4   -1    0    0    0  501 -0.00000000000E+00 -0.00000000000E+00 -0.28245477313E+03  0.28245477313E+03  0.00000000000E+00 0. -1.
        -13    1    1    2    0    0 -0.10272232176E+03 -0.32930971788E+03  0.70973919966E+03  0.78913022270E+03  0.10566000000E+00 0.  1.
         13    1    1    2    0    0 -0.10588674518E+02  0.10180627601E+03 -0.70430880671E+02  0.12424636002E+03  0.10566000000E+00 0. -1.
         -4    1    1    2    0  502  0.11331099627E+03  0.22750344187E+03 -0.34368321968E+02  0.25647296055E+03  0.00000000000E+00 0. -1.
</event>
<event>
 6    1  0.2569591E-005  0.1253778E+04  0.7818608E-02  0.8678766E-01
         21   -1    0    0  501  502  0.00000000000E+00  0.00000000000E+00  0.88008874628E+03  0.88008874628E+03  0.00000000000E+00 0.  1.
         -4   -1    0    0    0  501 -0.00000000000E+00 -0.00000000000E+00 -0.11722591672E+04  0.11722591672E+04  0.00000000000E+00 0. -1.
   -9000010    2    1    2    0  502 -0.67473464769E+03  0.36336037053E+03 -0.28593124166E+03  0.12859690631E+04  0.99230144248E+03 0.  0.
        -13    1    1    2    0    0  0.67473464769E+03 -0.36336037053E+03 -0.62391792361E+01  0.76637885030E+03  0.10566000000E+00 0.  1.
         13    1    3    3    0    0 -0.37973948508E+03  0.33736697883E+03  0.32778910653E+03  0.60453640458E+03  0.10566000000E+00 0. -1.
         -4    1    3    3    0  502 -0.29499516261E+03  0.25993391701E+02 -0.61372034819E+03  0.68143265857E+03  0.00000000000E+00 0. -1.
</event>
<event>
 6    1  0.2569591E-005  0.1076574E+04  0.7818608E-02  0.8960516E-01
         21   -1    0    0  501  502  0.00000000000E+00  0.00000000000E+00  0.80310238248E+03  0.80310238248E+03  0.00000000000E+00 0.  1.
         -4   -1    0    0    0  501 -0.00000000000E+00 -0.00000000000E+00 -0.66873601408E+03  0.66873601408E+03  0.00000000000E+00 0. -1.
   -9000010    2    1    2    0  502 -0.14525583383E+03  0.33932206723E+03 -0.69751890768E+01  0.10765964838E+04  0.10113222103E+04 0.  0.
        -13    1    1    2    0    0  0.14525583383E+03 -0.33932206723E+03  0.14134155747E+03  0.39524191276E+03  0.10566000000E+00 0.  1.
         13    1    3    3    0    0 -0.36124043600E+03 -0.19822497223E+03  0.20434808182E+03  0.45994123747E+03  0.10566000000E+00 0. -1.
         -4    1    3    3    0  502  0.21598460217E+03  0.53754703946E+03 -0.21132327090E+03  0.61665524633E+03  0.00000000000E+00 0. -1.
</event>
<event>
 6    1  0.2569591E-005  0.1265027E+04  0.7818608E-02  0.8670167E-01
         21   -1    0    0  501  502  0.00000000000E+00  0.00000000000E+00  0.10648562141E+04  0.10648562141E+04  0.00000000000E+00 0. -1.
         -4   -1    0    0    0  501 -0.00000000000E+00 -0.00000000000E+00 -0.16628509433E+04  0.16628509433E+04  0.00000000000E+00 0. -1.
   -9000010    2    1    2    0  502 -0.52076265643E+03  0.57338225133E+03  0.51989494935E+03  0.13676930784E+04  0.10001663101E+04 0.  0.
        -13    1    1    2    0    0  0.52076265643E+03 -0.57338225133E+03 -0.11178896786E+04  0.13600140790E+04  0.10566000000E+00 0.  1.
         13    1    3    3    0    0  0.17896934551E+03 -0.99574280279E+02  0.31461794124E+03  0.37540581248E+03  0.10566000000E+00 0. -1.
         -4    1    3    3    0  502 -0.69973200195E+03  0.67295653161E+03  0.20527700810E+03  0.99228726589E+03  0.00000000000E+00 0. -1.
</event>
<event>
 6    1  0.2569591E-005  0.1023588E+04  0.7818608E-02  0.9213820E-01
         -4   -1    0    0    0  501 -0.00000000000E+00  0.00000000000E+00  0.21673953104E+04  0.21673953104E+04  0.00000000000E+00 0. -1.
         21   -1    0    0  501  502  0.00000000000E+00 -0.00000000000E+00 -0.16485788702E+03  0.16485788702E+03  0.00000000000E+00 0. -1.
   -9000010    2    1    2    0  502  0.15232096490E+03  0.38373942234E+02  0.18441895939E+04  0.21092099683E+04  0.10114628991E+04 0.  0.
        -13    1    1    2    0    0 -0.15232096490E+03 -0.38373942234E+02  0.15834782947E+03  0.22304322911E+03  0.10566000000E+00 0.  1.
         13    1    3    3    0    0  0.57493997141E+03  0.48400915448E+02  0.83393075281E+03  0.10140705750E+04  0.10566000000E+00 0. -1.
         -4    1    3    3    0  502 -0.42261900651E+03 -0.10026973214E+02  0.10102588411E+04  0.10951393934E+04  0.00000000000E+00 0. -1.
</event>
<event>
 5    1  0.2569591E-005  0.6200151E+02  0.7818608E-02  0.1257817E+00
         -4   -1    0    0    0  501 -0.00000000000E+00  0.00000000000E+00  0.23679353730E+03  0.23679353730E+03  0.00000000000E+00 0. -1.
         21   -1    0    0  501  502  0.00000000000E+00 -0.00000000000E+00 -0.14098242374E+02  0.14098242374E+02  0.00000000000E+00 0.  1.
        -13    1    1    2    0    0 -0.44082005807E+02 -0.27655137265E+02  0.12205802517E+03  0.13268836621E+03  0.10566000000E+00 0.  1.
         13    1    1    2    0    0  0.35573792865E+02  0.76223441279E+01  0.81381111839E+02  0.89143095060E+02  0.10566000000E+00 0. -1.
         -4    1    1    2    0  502  0.85082129425E+01  0.20032793137E+02  0.19256157916E+02  0.29060318409E+02  0.00000000000E+00 0. -1.
</event>
<event>
 6    1  0.2569591E-005  0.1525310E+04  0.7818608E-02  0.8455855E-01
         -4   -1    0    0    0  501 -0.00000000000E+00  0.00000000000E+00  0.24150170267E+04  0.24150170267E+04  0.00000000000E+00 0. -1.
         21   -1    0    0  501  502  0.00000000000E+00 -0.00000000000E+00 -0.86268657432E+03  0.86268657432E+03  0.00000000000E+00 0.  1.
   -9000010    2    1    2    0  502  0.52337966951E+03  0.10264390478E+04  0.14767483078E+04  0.21230538407E+04  0.99953421584E+03 0.  0.
        -13    1    1    2    0    0 -0.52337966951E+03 -0.10264390478E+04  0.75582144524E+02  0.11546497603E+04  0.10566000000E+00 0.  1.
         13    1    3    3    0    0 -0.26529807100E+03  0.51186824694E+03  0.66159712561E+03  0.87755509029E+03  0.10566000000E+00 0. -1.
         -4    1    3    3    0  502  0.78867774051E+03  0.51457080081E+03  0.81515118222E+03  0.12454987504E+04  0.00000000000E+00 0. -1.
</event>
<event>
 6    1  0.2569591E-005  0.1069249E+04  0.7818608E-02  0.9043262E-01
         21   -1    0    0  501  502  0.00000000000E+00  0.00000000000E+00  0.24827914855E+03  0.24827914855E+03  0.00000000000E+00 0.  1.
          4   -1    0    0  502    0 -0.00000000000E+00 -0.00000000000E+00 -0.20679696983E+04  0.20679696983E+04  0.00000000000E+00 0.  1.
    9000010    2    1    2  501    0  0.15718026288E+03  0.21902253305E+03 -0.17269261809E+04  0.20311493128E+04  0.10347062345E+04 0.  0.
        -13    1    3    3    0    0  0.38886138309E+03  0.32110615141E+03 -0.31039607118E+03  0.59217232956E+03  0.10566000000E+00 0.  1.
         13    1    1    2    0    0 -0.15718026288E+03 -0.21902253305E+03 -0.92764368865E+02  0.28509953405E+03  0.10566000000E+00 0. -1.
          4    1    3    3  501    0 -0.23168112021E+03 -0.10208361836E+03 -0.14165301097E+04  0.14389769833E+04  0.00000000000E+00 0.  1.
</event>
<event>
 5    1  0.2569591E-005  0.1134613E+03  0.7818608E-02  0.1167015E+00
         -4   -1    0    0    0  501 -0.00000000000E+00  0.00000000000E+00  0.32601584168E+02  0.32601584168E+02  0.00000000000E+00 0. -1.
         21   -1    0    0  501  502  0.00000000000E+00 -0.00000000000E+00 -0.43686175821E+03  0.43686175821E+03  0.00000000000E+00 0.  1.
        -13    1    1    2    0    0  0.27686426007E+02  0.58276957029E+02 -0.32430405105E+03  0.33065975049E+03  0.10566000000E+00 0.  1.
         13    1    1    2    0    0 -0.25266002873E+02 -0.82926145514E+02 -0.72291909496E+02  0.11287713610E+03  0.10566000000E+00 0. -1.
         -4    1    1    2    0  502 -0.24204231342E+01  0.24649188486E+02 -0.76642134979E+01  0.25926455787E+02  0.00000000000E+00 0. -1.
</event>
<event>
 6    1  0.2569591E-005  0.1025276E+04  0.7818608E-02  0.9315942E-01
         21   -1    0    0  501  502  0.00000000000E+00  0.00000000000E+00  0.84145330516E+03  0.84145330516E+03  0.00000000000E+00 0. -1.
         -4   -1    0    0    0  501 -0.00000000000E+00 -0.00000000000E+00 -0.89660972515E+03  0.89660972515E+03  0.00000000000E+00 0. -1.
   -9000010    2    1    2    0  502 -0.90093669666E+02  0.55510815019E+02  0.52253903020E+03  0.11507553050E+04  0.10198001834E+04 0.  0.
        -13    1    1    2    0    0  0.90093669666E+02 -0.55510815019E+02 -0.57769545019E+03  0.58730772533E+03  0.10566000000E+00 0.  1.
         13    1    3    3    0    0  0.59005264142E+02 -0.20813198296E+03  0.74447123952E+03  0.77526639367E+03  0.10566000000E+00 0. -1.
         -4    1    3    3    0  502 -0.14909893381E+03  0.26364279798E+03 -0.22193220932E+03  0.37548891132E+03  0.00000000000E+00 0. -1.
</event>
<event>
 6    1  0.2569591E-005  0.1053067E+04  0.7818608E-02  0.9025995E-01
         21   -1    0    0  501  502  0.00000000000E+00  0.00000000000E+00  0.53376543296E+03  0.53376543296E+03  0.00000000000E+00 0. -1.
         -4   -1    0    0    0  501 -0.00000000000E+00 -0.00000000000E+00 -0.97271964318E+03  0.97271964318E+03  0.00000000000E+00 0. -1.
   -9000010    2    1    2    0  502 -0.17124864929E+03  0.24931100355E+03 -0.10870779287E+03  0.10586628082E+04  0.10086959308E+04 0.  0.
        -13    1    1    2    0    0  0.17124864929E+03 -0.24931100355E+03 -0.33024641734E+03  0.44782226799E+03  0.10566000000E+00 0.  1.
         13    1    3    3    0    0 -0.45292616022E+03  0.88554205602E+02  0.28973283295E+03  0.54491199252E+03  0.10566000000E+00 0. -1.
         -4    1    3    3    0  502  0.28167751094E+03  0.16075679795E+03 -0.39844062582E+03  0.51375081563E+03  0.00000000000E+00 0. -1.
</event>
<event>
 6    1  0.2569591E-005  0.1036736E+04  0.7818608E-02  0.8949461E-01
         21   -1    0    0  501  502  0.00000000000E+00  0.00000000000E+00  0.13023662195E+04  0.13023662195E+04  0.00000000000E+00 0.  1.
          4   -1    0    0  502    0 -0.00000000000E+00 -0.00000000000E+00 -0.58989204028E+03  0.58989204028E+03  0.00000000000E+00 0.  1.
    9000010    2    1    2  501    0  0.37181995852E+03  0.22076497671E+03  0.94367796145E+03  0.14019089388E+04  0.94224907596E+03 0.  0.
        -13    1    3    3    0    0 -0.43235459885E+02 -0.13791752951E+03  0.82897348216E+03  0.84147940867E+03  0.10566000000E+00 0.  1.
         13    1    1    2    0    0 -0.37181995852E+03 -0.22076497671E+03 -0.23120378227E+03  0.49034932099E+03  0.10566000000E+00 0. -1.
          4    1    3    3  501    0  0.41505541841E+03  0.35868250622E+03  0.11470447929E+03  0.56042953008E+03  0.00000000000E+00 0.  1.
</event>
<event>
 6    1  0.2569591E-005  0.1140643E+04  0.7818608E-02  0.8821477E-01
         21   -1    0    0  501  502  0.00000000000E+00  0.00000000000E+00  0.87118882200E+03  0.87118882200E+03  0.00000000000E+00 0.  1.
         -4   -1    0    0    0  501 -0.00000000000E+00 -0.00000000000E+00 -0.83788953473E+03  0.83788953473E+03  0.00000000000E+00 0. -1.
   -9000010    2    1    2    0  502 -0.55246275601E+03 -0.32854881323E+01 -0.85971325298E+02  0.11438780547E+04  0.99791785438E+03 0.  0.
        -13    1    1    2    0    0  0.55246275601E+03  0.32854881323E+01  0.11927061256E+03  0.56520030201E+03  0.10566000000E+00 0.  1.
         13    1    3    3    0    0 -0.27986635517E+03  0.38526899615E+03  0.27289333981E+03  0.54884256598E+03  0.10566000000E+00 0. -1.
         -4    1    3    3    0  502 -0.27259640083E+03 -0.38855448428E+03 -0.35886466511E+03  0.59503548874E+03  0.00000000000E+00 0. -1.
</event>
<event>
 5    1  0.2569591E-005  0.3101802E+03  0.7818608E-02  0.1013142E+00
          4   -1    0    0  502    0 -0.00000000000E+00  0.00000000000E+00  0.14560882153E+04  0.14560882153E+04  0.00000000000E+00 0.  1.
         21   -1    0    0  501  502  0.00000000000E+00 -0.00000000000E+00 -0.57237348963E+02  0.57237348963E+02  0.00000000000E+00 0. -1.
        -13    1    1    2    0    0  0.87348539268E+02  0.87874911728E+02  0.25427362287E+03  0.28285482827E+03  0.10566000000E+00 0.  1.
         13    1    1    2    0    0 -0.67613973864E+01 -0.22491692907E+03  0.32299755614E+03  0.39365057337E+03  0.10566000000E+00 0. -1.
          4    1    1    2  501    0 -0.80587141882E+02  0.13704201734E+03  0.82157968735E+03  0.83682016265E+03  0.00000000000E+00 0.  1.
</event>
<event>
 6    1  0.2569591E-005  0.1039192E+04  0.7818608E-02  0.9011429E-01
          4   -1    0    0  502    0 -0.00000000000E+00  0.00000000000E+00  0.48132598156E+03  0.48132598156E+03  0.00000000000E+00 0.  1.
         21   -1    0    0  501  502  0.00000000000E+00 -0.00000000000E+00 -0.11298585242E+04  0.11298585242E+04  0.00000000000E+00 0.  1.
    9000010    2    1    2  501    0 -0.25421884892E+03  0.21626268417E+03 -0.72709547420E+03  0.12683012646E+04  0.98413591410E+03 0.  0.
        -13    1    3    3    0    0  0.36138457613E+03  0.22001313617E+03 -0.31532088273E+03  0.52766643081E+03  0.10566000000E+00 0.  1.
         13    1    1    2    0    0  0.25421884892E+03 -0.21626268417E+03  0.78562931553E+02  0.34288324119E+03  0.10566000000E+00 0. -1.
          4    1    3    3  501    0 -0.61560342505E+03 -0.37504519972E+01 -0.41177459147E+03  0.74063483378E+03  0.00000000000E+00 0.  1.
</event>
<event>
 6    1  0.2569591E-005  0.1046543E+04  0.7818608E-02  0.9142121E-01
         21   -1    0    0  501  502  0.00000000000E+00  0.00000000000E+00  0.18092498911E+03  0.18092498911E+03  0.00000000000E+00 0. -1.
         -4   -1    0    0    0  501 -0.00000000000E+00 -0.00000000000E+00 -0.21698346807E+04  0.21698346807E+04  0.00000000000E+00 0. -1.
   -9000010    2    1    2    0  502  0.18020018163E+03  0.72625033155E+02 -0.15437612649E+04  0.18650605511E+04  0.10283508718E+04 0.  0.
        -13    1    1    2    0    0 -0.18020018163E+03 -0.72625033155E+02 -0.44514842673E+03  0.48569911868E+03  0.10566000000E+00 0.  1.
         13    1    3    3    0    0 -0.18190934276E+03  0.32142827724E+03 -0.14137957289E+03  0.39546850847E+03  0.10566000000E+00 0. -1.
         -4    1    3    3    0  502  0.36210952439E+03 -0.24880324408E+03 -0.14023816920E+04  0.14695920427E+04  0.00000000000E+00 0. -1.
</event>
<event>
 6    1  0.2569591E-005  0.1062561E+04  0.7818608E-02  0.8962091E-01
         -4   -1    0    0    0  501 -0.00000000000E+00  0.00000000000E+00  0.59208668898E+03  0.59208668898E+03  0.00000000000E+00 0. -1.
         21   -1    0    0  501  502  0.00000000000E+00 -0.00000000000E+00 -0.97806085749E+03  0.97806085749E+03  0.00000000000E+00 0. -1.
   -9000010    2    1    2    0  502  0.14161342884E+03  0.35417876075E+03 -0.49675455658E+03  0.11729457548E+04  0.99173569884E+03 0.  0.
        -13    1    1    2    0    0 -0.14161342884E+03 -0.35417876075E+03  0.11078038806E+03  0.39720179171E+03  0.10566000000E+00 0.  1.
         13    1    3    3    0    0 -0.20417965746E+03  0.46826349780E+03 -0.60618634571E+03  0.79273068111E+03  0.10566000000E+00 0. -1.
         -4    1    3    3    0  502  0.34579308630E+03 -0.11408473705E+03  0.10943178914E+03  0.38021507365E+03  0.00000000000E+00 0. -1.
</event>
<event>
 6    1  0.2569591E-005  0.9221699E+03  0.7818608E-02  0.9090745E-01
         -4   -1    0    0    0  501 -0.00000000000E+00  0.00000000000E+00  0.39856274098E+03  0.39856274098E+03  0.00000000000E+00 0. -1.
         21   -1    0    0  501  502  0.00000000000E+00 -0.00000000000E+00 -0.10245964195E+04  0.10245964195E+04  0.00000000000E+00 0. -1.
   -9000010    2    1    2    0  502 -0.18277484954E+03 -0.29586804888E+03 -0.38121715559E+03  0.99785963189E+03  0.85408007662E+03 0.  0.
        -13    1    1    2    0    0  0.18277484954E+03  0.29586804888E+03 -0.24481652296E+03  0.42529952863E+03  0.10566000000E+00 0.  1.
         13    1    3    3    0    0  0.25614735601E+03  0.31176734651E+02 -0.36910588905E+03  0.45035832986E+03  0.10566000000E+00 0. -1.
         -4    1    3    3    0  502 -0.43892220554E+03 -0.32704478353E+03 -0.12111266539E+02  0.54750130204E+03  0.00000000000E+00 0. -1.
</event>
<event>
 6    1  0.2569591E-005  0.1010445E+04  0.7818608E-02  0.9442193E-01
         21   -1    0    0  501  502  0.00000000000E+00  0.00000000000E+00  0.72938192814E+03  0.72938192814E+03  0.00000000000E+00 0.  1.
          4   -1    0    0  502    0 -0.00000000000E+00 -0.00000000000E+00 -0.69460850617E+03  0.69460850617E+03  0.00000000000E+00 0.  1.
    9000010    2    1    2  501    0 -0.50027424676E+02 -0.47618102645E+02  0.37427526788E+03  0.10775344610E+04  0.10080815004E+04 0.  0.
        -13    1    3    3    0    0  0.15152715341E+03 -0.49113250546E+03  0.26497602248E+03  0.57825938799E+03  0.10566000000E+00 0.  1.
         13    1    1    2    0    0  0.50027424676E+02  0.47618102645E+02 -0.33950184592E+03  0.34645597334E+03  0.10566000000E+00 0. -1.
          4    1    3    3  501    0 -0.20155457809E+03  0.44351440282E+03  0.10929924540E+03  0.49927507298E+03  0.00000000000E+00 0.  1.
</event>
<event>
 6    1  0.2569591E-005  0.1135833E+04  0.7818608E-02  0.8833633E-01
         21   -1    0    0  501  502  0.00000000000E+00  0.00000000000E+00  0.73470814778E+03  0.73470814778E+03  0.00000000000E+00 0. -1.
         -4   -1    0    0    0  501 -0.00000000000E+00 -0.00000000000E+00 -0.10356359531E+04  0.10356359531E+04  0.00000000000E+00 0. -1.
   -9000010    2    1    2    0  502  0.33539768975E+02 -0.53056374749E+03  0.43899090566E+02  0.11366814102E+04  0.10037403509E+04 0.  0.
        -13    1    1    2    0    0 -0.33539768975E+02  0.53056374749E+03 -0.34482689589E+03  0.63366269067E+03  0.10566000000E+00 0.  1.
         13    1    3    3    0    0 -0.10248776606E+03 -0.41464818480E+02  0.46446486910E+03  0.47744182804E+03  0.10566000000E+00 0. -1.
         -4    1    3    3    0  502  0.13602753504E+03 -0.48909892901E+03 -0.42056577854E+03  0.65923958219E+03  0.00000000000E+00 0. -1.
</event>
<event>
 5    1  0.2569591E-005  0.7572859E+03  0.7818608E-02  0.9269788E-01
         21   -1    0    0  501  502  0.00000000000E+00  0.00000000000E+00  0.91670148410E+03  0.91670148410E+03  0.00000000000E+00 0. -1.
          4   -1    0    0  502    0 -0.00000000000E+00 -0.00000000000E+00 -0.39790351466E+03  0.39790351466E+03  0.00000000000E+00 0.  1.
        -13    1    1    2    0    0  0.11781036397E+03 -0.24219506138E+03  0.73244609823E+03  0.78039414887E+03  0.10566000000E+00 0.  1.
         13    1    1    2    0    0 -0.26990548142E+03  0.15829741567E+03 -0.10857513197E+03  0.33120327769E+03  0.10566000000E+00 0. -1.
          4    1    1    2  501    0  0.15209511745E+03  0.83897645709E+02 -0.10507299683E+03  0.20300757220E+03  0.00000000000E+00 0.  1.
</event>
<event>
 6    1  0.2569591E-005  0.1278665E+04  0.7818608E-02  0.8669987E-01
         21   -1    0    0  501  502  0.00000000000E+00  0.00000000000E+00  0.94980124552E+03  0.94980124552E+03  0.00000000000E+00 0. -1.
          4   -1    0    0  502    0 -0.00000000000E+00 -0.00000000000E+00 -0.12237464037E+04  0.12237464037E+04  0.00000000000E+00 0.  1.
    9000010    2    1    2  501    0 -0.40571894381E+03 -0.63154657276E+03 -0.52469926691E+03  0.13821333651E+04  0.10351446194E+04 0.  0.
        -13    1    3    3    0    0  0.19717780962E+03  0.15470650050E+03 -0.24992052995E+03  0.35393992761E+03  0.10566000000E+00 0.  1.
         13    1    1    2    0    0  0.40571894381E+03  0.63154657276E+03  0.25075410876E+03  0.79141428414E+03  0.10566000000E+00 0. -1.
          4    1    3    3  501    0 -0.60289675343E+03 -0.78625307326E+03 -0.27477873696E+03  0.10281934374E+04  0.00000000000E+00 0.  1.
</event>
<event>
 6    1  0.2569591E-005  0.1027329E+04  0.7818608E-02  0.9060040E-01
         21   -1    0    0  501  502  0.00000000000E+00  0.00000000000E+00  0.32928197025E+03  0.32928197025E+03  0.00000000000E+00 0.  1.
          4   -1    0    0  502    0 -0.00000000000E+00 -0.00000000000E+00 -0.13363516135E+04  0.13363516135E+04  0.00000000000E+00 0.  1.
    9000010    2    1    2  501    0  0.43494212182E+02  0.28087755863E+03 -0.88631764098E+03  0.13568213323E+04  0.98722906039E+03 0.  0.
        -13    1    3    3    0    0  0.87283277157E+01 -0.62248688303E+02  0.20389188780E+03  0.21336118666E+03  0.10566000000E+00 0.  1.
         13    1    1    2    0    0 -0.43494212182E+02 -0.28087755863E+03 -0.12075200232E+03  0.30881225148E+03  0.10566000000E+00 0. -1.
          4    1    3    3  501    0  0.34765884466E+02  0.34312624693E+03 -0.10902095288E+04  0.11434601457E+04  0.00000000000E+00 0.  1.
</event>
<event>
 5    1  0.2569591E-005  0.1406314E+03  0.7818608E-02  0.1117883E+00
         21   -1    0    0  501  502  0.00000000000E+00  0.00000000000E+00  0.59502399209E+02  0.59502399209E+02  0.00000000000E+00 0. -1.
          4   -1    0    0  502    0 -0.00000000000E+00 -0.00000000000E+00 -0.29319629188E+03  0.29319629188E+03  0.00000000000E+00 0.  1.
        -13    1    1    2    0    0  0.89486917805E+02 -0.27067584896E+01 -0.64321559152E+02  0.11023841951E+03  0.10566000000E+00 0.  1.
         13    1    1    2    0    0 -0.11490767228E+03 -0.18944272897E+02 -0.66069710823E+02  0.13389502035E+03  0.10566000000E+00 0. -1.
          4    1    1    2  501    0  0.25420754471E+02  0.21651031387E+02 -0.10330262270E+03  0.10856525123E+03  0.00000000000E+00 0.  1.
</event>
<event>
 6    1  0.2569591E-005  0.1033944E+04  0.7818608E-02  0.9129583E-01
          4   -1    0    0  502    0 -0.00000000000E+00  0.00000000000E+00  0.87949851247E+03  0.87949851247E+03  0.00000000000E+00 0.  1.
         21   -1    0    0  501  502  0.00000000000E+00 -0.00000000000E+00 -0.44172676008E+03  0.44172676008E+03  0.00000000000E+00 0. -1.
    9000010    2    1    2  501    0  0.16327337000E+03  0.13466868523E+03  0.38305974001E+03  0.11026222909E+04  0.10120510381E+04 0.  0.
        -13    1    3    3    0    0  0.27688191252E+03  0.46936313815E+03 -0.45817366653E+02  0.54686798332E+03  0.10566000000E+00 0.  1.
         13    1    1    2    0    0 -0.16327337000E+03 -0.13466868523E+03  0.54712012370E+02  0.21860298167E+03  0.10566000000E+00 0. -1.
          4    1    3    3  501    0 -0.11360854252E+03 -0.33469445292E+03  0.42887710667E+03  0.55575430756E+03  0.00000000000E+00 0.  1.
</event>
<event>
 6    1  0.2569591E-005  0.1125415E+04  0.7818608E-02  0.8848355E-01
          4   -1    0    0  502    0 -0.00000000000E+00  0.00000000000E+00  0.32889809070E+04  0.32889809070E+04  0.00000000000E+00 0.  1.
         21   -1    0    0  501  502  0.00000000000E+00 -0.00000000000E+00 -0.23618375338E+03  0.23618375338E+03  0.00000000000E+00 0. -1.
    9000010    2    1    2  501    0 -0.28708720013E+03  0.42610292419E+03  0.26268233759E+04  0.28577544170E+04  0.10012874199E+04 0.  0.
        -13    1    3    3    0    0  0.19685755489E+03  0.41995198215E+03  0.52322295671E+03  0.69919585083E+03  0.10566000000E+00 0.  1.
         13    1    1    2    0    0  0.28708720013E+03 -0.42610292419E+03  0.42597377771E+03  0.66741024336E+03  0.10566000000E+00 0. -1.
          4    1    3    3  501    0 -0.48394475502E+03  0.61509420429E+01  0.21036004192E+04  0.21585585662E+04  0.00000000000E+00 0.  1.
</event>
<event>
 5    1  0.2569591E-005  0.1219142E+03  0.7818608E-02  0.1164917E+00
         21   -1    0    0  501  502  0.00000000000E+00  0.00000000000E+00  0.36180636336E+02  0.36180636336E+02  0.00000000000E+00 0.  1.
          4   -1    0    0  502    0 -0.00000000000E+00 -0.00000000000E+00 -0.25535364205E+03  0.25535364205E+03  0.00000000000E+00 0.  1.
        -13    1    1    2    0    0  0.88048600491E+01  0.32360097780E+02 -0.62716418071E+02  0.71120051663E+02  0.10566000000E+00 0.  1.
         13    1    1    2    0    0  0.69905769874E+01  0.54258905903E+02 -0.20469290857E+02  0.58411472063E+02  0.10566000000E+00 0. -1.
          4    1    1    2  501    0 -0.15795437036E+02 -0.86619003683E+02 -0.13598729679E+03  0.16200275466E+03  0.00000000000E+00 0.  1.
</event>
<event>
 6    1  0.2569591E-005  0.1144158E+04  0.7818608E-02  0.8821104E-01
         -4   -1    0    0    0  501 -0.00000000000E+00  0.00000000000E+00  0.17597741596E+04  0.17597741596E+04  0.00000000000E+00 0. -1.
         21   -1    0    0  501  502  0.00000000000E+00 -0.00000000000E+00 -0.43592377878E+03  0.43592377878E+03  0.00000000000E+00 0. -1.
   -9000010    2    1    2    0  502  0.32435759772E+03  0.44201623328E+03  0.61313301981E+03  0.12980870093E+04  0.10042467734E+04 0.  0.
        -13    1    1    2    0    0 -0.32435759772E+03 -0.44201623328E+03  0.71071736105E+03  0.89761092915E+03  0.10566000000E+00 0.  1.
         13    1    3    3    0    0 -0.15346895454E+03  0.49651314326E+03  0.10778485383E+01  0.51969144149E+03  0.10566000000E+00 0. -1.
         -4    1    3    3    0  502  0.47782655226E+03 -0.54496909984E+02  0.61205517127E+03  0.77839556776E+03  0.00000000000E+00 0. -1.
</event>
<event>
 6    1  0.2569591E-005  0.1058592E+04  0.7818608E-02  0.9007533E-01
         -4   -1    0    0    0  501 -0.00000000000E+00  0.00000000000E+00  0.12500223849E+04  0.12500223849E+04  0.00000000000E+00 0. -1.
         21   -1    0    0  501  502  0.00000000000E+00 -0.00000000000E+00 -0.43277952378E+03  0.43277952378E+03  0.00000000000E+00 0. -1.
   -9000010    2    1    2    0  502  0.82955943550E+02  0.30983863645E+03  0.34783764349E+03  0.11142749184E+04  0.10088289737E+04 0.  0.
        -13    1    1    2    0    0 -0.82955943550E+02 -0.30983863645E+03  0.46940521762E+03  0.56852699030E+03  0.10566000000E+00 0.  1.
         13    1    3    3    0    0 -0.38537031267E+03  0.27726808269E+03 -0.77206917624E+02  0.48098730426E+03  0.10566000000E+00 0. -1.
         -4    1    3    3    0  502  0.46832625623E+03  0.32570553765E+02  0.42504456111E+03  0.63328761410E+03  0.00000000000E+00 0. -1.
</event>
<event>
 6    1  0.2569591E-005  0.1210344E+04  0.7818608E-02  0.8796348E-01
         21   -1    0    0  501  502  0.00000000000E+00  0.00000000000E+00  0.48358296196E+03  0.48358296196E+03  0.00000000000E+00 0.  1.
         -4   -1    0    0    0  501 -0.00000000000E+00 -0.00000000000E+00 -0.15421268055E+04  0.15421268055E+04  0.00000000000E+00 0. -1.
   -9000010    2    1    2    0  502 -0.13848655405E+03 -0.49521535546E+03 -0.79286335391E+03  0.14469154105E+04  0.10956802148E+04 0.  0.
        -13    1    1    2    0    0  0.13848655405E+03  0.49521535546E+03 -0.26568048965E+03  0.57879435699E+03  0.10566000000E+00 0.  1.
         13    1    3    3    0    0 -0.50476293526E+03 -0.62779753647E+03 -0.42344331552E+03  0.91006572303E+03  0.10566000000E+00 0. -1.
         -4    1    3    3    0  502  0.36627638121E+03  0.13258218100E+03 -0.36942003839E+03  0.53684968745E+03  0.00000000000E+00 0. -1.
</event>
<event>
 6    1  0.2569591E-005  0.1199873E+04  0.7818608E-02  0.8744209E-01
         21   -1    0    0  501  502  0.00000000000E+00  0.00000000000E+00  0.12115384832E+04  0.12115384832E+04  0.00000000000E+00 0.  1.
         -4   -1    0    0    0  501 -0.00000000000E+00 -0.00000000000E+00 -0.11045485836E+04  0.11045485836E+04  0.00000000000E+00 0. -1.
   -9000010    2    1    2    0  502 -0.37646446166E+03 -0.54101689790E+03 -0.60675668078E+03  0.13445630235E+04  0.10026321757E+04 0.  0.
        -13    1    1    2    0    0  0.37646446166E+03  0.54101689790E+03  0.71374658033E+03  0.97152404335E+03  0.10566000000E+00 0.  1.
         13    1    3    3    0    0 -0.57246051638E+02 -0.68713429469E+03 -0.56466993978E+02  0.69182308572E+03  0.10566000000E+00 0. -1.
         -4    1    3    3    0  502 -0.31921841002E+03  0.14611739679E+03 -0.55028968681E+03  0.65273993776E+03  0.00000000000E+00 0. -1.
</event>
<event>
 5    1  0.2569591E-005  0.5516497E+03  0.7818608E-02  0.9400187E-01
         21   -1    0    0  501  502  0.00000000000E+00  0.00000000000E+00  0.12982550872E+04  0.12982550872E+04  0.00000000000E+00 0. -1.
          4   -1    0    0  502    0 -0.00000000000E+00 -0.00000000000E+00 -0.27162150787E+03  0.27162150787E+03  0.00000000000E+00 0.  1.
        -13    1    1    2    0    0  0.24396498980E+03 -0.43174359687E+03  0.11030900910E+03  0.50802513554E+03  0.10566000000E+00 0.  1.
         13    1    1    2    0    0 -0.20818228461E+03  0.44983220421E+03  0.86171387609E+03  0.99410245497E+03  0.10566000000E+00 0. -1.
          4    1    1    2  501    0 -0.35782705182E+02 -0.18088607339E+02  0.54610694123E+02  0.67749004555E+02  0.00000000000E+00 0.  1.
</event>
<event>
 6    1  0.2569591E-005  0.1007168E+04  0.7818608E-02  0.9157207E-01
         21   -1    0    0  501  502  0.00000000000E+00  0.00000000000E+00  0.27201103547E+03  0.27201103547E+03  0.00000000000E+00 0. -1.
         -4   -1    0    0    0  501 -0.00000000000E+00 -0.00000000000E+00 -0.13811998710E+04  0.13811998710E+04  0.00000000000E+00 0. -1.
   -9000010    2    1    2    0  502  0.45042226218E+02 -0.20046997123E+03 -0.82165407789E+03  0.12998085019E+04  0.98598666649E+03 0.  0.
        -13    1    1    2    0    0 -0.45042226218E+02  0.20046997123E+03 -0.28753475767E+03  0.35340240455E+03  0.10566000000E+00 0.  1.
         13    1    3    3    0    0 -0.18822696238E+03  0.21484267383E+03  0.65331629966E+02  0.29301023345E+03  0.10566000000E+00 0. -1.
         -4    1    3    3    0  502  0.23326918860E+03 -0.41531264507E+03 -0.88698570785E+03  0.10067982685E+04  0.00000000000E+00 0. -1.
</event>
<event>
 6    1  0.2569591E-005  0.1536907E+04  0.7818608E-02  0.8439136E-01
         21   -1    0    0  501  502  0.00000000000E+00  0.00000000000E+00  0.12776105769E+04  0.12776105769E+04  0.00000000000E+00 0.  1.
         -4   -1    0    0    0  501 -0.00000000000E+00 -0.00000000000E+00 -0.15042622147E+04  0.15042622147E+04  0.00000000000E+00 0. -1.
   -9000010    2    1    2    0  502 -0.11182485067E+04 -0.47812226119E+03  0.37404893333E+02  0.15373622525E+04  0.93968236648E+03 0.  0.
        -13    1    1    2    0    0  0.11182485067E+04  0.47812226119E+03 -0.26405653118E+03  0.12445105392E+04  0.10566000000E+00 0.  1.
         13    1    3    3    0    0 -0.76161819923E+03 -0.68642228676E+03  0.27414406465E+03  0.10613165487E+04  0.10566000000E+00 0. -1.
         -4    1    3    3    0  502 -0.35663030745E+03  0.20830002556E+03 -0.23673917132E+03  0.47604570377E+03  0.00000000000E+00 0. -1.
</event>
<event>
 6    1  0.2569591E-005  0.1082895E+04  0.7818608E-02  0.8932544E-01
          4   -1    0    0  502    0 -0.00000000000E+00  0.00000000000E+00  0.30206887336E+04  0.30206887336E+04  0.00000000000E+00 0.  1.
         21   -1    0    0  501  502  0.00000000000E+00 -0.00000000000E+00 -0.48972143283E+03  0.48972143283E+03  0.00000000000E+00 0.  1.
    9000010    2    1    2  501    0 -0.28327007849E+03 -0.29183725894E+03  0.14797266364E+03  0.10929581245E+04  0.10036187671E+04 0.  0.
        -13    1    3    3    0    0 -0.42263231942E+00 -0.27957773908E+03 -0.39304787285E+03  0.48233860754E+03  0.10566000000E+00 0.  1.
         13    1    1    2    0    0  0.28327007849E+03  0.29183725894E+03  0.23829946371E+04  0.24174520419E+04  0.10566000000E+00 0. -1.
          4    1    3    3  501    0 -0.28284744617E+03 -0.12259519860E+02  0.54102053649E+03  0.61061951700E+03  0.00000000000E+00 0.  1.
</event>
<event>
 6    1  0.2569591E-005  0.1145981E+04  0.7818608E-02  0.8794206E-01
         -4   -1    0    0    0  501 -0.00000000000E+00  0.00000000000E+00  0.20518985554E+04  0.20518985554E+04  0.00000000000E+00 0. -1.
         21   -1    0    0  501  502  0.00000000000E+00 -0.00000000000E+00 -0.38225344465E+03  0.38225344465E+03  0.00000000000E+00 0. -1.
   -9000010    2    1    2    0  502  0.73197063804E+02 -0.60693818220E+03  0.93949703885E+03  0.14818663364E+04  0.96929943038E+03 0.  0.
        -13    1    1    2    0    0 -0.73197063804E+02  0.60693818220E+03  0.73014807193E+03  0.95228566369E+03  0.10566000000E+00 0.  1.
         13    1    3    3    0    0  0.43527426553E+03 -0.23431372460E+01  0.28641882876E+03  0.52106135259E+03  0.10566000000E+00 0. -1.
         -4    1    3    3    0  502 -0.36207720173E+03 -0.60459504495E+03  0.65307821009E+03  0.96080498380E+03  0.00000000000E+00 0. -1.
</event>
<event>
 6    1  0.2569591E-005  0.1125836E+04  0.7818608E-02  0.8844366E-01
         21   -1    0    0  501  502  0.00000000000E+00  0.00000000000E+00  0.44140714837E+03  0.44140714837E+03  0.00000000000E+00 0. -1.
         -4   -1    0    0    0  501 -0.00000000000E+00 -0.00000000000E+00 -0.17457485458E+04  0.17457485458E+04  0.00000000000E+00 0. -1.
   -9000010    2    1    2    0  502  0.36894199545E+03 -0.36908769006E+03 -0.50820991150E+03  0.12352264568E+04  0.99757865172E+03 0.  0.
        -13    1    1    2    0    0 -0.36894199545E+03  0.36908769006E+03 -0.79613148590E+03  0.95192923737E+03  0.10566000000E+00 0.  1.
         13    1    3    3    0    0  0.20469104833E+03  0.25227622807E+03 -0.49536473995E+03  0.59239172619E+03  0.10566000000E+00 0. -1.
         -4    1    3    3    0  502  0.16425094713E+03 -0.62136391814E+03 -0.12845171557E+02  0.64283473057E+03  0.00000000000E+00 0. -1.
</event>
<event>
 5    1  0.2569591E-005  0.3782162E+03  0.7818608E-02  0.9814153E-01
          4   -1    0    0  502    0 -0.00000000000E+00  0.00000000000E+00  0.16947843394E+04  0.16947843394E+04  0.00000000000E+00 0.  1.
         21   -1    0    0  501  502  0.00000000000E+00 -0.00000000000E+00 -0.96539682570E+02  0.96539682570E+02  0.00000000000E+00 0. -1.
        -13    1    1    2    0    0 -0.16153825297E+03  0.30643331852E+03  0.40335228283E+03  0.53168511461E+03  0.10566000000E+00 0.  1.
         13    1    1    2    0    0  0.13638322630E+03 -0.32588885093E+03  0.11591898795E+04  0.12118271805E+04  0.10566000000E+00 0. -1.
          4    1    1    2  501    0  0.25155026673E+02  0.19455532408E+02  0.35702494482E+02  0.47811726809E+02  0.00000000000E+00 0.  1.
</event>
<event>
 6    1  0.2569591E-005  0.9968637E+03  0.7818608E-02  0.9327743E-01
         21   -1    0    0  501  502  0.00000000000E+00  0.00000000000E+00  0.42875082192E+03  0.42875082192E+03  0.00000000000E+00 0. -1.
         -4   -1    0    0    0  501 -0.00000000000E+00 -0.00000000000E+00 -0.71737513423E+03  0.71737513423E+03  0.00000000000E+00 0. -1.
   -9000010    2    1    2    0  502  0.99191515537E+02  0.47823631811E+02 -0.23774733879E+03  0.10248224768E+04  0.99076296623E+03 0.  0.
        -13    1    1    2    0    0 -0.99191515537E+02 -0.47823631811E+02 -0.50876973517E+02  0.12130347939E+03  0.10566000000E+00 0.  1.
         13    1    3    3    0    0 -0.35899828776E+03 -0.15300973787E+02  0.17972145788E+03  0.40176324372E+03  0.10566000000E+00 0. -1.
         -4    1    3    3    0  502  0.45818980330E+03  0.63124605598E+02 -0.41746879668E+03  0.62305923304E+03  0.00000000000E+00 0. -1.
</event>
<event>
 6    1  0.2569591E-005  0.1024503E+04  0.7818608E-02  0.9152700E-01
          4   -1    0    0  502    0 -0.00000000000E+00  0.00000000000E+00  0.21421560372E+04  0.21421560372E+04  0.00000000000E+00 0.  1.
         21   -1    0    0  501  502  0.00000000000E+00 -0.00000000000E+00 -0.21558580911E+03  0.21558580911E+03  0.00000000000E+00 0.  1.
    9000010    2    1    2  501    0 -0.40791553306E+02 -0.19445349930E+03  0.10818434733E+04  0.14899634093E+04  0.10050520117E+04 0.  0.
        -13    1    3    3    0    0 -0.78241099063E+02  0.28744200070E+03 -0.77207737525E+01  0.29800032695E+03  0.10566000000E+00 0.  1.
         13    1    1    2    0    0  0.40791553306E+02  0.19445349930E+03  0.84472675482E+03  0.86777843698E+03  0.10566000000E+00 0. -1.
          4    1    3    3  501    0  0.37449545757E+02 -0.48189550000E+03  0.10895642470E+04  0.11919630824E+04  0.00000000000E+00 0.  1.
</event>
<event>
 5    1  0.2569591E-005  0.1196356E+03  0.7818608E-02  0.1148808E+00
         -4   -1    0    0    0  501 -0.00000000000E+00  0.00000000000E+00  0.28892492226E+03  0.28892492226E+03  0.00000000000E+00 0. -1.
         21   -1    0    0  501  502  0.00000000000E+00 -0.00000000000E+00 -0.47804339065E+02  0.47804339065E+02  0.00000000000E+00 0.  1.
        -13    1    1    2    0    0 -0.91272329884E+01  0.85411951605E+02  0.24593419901E+02  0.89349624093E+02  0.10566000000E+00 0.  1.
         13    1    1    2    0    0 -0.33897600931E+02 -0.59834739969E+02  0.11086987847E+03  0.13046602842E+03  0.10566000000E+00 0. -1.
         -4    1    1    2    0  502  0.43024833920E+02 -0.25577211636E+02  0.10565728483E+03  0.11691360881E+03  0.00000000000E+00 0. -1.
</event>
<event>
 6    1  0.2569591E-005  0.1018454E+04  0.7818608E-02  0.9093537E-01
         -4   -1    0    0    0  501 -0.00000000000E+00  0.00000000000E+00  0.15666805748E+04  0.15666805748E+04  0.00000000000E+00 0. -1.
         21   -1    0    0  501  502  0.00000000000E+00 -0.00000000000E+00 -0.55226611406E+03  0.55226611406E+03  0.00000000000E+00 0. -1.
   -9000010    2    1    2    0  502 -0.24561154265E+03 -0.69758605997E+02 -0.54548961824E+02  0.10199134305E+04  0.98592926904E+03 0.  0.
        -13    1    1    2    0    0  0.24561154265E+03  0.69758605997E+02  0.10689634225E+04  0.10990332583E+04  0.10566000000E+00 0.  1.
         13    1    3    3    0    0 -0.26712068345E+03  0.96801015633E+02 -0.48264004359E+03  0.56005831749E+03  0.10566000000E+00 0. -1.
         -4    1    3    3    0  502  0.21509140798E+02 -0.16655962163E+03  0.42809108177E+03  0.45985511303E+03  0.00000000000E+00 0. -1.
</event>
<event>
 6    1  0.2569591E-005  0.1054908E+04  0.7818608E-02  0.8972492E-01
         -4   -1    0    0    0  501 -0.00000000000E+00  0.00000000000E+00  0.41107074591E+03  0.41107074591E+03  0.00000000000E+00 0. -1.
         21   -1    0    0  501  502  0.00000000000E+00 -0.00000000000E+00 -0.13262232828E+04  0.13262232828E+04  0.00000000000E+00 0.  1.
   -9000010    2    1    2    0  502  0.35269550232E+03 -0.12327767816E+03 -0.85706174656E+03  0.13591855068E+04  0.98652871278E+03 0.  0.
        -13    1    1    2    0    0 -0.35269550232E+03  0.12327767816E+03 -0.58090790367E+02  0.37810852196E+03  0.10566000000E+00 0.  1.
         13    1    3    3    0    0 -0.21308146154E+03  0.24812836801E+03 -0.96295266939E+02  0.34094601605E+03  0.10566000000E+00 0. -1.
         -4    1    3    3    0  502  0.56577696386E+03 -0.37140604617E+03 -0.76076647962E+03  0.10182394907E+04  0.00000000000E+00 0. -1.
</event>
<event>
 5    1  0.2569591E-005  0.6086620E+02  0.7818608E-02  0.1291693E+00
         21   -1    0    0  501  502  0.00000000000E+00  0.00000000000E+00  0.39596122771E+02  0.39596122771E+02  0.00000000000E+00 0. -1.
         -4   -1    0    0    0  501 -0.00000000000E+00 -0.00000000000E+00 -0.51116795571E+02  0.51116795571E+02  0.00000000000E+00 0. -1.
        -13    1    1    2    0    0 -0.77723153860E+01 -0.26659255208E+02  0.35863114116E+01  0.27999956576E+02  0.10566000000E+00 0.  1.
         13    1    1    2    0    0  0.21437852199E+02  0.25213944270E+02  0.95839645585E+01  0.34455595093E+02  0.10566000000E+00 0. -1.
         -4    1    1    2    0  502 -0.13665536813E+02  0.14453109379E+01 -0.24690948770E+02  0.28257366672E+02  0.00000000000E+00 0. -1.
</event>
<event>
 5    1  0.2569591E-005  0.3197540E+03  0.7818608E-02  0.1001588E+00
         21   -1    0    0  501  502  0.00000000000E+00  0.00000000000E+00  0.61722978164E+02  0.61722978164E+02  0.00000000000E+00 0. -1.
          4   -1    0    0  502    0 -0.00000000000E+00 -0.00000000000E+00 -0.15668285149E+04  0.15668285149E+04  0.00000000000E+00 0.  1.
        -13    1    1    2    0    0  0.14282470861E+03 -0.53662299677E+02 -0.31380314765E+03  0.34892831131E+03  0.10566000000E+00 0.  1.
         13    1    1    2    0    0 -0.23988330373E+03  0.17736001756E+03 -0.63604778214E+03  0.70253638166E+03  0.10566000000E+00 0. -1.
          4    1    1    2  501    0  0.97058595115E+02 -0.12369771788E+03 -0.55525460691E+03  0.57708680005E+03  0.00000000000E+00 0.  1.
</event>
<event>
 6    1  0.2569591E-005  0.1016477E+04  0.7818608E-02  0.9178790E-01
         21   -1    0    0  501  502  0.00000000000E+00  0.00000000000E+00  0.13223985992E+04  0.13223985992E+04  0.00000000000E+00 0. -1.
         -4   -1    0    0    0  501 -0.00000000000E+00 -0.00000000000E+00 -0.27617422766E+03  0.27617422766E+03  0.00000000000E+00 0. -1.
   -9000010    2    1    2    0  502 -0.11033979615E+03 -0.14691228199E+03  0.81264613211E+03  0.13013912421E+04  0.99973363442E+03 0.  0.
        -13    1    1    2    0    0  0.11033979615E+03  0.14691228199E+03  0.23357823940E+03  0.29718158473E+03  0.10566000000E+00 0.  1.
         13    1    3    3    0    0 -0.36781381719E+02  0.37135821423E+03  0.65647230822E+03  0.75512627814E+03  0.10566000000E+00 0. -1.
         -4    1    3    3    0  502 -0.73558414435E+02 -0.51827049622E+03  0.15617382389E+03  0.54626496397E+03  0.00000000000E+00 0. -1.
</event>
<event>
 6    1  0.2569591E-005  0.9833496E+03  0.7818608E-02  0.9384085E-01
         21   -1    0    0  501  502  0.00000000000E+00  0.00000000000E+00  0.17142770244E+04  0.17142770244E+04  0.00000000000E+00 0. -1.
         -4   -1    0    0    0  501 -0.00000000000E+00 -0.00000000000E+00 -0.18321787561E+03  0.18321787561E+03  0.00000000000E+00 0. -1.
   -9000010    2    1    2    0  502  0.64047420895E+02 -0.67300212432E+02  0.11885244308E+04  0.15425844396E+04  0.97895098954E+03 0.  0.
        -13    1    1    2    0    0 -0.64047420895E+02  0.67300212432E+02  0.34253471805E+03  0.35491046047E+03  0.10566000000E+00 0.  1.
         13    1    3    3    0    0 -0.25091358913E+03  0.36763275303E+03  0.57756690924E+03  0.72917420149E+03  0.10566000000E+00 0. -1.
         -4    1    3    3    0  502  0.31496101002E+03 -0.43493296546E+03  0.61095752152E+03  0.81341023806E+03  0.00000000000E+00 0. -1.
</event>
<event>
 5    1  0.2569591E-005  0.1644847E+03  0.7818608E-02  0.1088268E+00
          4   -1    0    0  502    0 -0.00000000000E+00  0.00000000000E+00  0.25759270272E+03  0.25759270272E+03  0.00000000000E+00 0.  1.
         21   -1    0    0  501  502  0.00000000000E+00 -0.00000000000E+00 -0.10410302834E+03  0.10410302834E+03  0.00000000000E+00 0. -1.
        -13    1    1    2    0    0  0.13647054231E+03 -0.66380531816E+02  0.79872455379E+02  0.17149403551E+03  0.10566000000E+00 0.  1.
         13    1    1    2    0    0 -0.14759848934E+03  0.65956497954E+02  0.59604473233E+02  0.17230286727E+03  0.10566000000E+00 0. -1.
          4    1    1    2  501    0  0.11127947026E+02  0.42403386156E+00  0.14012745766E+02  0.17898828276E+02  0.00000000000E+00 0.  1.
</event>
<event>
 6    1  0.2569591E-005  0.1152965E+04  0.7818608E-02  0.8803267E-01
         21   -1    0    0  501  502  0.00000000000E+00  0.00000000000E+00  0.61050224072E+03  0.61050224072E+03  0.00000000000E+00 0.  1.
          4   -1    0    0  502    0 -0.00000000000E+00 -0.00000000000E+00 -0.13494638020E+04  0.13494638020E+04  0.00000000000E+00 0.  1.
    9000010    2    1    2  501    0 -0.26602901012E+03 -0.51279896864E+03 -0.20056639372E+03  0.11702802925E+04  0.99779500315E+03 0.  0.
        -13    1    3    3    0    0 -0.38607961574E+02 -0.72966061302E+03  0.97503258381E+02  0.73715811157E+03  0.10566000000E+00 0.  1.
         13    1    1    2    0    0  0.26602901012E+03  0.51279896864E+03 -0.53839516755E+03  0.78968575020E+03  0.10566000000E+00 0. -1.
          4    1    3    3  501    0 -0.22742104855E+03  0.21686164438E+03 -0.29806965210E+03  0.43312218095E+03  0.00000000000E+00 0.  1.
</event>
<event>
 5    1  0.2569591E-005  0.4514192E+03  0.7818608E-02  0.1008193E+00
         21   -1    0    0  501  502  0.00000000000E+00  0.00000000000E+00  0.73531243900E+02  0.73531243900E+02  0.00000000000E+00 0.  1.
          4   -1    0    0  502    0 -0.00000000000E+00 -0.00000000000E+00 -0.98106455633E+03  0.98106455633E+03  0.00000000000E+00 0.  1.
        -13    1    1    2    0    0  0.80221551760E+02 -0.17394246048E+03 -0.10482300714E+03  0.21835601873E+03  0.10566000000E+00 0.  1.
         13    1    1    2    0    0 -0.47206085399E+02  0.71366040187E+02 -0.13460001737E+03  0.15949514735E+03  0.10566000000E+00 0. -1.
          4    1    1    2  501    0 -0.33015466361E+02  0.10257642029E+03 -0.66811028793E+03  0.67674463415E+03  0.00000000000E+00 0.  1.
</event>
<event>
 5    1  0.2569591E-005  0.8897360E+02  0.7818608E-02  0.1195543E+00
         21   -1    0    0  501  502  0.00000000000E+00  0.00000000000E+00  0.11492415809E+03  0.11492415809E+03  0.00000000000E+00 0.  1.
         -4   -1    0    0    0  501 -0.00000000000E+00 -0.00000000000E+00 -0.54190693835E+02  0.54190693835E+02  0.00000000000E+00 0. -1.
        -13    1    1    2    0    0 -0.10354125508E+02 -0.67658492232E+02  0.20364960648E+02  0.71411639614E+02  0.10566000000E+00 0.  1.
         13    1    1    2    0    0  0.61279139213E+01  0.77088826728E+02  0.40650382166E+02  0.87365343641E+02  0.10566000000E+00 0. -1.
         -4    1    1    2    0  502  0.42262115869E+01 -0.94303344956E+01 -0.28187856002E+00  0.10337868668E+02  0.00000000000E+00 0. -1.
</event>
<event>
 6    1  0.2569591E-005  0.1101396E+04  0.7818608E-02  0.8988306E-01
         21   -1    0    0  501  502  0.00000000000E+00  0.00000000000E+00  0.10788840627E+04  0.10788840627E+04  0.00000000000E+00 0.  1.
          4   -1    0    0  502    0 -0.00000000000E+00 -0.00000000000E+00 -0.46019948553E+03  0.46019948553E+03  0.00000000000E+00 0.  1.
    9000010    2    1    2  501    0  0.30782497932E+03  0.32921532005E+01  0.48682367399E+03  0.12041889900E+04  0.10575002497E+04 0.  0.
        -13    1    3    3    0    0  0.42102688778E+03 -0.11108061779E+03  0.76648510948E+03  0.88153387802E+03  0.10566000000E+00 0.  1.
         13    1    1    2    0    0 -0.30782497932E+03 -0.32921532005E+01  0.13186090320E+03  0.33489455821E+03  0.10566000000E+00 0. -1.
          4    1    3    3  501    0 -0.11320190846E+03  0.11437277099E+03 -0.27966143548E+03  0.32265511203E+03  0.00000000000E+00 0.  1.
</event>
<event>
 5    1  0.2569591E-005  0.6453795E+02  0.7818608E-02  0.1252314E+00
         21   -1    0    0  501  502  0.00000000000E+00  0.00000000000E+00  0.27218383595E+03  0.27218383595E+03  0.00000000000E+00 0.  1.
         -4   -1    0    0    0  501 -0.00000000000E+00 -0.00000000000E+00 -0.12813292424E+02  0.12813292424E+02  0.00000000000E+00 0. -1.
        -13    1    1    2    0    0 -0.51568382013E+02  0.42123450741E+01  0.14071267320E+03  0.14992367871E+03  0.10566000000E+00 0.  1.
         13    1    1    2    0    0  0.36274897619E+02  0.98132016024E+01  0.45409037588E+02  0.58941996756E+02  0.10566000000E+00 0. -1.
         -4    1    1    2    0  502  0.15293484394E+02 -0.14025546677E+02  0.73248832735E+02  0.76131452905E+02  0.00000000000E+00 0. -1.
</event>
<event>
 6    1  0.2569591E-005  0.1094483E+04  0.7818608E-02  0.8881058E-01
         21   -1    0    0  501  502  0.00000000000E+00  0.00000000000E+00  0.42566742572E+03  0.42566742572E+03  0.00000000000E+00 0. -1.
          4   -1    0    0  502    0 -0.00000000000E+00 -0.00000000000E+00 -0.14803470706E+04  0.14803470706E+04  0.00000000000E+00 0.  1.
    9000010    2    1    2  501    0 -0.38739160286E+03  0.29568644889E+03 -0.80344311848E+03  0.13577239407E+04  0.97999526754E+03 0.  0.
        -13    1    3    3    0    0  0.28374149268E+03  0.40104562889E+02 -0.88658517108E+01  0.28669884047E+03  0.10566000000E+00 0.  1.
         13    1    1    2    0    0  0.38739160286E+03 -0.29568644889E+03 -0.25123652636E+03  0.54829055560E+03  0.10566000000E+00 0. -1.
          4    1    3    3  501    0 -0.67113309554E+03  0.25558188600E+03 -0.79457726677E+03  0.10710251002E+04  0.00000000000E+00 0.  1.
</event>
<event>
 6    1  0.2569591E-005  0.1098684E+04  0.7818608E-02  0.8995555E-01
         21   -1    0    0  501  502  0.00000000000E+00  0.00000000000E+00  0.29591532637E+03  0.29591532637E+03  0.00000000000E+00 0.  1.
          4   -1    0    0  502    0 -0.00000000000E+00 -0.00000000000E+00 -0.23906327210E+04  0.23906327210E+04  0.00000000000E+00 0.  1.
    9000010    2    1    2  501    0  0.65226602062E+02 -0.29399834819E+03 -0.80472169964E+03  0.13618675415E+04  0.10566061936E+04 0.  0.
        -13    1    3    3    0    0 -0.38370294077E+02  0.10992086339E+03  0.22366625834E+03  0.25215368718E+03  0.10566000000E+00 0.  1.
         13    1    1    2    0    0 -0.65226602062E+02  0.29399834819E+03 -0.12899956949E+04  0.13246805058E+04  0.10566000000E+00 0. -1.
          4    1    3    3  501    0  0.10359689614E+03 -0.40391921158E+03 -0.10283879580E+04  0.11097138543E+04  0.00000000000E+00 0.  1.
</event>
<event>
 5    1  0.2569591E-005  0.3602663E+03  0.7818608E-02  0.9878396E-01
         -4   -1    0    0    0  501 -0.00000000000E+00  0.00000000000E+00  0.17349046906E+04  0.17349046906E+04  0.00000000000E+00 0. -1.
         21   -1    0    0  501  502  0.00000000000E+00 -0.00000000000E+00 -0.68451337574E+02  0.68451337574E+02  0.00000000000E+00 0.  1.
        -13    1    1    2    0    0 -0.20033911630E+03 -0.26087755835E+03  0.78718001775E+03  0.85313847263E+03  0.10566000000E+00 0.  1.
         13    1    1    2    0    0  0.21696210859E+03  0.22314688259E+03  0.69688715262E+03  0.76322919390E+03  0.10566000000E+00 0. -1.
         -4    1    1    2    0  502 -0.16622992289E+02  0.37730675768E+02  0.18238618265E+03  0.18698836164E+03  0.00000000000E+00 0. -1.
</event>
<event>
 6    1  0.2569591E-005  0.1041035E+04  0.7818608E-02  0.9090258E-01
         21   -1    0    0  501  502  0.00000000000E+00  0.00000000000E+00  0.16496980839E+03  0.16496980839E+03  0.00000000000E+00 0.  1.
          4   -1    0    0  502    0 -0.00000000000E+00 -0.00000000000E+00 -0.24954524821E+04  0.24954524821E+04  0.00000000000E+00 0.  1.
    9000010    2    1    2  501    0  0.23256467829E+03 -0.67625210399E+02 -0.18933380308E+04  0.21606674019E+04  0.10124698634E+04 0.  0.
        -13    1    3    3    0    0  0.21061533286E+03  0.20749016502E+03 -0.53760097872E+02  0.30050149135E+03  0.10566000000E+00 0.  1.
         13    1    1    2    0    0 -0.23256467829E+03  0.67625210399E+02 -0.43714464292E+03  0.49975488859E+03  0.10566000000E+00 0. -1.
          4    1    3    3  501    0  0.21949345428E+02 -0.27511537541E+03 -0.18395779330E+04  0.18601659106E+04  0.00000000000E+00 0.  1.
</event>
<event>
 6    1  0.2569591E-005  0.1062396E+04  0.7818608E-02  0.9036802E-01
         21   -1    0    0  501  502  0.00000000000E+00  0.00000000000E+00  0.12831392135E+04  0.12831392135E+04  0.00000000000E+00 0. -1.
         -4   -1    0    0    0  501 -0.00000000000E+00 -0.00000000000E+00 -0.37751326097E+03  0.37751326097E+03  0.00000000000E+00 0. -1.
   -9000010    2    1    2    0  502 -0.12967377443E+01  0.28204469021E+03  0.87614645024E+03  0.13770683758E+04  0.10242723371E+04 0.  0.
        -13    1    1    2    0    0  0.12967377443E+01 -0.28204469021E+03  0.29479502267E+02  0.28358409868E+03  0.10566000000E+00 0.  1.
         13    1    3    3    0    0 -0.39386503170E+03 -0.97252117423E+02  0.68981628642E+03  0.80027130257E+03  0.10566000000E+00 0. -1.
         -4    1    3    3    0  502  0.39256829396E+03  0.37929680763E+03  0.18633016382E+03  0.57679707320E+03  0.00000000000E+00 0. -1.
</event>
<event>
 5    1  0.2569591E-005  0.3967183E+03  0.7818608E-02  0.1035567E+00
         -4   -1    0    0    0  501 -0.00000000000E+00  0.00000000000E+00  0.33916858401E+03  0.33916858401E+03  0.00000000000E+00 0. -1.
         21   -1    0    0  501  502  0.00000000000E+00 -0.00000000000E+00 -0.15702714895E+03  0.15702714895E+03  0.00000000000E+00 0. -1.
        -13    1    1    2    0    0 -0.40221540473E+02 -0.35076846931E+02  0.61741050001E+02  0.81609594583E+02  0.10566000000E+00 0.  1.
         13    1    1    2    0    0 -0.91744815040E+02  0.10663866500E+03 -0.81817755587E+02  0.16273620449E+03  0.10566000000E+00 0. -1.
         -4    1    1    2    0  502  0.13196635551E+03 -0.71561818071E+02  0.20221814064E+03  0.25184993388E+03  0.00000000000E+00 0. -1.
</event>
<event>
 5    1  0.2569591E-005  0.7406157E+02  0.7818608E-02  0.1239408E+00
         -4   -1    0    0    0  501 -0.00000000000E+00  0.00000000000E+00  0.93125479593E+02  0.93125479593E+02  0.00000000000E+00 0. -1.
         21   -1    0    0  501  502  0.00000000000E+00 -0.00000000000E+00 -0.41197133650E+02  0.41197133650E+02  0.00000000000E+00 0. -1.
        -13    1    1    2    0    0  0.44907472333E+02 -0.23137785641E+01  0.20163536890E+01  0.45012348182E+02  0.10566000000E+00 0.  1.
         13    1    1    2    0    0 -0.52802110694E+02  0.14451576818E+02  0.24313472754E+02  0.59900476522E+02  0.10566000000E+00 0. -1.
         -4    1    1    2    0  502  0.78946383603E+01 -0.12137798253E+02  0.25598519500E+02  0.29409788538E+02  0.00000000000E+00 0. -1.
</event>
<event>
 6    1  0.2569591E-005  0.9730518E+03  0.7818608E-02  0.9162251E-01
         -4   -1    0    0    0  501 -0.00000000000E+00  0.00000000000E+00  0.15379883929E+04  0.15379883929E+04  0.00000000000E+00 0. -1.
         21   -1    0    0  501  502  0.00000000000E+00 -0.00000000000E+00 -0.23723265685E+03  0.23723265685E+03  0.00000000000E+00 0. -1.
   -9000010    2    1    2    0  502 -0.13522627419E+03 -0.17782188043E+03  0.95375055625E+03  0.13625233730E+04  0.94706021568E+03 0.  0.
        -13    1    1    2    0    0  0.13522627419E+03  0.17782188043E+03  0.34700517979E+03  0.41269767670E+03  0.10566000000E+00 0.  1.
         13    1    3    3    0    0 -0.28865813720E+02  0.20348453501E+03 -0.10600244785E+03  0.23124818119E+03  0.10566000000E+00 0. -1.
         -4    1    3    3    0  502 -0.10636046047E+03 -0.38130641544E+03  0.10597530041E+04  0.11312751919E+04  0.00000000000E+00 0. -1.
</event>
<event>
 6    1  0.2569591E-005  0.1090510E+04  0.7818608E-02  0.8929675E-01
         21   -1    0    0  501  502  0.00000000000E+00  0.00000000000E+00  0.33741222207E+03  0.33741222207E+03  0.00000000000E+00 0.  1.
         -4   -1    0    0    0  501 -0.00000000000E+00 -0.00000000000E+00 -0.18307467463E+04  0.18307467463E+04  0.00000000000E+00 0. -1.
   -9000010    2    1    2    0  502  0.21214044019E+03  0.34261085925E+03 -0.13610329576E+04  0.17440251653E+04  0.10133248730E+04 0.  0.
        -13    1    1    2    0    0 -0.21214044019E+03 -0.34261085925E+03 -0.13230156667E+03  0.42413380312E+03  0.10566000000E+00 0.  1.
         13    1    3    3    0    0 -0.26168497592E+03  0.22840691988E+03 -0.57137383738E+02  0.35201340806E+03  0.10566000000E+00 0. -1.
         -4    1    3    3    0  502  0.47382541611E+03  0.11420393937E+03 -0.13038955739E+04  0.13920117572E+04  0.00000000000E+00 0. -1.
</event>
<event>
 6    1  0.2569591E-005  0.1325284E+04  0.7818608E-02  0.8613183E-01
         21   -1    0    0  501  502  0.00000000000E+00  0.00000000000E+00  0.77313789557E+03  0.77313789557E+03  0.00000000000E+00 0. -1.
          4   -1    0    0  502    0 -0.00000000000E+00 -0.00000000000E+00 -0.19665542895E+04  0.19665542895E+04  0.00000000000E+00 0.  1.
    9000010    2    1    2  501    0  0.22168114366E+03  0.83624079327E+03 -0.77287626760E+02  0.13275361633E+04  0.10039610021E+04 0.  0.
        -13    1    3    3    0    0 -0.35283016350E+03  0.83804577797E+02  0.70336816348E+02  0.36940439958E+03  0.10566000000E+00 0.  1.
         13    1    1    2    0    0 -0.22168114366E+03 -0.83624079327E+03 -0.11161287671E+04  0.14121560217E+04  0.10566000000E+00 0. -1.
          4    1    3    3  501    0  0.57451130716E+03  0.75243621547E+03 -0.14762444311E+03  0.95813176370E+03  0.00000000000E+00 0.  1.
</event>
<event>
 6    1  0.2569591E-005  0.1021370E+04  0.7818608E-02  0.9293624E-01
         21   -1    0    0  501  502  0.00000000000E+00  0.00000000000E+00  0.79519975402E+03  0.79519975402E+03  0.00000000000E+00 0.  1.
          4   -1    0    0  502    0 -0.00000000000E+00 -0.00000000000E+00 -0.44215558297E+03  0.44215558297E+03  0.00000000000E+00 0.  1.
    9000010    2    1    2  501    0  0.47699390934E+02 -0.10626365069E+03  0.19305196399E+03  0.10394545719E+04  0.10147066329E+04 0.  0.
        -13    1    3    3    0    0  0.19945636702E+03  0.63724046376E+02  0.56539194628E+03  0.60291928192E+03  0.10566000000E+00 0.  1.
         13    1    1    2    0    0 -0.47699390934E+02  0.10626365069E+03  0.15999220706E+03  0.19790076513E+03  0.10566000000E+00 0. -1.
          4    1    3    3  501    0 -0.15175697609E+03 -0.16998769707E+03 -0.37233998229E+03  0.43653528993E+03  0.00000000000E+00 0.  1.
</event>
<event>
 6    1  0.2569591E-005  0.1217732E+04  0.7818608E-02  0.8726247E-01
         -4   -1    0    0    0  501 -0.00000000000E+00  0.00000000000E+00  0.42744533442E+04  0.42744533442E+04  0.00000000000E+00 0. -1.
         21   -1    0    0  501  502  0.00000000000E+00 -0.00000000000E+00 -0.38155727940E+03  0.38155727940E+03  0.00000000000E+00 0.  1.
   -9000010    2    1    2    0  502 -0.10775431453E+03  0.67251460008E+03  0.72820214761E+03  0.14188553168E+04  0.10094479494E+04 0.  0.
        -13    1    1    2    0    0  0.10775431453E+03 -0.67251460008E+03  0.31646939172E+04  0.32371553068E+04  0.10566000000E+00 0.  1.
         13    1    3    3    0    0  0.11520841374E+03  0.37969453135E+03 -0.18238799404E+03  0.43669933280E+03  0.10566000000E+00 0. -1.
         -4    1    3    3    0  502 -0.22296272827E+03  0.29282006873E+03  0.91059014165E+03  0.98215598401E+03  0.00000000000E+00 0. -1.
</event>
<event>
 6    1  0.2569591E-005  0.1083772E+04  0.7818608E-02  0.8917287E-01
          4   -1    0    0  502    0 -0.00000000000E+00  0.00000000000E+00  0.16870464011E+04  0.16870464011E+04  0.00000000000E+00 0.  1.
         21   -1    0    0  501  502  0.00000000000E+00 -0.00000000000E+00 -0.45989929779E+03  0.45989929779E+03  0.00000000000E+00 0.  1.
    9000010    2    1    2  501    0  0.43914419269E+02 -0.42977945439E+03  0.30068975587E+03  0.11247118296E+04  0.99394341631E+03 0.  0.
        -13    1    3    3    0    0  0.31112186184E+03  0.66506751643E+02 -0.19580336318E+03  0.37357586797E+03  0.10566000000E+00 0.  1.
         13    1    1    2    0    0 -0.43914419269E+02  0.42977945439E+03  0.92645734744E+03  0.10222338692E+04  0.10566000000E+00 0. -1.
          4    1    3    3  501    0 -0.26720744257E+03 -0.49628620604E+03  0.49649311905E+03  0.75113596168E+03  0.00000000000E+00 0.  1.
</event>
<event>
 6    1  0.2569591E-005  0.1279803E+04  0.7818608E-02  0.8665012E-01
         21   -1    0    0  501  502  0.00000000000E+00  0.00000000000E+00  0.14181420764E+04  0.14181420764E+04  0.00000000000E+00 0. -1.
         -4   -1    0    0    0  501 -0.00000000000E+00 -0.00000000000E+00 -0.93296801139E+03  0.93296801139E+03  0.00000000000E+00 0. -1.
   -9000010    2    1    2    0  502  0.43776163861E+03  0.62745171096E+03  0.81574979817E+03  0.15176766901E+04  0.10259453692E+04 0.  0.
        -13    1    1    2    0    0 -0.43776163861E+03 -0.62745171096E+03 -0.33057573317E+03  0.83343339767E+03  0.10566000000E+00 0.  1.
         13    1    3    3    0    0 -0.25798219873E+02 -0.14087067963E+03  0.56941084065E+03  0.58714462711E+03  0.10566000000E+00 0. -1.
         -4    1    3    3    0  502  0.46355985848E+03  0.76832239059E+03  0.24633895751E+03  0.93053206300E+03  0.00000000000E+00 0. -1.
</event>
<event>
 6    1  0.2569591E-005  0.1104634E+04  0.7818608E-02  0.8880017E-01
         -4   -1    0    0    0  501 -0.00000000000E+00  0.00000000000E+00  0.15432665308E+04  0.15432665308E+04  0.00000000000E+00 0. -1.
         21   -1    0    0  501  502  0.00000000000E+00 -0.00000000000E+00 -0.40649804213E+03  0.40649804213E+03  0.00000000000E+00 0. -1.
   -9000010    2    1    2    0  502 -0.14324084301E+03  0.45402788677E+03  0.73510809653E+03  0.13268758647E+04  0.99677298603E+03 0.  0.
        -13    1    1    2    0    0  0.14324084301E+03 -0.45402788677E+03  0.40166039215E+03  0.62288870824E+03  0.10566000000E+00 0.  1.
         13    1    3    3    0    0 -0.15428796759E+03  0.60633592273E+03  0.53018012523E+02  0.62790042917E+03  0.10566000000E+00 0. -1.
         -4    1    3    3    0  502  0.11047124589E+02 -0.15230803596E+03  0.68209008401E+03  0.69897543554E+03  0.00000000000E+00 0. -1.
</event>
<event>
 6    1  0.2569591E-005  0.9003603E+03  0.7818608E-02  0.9189717E-01
         21   -1    0    0  501  502  0.00000000000E+00  0.00000000000E+00  0.19281639766E+03  0.19281639766E+03  0.00000000000E+00 0. -1.
         -4   -1    0    0    0  501 -0.00000000000E+00 -0.00000000000E+00 -0.22583106283E+04  0.22583106283E+04  0.00000000000E+00 0. -1.
   -9000010    2    1    2    0  502 -0.24480296465E+03 -0.65398795355E+02 -0.19939947407E+04  0.21878445120E+04  0.86396937960E+03 0.  0.
        -13    1    1    2    0    0  0.24480296465E+03  0.65398795355E+02 -0.71499489960E+02  0.26328251397E+03  0.10566000000E+00 0.  1.
         13    1    3    3    0    0 -0.35548418744E+03 -0.25758017460E+03 -0.45241298363E+03  0.63039199931E+03  0.10566000000E+00 0. -1.
         -4    1    3    3    0  502  0.11068122279E+03  0.19218137925E+03 -0.15415817571E+04  0.15574525127E+04  0.00000000000E+00 0. -1.
</event>
<event>
 6    1  0.2569591E-005  0.1167965E+04  0.7818608E-02  0.8781316E-01
          4   -1    0    0  502    0 -0.00000000000E+00  0.00000000000E+00  0.24413673435E+04  0.24413673435E+04  0.00000000000E+00 0.  1.
         21   -1    0    0  501  502  0.00000000000E+00 -0.00000000000E+00 -0.35968156884E+03  0.35968156884E+03  0.00000000000E+00 0.  1.
    9000010    2    1    2  501    0  0.60446971691E+03  0.81504556396E+02  0.91187734782E+03  0.14817769927E+04  0.99605026337E+03 0.  0.
        -13    1    3    3    0    0  0.66199836729E+03 -0.33719991666E+03  0.53509447808E+03  0.91557180697E+03  0.10566000000E+00 0.  1.
         13    1    1    2    0    0 -0.60446971691E+03 -0.81504556396E+02  0.11698084269E+04  0.13192719197E+04  0.10566000000E+00 0. -1.
          4    1    3    3  501    0 -0.57528650379E+02  0.41870447306E+03  0.37678286974E+03  0.56620518569E+03  0.00000000000E+00 0.  1.
</event>
<event>
 5    1  0.2569591E-005  0.1634381E+03  0.7818608E-02  0.1089276E+00
         21   -1    0    0  501  502  0.00000000000E+00  0.00000000000E+00  0.15014874300E+03  0.15014874300E+03  0.00000000000E+00 0. -1.
          4   -1    0    0  502    0 -0.00000000000E+00 -0.00000000000E+00 -0.17493593428E+03  0.17493593428E+03  0.00000000000E+00 0.  1.
        -13    1    1    2    0    0 -0.66597194497E+01  0.16350595243E+02 -0.76583941193E+01  0.19244635420E+02  0.10566000000E+00 0.  1.
         13    1    1    2    0    0  0.11402525503E+03 -0.11260703869E+03 -0.20774714478E+02  0.16159735107E+03  0.10566000000E+00 0. -1.
          4    1    1    2  501    0 -0.10736553558E+03  0.96256443443E+02  0.36459173160E+01  0.14424269080E+03  0.00000000000E+00 0.  1.
</event>
<event>
 6    1  0.2569591E-005  0.1153773E+04  0.7818608E-02  0.8863747E-01
         21   -1    0    0  501  502  0.00000000000E+00  0.00000000000E+00  0.80306049303E+03  0.80306049303E+03  0.00000000000E+00 0. -1.
         -4   -1    0    0    0  501 -0.00000000000E+00 -0.00000000000E+00 -0.11164420767E+04  0.11164420767E+04  0.00000000000E+00 0. -1.
   -9000010    2    1    2    0  502 -0.35888931655E+03 -0.26666113908E+03  0.26955542859E+03  0.11848425966E+04  0.10636174806E+04 0.  0.
        -13    1    1    2    0    0  0.35888931655E+03  0.26666113908E+03 -0.58293701229E+03  0.73465997311E+03  0.10566000000E+00 0.  1.
         13    1    3    3    0    0 -0.24034093568E+03  0.31731591417E+03  0.41124316112E+03  0.57234089797E+03  0.10566000000E+00 0. -1.
         -4    1    3    3    0  502 -0.11854838086E+03 -0.58397705326E+03 -0.14168773253E+03  0.61250169868E+03  0.00000000000E+00 0. -1.
</event>
<event>
 6    1  0.2569591E-005  0.1008492E+04  0.7818608E-02  0.9185590E-01
         -4   -1    0    0    0  501 -0.00000000000E+00  0.00000000000E+00  0.14671661780E+04  0.14671661780E+04  0.00000000000E+00 0. -1.
         21   -1    0    0  501  502  0.00000000000E+00 -0.00000000000E+00 -0.33465486322E+03  0.33465486322E+03  0.00000000000E+00 0. -1.
   -9000010    2    1    2    0  502 -0.27122564990E+02 -0.18120430283E+03  0.46667312316E+03  0.11112335077E+04  0.99170836027E+03 0.  0.
        -13    1    1    2    0    0  0.27122564990E+02  0.18120430283E+03  0.66583819162E+03  0.69058753354E+03  0.10566000000E+00 0.  1.
         13    1    3    3    0    0 -0.60111244833E+02 -0.60969898232E+02 -0.31154266233E+03  0.32309368898E+03  0.10566000000E+00 0. -1.
         -4    1    3    3    0  502  0.32988679843E+02 -0.12023440460E+03  0.77821578549E+03  0.78813981871E+03  0.00000000000E+00 0. -1.
</event>
<event>
 5    1  0.2569591E-005  0.4012965E+03  0.7818608E-02  0.9778296E-01
         -4   -1    0    0    0  501 -0.00000000000E+00  0.00000000000E+00  0.12274570718E+04  0.12274570718E+04  0.00000000000E+00 0. -1.
         21   -1    0    0  501  502  0.00000000000E+00 -0.00000000000E+00 -0.18956392220E+03  0.18956392220E+03  0.00000000000E+00 0.  1.
        -13    1    1    2    0    0 -0.13629229764E+03 -0.30526058649E+03  0.34166133768E+02  0.33604605625E+03  0.10566000000E+00 0.  1.
         13    1    1    2    0    0  0.12387663204E+02  0.11284766969E+03  0.64883169392E+03  0.65868856750E+03  0.10566000000E+00 0. -1.
         -4    1    1    2    0  502  0.12390463444E+03  0.19241291679E+03  0.35489532194E+03  0.42228637027E+03  0.00000000000E+00 0. -1.
</event>
<event>
 6    1  0.2569591E-005  0.1055413E+04  0.7818608E-02  0.9059255E-01
         21   -1    0    0  501  502  0.00000000000E+00  0.00000000000E+00  0.14499538263E+03  0.14499538263E+03  0.00000000000E+00 0.  1.
          4   -1    0    0  502    0 -0.00000000000E+00 -0.00000000000E+00 -0.30426833969E+04  0.30426833969E+04  0.00000000000E+00 0.  1.
    9000010    2    1    2  501    0 -0.24419287716E+02 -0.26182126521E+03 -0.21495460209E+04  0.23946698704E+04  0.10221296472E+04 0.  0.
        -13    1    3    3    0    0  0.32207217612E+03 -0.52278212502E+03 -0.11155703413E+04  0.12733926474E+04  0.10566000000E+00 0.  1.
         13    1    1    2    0    0  0.24419287716E+02  0.26182126521E+03 -0.74814199334E+03  0.79300890909E+03  0.10566000000E+00 0. -1.
          4    1    3    3  501    0 -0.34649146384E+03  0.26096085981E+03 -0.10339756796E+04  0.11212772230E+04  0.00000000000E+00 0.  1.
</event>
<event>
 6    1  0.2569591E-005  0.1111476E+04  0.7818608E-02  0.8868740E-01
         21   -1    0    0  501  502  0.00000000000E+00  0.00000000000E+00  0.26729043213E+04  0.26729043213E+04  0.00000000000E+00 0.  1.
          4   -1    0    0  502    0 -0.00000000000E+00 -0.00000000000E+00 -0.24765113736E+03  0.24765113736E+03  0.00000000000E+00 0.  1.
    9000010    2    1    2  501    0 -0.48870950096E+03 -0.32912952875E+02  0.19083931683E+04  0.22084708248E+04  0.99772674641E+03 0.  0.
        -13    1    3    3    0    0 -0.58471503927E+03  0.47087522703E+02  0.19795683019E+04  0.20646548343E+04  0.10566000000E+00 0.  1.
         13    1    1    2    0    0  0.48870950096E+03  0.32912952875E+02  0.51686001563E+03  0.71208463382E+03  0.10566000000E+00 0. -1.
          4    1    3    3  501    0  0.96005538310E+02 -0.80000475578E+02 -0.71175133590E+02  0.14381599049E+03  0.00000000000E+00 0.  1.
</event>
<event>
 6    1  0.2569591E-005  0.1098007E+04  0.7818608E-02  0.8929963E-01
         -4   -1    0    0    0  501 -0.00000000000E+00  0.00000000000E+00  0.10893040085E+04  0.10893040085E+04  0.00000000000E+00 0. -1.
         21   -1    0    0  501  502  0.00000000000E+00 -0.00000000000E+00 -0.55960307488E+03  0.55960307488E+03  0.00000000000E+00 0. -1.
   -9000010    2    1    2    0  502 -0.37363563772E+03  0.12598737152E+03  0.59558459949E+03  0.12491358036E+04  0.10247647696E+04 0.  0.
        -13    1    1    2    0    0  0.37363563772E+03 -0.12598737152E+03 -0.65883665882E+02  0.39977127979E+03  0.10566000000E+00 0.  1.
         13    1    3    3    0    0 -0.19271999350E+03  0.44469353404E+03 -0.69648158774E+02  0.48963681673E+03  0.10566000000E+00 0. -1.
         -4    1    3    3    0  502 -0.18091564421E+03 -0.31870616252E+03  0.66523275826E+03  0.75949898684E+03  0.00000000000E+00 0. -1.
</event>
<event>
 5    1  0.2569591E-005  0.9368060E+02  0.7818608E-02  0.1208658E+00
         21   -1    0    0  501  502  0.00000000000E+00  0.00000000000E+00  0.49600780984E+02  0.49600780984E+02  0.00000000000E+00 0.  1.
         -4   -1    0    0    0  501 -0.00000000000E+00 -0.00000000000E+00 -0.17099694290E+03  0.17099694290E+03  0.00000000000E+00 0. -1.
        -13    1    1    2    0    0 -0.33111429053E+02  0.28282872417E+02  0.22406056104E+02  0.48972748751E+02  0.10566000000E+00 0.  1.
         13    1    1    2    0    0  0.53732664857E+02  0.55844439311E+01 -0.81889773892E+02  0.98103677396E+02  0.10566000000E+00 0. -1.
         -4    1    1    2    0  502 -0.20621235804E+02 -0.33867316348E+02 -0.61912444127E+02  0.73521297733E+02  0.00000000000E+00 0. -1.
</event>
<event>
 6    1  0.2569591E-005  0.1122302E+04  0.7818608E-02  0.8790415E-01
         21   -1    0    0  501  502  0.00000000000E+00  0.00000000000E+00  0.18496474328E+04  0.18496474328E+04  0.00000000000E+00 0. -1.
          4   -1    0    0  502    0 -0.00000000000E+00 -0.00000000000E+00 -0.43971263018E+03  0.43971263018E+03  0.00000000000E+00 0.  1.
    9000010    2    1    2  501    0  0.54637499803E+03 -0.37273014920E+03  0.10473534573E+04  0.15350931038E+04  0.90670180886E+03 0.  0.
        -13    1    3    3    0    0 -0.61733121640E+02  0.19213020952E+03  0.50446366001E+03  0.54333101435E+03  0.10566000000E+00 0.  1.
         13    1    1    2    0    0 -0.54637499803E+03  0.37273014920E+03  0.36258134531E+03  0.75426695919E+03  0.10566000000E+00 0. -1.
          4    1    3    3  501    0  0.60810811966E+03 -0.56486035872E+03  0.54288979732E+03  0.99176208946E+03  0.00000000000E+00 0.  1.
</event>
<event>
 6    1  0.2569591E-005  0.9978603E+03  0.7818608E-02  0.9543900E-01
          4   -1    0    0  502    0 -0.00000000000E+00  0.00000000000E+00  0.67808117558E+03  0.67808117558E+03  0.00000000000E+00 0.  1.
         21   -1    0    0  501  502  0.00000000000E+00 -0.00000000000E+00 -0.49183494269E+03  0.49183494269E+03  0.00000000000E+00 0.  1.
    9000010    2    1    2  501    0  0.49527171615E+02 -0.63981386327E+00  0.21720981637E+02  0.99809667946E+03  0.99663023756E+03 0.  0.
        -13    1    3    3    0    0  0.48216363564E+03  0.19593487642E+03  0.44479308307E+02  0.52235109588E+03  0.10566000000E+00 0.  1.
         13    1    1    2    0    0 -0.49527171615E+02  0.63981386327E+00  0.16452525125E+03  0.17181943881E+03  0.10566000000E+00 0. -1.
          4    1    3    3  501    0 -0.43263646403E+03 -0.19657469028E+03 -0.22758326670E+02  0.47574558358E+03  0.00000000000E+00 0.  1.
</event>
<event>
 6    1  0.2569591E-005  0.1075968E+04  0.7818608E-02  0.8933718E-01
         21   -1    0    0  501  502  0.00000000000E+00  0.00000000000E+00  0.12561723230E+03  0.12561723230E+03  0.00000000000E+00 0.  1.
          4   -1    0    0  502    0 -0.00000000000E+00 -0.00000000000E+00 -0.49520169201E+04  0.49520169201E+04  0.00000000000E+00 0.  1.
    9000010    2    1    2  501    0  0.31421611768E+03 -0.26743668614E+03 -0.26088228176E+04  0.28219964740E+04  0.99370692667E+03 0.  0.
        -13    1    3    3    0    0  0.35964132925E+02  0.20487097552E+03 -0.62290162101E+02  0.21713040074E+03  0.10566000000E+00 0.  1.
         13    1    1    2    0    0 -0.31421611768E+03  0.26743668614E+03 -0.22175768702E+04  0.22556376784E+04  0.10566000000E+00 0. -1.
          4    1    3    3  501    0  0.27825198475E+03 -0.47230766165E+03 -0.25465326555E+04  0.26048660733E+04  0.00000000000E+00 0.  1.
</event>
<event>
 6    1  0.2569591E-005  0.1197934E+04  0.7818608E-02  0.8744009E-01
         -4   -1    0    0    0  501 -0.00000000000E+00  0.00000000000E+00  0.16566005846E+04  0.16566005846E+04  0.00000000000E+00 0. -1.
         21   -1    0    0  501  502  0.00000000000E+00 -0.00000000000E+00 -0.52703134832E+03  0.52703134832E+03  0.00000000000E+00 0.  1.
   -9000010    2    1    2    0  502  0.63544691828E+03 -0.18873184763E+03  0.62935189144E+03  0.13531923508E+04  0.99781423061E+03 0.  0.
        -13    1    1    2    0    0 -0.63544691828E+03  0.18873184763E+03  0.50021734484E+03  0.83043958209E+03  0.10566000000E+00 0.  1.
         13    1    3    3    0    0  0.99151186706E+02 -0.26238149549E+02 -0.27264585654E+03  0.29129911185E+03  0.10566000000E+00 0. -1.
         -4    1    3    3    0  502  0.53629573158E+03 -0.16249369808E+03  0.90199774798E+03  0.10618932390E+04  0.00000000000E+00 0. -1.
</event>
<event>
 5    1  0.2569591E-005  0.1104593E+03  0.7818608E-02  0.1162008E+00
          4   -1    0    0  502    0 -0.00000000000E+00  0.00000000000E+00  0.12128122778E+03  0.12128122778E+03  0.00000000000E+00 0.  1.
         21   -1    0    0  501  502  0.00000000000E+00 -0.00000000000E+00 -0.90103961164E+02  0.90103961164E+02  0.00000000000E+00 0. -1.
        -13    1    1    2    0    0 -0.18346916115E+01  0.27854192256E+02  0.30810417617E+02  0.41575414818E+02  0.10566000000E+00 0.  1.
         13    1    1    2    0    0 -0.76761961469E+02 -0.18338617796E+02 -0.30808382803E+02  0.84722318466E+02  0.10566000000E+00 0. -1.
          4    1    1    2  501    0  0.78596653081E+02 -0.95155744603E+01  0.31175231802E+02  0.85087455660E+02  0.00000000000E+00 0.  1.
</event>
<event>
 5    1  0.2569591E-005  0.2586646E+03  0.7818608E-02  0.1044236E+00
         21   -1    0    0  501  502  0.00000000000E+00  0.00000000000E+00  0.78166374989E+03  0.78166374989E+03  0.00000000000E+00 0.  1.
         -4   -1    0    0    0  501 -0.00000000000E+00 -0.00000000000E+00 -0.63147851832E+02  0.63147851832E+02  0.00000000000E+00 0. -1.
        -13    1    1    2    0    0  0.99160254527E+02  0.10994364504E+03  0.44215439350E+03  0.46628411941E+03  0.10566000000E+00 0.  1.
         13    1    1    2    0    0  0.11958368557E+02 -0.44136222730E+02 -0.23953926639E+02  0.51621802573E+02  0.10566000000E+00 0. -1.
         -4    1    1    2    0  502 -0.11111862308E+03 -0.65807422312E+02  0.30031543120E+03  0.32690567973E+03  0.00000000000E+00 0. -1.
</event>
<event>
 6    1  0.2569591E-005  0.1374881E+04  0.7818608E-02  0.8571842E-01
         21   -1    0    0  501  502  0.00000000000E+00  0.00000000000E+00  0.11911753395E+04  0.11911753395E+04  0.00000000000E+00 0.  1.
         -4   -1    0    0    0  501 -0.00000000000E+00 -0.00000000000E+00 -0.13949803163E+04  0.13949803163E+04  0.00000000000E+00 0. -1.
   -9000010    2    1    2    0  502  0.41269216323E+03  0.83453654642E+03  0.45210193098E+03  0.14473053795E+04  0.10116969094E+04 0.  0.
        -13    1    1    2    0    0 -0.41269216323E+03 -0.83453654642E+03 -0.65590690780E+03  0.11388502763E+04  0.10566000000E+00 0.  1.
         13    1    3    3    0    0  0.19957321532E+03 -0.21992812419E+03  0.13125393535E+03  0.32469286224E+03  0.10566000000E+00 0. -1.
         -4    1    3    3    0  502  0.21311894791E+03  0.10544646706E+04  0.32084799564E+03  0.11226125172E+04  0.00000000000E+00 0. -1.
</event>
<event>
 6    1  0.2569591E-005  0.1071355E+04  0.7818608E-02  0.9153560E-01
         -4   -1    0    0    0  501 -0.00000000000E+00  0.00000000000E+00  0.87809407507E+03  0.87809407507E+03  0.00000000000E+00 0. -1.
         21   -1    0    0  501  502  0.00000000000E+00 -0.00000000000E+00 -0.12636169341E+04  0.12636169341E+04  0.00000000000E+00 0. -1.
   -9000010    2    1    2    0  502  0.15308981743E+03 -0.80916945775E+02 -0.10228835765E+04  0.14812469757E+04  0.10572690044E+04 0.  0.
        -13    1    1    2    0    0 -0.15308981743E+03  0.80916945775E+02  0.63736071739E+03  0.66046403351E+03  0.10566000000E+00 0.  1.
         13    1    3    3    0    0  0.20005208213E+03 -0.28250246435E+03 -0.11746442097E+04  0.12245887099E+04  0.10566000000E+00 0. -1.
         -4    1    3    3    0  502 -0.46962264699E+02  0.20158551858E+03  0.15176063322E+03  0.25665826580E+03  0.00000000000E+00 0. -1.
</event>
<event>
 6    1  0.2569591E-005  0.9208815E+03  0.7818608E-02  0.9140675E-01
          4   -1    0    0  502    0 -0.00000000000E+00  0.00000000000E+00  0.23404769530E+04  0.23404769530E+04  0.00000000000E+00 0.  1.
         21   -1    0    0  501  502  0.00000000000E+00 -0.00000000000E+00 -0.17331274006E+03  0.17331274006E+03  0.00000000000E+00 0.  1.
    9000010    2    1    2  501    0  0.26888669305E+03  0.99739049256E+02  0.19416326414E+04  0.21489439276E+04  0.87508557189E+03 0.  0.
        -13    1    3    3    0    0  0.36652005688E+03 -0.19113740205E+03  0.39354513347E+03  0.57074358674E+03  0.10566000000E+00 0.  1.
         13    1    1    2    0    0 -0.26888669305E+03 -0.99739049256E+02  0.22553157152E+03  0.36484576544E+03  0.10566000000E+00 0. -1.
          4    1    3    3  501    0 -0.97633363832E+02  0.29087645131E+03  0.15480875080E+04  0.15782003409E+04  0.00000000000E+00 0.  1.
</event>
<event>
 6    1  0.2569591E-005  0.1294612E+04  0.7818608E-02  0.8662485E-01
         21   -1    0    0  501  502  0.00000000000E+00  0.00000000000E+00  0.48977528773E+03  0.48977528773E+03  0.00000000000E+00 0. -1.
          4   -1    0    0  502    0 -0.00000000000E+00 -0.00000000000E+00 -0.21584803694E+04  0.21584803694E+04  0.00000000000E+00 0.  1.
    9000010    2    1    2  501    0 -0.63519889993E+03 -0.39369776661E+03 -0.90379991773E+03  0.15788841151E+04  0.10571400965E+04 0.  0.
        -13    1    3    3    0    0 -0.45460614582E+03  0.32109590404E+03 -0.36158463119E+03  0.66371137107E+03  0.10566000000E+00 0.  1.
         13    1    1    2    0    0  0.63519889993E+03  0.39369776661E+03 -0.76490516390E+03  0.10693715420E+04  0.10566000000E+00 0. -1.
          4    1    3    3  501    0 -0.18059275410E+03 -0.71479367065E+03 -0.54221528654E+03  0.91517274402E+03  0.00000000000E+00 0.  1.
</event>
<event>
 5    1  0.2569591E-005  0.1552437E+03  0.7818608E-02  0.1098496E+00
         21   -1    0    0  501  502  0.00000000000E+00  0.00000000000E+00  0.58194002680E+02  0.58194002680E+02  0.00000000000E+00 0. -1.
          4   -1    0    0  502    0 -0.00000000000E+00 -0.00000000000E+00 -0.43190346403E+03  0.43190346403E+03  0.00000000000E+00 0.  1.
        -13    1    1    2    0    0  0.10010979658E+02 -0.49960408970E+01 -0.63915375857E+02  0.64887337542E+02  0.10566000000E+00 0.  1.
         13    1    1    2    0    0 -0.14524015989E+03 -0.16538547899E+01 -0.10310406495E+03  0.17812326815E+03  0.10566000000E+00 0. -1.
          4    1    1    2  501    0  0.13522918023E+03  0.66498956869E+01 -0.20669002054E+03  0.24708686102E+03  0.00000000000E+00 0.  1.
</event>
<event>
 5    1  0.2569591E-005  0.2146525E+03  0.7818608E-02  0.1089518E+00
         -4   -1    0    0    0  501 -0.00000000000E+00  0.00000000000E+00  0.13310296490E+02  0.13310296490E+02  0.00000000000E+00 0. -1.
         21   -1    0    0  501  502  0.00000000000E+00 -0.00000000000E+00 -0.15260999223E+04  0.15260999223E+04  0.00000000000E+00 0. -1.
        -13    1    1    2    0    0 -0.59855250506E+02 -0.36812288112E+02 -0.39302038346E+03  0.39925283787E+03  0.10566000000E+00 0.  1.
         13    1    1    2    0    0  0.12595676164E+02  0.11865469711E+03 -0.67391897985E+03  0.68440075304E+03  0.10566000000E+00 0. -1.
         -4    1    1    2    0  502  0.47259574342E+02 -0.81842408997E+02 -0.44585026247E+03  0.45575662784E+03  0.00000000000E+00 0. -1.
</event>
<event>
 5    1  0.2569591E-005  0.2003527E+03  0.7818608E-02  0.1062168E+00
         -4   -1    0    0    0  501 -0.00000000000E+00  0.00000000000E+00  0.15576185915E+03  0.15576185915E+03  0.00000000000E+00 0. -1.
         21   -1    0    0  501  502  0.00000000000E+00 -0.00000000000E+00 -0.24147216848E+03  0.24147216848E+03  0.00000000000E+00 0.  1.
        -13    1    1    2    0    0 -0.18581996795E+03  0.25147931748E+02 -0.42888552676E+02  0.19235622702E+03  0.10566000000E+00 0.  1.
         13    1    1    2    0    0  0.15599076183E+03 -0.45842548385E+02 -0.44392475747E+02  0.16853889784E+03  0.10566000000E+00 0. -1.
         -4    1    1    2    0  502  0.29829206117E+02  0.20694616637E+02  0.15707190919E+01  0.36338902759E+02  0.00000000000E+00 0. -1.
</event>
<event>
 6    1  0.2569591E-005  0.1080403E+04  0.7818608E-02  0.8943833E-01
         21   -1    0    0  501  502  0.00000000000E+00  0.00000000000E+00  0.45013833493E+03  0.45013833493E+03  0.00000000000E+00 0. -1.
          4   -1    0    0  502    0 -0.00000000000E+00 -0.00000000000E+00 -0.13190856585E+04  0.13190856585E+04  0.00000000000E+00 0.  1.
    9000010    2    1    2  501    0  0.27225323345E+03 -0.28062303360E+03 -0.85534345945E+03  0.13780000340E+04  0.10071745380E+04 0.  0.
        -13    1    3    3    0    0  0.42642206574E+03 -0.14951233020E+02  0.42760415282E+02  0.42882138682E+03  0.10566000000E+00 0.  1.
         13    1    1    2    0    0 -0.27225323345E+03  0.28062303360E+03 -0.13603864087E+02  0.39122395938E+03  0.10566000000E+00 0. -1.
          4    1    3    3  501    0 -0.15416883229E+03 -0.26567180058E+03 -0.89810387474E+03  0.94917864719E+03  0.00000000000E+00 0.  1.
</event>
<event>
 6    1  0.2569591E-005  0.1030618E+04  0.7818608E-02  0.9038020E-01
         21   -1    0    0  501  502  0.00000000000E+00  0.00000000000E+00  0.68935182351E+03  0.68935182351E+03  0.00000000000E+00 0. -1.
         -4   -1    0    0    0  501 -0.00000000000E+00 -0.00000000000E+00 -0.70622062611E+03  0.70622062611E+03  0.00000000000E+00 0. -1.
   -9000010    2    1    2    0  502 -0.43345293237E+02  0.30437430481E+03  0.15678378640E+03  0.10424750626E+04  0.98369231401E+03 0.  0.
        -13    1    1    2    0    0  0.43345293237E+02 -0.30437430481E+03 -0.17365258900E+03  0.35309738700E+03  0.10566000000E+00 0.  1.
         13    1    3    3    0    0  0.24987421781E+03  0.13276134464E+03  0.49048889131E+03  0.56625264946E+03  0.10566000000E+00 0. -1.
         -4    1    3    3    0  502 -0.29321951105E+03  0.17161296017E+03 -0.33370510491E+03  0.47622241317E+03  0.00000000000E+00 0. -1.
</event>
<event>
 6    1  0.2569591E-005  0.1952315E+04  0.7818608E-02  0.8219654E-01
          4   -1    0    0  502    0 -0.00000000000E+00  0.00000000000E+00  0.30309388606E+04  0.30309388606E+04  0.00000000000E+00 0.  1.
         21   -1    0    0  501  502  0.00000000000E+00 -0.00000000000E+00 -0.12328988351E+04  0.12328988351E+04  0.00000000000E+00 0. -1.
    9000010    2    1    2  501    0  0.16461638853E+04 -0.30431893315E+03  0.22247065297E+03  0.19649500497E+04  0.10045247415E+04 0.  0.
        -13    1    3    3    0    0  0.15459309255E+04 -0.40607069079E+03 -0.11095615156E+03  0.16022194329E+04  0.10566000000E+00 0.  1.
         13    1    1    2    0    0 -0.16461638853E+04  0.30431893315E+03  0.15755693725E+04  0.22988876460E+04  0.10566000000E+00 0. -1.
          4    1    3    3  501    0  0.10023295972E+03  0.10175175764E+03  0.33342680453E+03  0.36273061682E+03  0.00000000000E+00 0.  1.
</event>
<event>
 6    1  0.2569591E-005  0.1018905E+04  0.7818608E-02  0.9625643E-01
         21   -1    0    0  501  502  0.00000000000E+00  0.00000000000E+00  0.44189189499E+03  0.44189189499E+03  0.00000000000E+00 0.  1.
          4   -1    0    0  502    0 -0.00000000000E+00 -0.00000000000E+00 -0.64024980665E+03  0.64024980665E+03  0.00000000000E+00 0.  1.
    9000010    2    1    2  501    0 -0.34438510819E+02 -0.46631501177E+01 -0.16174748545E+03  0.10316630877E+04  0.10183117015E+04 0.  0.
        -13    1    3    3    0    0 -0.48733611844E+03 -0.19479416841E+03 -0.44725743504E+02  0.52672731435E+03  0.10566000000E+00 0.  1.
         13    1    1    2    0    0  0.34438510819E+02  0.46631501177E+01 -0.36610426200E+02  0.50478613958E+02  0.10566000000E+00 0. -1.
          4    1    3    3  501    0  0.45289760762E+03  0.19013101830E+03 -0.11702174195E+03  0.50493577334E+03  0.00000000000E+00 0.  1.
</event>
<event>
 6    1  0.2569591E-005  0.1003940E+04  0.7818608E-02  0.9240728E-01
         21   -1    0    0  501  502  0.00000000000E+00  0.00000000000E+00  0.10097998480E+03  0.10097998480E+03  0.00000000000E+00 0.  1.
         -4   -1    0    0    0  501 -0.00000000000E+00 -0.00000000000E+00 -0.41252231101E+04  0.41252231101E+04  0.00000000000E+00 0. -1.
   -9000010    2    1    2    0  502  0.93922327646E+02 -0.11707842382E+03 -0.39120357252E+04  0.40388017268E+04  0.99265659329E+03 0.  0.
        -13    1    1    2    0    0 -0.93922327646E+02  0.11707842382E+03 -0.11220740004E+03  0.18740136804E+03  0.10566000000E+00 0.  1.
         13    1    3    3    0    0 -0.14106239197E+02  0.19267107259E+03 -0.10934082630E+03  0.22198323283E+03  0.10566000000E+00 0. -1.
         -4    1    3    3    0  502  0.10802856684E+03 -0.30974949641E+03 -0.38026948989E+04  0.38168184940E+04  0.00000000000E+00 0. -1.
</event>
<event>
 6    1  0.2569591E-005  0.1065997E+04  0.7818608E-02  0.8956846E-01
         -4   -1    0    0    0  501 -0.00000000000E+00  0.00000000000E+00  0.21723509100E+04  0.21723509100E+04  0.00000000000E+00 0. -1.
         21   -1    0    0  501  502  0.00000000000E+00 -0.00000000000E+00 -0.24583372116E+03  0.24583372116E+03  0.00000000000E+00 0.  1.
   -9000010    2    1    2    0  502  0.17290780720E+03  0.34504318671E+03  0.15310801466E+04  0.18656247919E+04  0.99367879023E+03 0.  0.
        -13    1    1    2    0    0 -0.17290780720E+03 -0.34504318671E+03  0.39543704220E+03  0.55255983929E+03  0.10566000000E+00 0.  1.
         13    1    3    3    0    0 -0.15727039840E+03  0.41176604169E+03  0.18498456391E+03  0.47802149674E+03  0.10566000000E+00 0. -1.
         -4    1    3    3    0  502  0.33017820560E+03 -0.66722854981E+02  0.13460955827E+04  0.13876032951E+04  0.00000000000E+00 0. -1.
</event>
<event>
 6    1  0.2569591E-005  0.1090399E+04  0.7818608E-02  0.8853784E-01
         -4   -1    0    0    0  501 -0.00000000000E+00  0.00000000000E+00  0.27298000123E+03  0.27298000123E+03  0.00000000000E+00 0. -1.
         21   -1    0    0  501  502  0.00000000000E+00 -0.00000000000E+00 -0.25096434303E+04  0.25096434303E+04  0.00000000000E+00 0.  1.
   -9000010    2    1    2    0  502 -0.52886992842E+03 -0.15883237578E+03 -0.16423460526E+04  0.19713625118E+04  0.94023320062E+03 0.  0.
        -13    1    1    2    0    0  0.52886992842E+03  0.15883237578E+03 -0.59431737649E+03  0.81126091977E+03  0.10566000000E+00 0.  1.
         13    1    3    3    0    0 -0.51368157756E+03  0.22989139389E+03 -0.14101810211E+04  0.15183311034E+04  0.10566000000E+00 0. -1.
         -4    1    3    3    0  502 -0.15188350855E+02 -0.38872376967E+03 -0.23216503146E+03  0.45303140834E+03  0.00000000000E+00 0. -1.
</event>
<event>
 6    1  0.2569591E-005  0.1106903E+04  0.7818608E-02  0.8872017E-01
         21   -1    0    0  501  502  0.00000000000E+00  0.00000000000E+00  0.65471448631E+03  0.65471448631E+03  0.00000000000E+00 0.  1.
          4   -1    0    0  502    0 -0.00000000000E+00 -0.00000000000E+00 -0.17765092347E+04  0.17765092347E+04  0.00000000000E+00 0.  1.
    9000010    2    1    2  501    0  0.63500419036E+02  0.48504590776E+03  0.10365247457E+03  0.11117455123E+04  0.99294129371E+03 0.  0.
        -13    1    3    3    0    0  0.16090081905E+03  0.16701199835E+03  0.52558499632E+03  0.57447513495E+03  0.10566000000E+00 0.  1.
         13    1    1    2    0    0 -0.63500419036E+02 -0.48504590776E+03 -0.12254472230E+04  0.13194782087E+04  0.10566000000E+00 0. -1.
          4    1    3    3  501    0 -0.97400400015E+02  0.31803390940E+03 -0.42193252174E+03  0.53727037733E+03  0.00000000000E+00 0.  1.
</event>
<event>
 6    1  0.2569591E-005  0.1102370E+04  0.7818608E-02  0.8892233E-01
          4   -1    0    0  502    0 -0.00000000000E+00  0.00000000000E+00  0.19100779083E+04  0.19100779083E+04  0.00000000000E+00 0.  1.
         21   -1    0    0  501  502  0.00000000000E+00 -0.00000000000E+00 -0.31843463489E+03  0.31843463489E+03  0.00000000000E+00 0.  1.
    9000010    2    1    2  501    0  0.44719738276E+03  0.85688389646E+02  0.10730901807E+04  0.15384217373E+04  0.10039377005E+04 0.  0.
        -13    1    3    3    0    0  0.13108352428E+03 -0.44285920439E+03  0.30308236408E+03  0.55241840650E+03  0.10566000000E+00 0.  1.
         13    1    1    2    0    0 -0.44719738276E+03 -0.85688389646E+02  0.51855309270E+03  0.69009080590E+03  0.10566000000E+00 0. -1.
          4    1    3    3  501    0  0.31611385848E+03  0.52854759404E+03  0.77000781659E+03  0.98600333078E+03  0.00000000000E+00 0.  1.
</event>
<event>
 5    1  0.2569591E-005  0.1547151E+03  0.7818608E-02  0.1132197E+00
          4   -1    0    0  502    0 -0.00000000000E+00  0.00000000000E+00  0.61117882983E+03  0.61117882983E+03  0.00000000000E+00 0.  1.
         21   -1    0    0  501  502  0.00000000000E+00 -0.00000000000E+00 -0.20522989833E+02  0.20522989833E+02  0.00000000000E+00 0.  1.
        -13    1    1    2    0    0  0.54570086767E+02 -0.77026128267E+02  0.19725645607E+03  0.21868022186E+03  0.10566000000E+00 0.  1.
         13    1    1    2    0    0 -0.42556882327E+02  0.42812344690E+02  0.95878416797E+02  0.11329901616E+03  0.10566000000E+00 0. -1.
          4    1    1    2  501    0 -0.12013204440E+02  0.34213783578E+02  0.29752096713E+03  0.29972258165E+03  0.00000000000E+00 0.  1.
</event>
<event>
 6    1  0.2569591E-005  0.9916734E+03  0.7818608E-02  0.9392929E-01
          4   -1    0    0  502    0 -0.00000000000E+00  0.00000000000E+00  0.24910441096E+04  0.24910441096E+04  0.00000000000E+00 0.  1.
         21   -1    0    0  501  502  0.00000000000E+00 -0.00000000000E+00 -0.12467722450E+03  0.12467722450E+03  0.00000000000E+00 0.  1.
    9000010    2    1    2  501    0  0.84589818874E+02 -0.22978185022E+02  0.23033785238E+04  0.25077816321E+04  0.98779180793E+03 0.  0.
        -13    1    3    3    0    0  0.49616732244E+03  0.70359518056E+02  0.78068950052E+03  0.92768991641E+03  0.10566000000E+00 0.  1.
         13    1    1    2    0    0 -0.84589818874E+02  0.22978185022E+02  0.62988361241E+02  0.10793970196E+03  0.10566000000E+00 0. -1.
          4    1    3    3  501    0 -0.41157750357E+03 -0.93337703078E+02  0.15226890233E+04  0.15800917157E+04  0.00000000000E+00 0.  1.
</event>
<event>
 5    1  0.2569591E-005  0.3834936E+02  0.7818608E-02  0.1351278E+00
          4   -1    0    0  502    0 -0.00000000000E+00  0.00000000000E+00  0.23729469165E+03  0.23729469165E+03  0.00000000000E+00 0.  1.
         21   -1    0    0  501  502  0.00000000000E+00 -0.00000000000E+00 -0.84398612159E+01  0.84398612159E+01  0.00000000000E+00 0. -1.
        -13    1    1    2    0    0  0.25770312111E+02 -0.61643033274E+01  0.13720575917E+03  0.13974097157E+03  0.10566000000E+00 0.  1.
         13    1    1    2    0    0 -0.32817443425E+02  0.15412748062E+02  0.44338889979E+02  0.57275524654E+02  0.10566000000E+00 0. -1.
          4    1    1    2  501    0  0.70471313144E+01 -0.92484447346E+01  0.47310181288E+02  0.48718056645E+02  0.00000000000E+00 0.  1.
</event>
<event>
 5    1  0.2569591E-005  0.8459008E+02  0.7818608E-02  0.1199213E+00
         -4   -1    0    0    0  501 -0.00000000000E+00  0.00000000000E+00  0.69664522844E+02  0.69664522844E+02  0.00000000000E+00 0. -1.
         21   -1    0    0  501  502  0.00000000000E+00 -0.00000000000E+00 -0.89398787408E+02  0.89398787408E+02  0.00000000000E+00 0.  1.
        -13    1    1    2    0    0 -0.23385520584E+02  0.69404568962E+02 -0.98344841735E+01  0.73895906577E+02  0.10566000000E+00 0.  1.
         13    1    1    2    0    0  0.14668100028E+02 -0.39193865556E+02  0.15622420814E+02  0.44669715152E+02  0.10566000000E+00 0. -1.
         -4    1    1    2    0  502  0.87174205559E+01 -0.30210703407E+02 -0.25522201204E+02  0.40497688524E+02  0.00000000000E+00 0. -1.
</event>
<event>
 6    1  0.2569591E-005  0.1183141E+04  0.7818608E-02  0.8760886E-01
          4   -1    0    0  502    0 -0.00000000000E+00  0.00000000000E+00  0.24464527526E+04  0.24464527526E+04  0.00000000000E+00 0.  1.
         21   -1    0    0  501  502  0.00000000000E+00 -0.00000000000E+00 -0.34505525976E+03  0.34505525976E+03  0.00000000000E+00 0.  1.
    9000010    2    1    2  501    0  0.47712560404E+03 -0.42675371973E+03  0.15247608237E+04  0.19299527683E+04  0.99501484352E+03 0.  0.
        -13    1    3    3    0    0 -0.22075255671E+02 -0.17558859576E+03 -0.10587170558E+03  0.20622197041E+03  0.10566000000E+00 0.  1.
         13    1    1    2    0    0 -0.47712560404E+03  0.42675371973E+03  0.57663666915E+03  0.86155524413E+03  0.10566000000E+00 0. -1.
          4    1    3    3  501    0  0.49920085971E+03 -0.25116512397E+03  0.16306325293E+04  0.17237307978E+04  0.00000000000E+00 0.  1.
</event>
<event>
 6    1  0.2569591E-005  0.1131899E+04  0.7818608E-02  0.8843492E-01
         -4   -1    0    0    0  501 -0.00000000000E+00  0.00000000000E+00  0.16647481245E+04  0.16647481245E+04  0.00000000000E+00 0. -1.
         21   -1    0    0  501  502  0.00000000000E+00 -0.00000000000E+00 -0.41685164517E+03  0.41685164517E+03  0.00000000000E+00 0.  1.
   -9000010    2    1    2    0  502 -0.51116718427E+03  0.65987612594E+02  0.99695138924E+03  0.15083461568E+04  0.10077449086E+04 0.  0.
        -13    1    1    2    0    0  0.51116718427E+03 -0.65987612594E+02  0.25094509006E+03  0.57325361288E+03  0.10566000000E+00 0.  1.
         13    1    3    3    0    0 -0.50272850377E+03  0.44831799537E+03  0.35575123051E+03  0.76176369213E+03  0.10566000000E+00 0. -1.
         -4    1    3    3    0  502 -0.84386805045E+01 -0.38233038278E+03  0.64120015874E+03  0.74658246463E+03  0.00000000000E+00 0. -1.
</event>
<event>
 5    1  0.2903526E-005  0.2647399E+03  0.7818608E-02  0.1067483E+00
          4   -1    0    0  502    0 -0.00000000000E+00  0.00000000000E+00  0.68298674064E+03  0.68298674064E+03  0.00000000000E+00 0.  1.
         21   -1    0    0  501  502  0.00000000000E+00 -0.00000000000E+00 -0.25358649688E+03  0.25358649688E+03  0.00000000000E+00 0. -1.
        -13    1    1    2    0    0  0.12775005687E+03  0.16059247334E+02  0.61260420595E+03  0.62598873853E+03  0.10566000000E+00 0.  1.
         13    1    1    2    0    0 -0.68197907480E+02  0.14388160577E+02 -0.22239686435E+03  0.23306297472E+03  0.10566000000E+00 0. -1.
          4    1    1    2  501    0 -0.59552149395E+02 -0.30447407911E+02  0.39192902160E+02  0.77521524274E+02  0.00000000000E+00 0.  1.
</event>
<event>
 6    1  0.2569591E-005  0.1015029E+04  0.7818608E-02  0.9160477E-01
         -4   -1    0    0    0  501 -0.00000000000E+00  0.00000000000E+00  0.84600514986E+03  0.84600514986E+03  0.00000000000E+00 0. -1.
         21   -1    0    0  501  502  0.00000000000E+00 -0.00000000000E+00 -0.43521250980E+03  0.43521250980E+03  0.00000000000E+00 0. -1.
   -9000010    2    1    2    0  502  0.15917181400E+03  0.11806831700E+03  0.35524342912E+03  0.10753985161E+04  0.99549398826E+03 0.  0.
        -13    1    1    2    0    0 -0.15917181400E+03 -0.11806831700E+03  0.55549210943E+02  0.20581914355E+03  0.10566000000E+00 0.  1.
         13    1    3    3    0    0 -0.21247955132E+03 -0.33265610448E+01 -0.26655455810E+03  0.34089583357E+03  0.10566000000E+00 0. -1.
         -4    1    3    3    0  502  0.37165136532E+03  0.12139487804E+03  0.62179798722E+03  0.73450268254E+03  0.00000000000E+00 0. -1.
</event>
<event>
 5    1  0.2569591E-005  0.8343929E+03  0.7818608E-02  0.8979996E-01
         21   -1    0    0  501  502  0.00000000000E+00  0.00000000000E+00  0.34937673829E+03  0.34937673829E+03  0.00000000000E+00 0. -1.
          4   -1    0    0  502    0 -0.00000000000E+00 -0.00000000000E+00 -0.24662741220E+04  0.24662741220E+04  0.00000000000E+00 0.  1.
        -13    1    1    2    0    0 -0.29149872624E+03 -0.41343651952E+03 -0.14360992342E+04  0.15225906491E+04  0.10566000000E+00 0.  1.
         13    1    1    2    0    0  0.58468128087E+03  0.44096042316E+03 -0.25519125862E+03  0.77551330397E+03  0.10566000000E+00 0. -1.
          4    1    1    2  501    0 -0.29318255463E+03 -0.27523903637E+02 -0.42560689089E+03  0.51754690723E+03  0.00000000000E+00 0.  1.
</event>
<event>
 6    1  0.2569591E-005  0.1025812E+04  0.7818608E-02  0.9147144E-01
         21   -1    0    0  501  502  0.00000000000E+00  0.00000000000E+00  0.11191493427E+03  0.11191493427E+03  0.00000000000E+00 0.  1.
          4   -1    0    0  502    0 -0.00000000000E+00 -0.00000000000E+00 -0.34969478566E+04  0.34969478566E+04  0.00000000000E+00 0.  1.
    9000010    2    1    2  501    0 -0.16073047865E+03 -0.12281220286E+03 -0.25262450590E+04  0.27265738760E+04  0.10056708603E+04 0.  0.
        -13    1    3    3    0    0  0.31179383054E+03 -0.12174669636E+03 -0.29601663960E+03  0.44683723314E+03  0.10566000000E+00 0.  1.
         13    1    1    2    0    0  0.16073047865E+03  0.12281220286E+03 -0.85878786336E+03  0.88228891490E+03  0.10566000000E+00 0. -1.
          4    1    3    3  501    0 -0.47252430918E+03 -0.10655065015E+01 -0.22302284194E+04  0.22797366428E+04  0.00000000000E+00 0.  1.
</event>
<event>
 6    1  0.2569591E-005  0.1040901E+04  0.7818608E-02  0.9027665E-01
          4   -1    0    0  502    0 -0.00000000000E+00  0.00000000000E+00  0.31092262631E+04  0.31092262631E+04  0.00000000000E+00 0.  1.
         21   -1    0    0  501  502  0.00000000000E+00 -0.00000000000E+00 -0.17199907012E+03  0.17199907012E+03  0.00000000000E+00 0.  1.
    9000010    2    1    2  501    0  0.27236589613E+03  0.15031941573E+03  0.16036955423E+04  0.19118876164E+04  0.99332560488E+03 0.  0.
        -13    1    3    3    0    0  0.61469039558E+03 -0.67649123320E+02  0.79616588175E+03  0.10081174578E+04  0.10566000000E+00 0.  1.
         13    1    1    2    0    0 -0.27236589613E+03 -0.15031941573E+03  0.13335316507E+04  0.13693377168E+04  0.10566000000E+00 0. -1.
          4    1    3    3  501    0 -0.34232449945E+03  0.21796853905E+03  0.80752966055E+03  0.90377015862E+03  0.00000000000E+00 0.  1.
</event>
<event>
 6    1  0.2569591E-005  0.9995916E+03  0.7818608E-02  0.9201319E-01
         21   -1    0    0  501  502  0.00000000000E+00  0.00000000000E+00  0.30637321611E+03  0.30637321611E+03  0.00000000000E+00 0.  1.
          4   -1    0    0  502    0 -0.00000000000E+00 -0.00000000000E+00 -0.11905084910E+04  0.11905084910E+04  0.00000000000E+00 0.  1.
    9000010    2    1    2  501    0  0.80566805958E+02  0.15762573452E+03 -0.61144597782E+03  0.11717719621E+04  0.98379188090E+03 0.  0.
        -13    1    3    3    0    0 -0.24172698663E+03  0.36630228432E+02  0.18336567191E+03  0.30560872125E+03  0.10566000000E+00 0.  1.
         13    1    1    2    0    0 -0.80566805958E+02 -0.15762573452E+03 -0.27268929708E+03  0.32510974503E+03  0.10566000000E+00 0. -1.
          4    1    3    3  501    0  0.32229379259E+03  0.12099550608E+03 -0.79481164973E+03  0.86616324084E+03  0.00000000000E+00 0.  1.
</event>
<event>
 6    1  0.2569591E-005  0.1365334E+04  0.7818608E-02  0.8582047E-01
         21   -1    0    0  501  502  0.00000000000E+00  0.00000000000E+00  0.68557951816E+03  0.68557951816E+03  0.00000000000E+00 0.  1.
          4   -1    0    0  502    0 -0.00000000000E+00 -0.00000000000E+00 -0.19832908249E+04  0.19832908249E+04  0.00000000000E+00 0.  1.
    9000010    2    1    2  501    0  0.63898777531E+03 -0.64565458609E+03 -0.48179418796E+03  0.14478478300E+04  0.10192950887E+04 0.  0.
        -13    1    3    3    0    0 -0.13543180189E+03 -0.11250989705E+03 -0.47612238145E+03  0.50763449763E+03  0.10566000000E+00 0.  1.
         13    1    1    2    0    0 -0.63898777531E+03  0.64565458609E+03 -0.81591711880E+03  0.12210225131E+04  0.10566000000E+00 0. -1.
          4    1    3    3  501    0  0.77441957720E+03 -0.53314468903E+03 -0.56718065122E+01  0.94021333238E+03  0.00000000000E+00 0.  1.
</event>
<event>
 5    1  0.2569591E-005  0.3315737E+02  0.7818608E-02  0.1399034E+00
          4   -1    0    0  502    0 -0.00000000000E+00  0.00000000000E+00  0.15933129833E+02  0.15933129833E+02  0.00000000000E+00 0.  1.
         21   -1    0    0  501  502  0.00000000000E+00 -0.00000000000E+00 -0.56571277019E+02  0.56571277019E+02  0.00000000000E+00 0.  1.
        -13    1    1    2    0    0  0.32281809789E+01  0.22184340754E+02 -0.25351758316E+02  0.33842117854E+02  0.10566000000E+00 0.  1.
         13    1    1    2    0    0 -0.13534174171E+02 -0.20430457329E+02 -0.75059551536E+01  0.25630606391E+02  0.10566000000E+00 0. -1.
          4    1    1    2  501    0  0.10305993192E+02 -0.17538834253E+01 -0.77804337169E+01  0.13031682607E+02  0.00000000000E+00 0.  1.
</event>
<event>
 6    1  0.2569591E-005  0.1159611E+04  0.7818608E-02  0.8756977E-01
         21   -1    0    0  501  502  0.00000000000E+00  0.00000000000E+00  0.41370464045E+03  0.41370464045E+03  0.00000000000E+00 0. -1.
          4   -1    0    0  502    0 -0.00000000000E+00 -0.00000000000E+00 -0.23011110732E+04  0.23011110732E+04  0.00000000000E+00 0.  1.
    9000010    2    1    2  501    0  0.63308639923E+03  0.27777191806E+03 -0.74119697364E+03  0.13762523933E+04  0.93098983287E+03 0.  0.
        -13    1    3    3    0    0  0.29131945249E+03 -0.17714644979E+03  0.10481402284E+03  0.35669858230E+03  0.10566000000E+00 0.  1.
         13    1    1    2    0    0 -0.63308639923E+03 -0.27777191806E+03 -0.11462094591E+04  0.13385633204E+04  0.10566000000E+00 0. -1.
          4    1    3    3  501    0  0.34176694675E+03  0.45491836785E+03 -0.84601099648E+03  0.10195538110E+04  0.00000000000E+00 0.  1.
</event>
<event>
 6    1  0.2569591E-005  0.1420653E+04  0.7818608E-02  0.8546286E-01
         21   -1    0    0  501  502  0.00000000000E+00  0.00000000000E+00  0.11978154079E+04  0.11978154079E+04  0.00000000000E+00 0. -1.
          4   -1    0    0  502    0 -0.00000000000E+00 -0.00000000000E+00 -0.18547103707E+04  0.18547103707E+04  0.00000000000E+00 0.  1.
    9000010    2    1    2  501    0 -0.81890687610E+03 -0.47391390900E+03  0.54613265319E+03  0.15220100743E+04  0.10597409714E+04 0.  0.
        -13    1    3    3    0    0  0.17823770621E+03 -0.37666165364E+03  0.12331350954E+03  0.43456750228E+03  0.10566000000E+00 0.  1.
         13    1    1    2    0    0  0.81890687610E+03  0.47391390900E+03 -0.12030276161E+04  0.15305157043E+04  0.10566000000E+00 0. -1.
          4    1    3    3  501    0 -0.99714458231E+03 -0.97252255361E+02  0.42281914365E+03  0.10874425720E+04  0.00000000000E+00 0.  1.
</event>
<event>
 6    1  0.2569591E-005  0.1050371E+04  0.7818608E-02  0.9124444E-01
         21   -1    0    0  501  502  0.00000000000E+00  0.00000000000E+00  0.70003076801E+03  0.70003076801E+03  0.00000000000E+00 0.  1.
          4   -1    0    0  502    0 -0.00000000000E+00 -0.00000000000E+00 -0.68484485596E+03  0.68484485596E+03  0.00000000000E+00 0.  1.
    9000010    2    1    2  501    0 -0.20546679176E+03  0.14747480175E+02  0.24261255309E+03  0.10780255321E+04  0.10299728667E+04 0.  0.
        -13    1    3    3    0    0  0.50829667921E+02 -0.32920217624E+03  0.48269012078E+03  0.58647036740E+03  0.10566000000E+00 0.  1.
         13    1    1    2    0    0  0.20546679176E+03 -0.14747480175E+02 -0.22742664104E+03  0.30685009191E+03  0.10566000000E+00 0. -1.
          4    1    3    3  501    0 -0.25629645968E+03  0.34394965641E+03 -0.24007756769E+03  0.49155516466E+03  0.00000000000E+00 0.  1.
</event>
<event>
 6    1  0.2569591E-005  0.1627318E+04  0.7818608E-02  0.8419102E-01
         21   -1    0    0  501  502  0.00000000000E+00  0.00000000000E+00  0.10361506163E+04  0.10361506163E+04  0.00000000000E+00 0.  1.
          4   -1    0    0  502    0 -0.00000000000E+00 -0.00000000000E+00 -0.25567798885E+04  0.25567798885E+04  0.00000000000E+00 0.  1.
    9000010    2    1    2  501    0 -0.47083187929E+03  0.10202924749E+04  0.89143877504E+02  0.16297573088E+04  0.11770653601E+04 0.  0.
        -13    1    3    3    0    0  0.66746273527E+02  0.38661380240E+02 -0.40070458195E+03  0.40806119702E+03  0.10566000000E+00 0.  1.
         13    1    1    2    0    0  0.47083187929E+03 -0.10202924749E+04 -0.16097731497E+04  0.19631731960E+04  0.10566000000E+00 0. -1.
          4    1    3    3  501    0 -0.53757815281E+03  0.98163109465E+03  0.48984845945E+03  0.12216961118E+04  0.00000000000E+00 0.  1.
</event>
<event>
 6    1  0.2569591E-005  0.1320653E+04  0.7818608E-02  0.8620332E-01
         21   -1    0    0  501  502  0.00000000000E+00  0.00000000000E+00  0.44680932392E+03  0.44680932392E+03  0.00000000000E+00 0. -1.
          4   -1    0    0  502    0 -0.00000000000E+00 -0.00000000000E+00 -0.26620094400E+04  0.26620094400E+04  0.00000000000E+00 0.  1.
    9000010    2    1    2  501    0  0.53545595625E+03 -0.65639086055E+03 -0.15148875911E+04  0.20097283733E+04  0.10131938007E+04 0.  0.
        -13    1    3    3    0    0 -0.28269623436E+03 -0.29651690613E+03 -0.63365200584E+03  0.75455570518E+03  0.10566000000E+00 0.  1.
         13    1    1    2    0    0 -0.53545595625E+03  0.65639086055E+03 -0.70031252494E+03  0.10990903906E+04  0.10566000000E+00 0. -1.
          4    1    3    3  501    0  0.81815219061E+03 -0.35987395442E+03 -0.88123558526E+03  0.12551726681E+04  0.00000000000E+00 0.  1.
</event>
<event>
 6    1  0.2569591E-005  0.1369034E+04  0.7818608E-02  0.8577642E-01
          4   -1    0    0  502    0 -0.00000000000E+00  0.00000000000E+00  0.34111840480E+04  0.34111840480E+04  0.00000000000E+00 0.  1.
         21   -1    0    0  501  502  0.00000000000E+00 -0.00000000000E+00 -0.39226124702E+03  0.39226124702E+03  0.00000000000E+00 0. -1.
    9000010    2    1    2  501    0 -0.90476979448E+03 -0.16053789031E+03  0.20764715499E+04  0.24871644864E+04  0.10148262363E+04 0.  0.
        -13    1    3    3    0    0 -0.86596944394E+03  0.70723902422E+02  0.77354406272E+03  0.11633036475E+04  0.10566000000E+00 0.  1.
         13    1    1    2    0    0  0.90476979448E+03  0.16053789031E+03  0.94245125114E+03  0.13162808086E+04  0.10566000000E+00 0. -1.
          4    1    3    3  501    0 -0.38800350543E+02 -0.23126179273E+03  0.13029274872E+04  0.13238608389E+04  0.00000000000E+00 0.  1.
</event>
<event>
 6    1  0.2569591E-005  0.1102836E+04  0.7818608E-02  0.8881155E-01
         21   -1    0    0  501  502  0.00000000000E+00  0.00000000000E+00  0.37569453346E+03  0.37569453346E+03  0.00000000000E+00 0. -1.
         -4   -1    0    0    0  501 -0.00000000000E+00 -0.00000000000E+00 -0.17137574139E+04  0.17137574139E+04  0.00000000000E+00 0. -1.
   -9000010    2    1    2    0  502  0.18413049271E+03  0.43911763733E+03 -0.10978804457E+04  0.15561453274E+04  0.99474542936E+03 0.  0.
        -13    1    1    2    0    0 -0.18413049271E+03 -0.43911763733E+03 -0.24018243476E+03  0.53330661996E+03  0.10566000000E+00 0.  1.
         13    1    3    3    0    0 -0.31126359054E+02 -0.20460286650E+02  0.17862067758E+03  0.18246323241E+03  0.10566000000E+00 0. -1.
         -4    1    3    3    0  502  0.21525685176E+03  0.45957792398E+03 -0.12765011232E+04  0.13736820950E+04  0.00000000000E+00 0. -1.
</event>
<event>
 5    1  0.2569591E-005  0.1514964E+03  0.7818608E-02  0.1100833E+00
          4   -1    0    0  502    0 -0.00000000000E+00  0.00000000000E+00  0.48071496898E+03  0.48071496898E+03  0.00000000000E+00 0.  1.
         21   -1    0    0  501  502  0.00000000000E+00 -0.00000000000E+00 -0.71185588136E+02  0.71185588136E+02  0.00000000000E+00 0. -1.
        -13    1    1    2    0    0  0.13565436074E+03 -0.25753666982E+02  0.31274642941E+02  0.14157496744E+03  0.10566000000E+00 0.  1.
         13    1    1    2    0    0 -0.14291995189E+03  0.33095655615E+02  0.36595134490E+03  0.39426112295E+03  0.10566000000E+00 0. -1.
          4    1    1    2  501    0  0.72655911441E+01 -0.73419886336E+01  0.12303393000E+02  0.16064466722E+02  0.00000000000E+00 0.  1.
</event>
<event>
 5    1  0.2569591E-005  0.7018976E+02  0.7818608E-02  0.1272910E+00
         -4   -1    0    0    0  501 -0.00000000000E+00  0.00000000000E+00  0.10242657676E+03  0.10242657676E+03  0.00000000000E+00 0. -1.
         21   -1    0    0  501  502  0.00000000000E+00 -0.00000000000E+00 -0.34311059122E+02  0.34311059122E+02  0.00000000000E+00 0.  1.
        -13    1    1    2    0    0  0.22898597568E+02  0.13005085105E+02 -0.13084909868E+02  0.29405850429E+02  0.10566000000E+00 0.  1.
         13    1    1    2    0    0 -0.41193502955E+02  0.79695112683E+01  0.54328220464E+02  0.68643896293E+02  0.10566000000E+00 0. -1.
         -4    1    1    2    0  502  0.18294905387E+02 -0.20974596374E+02  0.26872207039E+02  0.38687889156E+02  0.00000000000E+00 0. -1.
</event>
<event>
 6    1  0.2569591E-005  0.1122980E+04  0.7818608E-02  0.8855310E-01
         21   -1    0    0  501  502  0.00000000000E+00  0.00000000000E+00  0.27629750584E+03  0.27629750584E+03  0.00000000000E+00 0. -1.
          4   -1    0    0  502    0 -0.00000000000E+00 -0.00000000000E+00 -0.24694683836E+04  0.24694683836E+04  0.00000000000E+00 0.  1.
    9000010    2    1    2  501    0  0.40893002097E+03  0.29170196471E+03 -0.12738678844E+04  0.16981820966E+04  0.10043750535E+04 0.  0.
        -13    1    3    3    0    0 -0.12685551033E+03 -0.29936959940E+03 -0.35997276351E+03  0.48507203504E+03  0.10566000000E+00 0.  1.
         13    1    1    2    0    0 -0.40893002097E+03 -0.29170196471E+03 -0.91930299338E+03  0.10475837929E+04  0.10566000000E+00 0. -1.
          4    1    3    3  501    0  0.53578553131E+03  0.59107156411E+03 -0.91389512085E+03  0.12131100615E+04  0.00000000000E+00 0.  1.
</event>
<event>
 6    1  0.2569591E-005  0.1025089E+04  0.7818608E-02  0.8943287E-01
         21   -1    0    0  501  502  0.00000000000E+00  0.00000000000E+00  0.27895535379E+03  0.27895535379E+03  0.00000000000E+00 0.  1.
          4   -1    0    0  502    0 -0.00000000000E+00 -0.00000000000E+00 -0.19932478289E+04  0.19932478289E+04  0.00000000000E+00 0.  1.
    9000010    2    1    2  501    0  0.28030328060E+03 -0.36319809041E+03 -0.12860702964E+04  0.16446228871E+04  0.91669234277E+03 0.  0.
        -13    1    3    3    0    0  0.40236727492E+02 -0.61783816714E+03 -0.54405390594E+03  0.82421942391E+03  0.10566000000E+00 0.  1.
         13    1    1    2    0    0 -0.28030328060E+03  0.36319809041E+03 -0.42822217870E+03  0.62758029564E+03  0.10566000000E+00 0. -1.
          4    1    3    3  501    0  0.24006655310E+03  0.25464007673E+03 -0.74201639049E+03  0.82040346315E+03  0.00000000000E+00 0.  1.
</event>
<event>
 5    1  0.2569591E-005  0.4553999E+03  0.7818608E-02  0.9600934E-01
          4   -1    0    0  502    0 -0.00000000000E+00  0.00000000000E+00  0.47247393720E+03  0.47247393720E+03  0.00000000000E+00 0.  1.
         21   -1    0    0  501  502  0.00000000000E+00 -0.00000000000E+00 -0.44777930394E+03  0.44777930394E+03  0.00000000000E+00 0. -1.
        -13    1    1    2    0    0 -0.37710569920E+03 -0.12964215509E+03  0.11710459319E+03  0.41560713860E+03  0.10566000000E+00 0.  1.
         13    1    1    2    0    0  0.41537534033E+03  0.89429100666E+02 -0.12156709520E+03  0.44194208580E+03  0.10566000000E+00 0. -1.
          4    1    1    2  501    0 -0.38269641128E+02  0.40213054423E+02  0.29157135275E+02  0.62704016741E+02  0.00000000000E+00 0.  1.
</event>
<event>
 5    1  0.2569591E-005  0.5239159E+03  0.7818608E-02  0.9754643E-01
          4   -1    0    0  502    0 -0.00000000000E+00  0.00000000000E+00  0.12433672250E+04  0.12433672250E+04  0.00000000000E+00 0.  1.
         21   -1    0    0  501  502  0.00000000000E+00 -0.00000000000E+00 -0.95030834610E+02  0.95030834610E+02  0.00000000000E+00 0.  1.
        -13    1    1    2    0    0  0.23459855289E+03 -0.41818652130E+02  0.28200545965E+03  0.36920505294E+03  0.10566000000E+00 0.  1.
         13    1    1    2    0    0 -0.49087718170E+02 -0.15538250216E+03  0.29705843428E+03  0.33881713444E+03  0.10566000000E+00 0. -1.
          4    1    1    2  501    0 -0.18551083472E+03  0.19720115429E+03  0.56927249645E+03  0.63037587221E+03  0.00000000000E+00 0.  1.
</event>
<event>
 5    1  0.2569591E-005  0.3287867E+02  0.7818608E-02  0.1437673E+00
          4   -1    0    0  502    0 -0.00000000000E+00  0.00000000000E+00  0.11457272423E+03  0.11457272423E+03  0.00000000000E+00 0.  1.
         21   -1    0    0  501  502  0.00000000000E+00 -0.00000000000E+00 -0.77555985461E+01  0.77555985461E+01  0.00000000000E+00 0. -1.
        -13    1    1    2    0    0 -0.46650555988E+01  0.12557037284E+02  0.18154525897E+02  0.22561912678E+02  0.10566000000E+00 0.  1.
         13    1    1    2    0    0  0.12448587094E+02 -0.49308802156E+01  0.34061962927E+01  0.13816448080E+02  0.10566000000E+00 0. -1.
          4    1    1    2  501    0 -0.77835314949E+01 -0.76261570689E+01  0.85256403493E+02  0.85949962017E+02  0.00000000000E+00 0.  1.
</event>
<event>
 5    1  0.2569591E-005  0.3233056E+02  0.7818608E-02  0.1446448E+00
         21   -1    0    0  501  502  0.00000000000E+00  0.00000000000E+00  0.82420386882E+02  0.82420386882E+02  0.00000000000E+00 0.  1.
          4   -1    0    0  502    0 -0.00000000000E+00 -0.00000000000E+00 -0.61534611171E+01  0.61534611171E+01  0.00000000000E+00 0.  1.
        -13    1    1    2    0    0  0.23917579576E+01  0.16658178438E+02  0.45038367456E+02  0.48079945114E+02  0.10566000000E+00 0.  1.
         13    1    1    2    0    0 -0.10685283794E+02 -0.60173622845E+01  0.15741829614E+02  0.19954956834E+02  0.10566000000E+00 0. -1.
          4    1    1    2  501    0  0.82935258368E+01 -0.10640816153E+02  0.15486728695E+02  0.20538946051E+02  0.00000000000E+00 0.  1.
</event>
<event>
 6    1  0.2569591E-005  0.1069947E+04  0.7818608E-02  0.8955822E-01
         -4   -1    0    0    0  501 -0.00000000000E+00  0.00000000000E+00  0.21499893194E+04  0.21499893194E+04  0.00000000000E+00 0. -1.
         21   -1    0    0  501  502  0.00000000000E+00 -0.00000000000E+00 -0.39678338399E+03  0.39678338399E+03  0.00000000000E+00 0. -1.
   -9000010    2    1    2    0  502 -0.12743125758E+03  0.36148235206E+03  0.40317679058E+03  0.11433886080E+04  0.99893832046E+03 0.  0.
        -13    1    1    2    0    0  0.12743125758E+03 -0.36148235206E+03  0.13500291448E+04  0.14033840954E+04  0.10566000000E+00 0.  1.
         13    1    3    3    0    0 -0.34101749260E+03 -0.94112325225E+02 -0.15991837283E+03  0.38823183429E+03  0.10566000000E+00 0. -1.
         -4    1    3    3    0  502  0.21358623503E+03  0.45559467729E+03  0.56309516341E+03  0.75515677367E+03  0.00000000000E+00 0. -1.
</event>
<event>
 6    1  0.2569591E-005  0.1115874E+04  0.7818608E-02  0.8862052E-01
         21   -1    0    0  501  502  0.00000000000E+00  0.00000000000E+00  0.56651063508E+03  0.56651063508E+03  0.00000000000E+00 0. -1.
         -4   -1    0    0    0  501 -0.00000000000E+00 -0.00000000000E+00 -0.11700866086E+04  0.11700866086E+04  0.00000000000E+00 0. -1.
   -9000010    2    1    2    0  502 -0.45853107152E+03 -0.19364489031E+03 -0.30756624032E+03  0.11574851126E+04  0.99871202383E+03 0.  0.
        -13    1    1    2    0    0  0.45853107152E+03  0.19364489031E+03 -0.29600973320E+03  0.57911213112E+03  0.10566000000E+00 0.  1.
         13    1    3    3    0    0  0.79453679821E+02  0.26522890998E+03  0.15034754230E+03  0.31506135365E+03  0.10566000000E+00 0. -1.
         -4    1    3    3    0  502 -0.53798475134E+03 -0.45887380029E+03 -0.45791378262E+03  0.84242375891E+03  0.00000000000E+00 0. -1.
</event>
<event>
 6    1  0.2569591E-005  0.1028675E+04  0.7818608E-02  0.9121427E-01
         -4   -1    0    0    0  501 -0.00000000000E+00  0.00000000000E+00  0.17817546581E+04  0.17817546581E+04  0.00000000000E+00 0. -1.
         21   -1    0    0  501  502  0.00000000000E+00 -0.00000000000E+00 -0.21958930831E+03  0.21958930831E+03  0.00000000000E+00 0. -1.
   -9000010    2    1    2    0  502 -0.16521926596E+03  0.14817061759E+03  0.12652082357E+04  0.16306210557E+04  0.10044507005E+04 0.  0.
        -13    1    1    2    0    0  0.16521926596E+03 -0.14817061759E+03  0.29695711403E+03  0.37072291067E+03  0.10566000000E+00 0.  1.
         13    1    3    3    0    0 -0.39892819352E+03  0.12548985915E+03  0.84321765557E+02  0.42661643152E+03  0.10566000000E+00 0. -1.
         -4    1    3    3    0  502  0.23370892756E+03  0.22680758445E+02  0.11808864702E+04  0.12040046242E+04  0.00000000000E+00 0. -1.
</event>
<event>
 6    1  0.2569591E-005  0.1384846E+04  0.7818608E-02  0.8557222E-01
         -4   -1    0    0    0  501 -0.00000000000E+00  0.00000000000E+00  0.15680737417E+04  0.15680737417E+04  0.00000000000E+00 0. -1.
         21   -1    0    0  501  502  0.00000000000E+00 -0.00000000000E+00 -0.91266451071E+03  0.91266451071E+03  0.00000000000E+00 0.  1.
   -9000010    2    1    2    0  502 -0.55357075021E+02 -0.97100584796E+03  0.17463326905E+03  0.13958132323E+04  0.98584027013E+03 0.  0.
        -13    1    1    2    0    0  0.55357075021E+02  0.97100584796E+03  0.48077596191E+03  0.10849250201E+04  0.10566000000E+00 0.  1.
         13    1    3    3    0    0  0.44617051860E+03 -0.34015257118E+03 -0.37952202501E+02  0.56232755951E+03  0.10566000000E+00 0. -1.
         -4    1    3    3    0  502 -0.50152759362E+03 -0.63085327678E+03  0.21258547155E+03  0.83348567277E+03  0.00000000000E+00 0. -1.
</event>
<event>
 6    1  0.2569591E-005  0.1056182E+04  0.7818608E-02  0.9139190E-01
         -4   -1    0    0    0  501 -0.00000000000E+00  0.00000000000E+00  0.37717260563E+03  0.37717260563E+03  0.00000000000E+00 0. -1.
         21   -1    0    0  501  502  0.00000000000E+00 -0.00000000000E+00 -0.13284849291E+04  0.13284849291E+04  0.00000000000E+00 0. -1.
   -9000010    2    1    2    0  502  0.91448605010E+02 -0.16791263013E+03 -0.10510194826E+04  0.14900212033E+04  0.10387317915E+04 0.  0.
        -13    1    1    2    0    0 -0.91448605010E+02  0.16791263013E+03  0.99707159128E+02  0.21563633149E+03  0.10566000000E+00 0.  1.
         13    1    3    3    0    0 -0.28183788070E+03  0.27595991025E+03 -0.15738990758E+03  0.42468583357E+03  0.10566000000E+00 0. -1.
         -4    1    3    3    0  502  0.37328648571E+03 -0.44387254038E+03 -0.89362957505E+03  0.10653353697E+04  0.00000000000E+00 0. -1.
</event>
<event>
 5    1  0.2569591E-005  0.8993155E+02  0.7818608E-02  0.1197430E+00
         21   -1    0    0  501  502  0.00000000000E+00  0.00000000000E+00  0.18788633703E+03  0.18788633703E+03  0.00000000000E+00 0. -1.
          4   -1    0    0  502    0 -0.00000000000E+00 -0.00000000000E+00 -0.51867857636E+02  0.51867857636E+02  0.00000000000E+00 0.  1.
        -13    1    1    2    0    0 -0.54628466889E+00  0.67777419073E+02 -0.13081648115E+02  0.69030555876E+02  0.10566000000E+00 0.  1.
         13    1    1    2    0    0 -0.14361121747E+02 -0.61834450267E+02  0.13570892235E+03  0.14982210727E+03  0.10566000000E+00 0. -1.
          4    1    1    2  501    0  0.14907406416E+02 -0.59429688058E+01  0.13391205159E+02  0.20901531520E+02  0.00000000000E+00 0.  1.
</event>
<event>
 6    1  0.2569591E-005  0.1017965E+04  0.7818608E-02  0.9224700E-01
         21   -1    0    0  501  502  0.00000000000E+00  0.00000000000E+00  0.11701012662E+03  0.11701012662E+03  0.00000000000E+00 0.  1.
          4   -1    0    0  502    0 -0.00000000000E+00 -0.00000000000E+00 -0.30392964156E+04  0.30392964156E+04  0.00000000000E+00 0.  1.
    9000010    2    1    2  501    0 -0.15870211501E+01 -0.15312460642E+03 -0.22955874481E+04  0.25111700357E+04  0.10063814150E+04 0.  0.
        -13    1    3    3    0    0 -0.49844094129E+03 -0.22093945755E+01 -0.10964235951E+04  0.12044056478E+04  0.10566000000E+00 0.  1.
         13    1    1    2    0    0  0.15870211501E+01  0.15312460642E+03 -0.62669884090E+03  0.64513650655E+03  0.10566000000E+00 0. -1.
          4    1    3    3  501    0  0.49685392014E+03 -0.15091521185E+03 -0.11991638530E+04  0.13067643879E+04  0.00000000000E+00 0.  1.
</event>
<event>
 5    1  0.2569591E-005  0.2058838E+03  0.7818608E-02  0.1137175E+00
         -4   -1    0    0    0  501 -0.00000000000E+00  0.00000000000E+00  0.89792418487E+02  0.89792418487E+02  0.00000000000E+00 0. -1.
         21   -1    0    0  501  502  0.00000000000E+00 -0.00000000000E+00 -0.23016530133E+03  0.23016530133E+03  0.00000000000E+00 0. -1.
        -13    1    1    2    0    0 -0.19467050355E+02 -0.11413474582E+02  0.40203463720E+02  0.46103829674E+02  0.10566000000E+00 0.  1.
         13    1    1    2    0    0  0.53547998095E+02 -0.63560106556E+02 -0.17203184165E+03  0.19105559649E+03  0.10566000000E+00 0. -1.
         -4    1    1    2    0  502 -0.34080947740E+02  0.74973581138E+02 -0.85445049131E+01  0.82798293652E+02  0.00000000000E+00 0. -1.
</event>
<event>
 6    1  0.2569591E-005  0.1049851E+04  0.7818608E-02  0.9006633E-01
         21   -1    0    0  501  502  0.00000000000E+00  0.00000000000E+00  0.33428999743E+03  0.33428999743E+03  0.00000000000E+00 0.  1.
         -4   -1    0    0    0  501 -0.00000000000E+00 -0.00000000000E+00 -0.16607747074E+04  0.16607747074E+04  0.00000000000E+00 0. -1.
   -9000010    2    1    2    0  502 -0.30778540440E+03 -0.11910573497E+03 -0.63007083639E+03  0.12244089284E+04  0.99662928606E+03 0.  0.
        -13    1    1    2    0    0  0.30778540440E+03  0.11910573497E+03 -0.69641387362E+03  0.77065577646E+03  0.10566000000E+00 0.  1.
         13    1    3    3    0    0  0.34284946498E+03 -0.55174890027E+02 -0.50854077465E+02  0.35096463139E+03  0.10566000000E+00 0. -1.
         -4    1    3    3    0  502 -0.65063486938E+03 -0.63930844948E+02 -0.57921675893E+03  0.87344429703E+03  0.00000000000E+00 0. -1.
</event>
<event>
 6    1  0.2569591E-005  0.9772707E+03  0.7818608E-02  0.9231897E-01
         -4   -1    0    0    0  501 -0.00000000000E+00  0.00000000000E+00  0.28154698693E+04  0.28154698693E+04  0.00000000000E+00 0. -1.
         21   -1    0    0  501  502  0.00000000000E+00 -0.00000000000E+00 -0.13000846161E+03  0.13000846161E+03  0.00000000000E+00 0. -1.
   -9000010    2    1    2    0  502  0.70402678768E+02 -0.15291194160E+03  0.18400412212E+04  0.20834609866E+04  0.96266265523E+03 0.  0.
        -13    1    1    2    0    0 -0.70402678768E+02  0.15291194160E+03  0.84542018642E+03  0.86201734428E+03  0.10566000000E+00 0.  1.
         13    1    3    3    0    0 -0.15734172937E+03  0.35337006435E+03  0.10406090967E+04  0.11101775198E+04  0.10566000000E+00 0. -1.
         -4    1    3    3    0  502  0.22774440813E+03 -0.50628200595E+03  0.79943212451E+03  0.97328346677E+03  0.00000000000E+00 0. -1.
</event>
<event>
 6    1  0.2569591E-005  0.1069017E+04  0.7818608E-02  0.8977784E-01
         21   -1    0    0  501  502  0.00000000000E+00  0.00000000000E+00  0.26437086558E+03  0.26437086558E+03  0.00000000000E+00 0.  1.
          4   -1    0    0  502    0 -0.00000000000E+00 -0.00000000000E+00 -0.19229002677E+04  0.19229002677E+04  0.00000000000E+00 0.  1.
    9000010    2    1    2  501    0  0.27130243917E+03  0.22328650238E+03 -0.13286180899E+04  0.17052925438E+04  0.10096210950E+04 0.  0.
        -13    1    3    3    0    0  0.95673418857E+02 -0.94467839370E+02  0.13902773858E+03  0.19340708108E+03  0.10566000000E+00 0.  1.
         13    1    1    2    0    0 -0.27130243917E+03 -0.22328650238E+03 -0.32991131221E+03  0.48197858950E+03  0.10566000000E+00 0. -1.
          4    1    3    3  501    0  0.17562902032E+03  0.31775434175E+03 -0.14676458285E+04  0.15118854627E+04  0.00000000000E+00 0.  1.
</event>
<event>
 6    1  0.2569591E-005  0.1111835E+04  0.7818608E-02  0.8874807E-01
         -4   -1    0    0    0  501 -0.00000000000E+00  0.00000000000E+00  0.99365764603E+03  0.99365764603E+03  0.00000000000E+00 0. -1.
         21   -1    0    0  501  502  0.00000000000E+00 -0.00000000000E+00 -0.12086148397E+04  0.12086148397E+04  0.00000000000E+00 0. -1.
   -9000010    2    1    2    0  502  0.34721603090E+03  0.32725007565E+03 -0.85598324685E+03  0.14031692407E+04  0.10042534616E+04 0.  0.
        -13    1    1    2    0    0 -0.34721603090E+03 -0.32725007565E+03  0.64102605319E+03  0.79910324499E+03  0.10566000000E+00 0.  1.
         13    1    3    3    0    0 -0.25520884963E+03 -0.59563332281E+01 -0.62810592545E+03  0.67800007344E+03  0.10566000000E+00 0. -1.
         -4    1    3    3    0  502  0.60242488053E+03  0.33320640888E+03 -0.22787732140E+03  0.72516916730E+03  0.00000000000E+00 0. -1.
</event>
<event>
 6    1  0.2569591E-005  0.1021637E+04  0.7818608E-02  0.9126076E-01
         21   -1    0    0  501  502  0.00000000000E+00  0.00000000000E+00  0.38172286674E+03  0.38172286674E+03  0.00000000000E+00 0. -1.
         -4   -1    0    0    0  501 -0.00000000000E+00 -0.00000000000E+00 -0.10333902456E+04  0.10333902456E+04  0.00000000000E+00 0. -1.
   -9000010    2    1    2    0  502  0.22037569915E+03 -0.30200365374E+02 -0.45568365372E+03  0.11186554551E+04  0.99712833884E+03 0.  0.
        -13    1    1    2    0    0 -0.22037569915E+03  0.30200365374E+02 -0.19598372512E+03  0.29645765721E+03  0.10566000000E+00 0.  1.
         13    1    3    3    0    0 -0.29780164931E+03 -0.30768442654E+03 -0.13447559345E+03  0.44881981358E+03  0.10566000000E+00 0. -1.
         -4    1    3    3    0  502  0.51817734846E+03  0.27748406117E+03 -0.32120806028E+03  0.66983564152E+03  0.00000000000E+00 0. -1.
</event>
<event>
 5    1  0.2569591E-005  0.3499679E+03  0.7818608E-02  0.1004544E+00
         21   -1    0    0  501  502  0.00000000000E+00  0.00000000000E+00  0.15184681902E+03  0.15184681902E+03  0.00000000000E+00 0.  1.
          4   -1    0    0  502    0 -0.00000000000E+00 -0.00000000000E+00 -0.56329620049E+03  0.56329620049E+03  0.00000000000E+00 0.  1.
        -13    1    1    2    0    0 -0.14583202317E+03 -0.94579702318E+02  0.23821246793E+02  0.17544162002E+03  0.10566000000E+00 0.  1.
         13    1    1    2    0    0  0.85147017573E+02  0.18830042978E+03 -0.26428965437E+03  0.33549381370E+03  0.10566000000E+00 0. -1.
          4    1    1    2  501    0  0.60685005593E+02 -0.93720727464E+02 -0.17098097390E+03  0.20420758579E+03  0.00000000000E+00 0.  1.
</event>
<event>
 6    1  0.2569591E-005  0.1100872E+04  0.7818608E-02  0.8894048E-01
         21   -1    0    0  501  502  0.00000000000E+00  0.00000000000E+00  0.78136155197E+03  0.78136155197E+03  0.00000000000E+00 0. -1.
         -4   -1    0    0    0  501 -0.00000000000E+00 -0.00000000000E+00 -0.12313904562E+04  0.12313904562E+04  0.00000000000E+00 0. -1.
   -9000010    2    1    2    0  502 -0.42600473650E+03 -0.15627654083E+03  0.29563188221E+03  0.11398760649E+04  0.10030039087E+04 0.  0.
        -13    1    1    2    0    0  0.42600473650E+03  0.15627654083E+03 -0.74566078647E+03  0.87287594329E+03  0.10566000000E+00 0.  1.
         13    1    3    3    0    0 -0.46077560155E+03 -0.11637110417E+03  0.63682141718E+03  0.79460551056E+03  0.10566000000E+00 0. -1.
         -4    1    3    3    0  502  0.34770865053E+02 -0.39905436661E+02 -0.34118953497E+03  0.34527055435E+03  0.00000000000E+00 0. -1.
</event>
<event>
 5    1  0.2569591E-005  0.3010414E+03  0.7818608E-02  0.1012748E+00
         -4   -1    0    0    0  501 -0.00000000000E+00  0.00000000000E+00  0.10452703048E+04  0.10452703048E+04  0.00000000000E+00 0. -1.
         21   -1    0    0  501  502  0.00000000000E+00 -0.00000000000E+00 -0.72632021331E+02  0.72632021331E+02  0.00000000000E+00 0.  1.
        -13    1    1    2    0    0 -0.22269813003E+03 -0.11196406151E+03  0.47011078799E+03  0.53210391122E+03  0.10566000000E+00 0.  1.
         13    1    1    2    0    0  0.18730239196E+03  0.15377677380E+03  0.44260969364E+03  0.50461156771E+03  0.10566000000E+00 0. -1.
         -4    1    1    2    0  502  0.35395738078E+02 -0.41812712295E+02  0.59917801888E+02  0.81186847252E+02  0.00000000000E+00 0. -1.
</event>
<event>
 6    1  0.2569591E-005  0.1021643E+04  0.7818608E-02  0.9134954E-01
         21   -1    0    0  501  502  0.00000000000E+00  0.00000000000E+00  0.44426037217E+03  0.44426037217E+03  0.00000000000E+00 0. -1.
         -4   -1    0    0    0  501 -0.00000000000E+00 -0.00000000000E+00 -0.90234430608E+03  0.90234430608E+03  0.00000000000E+00 0. -1.
   -9000010    2    1    2    0  502 -0.28316034528E+01  0.21478024267E+03 -0.48355491054E+03  0.11303008354E+04  0.99880731693E+03 0.  0.
        -13    1    1    2    0    0  0.28316034528E+01 -0.21478024267E+03  0.25470976631E+02  0.21630384286E+03  0.10566000000E+00 0.  1.
         13    1    3    3    0    0  0.36349570739E+02 -0.27487957652E+03  0.16043843114E+03  0.32034446184E+03  0.10566000000E+00 0. -1.
         -4    1    3    3    0  502 -0.39181174192E+02  0.48965981919E+03 -0.64399334167E+03  0.80995637355E+03  0.00000000000E+00 0. -1.
</event>
<event>
 6    1  0.2569591E-005  0.1067327E+04  0.7818608E-02  0.8985011E-01
         -4   -1    0    0    0  501 -0.00000000000E+00  0.00000000000E+00  0.96942695129E+03  0.96942695129E+03  0.00000000000E+00 0. -1.
         21   -1    0    0  501  502  0.00000000000E+00 -0.00000000000E+00 -0.51523397602E+03  0.51523397602E+03  0.00000000000E+00 0. -1.
   -9000010    2    1    2    0  502 -0.35231345983E+02 -0.34101063857E+03  0.29951630418E+03  0.11085567036E+04  0.10107712131E+04 0.  0.
        -13    1    1    2    0    0  0.35231345983E+02  0.34101063857E+03  0.15467667110E+03  0.37610422372E+03  0.10566000000E+00 0.  1.
         13    1    3    3    0    0  0.30973135724E+03 -0.36382277834E+03 -0.18582787195E+03  0.51267195832E+03  0.10566000000E+00 0. -1.
         -4    1    3    3    0  502 -0.34496270322E+03  0.22812139766E+02  0.48534417613E+03  0.59588474526E+03  0.00000000000E+00 0. -1.
</event>
<event>
 5    1  0.2774802E-005  0.1114779E+03  0.7818608E-02  0.1149376E+00
         -4   -1    0    0    0  501 -0.00000000000E+00  0.00000000000E+00  0.30010685712E+02  0.30010685712E+02  0.00000000000E+00 0. -1.
         21   -1    0    0  501  502  0.00000000000E+00 -0.00000000000E+00 -0.43740226248E+03  0.43740226248E+03  0.00000000000E+00 0.  1.
        -13    1    1    2    0    0  0.75926903934E+02  0.72065154240E+02 -0.27551576614E+03  0.29473247150E+03  0.10566000000E+00 0.  1.
         13    1    1    2    0    0 -0.61695168505E+02 -0.74823154822E+02 -0.11514772046E+03  0.15054503315E+03  0.10566000000E+00 0. -1.
         -4    1    1    2    0  502 -0.14231735429E+02  0.27580005823E+01 -0.16728090163E+02  0.22135443547E+02  0.00000000000E+00 0. -1.
</event>
<event>
 6    1  0.2569591E-005  0.1037413E+04  0.7818608E-02  0.9178310E-01
         -4   -1    0    0    0  501 -0.00000000000E+00  0.00000000000E+00  0.96884348060E+03  0.96884348060E+03  0.00000000000E+00 0. -1.
         21   -1    0    0  501  502  0.00000000000E+00 -0.00000000000E+00 -0.38070518814E+03  0.38070518814E+03  0.00000000000E+00 0.  1.
   -9000010    2    1    2    0  502  0.14375522199E+03 -0.96527841936E+02  0.54143585561E+03  0.11702045389E+04  0.10228600535E+04 0.  0.
        -13    1    1    2    0    0 -0.14375522199E+03  0.96527841936E+02  0.46702436843E+02  0.17934412979E+03  0.10566000000E+00 0.  1.
         13    1    3    3    0    0  0.28374620859E+03 -0.22339274110E+03 -0.19465761767E+03  0.41025336921E+03  0.10566000000E+00 0. -1.
         -4    1    3    3    0  502 -0.13999098660E+03  0.12686489917E+03  0.73609347329E+03  0.75995116974E+03  0.00000000000E+00 0. -1.
</event>
<event>
 6    1  0.2569591E-005  0.1066359E+04  0.7818608E-02  0.8979825E-01
          4   -1    0    0  502    0 -0.00000000000E+00  0.00000000000E+00  0.27627487648E+04  0.27627487648E+04  0.00000000000E+00 0.  1.
         21   -1    0    0  501  502  0.00000000000E+00 -0.00000000000E+00 -0.19640110513E+03  0.19640110513E+03  0.00000000000E+00 0.  1.
    9000010    2    1    2  501    0 -0.34925269692E+03 -0.35771905203E+02  0.15299642093E+04  0.18649160088E+04  0.10069082195E+04 0.  0.
        -13    1    3    3    0    0 -0.33628833016E+03 -0.43201705448E+03  0.43144873595E+03  0.69704849135E+03  0.10566000000E+00 0.  1.
         13    1    1    2    0    0  0.34925269692E+03  0.35771905203E+02  0.10363834504E+04  0.10942338612E+04  0.10566000000E+00 0. -1.
          4    1    3    3  501    0 -0.12964366757E+02  0.39624514928E+03  0.10985154733E+04  0.11678675174E+04  0.00000000000E+00 0.  1.
</event>
<event>
 6    1  0.2569591E-005  0.1385974E+04  0.7818608E-02  0.8560237E-01
         21   -1    0    0  501  502  0.00000000000E+00  0.00000000000E+00  0.89437403547E+03  0.89437403547E+03  0.00000000000E+00 0. -1.
         -4   -1    0    0    0  501 -0.00000000000E+00 -0.00000000000E+00 -0.15496974629E+04  0.15496974629E+04  0.00000000000E+00 0. -1.
   -9000010    2    1    2    0  502 -0.95699694564E+03  0.19855338674E+02 -0.26893446014E+03  0.14118245155E+04  0.10023399275E+04 0.  0.
        -13    1    1    2    0    0  0.95699694564E+03 -0.19855338674E+02 -0.38638896731E+03  0.10322469829E+04  0.10566000000E+00 0.  1.
         13    1    3    3    0    0 -0.54445506972E+02  0.37044703286E+03 -0.23683057427E+03  0.44303955744E+03  0.10566000000E+00 0. -1.
         -4    1    3    3    0  502 -0.90255143867E+03 -0.35059169419E+03 -0.32103885865E+02  0.96878495806E+03  0.00000000000E+00 0. -1.
</event>
<event>
 6    1  0.2569591E-005  0.1144172E+04  0.7818608E-02  0.8818347E-01
         21   -1    0    0  501  502  0.00000000000E+00  0.00000000000E+00  0.25655837108E+03  0.25655837108E+03  0.00000000000E+00 0. -1.
         -4   -1    0    0    0  501 -0.00000000000E+00 -0.00000000000E+00 -0.28138188903E+04  0.28138188903E+04  0.00000000000E+00 0. -1.
   -9000010    2    1    2    0  502  0.45558943256E+03  0.31633870214E+03 -0.17565455785E+04  0.20963257571E+04  0.10007484225E+04 0.  0.
        -13    1    1    2    0    0 -0.45558943256E+03 -0.31633870214E+03 -0.80071494078E+03  0.97405150433E+03  0.10566000000E+00 0.  1.
         13    1    3    3    0    0  0.46214681000E+03  0.22617342033E+03 -0.22408751766E+03  0.56120345401E+03  0.10566000000E+00 0. -1.
         -4    1    3    3    0  502 -0.65573774437E+01  0.90165281813E+02 -0.15324580608E+04  0.15351223031E+04  0.00000000000E+00 0. -1.
</event>
<event>
 6    1  0.2569591E-005  0.1052624E+04  0.7818608E-02  0.9044152E-01
         21   -1    0    0  501  502  0.00000000000E+00  0.00000000000E+00  0.20274903759E+03  0.20274903759E+03  0.00000000000E+00 0. -1.
         -4   -1    0    0    0  501 -0.00000000000E+00 -0.00000000000E+00 -0.23273479521E+04  0.23273479521E+04  0.00000000000E+00 0. -1.
   -9000010    2    1    2    0  502 -0.22525142496E+03  0.16892616581E+03 -0.13914998477E+04  0.17447890839E+04  0.10142696226E+04 0.  0.
        -13    1    1    2    0    0  0.22525142496E+03 -0.16892616581E+03 -0.73309906685E+03  0.78530790580E+03  0.10566000000E+00 0.  1.
         13    1    3    3    0    0 -0.39044125622E+03  0.14490707977E+03 -0.81709026736E+02  0.42440406753E+03  0.10566000000E+00 0. -1.
         -4    1    3    3    0  502  0.16518983126E+03  0.24019086049E+02 -0.13097908209E+04  0.13203850164E+04  0.00000000000E+00 0. -1.
</event>
<event>
 6    1  0.2569591E-005  0.1128985E+04  0.7818608E-02  0.8873595E-01
         -4   -1    0    0    0  501 -0.00000000000E+00  0.00000000000E+00  0.22566801817E+04  0.22566801817E+04  0.00000000000E+00 0. -1.
         21   -1    0    0  501  502  0.00000000000E+00 -0.00000000000E+00 -0.27903035937E+03  0.27903035937E+03  0.00000000000E+00 0.  1.
   -9000010    2    1    2    0  502  0.44762398686E+03  0.97020312212E+02  0.14157736413E+04  0.18108070795E+04  0.10319045989E+04 0.  0.
        -13    1    1    2    0    0 -0.44762398686E+03 -0.97020312212E+02  0.56187618104E+03  0.72490346156E+03  0.10566000000E+00 0.  1.
         13    1    3    3    0    0  0.24122596611E+03  0.23735007448E+03 -0.33619872004E+02  0.34008136018E+03  0.10566000000E+00 0. -1.
         -4    1    3    3    0  502  0.20639802075E+03 -0.14032976227E+03  0.14493935133E+04  0.14707257194E+04  0.00000000000E+00 0. -1.
</event>
<event>
 6    1  0.2569591E-005  0.1001695E+04  0.7818608E-02  0.9234855E-01
          4   -1    0    0  502    0 -0.00000000000E+00  0.00000000000E+00  0.34991372448E+04  0.34991372448E+04  0.00000000000E+00 0.  1.
         21   -1    0    0  501  502  0.00000000000E+00 -0.00000000000E+00 -0.10502126516E+03  0.10502126516E+03  0.00000000000E+00 0.  1.
    9000010    2    1    2  501    0  0.47744538989E+02  0.14699683710E+03  0.32157238637E+04  0.33681259501E+04  0.98969936696E+03 0.  0.
        -13    1    3    3    0    0  0.24973384468E+03  0.43319255576E+03  0.93170564757E+03  0.10574016306E+04  0.10566000000E+00 0.  1.
         13    1    1    2    0    0 -0.47744538989E+02 -0.14699683710E+03  0.17839211588E+03  0.23603255982E+03  0.10566000000E+00 0. -1.
          4    1    3    3  501    0 -0.20198930569E+03 -0.28619571866E+03  0.22840182161E+04  0.23107243195E+04  0.00000000000E+00 0.  1.
</event>
<event>
 6    1  0.2569591E-005  0.1054560E+04  0.7818608E-02  0.8953296E-01
         -4   -1    0    0    0  501 -0.00000000000E+00  0.00000000000E+00  0.41412690346E+03  0.41412690346E+03  0.00000000000E+00 0. -1.
         21   -1    0    0  501  502  0.00000000000E+00 -0.00000000000E+00 -0.13750535400E+04  0.13750535400E+04  0.00000000000E+00 0. -1.
   -9000010    2    1    2    0  502 -0.40441174924E+03  0.66205155349E+01 -0.88704502871E+03  0.13780220831E+04  0.97391133293E+03 0.  0.
        -13    1    1    2    0    0  0.40441174924E+03 -0.66205155349E+01 -0.73881607823E+02  0.41115836036E+03  0.10566000000E+00 0.  1.
         13    1    3    3    0    0  0.22277462058E+03  0.22768419612E+03 -0.72854525814E+02  0.32676661065E+03  0.10566000000E+00 0. -1.
         -4    1    3    3    0  502 -0.62718636983E+03 -0.22106368058E+03 -0.81419050290E+03  0.10512554725E+04  0.00000000000E+00 0. -1.
</event>
<event>
 6    1  0.2569591E-005  0.9960328E+03  0.7818608E-02  0.9293482E-01
         21   -1    0    0  501  502  0.00000000000E+00  0.00000000000E+00  0.41956345504E+03  0.41956345504E+03  0.00000000000E+00 0. -1.
         -4   -1    0    0    0  501 -0.00000000000E+00 -0.00000000000E+00 -0.75954712425E+03  0.75954712425E+03  0.00000000000E+00 0. -1.
   -9000010    2    1    2    0  502 -0.11250332618E+03  0.55983391298E+02 -0.34292592915E+03  0.10534132979E+04  0.98807400771E+03 0.  0.
        -13    1    1    2    0    0  0.11250332618E+03 -0.55983391298E+02  0.29422599365E+01  0.12569728144E+03  0.10566000000E+00 0.  1.
         13    1    3    3    0    0 -0.11182653658E+03  0.50013174444E+03 -0.36425876913E+02  0.51377406683E+03  0.10566000000E+00 0. -1.
         -4    1    3    3    0  502 -0.67678960081E+00 -0.44414835314E+03 -0.30650005223E+03  0.53963923102E+03  0.00000000000E+00 0. -1.
</event>
<event>
 6    1  0.2569591E-005  0.1036239E+04  0.7818608E-02  0.9016658E-01
         21   -1    0    0  501  502  0.00000000000E+00  0.00000000000E+00  0.22921454690E+03  0.22921454690E+03  0.00000000000E+00 0. -1.
         -4   -1    0    0    0  501 -0.00000000000E+00 -0.00000000000E+00 -0.28941684474E+04  0.28941684474E+04  0.00000000000E+00 0. -1.
   -9000010    2    1    2    0  502 -0.28781146100E+03 -0.16062225542E+03 -0.10503265623E+04  0.14754581179E+04  0.98242344437E+03 0.  0.
        -13    1    1    2    0    0  0.28781146100E+03  0.16062225542E+03 -0.16146273382E+04  0.16479248765E+04  0.10566000000E+00 0.  1.
         13    1    3    3    0    0  0.38336067322E+02 -0.46992968134E+03 -0.19701468907E+03  0.51099741520E+03  0.10566000000E+00 0. -1.
         -4    1    3    3    0  502 -0.32614752833E+03  0.30930742592E+03 -0.85331187325E+03  0.96446070267E+03  0.00000000000E+00 0. -1.
</event>
<event>
 6    1  0.2569591E-005  0.1062164E+04  0.7818608E-02  0.8992098E-01
         -4   -1    0    0    0  501 -0.00000000000E+00  0.00000000000E+00  0.27924546991E+04  0.27924546991E+04  0.00000000000E+00 0. -1.
         21   -1    0    0  501  502  0.00000000000E+00 -0.00000000000E+00 -0.19850986476E+03  0.19850986476E+03  0.00000000000E+00 0. -1.
   -9000010    2    1    2    0  502  0.30323219600E+03  0.14929228543E+03  0.14452930771E+04  0.17936179884E+04  0.10069535533E+04 0.  0.
        -13    1    1    2    0    0 -0.30323219600E+03 -0.14929228543E+03  0.11486517572E+04  0.11973465754E+04  0.10566000000E+00 0.  1.
         13    1    3    3    0    0  0.40372743155E+03 -0.24274215126E+03  0.25344984772E+03  0.53493590967E+03  0.10566000000E+00 0. -1.
         -4    1    3    3    0  502 -0.10049523554E+03  0.39203443670E+03  0.11918432294E+04  0.12586820787E+04  0.00000000000E+00 0. -1.
</event>
<event>
 5    1  0.2569591E-005  0.3079979E+03  0.7818608E-02  0.1007665E+00
          4   -1    0    0  502    0 -0.00000000000E+00  0.00000000000E+00  0.84382891136E+02  0.84382891136E+02  0.00000000000E+00 0.  1.
         21   -1    0    0  501  502  0.00000000000E+00 -0.00000000000E+00 -0.10067878252E+04  0.10067878252E+04  0.00000000000E+00 0. -1.
        -13    1    1    2    0    0  0.17840247397E+03  0.19422396362E+03 -0.46314113934E+03  0.53296352303E+03  0.10566000000E+00 0.  1.
         13    1    1    2    0    0 -0.21440799833E+03 -0.17065022912E+03 -0.40385768764E+03  0.48805054398E+03  0.10566000000E+00 0. -1.
          4    1    1    2  501    0  0.36005524359E+02 -0.23573734501E+02 -0.55406107060E+02  0.70156649309E+02  0.00000000000E+00 0.  1.
</event>
<event>
 6    1  0.2569591E-005  0.1161244E+04  0.7818608E-02  0.8795677E-01
         -4   -1    0    0    0  501 -0.00000000000E+00  0.00000000000E+00  0.13006107611E+04  0.13006107611E+04  0.00000000000E+00 0. -1.
         21   -1    0    0  501  502  0.00000000000E+00 -0.00000000000E+00 -0.62421237434E+03  0.62421237434E+03  0.00000000000E+00 0. -1.
   -9000010    2    1    2    0  502 -0.42635746227E+03  0.39893789620E+03  0.21579542255E+03  0.11811247877E+04  0.10037708748E+04 0.  0.
        -13    1    1    2    0    0  0.42635746227E+03 -0.39893789620E+03  0.46060296418E+03  0.74369834774E+03  0.10566000000E+00 0.  1.
         13    1    3    3    0    0 -0.28466413367E+02  0.37006812629E+03 -0.33570661740E+03  0.50045948778E+03  0.10566000000E+00 0. -1.
         -4    1    3    3    0  502 -0.39789104890E+03  0.28869769910E+02  0.55150203995E+03  0.68066529989E+03  0.00000000000E+00 0. -1.
</event>
<event>
 6    1  0.2569591E-005  0.1042951E+04  0.7818608E-02  0.9030101E-01
         21   -1    0    0  501  502  0.00000000000E+00  0.00000000000E+00  0.83279443292E+03  0.83279443292E+03  0.00000000000E+00 0.  1.
          4   -1    0    0  502    0 -0.00000000000E+00 -0.00000000000E+00 -0.57448309684E+03  0.57448309684E+03  0.00000000000E+00 0.  1.
    9000010    2    1    2  501    0 -0.26996921367E+03 -0.14458660884E+03  0.32778362393E+03  0.10932471591E+04  0.99697471526E+03 0.  0.
        -13    1    3    3    0    0  0.10359692517E+03  0.13803482988E+03  0.54879784349E+03  0.57529559476E+03  0.10566000000E+00 0.  1.
         13    1    1    2    0    0  0.26996921367E+03  0.14458660884E+03 -0.69472287855E+02  0.31403037071E+03  0.10566000000E+00 0. -1.
          4    1    3    3  501    0 -0.37356613884E+03 -0.28262143873E+03 -0.22101421955E+03  0.51795156430E+03  0.00000000000E+00 0.  1.
</event>
<event>
 5    1  0.1753602E-004  0.1173323E+03  0.7818608E-02  0.1141074E+00
         21   -1    0    0  501  502  0.00000000000E+00  0.00000000000E+00  0.49261949760E+03  0.49261949760E+03  0.00000000000E+00 0. -1.
          4   -1    0    0  502    0 -0.00000000000E+00 -0.00000000000E+00 -0.29520385347E+02  0.29520385347E+02  0.00000000000E+00 0.  1.
        -13    1    1    2    0    0 -0.63509493221E+02 -0.75865289099E+02  0.10874824134E+03  0.14702104944E+03  0.10566000000E+00 0.  1.
         13    1    1    2    0    0  0.67285597734E+02  0.87630516757E+02  0.31101275884E+03  0.33005364178E+03  0.10566000000E+00 0. -1.
          4    1    1    2  501    0 -0.37761045128E+01 -0.11765227658E+02  0.43338112081E+02  0.45065191733E+02  0.00000000000E+00 0.  1.
</event>
<event>
 6    1  0.2569591E-005  0.1037645E+04  0.7818608E-02  0.9100840E-01
          4   -1    0    0  502    0 -0.00000000000E+00  0.00000000000E+00  0.23759760267E+04  0.23759760267E+04  0.00000000000E+00 0.  1.
         21   -1    0    0  501  502  0.00000000000E+00 -0.00000000000E+00 -0.18906930446E+03  0.18906930446E+03  0.00000000000E+00 0.  1.
    9000010    2    1    2  501    0 -0.20977732717E+03  0.10488218538E+03  0.13915768266E+04  0.17358550913E+04  0.10107917856E+04 0.  0.
        -13    1    3    3    0    0  0.33686030165E+03  0.18660512925E+03  0.22761882229E+03  0.44733284756E+03  0.10566000000E+00 0.  1.
         13    1    1    2    0    0  0.20977732717E+03 -0.10488218538E+03  0.79532989564E+03  0.82919023985E+03  0.10566000000E+00 0. -1.
          4    1    3    3  501    0 -0.54663762882E+03 -0.81722943869E+02  0.11639580043E+04  0.12885222437E+04  0.00000000000E+00 0.  1.
</event>
<event>
 6    1  0.2569591E-005  0.1006499E+04  0.7818608E-02  0.9206610E-01
         21   -1    0    0  501  502  0.00000000000E+00  0.00000000000E+00  0.27087498433E+03  0.27087498433E+03  0.00000000000E+00 0.  1.
          4   -1    0    0  502    0 -0.00000000000E+00 -0.00000000000E+00 -0.13992895963E+04  0.13992895963E+04  0.00000000000E+00 0.  1.
    9000010    2    1    2  501    0 -0.73480621616E+02 -0.15317359288E+03 -0.74949503432E+03  0.12549036882E+04  0.99205791607E+03 0.  0.
        -13    1    3    3    0    0  0.27701851712E+03 -0.45908815513E+03 -0.33820986606E+03  0.63394567407E+03  0.10566000000E+00 0.  1.
         13    1    1    2    0    0  0.73480621616E+02  0.15317359288E+03 -0.37891957765E+03  0.41526089245E+03  0.10566000000E+00 0. -1.
          4    1    3    3  501    0 -0.35049913874E+03  0.30591456225E+03 -0.41128516826E+03  0.62095801411E+03  0.00000000000E+00 0.  1.
</event>
<event>
 6    1  0.2569591E-005  0.1424968E+04  0.7818608E-02  0.8533857E-01
         21   -1    0    0  501  502  0.00000000000E+00  0.00000000000E+00  0.49523391888E+03  0.49523391888E+03  0.00000000000E+00 0.  1.
         -4   -1    0    0    0  501 -0.00000000000E+00 -0.00000000000E+00 -0.29479781704E+04  0.29479781704E+04  0.00000000000E+00 0. -1.
   -9000010    2    1    2    0  502  0.14579281971E+03 -0.98068870884E+03 -0.14292025160E+04  0.20182055681E+04  0.10234881501E+04 0.  0.
        -13    1    1    2    0    0 -0.14579281971E+03  0.98068870884E+03 -0.10235417354E+04  0.14250065211E+04  0.10566000000E+00 0.  1.
         13    1    3    3    0    0 -0.39641173205E+03 -0.35069605971E+03 -0.27668879480E+03  0.59723252418E+03  0.10566000000E+00 0. -1.
         -4    1    3    3    0  502  0.54220455177E+03 -0.62999264913E+03 -0.11525137212E+04  0.14209730439E+04  0.00000000000E+00 0. -1.
</event>
<event>
 5    1  0.2569591E-005  0.4475602E+02  0.7818608E-02  0.1377687E+00
          4   -1    0    0  502    0 -0.00000000000E+00  0.00000000000E+00  0.45670108757E+02  0.45670108757E+02  0.00000000000E+00 0.  1.
         21   -1    0    0  501  502  0.00000000000E+00 -0.00000000000E+00 -0.22770967566E+02  0.22770967566E+02  0.00000000000E+00 0. -1.
        -13    1    1    2    0    0  0.16796455751E+02 -0.94089330709E+01  0.17600985484E+02  0.26085528582E+02  0.10566000000E+00 0.  1.
         13    1    1    2    0    0 -0.62439051223E+01 -0.12894772968E+02 -0.55986465928E+01  0.15382377215E+02  0.10566000000E+00 0. -1.
          4    1    1    2  501    0 -0.10552550629E+02  0.22303706039E+02  0.10896802299E+02  0.26973170526E+02  0.00000000000E+00 0.  1.
</event>
<event>
 6    1  0.2569591E-005  0.1073220E+04  0.7818608E-02  0.8943904E-01
          4   -1    0    0  502    0 -0.00000000000E+00  0.00000000000E+00  0.13827126914E+04  0.13827126914E+04  0.00000000000E+00 0.  1.
         21   -1    0    0  501  502  0.00000000000E+00 -0.00000000000E+00 -0.39672281002E+03  0.39672281002E+03  0.00000000000E+00 0.  1.
    9000010    2    1    2  501    0  0.12242326890E+03 -0.37951871521E+03  0.80464212150E+03  0.13413613831E+04  0.99638321162E+03 0.  0.
        -13    1    3    3    0    0 -0.29348029388E+03  0.33294770181E+02 -0.55543032413E+02  0.30053995447E+03  0.10566000000E+00 0.  1.
         13    1    1    2    0    0 -0.12242326890E+03  0.37951871521E+03  0.18134775986E+03  0.43807411831E+03  0.10566000000E+00 0. -1.
          4    1    3    3  501    0  0.41590356279E+03 -0.41281348539E+03  0.86018515391E+03  0.10408214286E+04  0.00000000000E+00 0.  1.
</event>
<event>
 6    1  0.2569591E-005  0.1042386E+04  0.7818608E-02  0.9049423E-01
         21   -1    0    0  501  502  0.00000000000E+00  0.00000000000E+00  0.29336270439E+03  0.29336270439E+03  0.00000000000E+00 0.  1.
          4   -1    0    0  502    0 -0.00000000000E+00 -0.00000000000E+00 -0.15627903628E+04  0.15627903628E+04  0.00000000000E+00 0.  1.
    9000010    2    1    2  501    0 -0.27667851542E+03 -0.63533311169E+02 -0.82753780108E+03  0.13309348843E+04  0.10029862269E+04 0.  0.
        -13    1    3    3    0    0 -0.39484189684E+03  0.15396162681E+02  0.87678604767E+02  0.40475265808E+03  0.10566000000E+00 0.  1.
         13    1    1    2    0    0  0.27667851542E+03  0.63533311169E+02 -0.44188985734E+03  0.52521818296E+03  0.10566000000E+00 0. -1.
          4    1    3    3  501    0  0.11816338142E+03 -0.78929473850E+02 -0.91521640585E+03  0.92618222618E+03  0.00000000000E+00 0.  1.
</event>
<event>
 6    1  0.2569591E-005  0.1107651E+04  0.7818608E-02  0.8992563E-01
          4   -1    0    0  502    0 -0.00000000000E+00  0.00000000000E+00  0.43436521800E+03  0.43436521800E+03  0.00000000000E+00 0.  1.
         21   -1    0    0  501  502  0.00000000000E+00 -0.00000000000E+00 -0.11380737573E+04  0.11380737573E+04  0.00000000000E+00 0.  1.
    9000010    2    1    2  501    0 -0.22520894846E+03  0.19435392857E+03 -0.57934429501E+03  0.12500122450E+04  0.10669574876E+04 0.  0.
        -13    1    3    3    0    0 -0.42688659587E+03 -0.95379659621E+02 -0.74199571758E+03  0.86132868364E+03  0.10566000000E+00 0.  1.
         13    1    1    2    0    0  0.22520894846E+03 -0.19435392857E+03 -0.12436424434E+03  0.32242673036E+03  0.10566000000E+00 0. -1.
          4    1    3    3  501    0  0.20167764740E+03  0.28973358820E+03  0.16265142257E+03  0.38868356134E+03  0.00000000000E+00 0.  1.
</event>
<event>
 6    1  0.2569591E-005  0.1012088E+04  0.7818608E-02  0.9117315E-01
         21   -1    0    0  501  502  0.00000000000E+00  0.00000000000E+00  0.33261604595E+03  0.33261604595E+03  0.00000000000E+00 0. -1.
         -4   -1    0    0    0  501 -0.00000000000E+00 -0.00000000000E+00 -0.11870457048E+04  0.11870457048E+04  0.00000000000E+00 0. -1.
   -9000010    2    1    2    0  502  0.20450324386E+03 -0.11943820987E+03 -0.75563242760E+03  0.12630531640E+04  0.98398976960E+03 0.  0.
        -13    1    1    2    0    0 -0.20450324386E+03  0.11943820987E+03 -0.98797231220E+02  0.25660858674E+03  0.10566000000E+00 0.  1.
         13    1    3    3    0    0  0.44862212653E+03 -0.11361998000E+03  0.64224054208E+01  0.46283103907E+03  0.10566000000E+00 0. -1.
         -4    1    3    3    0  502 -0.24411888267E+03 -0.58182298701E+01 -0.76205483302E+03  0.80022212491E+03  0.00000000000E+00 0. -1.
</event>
<event>
 6    1  0.2569591E-005  0.9901591E+03  0.7818608E-02  0.9196518E-01
         21   -1    0    0  501  502  0.00000000000E+00  0.00000000000E+00  0.28240197814E+03  0.28240197814E+03  0.00000000000E+00 0.  1.
          4   -1    0    0  502    0 -0.00000000000E+00 -0.00000000000E+00 -0.12553701482E+04  0.12553701482E+04  0.00000000000E+00 0.  1.
    9000010    2    1    2  501    0  0.18386775951E+03  0.24926393453E+02 -0.72097046459E+03  0.12248319838E+04  0.97261827027E+03 0.  0.
        -13    1    3    3    0    0  0.79444885157E+02  0.14771726720E+03  0.21635148706E+03  0.27375145283E+03  0.10566000000E+00 0.  1.
         13    1    1    2    0    0 -0.18386775951E+03 -0.24926393453E+02 -0.25199770544E+03  0.31294014250E+03  0.10566000000E+00 0. -1.
          4    1    3    3  501    0  0.10442287436E+03 -0.12279087375E+03 -0.93732195165E+03  0.95108053098E+03  0.00000000000E+00 0.  1.
</event>
<event>
 6    1  0.2569591E-005  0.1072444E+04  0.7818608E-02  0.8979436E-01
         21   -1    0    0  501  502  0.00000000000E+00  0.00000000000E+00  0.35069679210E+03  0.35069679210E+03  0.00000000000E+00 0.  1.
          4   -1    0    0  502    0 -0.00000000000E+00 -0.00000000000E+00 -0.14419505945E+04  0.14419505945E+04  0.00000000000E+00 0.  1.
    9000010    2    1    2  501    0 -0.27540876928E+03  0.20891851858E+03 -0.88214353977E+03  0.13886374230E+04  0.10152042800E+04 0.  0.
        -13    1    3    3    0    0 -0.10081010229E+03  0.17034899907E+03  0.20612460177E+03  0.28577757229E+03  0.10566000000E+00 0.  1.
         13    1    1    2    0    0  0.27540876928E+03 -0.20891851858E+03 -0.20911026264E+03  0.40400996363E+03  0.10566000000E+00 0. -1.
          4    1    3    3  501    0 -0.17459866700E+03  0.38569519505E+02 -0.10882681415E+04  0.11028598507E+04  0.00000000000E+00 0.  1.
</event>
<event>
 6    1  0.2569591E-005  0.1063025E+04  0.7818608E-02  0.8929854E-01
         -4   -1    0    0    0  501 -0.00000000000E+00  0.00000000000E+00  0.54259962083E+03  0.54259962083E+03  0.00000000000E+00 0. -1.
         21   -1    0    0  501  502  0.00000000000E+00 -0.00000000000E+00 -0.11063943216E+04  0.11063943216E+04  0.00000000000E+00 0. -1.
   -9000010    2    1    2    0  502  0.35112183637E+02  0.43330258457E+03 -0.58573668319E+03  0.12137176428E+04  0.97007167732E+03 0.  0.
        -13    1    1    2    0    0 -0.35112183637E+02 -0.43330258457E+03  0.21941982471E+02  0.43527629960E+03  0.10566000000E+00 0.  1.
         13    1    3    3    0    0  0.46591154147E+03  0.51104023762E+02 -0.37574699257E+03  0.60072539426E+03  0.10566000000E+00 0. -1.
         -4    1    3    3    0  502 -0.43079935783E+03  0.38219856081E+03 -0.20998969063E+03  0.61299224853E+03  0.00000000000E+00 0. -1.
</event>
<event>
 6    1  0.2569591E-005  0.9677401E+03  0.7818608E-02  0.9289507E-01
         -4   -1    0    0    0  501 -0.00000000000E+00  0.00000000000E+00  0.10983427445E+04  0.10983427445E+04  0.00000000000E+00 0. -1.
         21   -1    0    0  501  502  0.00000000000E+00 -0.00000000000E+00 -0.34201444582E+03  0.34201444582E+03  0.00000000000E+00 0. -1.
   -9000010    2    1    2    0  502  0.66500579267E+02  0.12216707214E+03  0.38092153338E+03  0.10400106265E+04  0.95769189623E+03 0.  0.
        -13    1    1    2    0    0 -0.66500579267E+02 -0.12216707214E+03  0.37540676532E+03  0.40034656383E+03  0.10566000000E+00 0.  1.
         13    1    3    3    0    0  0.40543621447E+03  0.23899374463E+03 -0.56984080047E+02  0.47407144031E+03  0.10566000000E+00 0. -1.
         -4    1    3    3    0  502 -0.33893563520E+03 -0.11682667249E+03  0.43790561343E+03  0.56593918621E+03  0.00000000000E+00 0. -1.
</event>
<event>
 6    1  0.2569591E-005  0.1040228E+04  0.7818608E-02  0.9074174E-01
          4   -1    0    0  502    0 -0.00000000000E+00  0.00000000000E+00  0.81563111971E+03  0.81563111971E+03  0.00000000000E+00 0.  1.
         21   -1    0    0  501  502  0.00000000000E+00 -0.00000000000E+00 -0.55509677896E+03  0.55509677896E+03  0.00000000000E+00 0.  1.
    9000010    2    1    2  501    0  0.25711736551E+03 -0.29317015720E+02  0.34904512088E+03  0.10972265341E+04  0.10075240660E+04 0.  0.
        -13    1    3    3    0    0  0.29724852883E+03 -0.49079372673E+03  0.23589862822E+03  0.62038967113E+03  0.10566000000E+00 0.  1.
         13    1    1    2    0    0 -0.25711736551E+03  0.29317015720E+02 -0.88510780126E+02  0.27350136457E+03  0.10566000000E+00 0. -1.
          4    1    3    3  501    0 -0.40131163321E+02  0.46147671101E+03  0.11314649266E+03  0.47683686296E+03  0.00000000000E+00 0.  1.
</event>
<event>
 6    1  0.2569591E-005  0.1060687E+04  0.7818608E-02  0.9171647E-01
         -4   -1    0    0    0  501 -0.00000000000E+00  0.00000000000E+00  0.11275372219E+04  0.11275372219E+04  0.00000000000E+00 0. -1.
         21   -1    0    0  501  502  0.00000000000E+00 -0.00000000000E+00 -0.37964316347E+03  0.37964316347E+03  0.00000000000E+00 0. -1.
   -9000010    2    1    2    0  502 -0.16345116336E+03 -0.30466708141E+02  0.42243939679E+03  0.11417145853E+04  0.10475746499E+04 0.  0.
        -13    1    1    2    0    0  0.16345116336E+03  0.30466708141E+02  0.32545466169E+03  0.36546580016E+03  0.10566000000E+00 0.  1.
         13    1    3    3    0    0  0.29988785851E+03  0.32976666668E+03  0.54590129178E+02  0.44906444471E+03  0.10566000000E+00 0. -1.
         -4    1    3    3    0  502 -0.46333902187E+03 -0.36023337482E+03  0.36784926761E+03  0.69265014055E+03  0.00000000000E+00 0. -1.
</event>
<event>
 5    1  0.2569591E-005  0.5614269E+03  0.7818608E-02  0.9516450E-01
         21   -1    0    0  501  502  0.00000000000E+00  0.00000000000E+00  0.89657517049E+03  0.89657517049E+03  0.00000000000E+00 0.  1.
         -4   -1    0    0    0  501 -0.00000000000E+00 -0.00000000000E+00 -0.21776057795E+03  0.21776057795E+03  0.00000000000E+00 0. -1.
        -13    1    1    2    0    0  0.19817645479E+03 -0.23457078224E+03  0.34197680153E+03  0.45961451572E+03  0.10566000000E+00 0.  1.
         13    1    1    2    0    0 -0.20827321063E+03  0.30826476630E+03  0.40774191872E+03  0.55195867586E+03  0.10566000000E+00 0. -1.
         -4    1    1    2    0  502  0.10096755836E+02 -0.73693984068E+02 -0.70904127708E+02  0.10276255686E+03  0.00000000000E+00 0. -1.
</event>
<event>
 6    1  0.2569591E-005  0.1041950E+04  0.7818608E-02  0.9032854E-01
         -4   -1    0    0    0  501 -0.00000000000E+00  0.00000000000E+00  0.11787098026E+04  0.11787098026E+04  0.00000000000E+00 0. -1.
         21   -1    0    0  501  502  0.00000000000E+00 -0.00000000000E+00 -0.50210999587E+03  0.50210999587E+03  0.00000000000E+00 0. -1.
   -9000010    2    1    2    0  502  0.38135542241E+02  0.30135134852E+03  0.12276802248E+03  0.10491580130E+04  0.99669132335E+03 0.  0.
        -13    1    1    2    0    0 -0.38135542241E+02 -0.30135134852E+03  0.55383178429E+03  0.63166178553E+03  0.10566000000E+00 0.  1.
         13    1    3    3    0    0 -0.36703608782E+03 -0.12641955121E+03 -0.12808666725E+03  0.40878306983E+03  0.10566000000E+00 0. -1.
         -4    1    3    3    0  502  0.40517163006E+03  0.42777089973E+03  0.25085468973E+03  0.64037494316E+03  0.00000000000E+00 0. -1.
</event>
<event>
 6    1  0.2569591E-005  0.1017642E+04  0.7818608E-02  0.9278820E-01
         21   -1    0    0  501  502  0.00000000000E+00  0.00000000000E+00  0.96832937947E+02  0.96832937947E+02  0.00000000000E+00 0. -1.
         -4   -1    0    0    0  501 -0.00000000000E+00 -0.00000000000E+00 -0.34269907240E+04  0.34269907240E+04  0.00000000000E+00 0. -1.
   -9000010    2    1    2    0  502 -0.37518934722E+02 -0.11879701771E+03 -0.27990689238E+04  0.29783185816E+04  0.10099872928E+04 0.  0.
        -13    1    1    2    0    0  0.37518934722E+02  0.11879701771E+03 -0.53108886224E+03  0.54550508030E+03  0.10566000000E+00 0.  1.
         13    1    3    3    0    0  0.30925320959E+03 -0.23209451095E+03 -0.41779034968E+03  0.56925758415E+03  0.10566000000E+00 0. -1.
         -4    1    3    3    0  502 -0.34677214431E+03  0.11329749324E+03 -0.23812785741E+04  0.24090609975E+04  0.00000000000E+00 0. -1.
</event>
<event>
 5    1  0.2569591E-005  0.9423256E+02  0.7818608E-02  0.1202192E+00
         -4   -1    0    0    0  501 -0.00000000000E+00  0.00000000000E+00  0.78483718701E+02  0.78483718701E+02  0.00000000000E+00 0. -1.
         21   -1    0    0  501  502  0.00000000000E+00 -0.00000000000E+00 -0.69520661898E+02  0.69520661898E+02  0.00000000000E+00 0.  1.
        -13    1    1    2    0    0 -0.20851651457E+01  0.49463863467E+02 -0.13124122584E+02  0.51217921281E+02  0.10566000000E+00 0.  1.
         13    1    1    2    0    0  0.15044980458E+02 -0.68599037560E+02  0.10760181051E+02  0.71049081988E+02  0.10566000000E+00 0. -1.
         -4    1    1    2    0  502 -0.12959815312E+02  0.19135174093E+02  0.11326998336E+02  0.25737377329E+02  0.00000000000E+00 0. -1.
</event>
<event>
 5    1  0.2569591E-005  0.2651695E+03  0.7818608E-02  0.1029387E+00
         21   -1    0    0  501  502  0.00000000000E+00  0.00000000000E+00  0.31242441741E+03  0.31242441741E+03  0.00000000000E+00 0. -1.
          4   -1    0    0  502    0 -0.00000000000E+00 -0.00000000000E+00 -0.22841516101E+03  0.22841516101E+03  0.00000000000E+00 0.  1.
        -13    1    1    2    0    0 -0.17516409413E+03 -0.19987952009E+02 -0.59870775023E+02  0.18618941690E+03  0.10566000000E+00 0.  1.
         13    1    1    2    0    0  0.18792349465E+03  0.10672939086E+03  0.15544845622E+03  0.26621539478E+03  0.10566000000E+00 0. -1.
          4    1    1    2  501    0 -0.12759400516E+02 -0.86741438851E+02 -0.11568424788E+02  0.88434766735E+02  0.00000000000E+00 0.  1.
</event>
<event>
 6    1  0.2569591E-005  0.1033486E+04  0.7818608E-02  0.9061679E-01
         -4   -1    0    0    0  501 -0.00000000000E+00  0.00000000000E+00  0.23354156237E+04  0.23354156237E+04  0.00000000000E+00 0. -1.
         21   -1    0    0  501  502  0.00000000000E+00 -0.00000000000E+00 -0.19800925858E+03  0.19800925858E+03  0.00000000000E+00 0. -1.
   -9000010    2    1    2    0  502 -0.13266815118E+03  0.24356749479E+03  0.13606970448E+04  0.17086804720E+04  0.99557347536E+03 0.  0.
        -13    1    1    2    0    0  0.13266815118E+03 -0.24356749479E+03  0.77670932032E+03  0.82474441028E+03  0.10566000000E+00 0.  1.
         13    1    3    3    0    0  0.23514437588E+03  0.28919940760E+03  0.87815503770E+02  0.38293700360E+03  0.10566000000E+00 0. -1.
         -4    1    3    3    0  502 -0.36781252706E+03 -0.45631912808E+02  0.12728815410E+04  0.13257434684E+04  0.00000000000E+00 0. -1.
</event>
<event>
 6    1  0.2569591E-005  0.9137297E+03  0.7818608E-02  0.9137096E-01
         -4   -1    0    0    0  501 -0.00000000000E+00  0.00000000000E+00  0.11847056236E+04  0.11847056236E+04  0.00000000000E+00 0. -1.
         21   -1    0    0  501  502  0.00000000000E+00 -0.00000000000E+00 -0.35303082236E+03  0.35303082236E+03  0.00000000000E+00 0. -1.
   -9000010    2    1    2    0  502 -0.29088699833E+03 -0.63465142559E+02  0.36448729240E+03  0.98374434340E+03  0.86386276498E+03 0.  0.
        -13    1    1    2    0    0  0.29088699833E+03  0.63465142559E+02  0.46718750882E+03  0.55399210254E+03  0.10566000000E+00 0.  1.
         13    1    3    3    0    0 -0.42356385011E+02 -0.18299844460E+03 -0.24854261516E+03  0.31153801821E+03  0.10566000000E+00 0. -1.
         -4    1    3    3    0  502 -0.24853061331E+03  0.11953330204E+03  0.61302990756E+03  0.67220632518E+03  0.00000000000E+00 0. -1.
</event>
<event>
 6    1  0.2569591E-005  0.1209765E+04  0.7818608E-02  0.8726579E-01
         21   -1    0    0  501  502  0.00000000000E+00  0.00000000000E+00  0.18374447231E+04  0.18374447231E+04  0.00000000000E+00 0.  1.
          4   -1    0    0  502    0 -0.00000000000E+00 -0.00000000000E+00 -0.52890885979E+03  0.52890885979E+03  0.00000000000E+00 0.  1.
    9000010    2    1    2  501    0 -0.63689448858E+03 -0.27479622681E+03  0.11174097320E+04  0.16468560046E+04  0.99115217552E+03 0.  0.
        -13    1    3    3    0    0 -0.37898756192E+03 -0.33354001652E+03  0.12520823582E+04  0.13500336135E+04  0.10566000000E+00 0.  1.
         13    1    1    2    0    0  0.63689448858E+03  0.27479622681E+03  0.19112613131E+03  0.71949757823E+03  0.10566000000E+00 0. -1.
          4    1    3    3  501    0 -0.25790692666E+03  0.58743789711E+02 -0.13467262619E+03  0.29682239116E+03  0.00000000000E+00 0.  1.
</event>
<event>
 6    1  0.2569591E-005  0.1048976E+04  0.7818608E-02  0.9084555E-01
         -4   -1    0    0    0  501 -0.00000000000E+00  0.00000000000E+00  0.33711497064E+04  0.33711497064E+04  0.00000000000E+00 0. -1.
         21   -1    0    0  501  502  0.00000000000E+00 -0.00000000000E+00 -0.13016328671E+03  0.13016328671E+03  0.00000000000E+00 0.  1.
   -9000010    2    1    2    0  502 -0.23813658730E+03 -0.43947436287E+02  0.28934793647E+04  0.30777547612E+04  0.10206425059E+04 0.  0.
        -13    1    1    2    0    0  0.23813658730E+03  0.43947436287E+02  0.34750705497E+03  0.42355823187E+03  0.10566000000E+00 0.  1.
         13    1    3    3    0    0 -0.15470222644E+03 -0.48870163377E+03  0.92106437588E+03  0.10540975578E+04  0.10566000000E+00 0. -1.
         -4    1    3    3    0  502 -0.83434360862E+02  0.44475419748E+03  0.19724149888E+04  0.20236572034E+04  0.00000000000E+00 0. -1.
</event>
<event>
 6    1  0.2569591E-005  0.1229370E+04  0.7818608E-02  0.8714736E-01
         21   -1    0    0  501  502  0.00000000000E+00  0.00000000000E+00  0.72154711162E+03  0.72154711162E+03  0.00000000000E+00 0.  1.
          4   -1    0    0  502    0 -0.00000000000E+00 -0.00000000000E+00 -0.13106363682E+04  0.13106363682E+04  0.00000000000E+00 0.  1.
    9000010    2    1    2  501    0  0.36968901405E+03  0.58921575836E+03 -0.51419962550E+03  0.13325738422E+04  0.10136600086E+04 0.  0.
        -13    1    3    3    0    0  0.56837570399E+02 -0.29025776009E+03 -0.13232019879E+03  0.32401963347E+03  0.10566000000E+00 0.  1.
         13    1    1    2    0    0 -0.36968901405E+03 -0.58921575836E+03 -0.74889631074E+02  0.69960963759E+03  0.10566000000E+00 0. -1.
          4    1    3    3  501    0  0.31285144365E+03  0.87947351845E+03 -0.38187942671E+03  0.10085542088E+04  0.00000000000E+00 0.  1.
</event>
<event>
 5    1  0.2569591E-005  0.4835994E+03  0.7818608E-02  0.1008474E+00
         21   -1    0    0  501  502  0.00000000000E+00  0.00000000000E+00  0.11356022078E+03  0.11356022078E+03  0.00000000000E+00 0. -1.
         -4   -1    0    0    0  501 -0.00000000000E+00 -0.00000000000E+00 -0.87032668377E+03  0.87032668377E+03  0.00000000000E+00 0. -1.
        -13    1    1    2    0    0 -0.58727063472E+02  0.36164215492E+02  0.17361359347E+02  0.71120646992E+02  0.10566000000E+00 0.  1.
         13    1    1    2    0    0  0.18079103031E+03 -0.12834504119E+03 -0.14408320393E+03  0.26441979324E+03  0.10566000000E+00 0. -1.
         -4    1    1    2    0  502 -0.12206396684E+03  0.92180825695E+02 -0.63004461840E+03  0.64834646433E+03  0.00000000000E+00 0. -1.
</event>
<event>
 6    1  0.2569591E-005  0.1051199E+04  0.7818608E-02  0.9026616E-01
         21   -1    0    0  501  502  0.00000000000E+00  0.00000000000E+00  0.47717858426E+03  0.47717858426E+03  0.00000000000E+00 0.  1.
          4   -1    0    0  502    0 -0.00000000000E+00 -0.00000000000E+00 -0.10403326693E+04  0.10403326693E+04  0.00000000000E+00 0.  1.
    9000010    2    1    2  501    0 -0.17952361005E+03 -0.24448553125E+03 -0.24790104048E+03  0.10800339458E+04  0.10064872064E+04 0.  0.
        -13    1    3    3    0    0 -0.43905503707E+03  0.38196098563E+02  0.20529949819E+03  0.48618531718E+03  0.10566000000E+00 0.  1.
         13    1    1    2    0    0  0.17952361005E+03  0.24448553125E+03 -0.31525304455E+03  0.43747730778E+03  0.10566000000E+00 0. -1.
          4    1    3    3  501    0  0.25953142701E+03 -0.28268162981E+03 -0.45320053867E+03  0.59384862860E+03  0.00000000000E+00 0.  1.
</event>
<event>
 5    1  0.2569591E-005  0.6797145E+02  0.7818608E-02  0.1246502E+00
          4   -1    0    0  502    0 -0.00000000000E+00  0.00000000000E+00  0.10212169163E+02  0.10212169163E+02  0.00000000000E+00 0.  1.
         21   -1    0    0  501  502  0.00000000000E+00 -0.00000000000E+00 -0.41520649177E+03  0.41520649177E+03  0.00000000000E+00 0. -1.
        -13    1    1    2    0    0 -0.26257537655E+02 -0.26197908834E+02 -0.38632283246E+02  0.53556075134E+02  0.10566000000E+00 0.  1.
         13    1    1    2    0    0  0.34504484188E+02  0.36240713545E+02 -0.26634035775E+03  0.27100026952E+03  0.10566000000E+00 0. -1.
          4    1    1    2  501    0 -0.82469465328E+01 -0.10042804710E+02 -0.10002168161E+03  0.10086231628E+03  0.00000000000E+00 0.  1.
</event>
<event>
 6    1  0.2569591E-005  0.1032517E+04  0.7818608E-02  0.9031729E-01
         21   -1    0    0  501  502  0.00000000000E+00  0.00000000000E+00  0.21998517169E+03  0.21998517169E+03  0.00000000000E+00 0.  1.
          4   -1    0    0  502    0 -0.00000000000E+00 -0.00000000000E+00 -0.30804845890E+04  0.30804845890E+04  0.00000000000E+00 0.  1.
    9000010    2    1    2  501    0 -0.16883327399E+03  0.26423887920E+03 -0.10860662375E+04  0.14985430195E+04  0.98375019668E+03 0.  0.
        -13    1    3    3    0    0  0.30409181923E+03  0.14442258140E+03 -0.33373851783E+02  0.33829505123E+03  0.10566000000E+00 0.  1.
         13    1    1    2    0    0  0.16883327399E+03 -0.26423887920E+03 -0.17744331798E+04  0.18019267411E+04  0.10566000000E+00 0. -1.
          4    1    3    3  501    0 -0.47292509322E+03  0.11981629781E+03 -0.10526923857E+04  0.11602479683E+04  0.00000000000E+00 0.  1.
</event>
<event>
 6    1  0.2569591E-005  0.1087623E+04  0.7818608E-02  0.8962252E-01
         -4   -1    0    0    0  501 -0.00000000000E+00  0.00000000000E+00  0.29965260129E+04  0.29965260129E+04  0.00000000000E+00 0. -1.
         21   -1    0    0  501  502  0.00000000000E+00 -0.00000000000E+00 -0.17638385065E+03  0.17638385065E+03  0.00000000000E+00 0. -1.
   -9000010    2    1    2    0  502 -0.26655035555E+03  0.23513830277E+03  0.19468934937E+04  0.22300936769E+04  0.10279029227E+04 0.  0.
        -13    1    1    2    0    0  0.26655035555E+03 -0.23513830277E+03  0.87324866852E+03  0.94281618660E+03  0.10566000000E+00 0.  1.
         13    1    3    3    0    0 -0.44703858145E+03  0.21297045141E+03  0.31233493384E+03  0.58545113250E+03  0.10566000000E+00 0. -1.
         -4    1    3    3    0  502  0.18048822590E+03  0.22167851368E+02  0.16345585598E+04  0.16446425444E+04  0.00000000000E+00 0. -1.
</event>
<event>
 5    1  0.2569591E-005  0.6042879E+02  0.7818608E-02  0.1287409E+00
         21   -1    0    0  501  502  0.00000000000E+00  0.00000000000E+00  0.22568213049E+02  0.22568213049E+02  0.00000000000E+00 0.  1.
          4   -1    0    0  502    0 -0.00000000000E+00 -0.00000000000E+00 -0.10302552230E+03  0.10302552230E+03  0.00000000000E+00 0.  1.
        -13    1    1    2    0    0  0.30264627678E+02 -0.29333348515E+02 -0.34845513193E+02  0.54686506355E+02  0.10566000000E+00 0.  1.
         13    1    1    2    0    0 -0.25935372967E+02  0.16757446398E+02 -0.93185760863E+01  0.32253722344E+02  0.10566000000E+00 0. -1.
          4    1    1    2  501    0 -0.43292547107E+01  0.12575902118E+02 -0.36293219977E+02  0.38653506655E+02  0.00000000000E+00 0.  1.
</event>
<event>
 6    1  0.2569591E-005  0.1046793E+04  0.7818608E-02  0.9017381E-01
         21   -1    0    0  501  502  0.00000000000E+00  0.00000000000E+00  0.18597322454E+03  0.18597322454E+03  0.00000000000E+00 0.  1.
         -4   -1    0    0    0  501 -0.00000000000E+00 -0.00000000000E+00 -0.27178750886E+04  0.27178750886E+04  0.00000000000E+00 0. -1.
   -9000010    2    1    2    0  502  0.22903812757E+03  0.22175186262E+03 -0.15409207058E+04  0.18628507053E+04  0.99706758848E+03 0.  0.
        -13    1    1    2    0    0 -0.22903812757E+03 -0.22175186262E+03 -0.99098115828E+03  0.10409976079E+04  0.10566000000E+00 0.  1.
         13    1    3    3    0    0  0.28885810139E+03  0.59297015738E+03 -0.84613572821E+03  0.10728458845E+04  0.10566000000E+00 0. -1.
         -4    1    3    3    0  502 -0.59819973814E+02 -0.37121829476E+03 -0.69478497762E+03  0.79000482072E+03  0.00000000000E+00 0. -1.
</event>
<event>
 6    1  0.2569591E-005  0.1130459E+04  0.7818608E-02  0.8866664E-01
          4   -1    0    0  502    0 -0.00000000000E+00  0.00000000000E+00  0.25782691029E+04  0.25782691029E+04  0.00000000000E+00 0.  1.
         21   -1    0    0  501  502  0.00000000000E+00 -0.00000000000E+00 -0.27295585870E+03  0.27295585870E+03  0.00000000000E+00 0.  1.
    9000010    2    1    2  501    0 -0.45676094277E+03 -0.10905714322E+03  0.19798857481E+04  0.22798869831E+04  0.10283059178E+04 0.  0.
        -13    1    3    3    0    0  0.29653540114E+03 -0.20840929981E+03  0.77273014336E+03  0.85351014405E+03  0.10566000000E+00 0.  1.
         13    1    1    2    0    0  0.45676094277E+03  0.10905714322E+03  0.32542749601E+03  0.57133797848E+03  0.10566000000E+00 0. -1.
          4    1    3    3  501    0 -0.75329634390E+03  0.99352156584E+02  0.12071556048E+04  0.14263768390E+04  0.00000000000E+00 0.  1.
</event>
<event>
 6    1  0.2569591E-005  0.1101673E+04  0.7818608E-02  0.8894362E-01
         21   -1    0    0  501  502  0.00000000000E+00  0.00000000000E+00  0.39603455871E+03  0.39603455871E+03  0.00000000000E+00 0.  1.
          4   -1    0    0  502    0 -0.00000000000E+00 -0.00000000000E+00 -0.17339444064E+04  0.17339444064E+04  0.00000000000E+00 0.  1.
    9000010    2    1    2  501    0  0.12238397837E+03  0.43531115420E+03 -0.57393006870E+03  0.12422071740E+04  0.10045940973E+04 0.  0.
        -13    1    3    3    0    0  0.29032034403E+03  0.55957326007E+03  0.10997405259E+01  0.63040412129E+03  0.10566000000E+00 0.  1.
         13    1    1    2    0    0 -0.12238397837E+03 -0.43531115420E+03 -0.76397977901E+03  0.88777179107E+03  0.10566000000E+00 0. -1.
          4    1    3    3  501    0 -0.16793636567E+03 -0.12426210587E+03 -0.57502980923E+03  0.61180305276E+03  0.00000000000E+00 0.  1.
</event>
<event>
 6    1  0.2569591E-005  0.1131353E+04  0.7818608E-02  0.8836511E-01
         21   -1    0    0  501  502  0.00000000000E+00  0.00000000000E+00  0.33511649438E+03  0.33511649438E+03  0.00000000000E+00 0. -1.
         -4   -1    0    0    0  501 -0.00000000000E+00 -0.00000000000E+00 -0.21198120433E+04  0.21198120433E+04  0.00000000000E+00 0. -1.
   -9000010    2    1    2    0  502 -0.44892227459E+03  0.28453559834E+03 -0.10174223285E+04  0.15215476287E+04  0.99873283539E+03 0.  0.
        -13    1    1    2    0    0  0.44892227459E+03 -0.28453559834E+03 -0.76727322044E+03  0.93338090902E+03  0.10566000000E+00 0.  1.
         13    1    3    3    0    0 -0.23238648570E+03 -0.33951234409E+03 -0.16531762498E+03  0.44339828464E+03  0.10566000000E+00 0. -1.
         -4    1    3    3    0  502 -0.21653578889E+03  0.62404794243E+03 -0.85210470350E+03  0.10781493440E+04  0.00000000000E+00 0. -1.
</event>
<event>
 5    1  0.2569591E-005  0.1332516E+03  0.7818608E-02  0.1120338E+00
          4   -1    0    0  502    0 -0.00000000000E+00  0.00000000000E+00  0.41822483403E+02  0.41822483403E+02  0.00000000000E+00 0.  1.
         21   -1    0    0  501  502  0.00000000000E+00 -0.00000000000E+00 -0.40975557578E+03  0.40975557578E+03  0.00000000000E+00 0. -1.
        -13    1    1    2    0    0 -0.76328973046E+02 -0.26959396790E+02 -0.13733403609E+03  0.15941634118E+03  0.10566000000E+00 0.  1.
         13    1    1    2    0    0  0.12423535554E+03  0.32355405723E+02 -0.18904352113E+03  0.22851424439E+03  0.10566000000E+00 0. -1.
          4    1    1    2  501    0 -0.47906382490E+02 -0.53960089332E+01 -0.41555535165E+02  0.63647473622E+02  0.00000000000E+00 0.  1.
</event>
<event>
 6    1  0.2569591E-005  0.1078859E+04  0.7818608E-02  0.8886842E-01
          4   -1    0    0  502    0 -0.00000000000E+00  0.00000000000E+00  0.26416531519E+04  0.26416531519E+04  0.00000000000E+00 0.  1.
         21   -1    0    0  501  502  0.00000000000E+00 -0.00000000000E+00 -0.23832575406E+03  0.23832575406E+03  0.00000000000E+00 0. -1.
    9000010    2    1    2  501    0  0.12221974103E+03  0.48147121310E+03  0.17989971738E+04  0.20976955654E+04  0.95769706036E+03 0.  0.
        -13    1    3    3    0    0  0.50961290933E+03  0.76141805873E+02  0.78487625597E+03  0.93890022916E+03  0.10566000000E+00 0.  1.
         13    1    1    2    0    0 -0.12221974103E+03 -0.48147121310E+03  0.60433022404E+03  0.78228334061E+03  0.10566000000E+00 0. -1.
          4    1    3    3  501    0 -0.38739316831E+03  0.40532940722E+03  0.10141209178E+04  0.11587953362E+04  0.00000000000E+00 0.  1.
</event>
<event>
 6    1  0.2569591E-005  0.1025972E+04  0.7818608E-02  0.9262433E-01
         -4   -1    0    0    0  501 -0.00000000000E+00  0.00000000000E+00  0.59254373652E+03  0.59254373652E+03  0.00000000000E+00 0. -1.
         21   -1    0    0  501  502  0.00000000000E+00 -0.00000000000E+00 -0.97107806596E+03  0.97107806596E+03  0.00000000000E+00 0. -1.
   -9000010    2    1    2    0  502 -0.12881327344E+03  0.12439889694E+02 -0.68318522865E+03  0.12326236275E+04  0.10177776477E+04 0.  0.
        -13    1    1    2    0    0  0.12881327344E+03 -0.12439889694E+02  0.30465089921E+03  0.33099817496E+03  0.10566000000E+00 0.  1.
         13    1    3    3    0    0 -0.10325888212E+03  0.41986372003E+03 -0.70143696071E+03  0.82399135987E+03  0.10566000000E+00 0. -1.
         -4    1    3    3    0  502 -0.25554391321E+02 -0.40742383034E+03  0.18251732052E+02  0.40863226765E+03  0.00000000000E+00 0. -1.
</event>
<event>
 5    1  0.2569591E-005  0.3543028E+03  0.7818608E-02  0.1018517E+00
         -4   -1    0    0    0  501 -0.00000000000E+00  0.00000000000E+00  0.46696863754E+03  0.46696863754E+03  0.00000000000E+00 0. -1.
         21   -1    0    0  501  502  0.00000000000E+00 -0.00000000000E+00 -0.12548252487E+03  0.12548252487E+03  0.00000000000E+00 0. -1.
        -13    1    1    2    0    0  0.15553118225E+02  0.12632760740E+03  0.64283447032E+02  0.14259360646E+03  0.10566000000E+00 0.  1.
         13    1    1    2    0    0  0.97565656536E+02 -0.16674939655E+03  0.61125145847E+02  0.20263443242E+03  0.10566000000E+00 0. -1.
         -4    1    1    2    0  502 -0.11311877476E+03  0.40421789148E+02  0.21607751980E+03  0.24722312352E+03  0.00000000000E+00 0. -1.
</event>
<event>
 6    1  0.2569591E-005  0.1038567E+04  0.7818608E-02  0.9072663E-01
         21   -1    0    0  501  502  0.00000000000E+00  0.00000000000E+00  0.11296502932E+04  0.11296502932E+04  0.00000000000E+00 0. -1.
         -4   -1    0    0    0  501 -0.00000000000E+00 -0.00000000000E+00 -0.46622452475E+03  0.46622452475E+03  0.00000000000E+00 0. -1.
   -9000010    2    1    2    0  502  0.22420040514E+03 -0.13478401911E+03  0.79036704306E+03  0.13051057483E+04  0.10050812893E+04 0.  0.
        -13    1    1    2    0    0 -0.22420040514E+03  0.13478401911E+03 -0.12694127462E+03  0.29076906960E+03  0.10566000000E+00 0.  1.
         13    1    3    3    0    0 -0.31884154150E+03  0.35372500140E+02  0.64093844558E+03  0.71673791900E+03  0.10566000000E+00 0. -1.
         -4    1    3    3    0  502  0.54304194664E+03 -0.17015651925E+03  0.14942859749E+03  0.58836782934E+03  0.00000000000E+00 0. -1.
</event>
<event>
 6    1  0.2569591E-005  0.9827107E+03  0.7818608E-02  0.9182602E-01
         -4   -1    0    0    0  501 -0.00000000000E+00  0.00000000000E+00  0.22486507556E+03  0.22486507556E+03  0.00000000000E+00 0. -1.
         21   -1    0    0  501  502  0.00000000000E+00 -0.00000000000E+00 -0.16473270558E+04  0.16473270558E+04  0.00000000000E+00 0. -1.
   -9000010    2    1    2    0  502  0.86586390030E+02 -0.18066108801E+03 -0.13243252663E+04  0.16491081618E+04  0.96207311931E+03 0.  0.
        -13    1    1    2    0    0 -0.86586390030E+02  0.18066108801E+03 -0.98136713963E+02  0.22308396951E+03  0.10566000000E+00 0.  1.
         13    1    3    3    0    0  0.12708231288E+02 -0.44407917911E+03 -0.13007355324E+04  0.13745110959E+04  0.10566000000E+00 0. -1.
         -4    1    3    3    0  502  0.73878158742E+02  0.26341809110E+03 -0.23589733877E+02  0.27459706590E+03  0.00000000000E+00 0. -1.
</event>
<event>
 6    1  0.2569591E-005  0.1103105E+04  0.7818608E-02  0.8896912E-01
         21   -1    0    0  501  502  0.00000000000E+00  0.00000000000E+00  0.27948089044E+03  0.27948089044E+03  0.00000000000E+00 0. -1.
         -4   -1    0    0    0  501 -0.00000000000E+00 -0.00000000000E+00 -0.25544172070E+04  0.25544172070E+04  0.00000000000E+00 0. -1.
   -9000010    2    1    2    0  502  0.31304684047E+03 -0.31724608213E+03 -0.10209297325E+04  0.15030427615E+04  0.10090572944E+04 0.  0.
        -13    1    1    2    0    0 -0.31304684047E+03  0.31724608213E+03 -0.12540065841E+04  0.13308553359E+04  0.10566000000E+00 0.  1.
         13    1    3    3    0    0  0.52247212425E+03 -0.22703177339E+03 -0.13123150545E+03  0.58458726118E+03  0.10566000000E+00 0. -1.
         -4    1    3    3    0  502 -0.20942528378E+03 -0.90214308743E+02 -0.88969822701E+03  0.91845550036E+03  0.00000000000E+00 0. -1.
</event>
<event>
 5    1  0.2569591E-005  0.4180237E+02  0.7818608E-02  0.1351315E+00
         21   -1    0    0  501  502  0.00000000000E+00  0.00000000000E+00  0.68395638820E+01  0.68395638820E+01  0.00000000000E+00 0.  1.
         -4   -1    0    0    0  501 -0.00000000000E+00 -0.00000000000E+00 -0.24472671861E+03  0.24472671861E+03  0.00000000000E+00 0. -1.
        -13    1    1    2    0    0 -0.18371996328E+02 -0.21096684603E+02 -0.37052724120E+02  0.46427533631E+02  0.10566000000E+00 0.  1.
         13    1    1    2    0    0  0.26794524428E+02  0.12286029033E+02 -0.13427398872E+03  0.13747148162E+03  0.10566000000E+00 0. -1.
         -4    1    1    2    0  502 -0.84225280992E+01  0.88106555692E+01 -0.66560441886E+02  0.67667267236E+02  0.00000000000E+00 0. -1.
</event>
<event>
 6    1  0.2569591E-005  0.1093874E+04  0.7818608E-02  0.8907081E-01
         21   -1    0    0  501  502  0.00000000000E+00  0.00000000000E+00  0.49267970074E+03  0.49267970074E+03  0.00000000000E+00 0. -1.
          4   -1    0    0  502    0 -0.00000000000E+00 -0.00000000000E+00 -0.14121385948E+04  0.14121385948E+04  0.00000000000E+00 0.  1.
    9000010    2    1    2  501    0  0.19273638501E+03 -0.39358159716E+03 -0.97213664977E+03  0.14634242031E+04  0.10022509390E+04 0.  0.
        -13    1    3    3    0    0 -0.22956173949E+03 -0.33880775692E+03 -0.78869207407E+01  0.40933055477E+03  0.10566000000E+00 0.  1.
         13    1    1    2    0    0 -0.19273638501E+03  0.39358159716E+03  0.52677755706E+02  0.44139409244E+03  0.10566000000E+00 0. -1.
          4    1    3    3  501    0  0.42229812450E+03 -0.54773840242E+02 -0.96424972903E+03  0.10540936483E+04  0.00000000000E+00 0.  1.
</event>
<event>
 6    1  0.2569591E-005  0.1008225E+04  0.7818608E-02  0.9047362E-01
         21   -1    0    0  501  502  0.00000000000E+00  0.00000000000E+00  0.77594075052E+03  0.77594075052E+03  0.00000000000E+00 0. -1.
         -4   -1    0    0    0  501 -0.00000000000E+00 -0.00000000000E+00 -0.56706466071E+03  0.56706466071E+03  0.00000000000E+00 0. -1.
   -9000010    2    1    2    0  502 -0.13244248880E+03  0.28726047879E+03  0.12647364174E+03  0.10161265803E+04  0.95731815482E+03 0.  0.
        -13    1    1    2    0    0  0.13244248880E+03 -0.28726047879E+03  0.82402448074E+02  0.32687883096E+03  0.10566000000E+00 0.  1.
         13    1    3    3    0    0  0.65898910309E+02  0.19203240198E+03  0.52389984787E+03  0.56186312528E+03  0.10566000000E+00 0. -1.
         -4    1    3    3    0  502 -0.19834139911E+03  0.95228076812E+02 -0.39742620613E+03  0.45426345498E+03  0.00000000000E+00 0. -1.
</event>
<event>
 6    1  0.2569591E-005  0.1165722E+04  0.7818608E-02  0.8802488E-01
         21   -1    0    0  501  502  0.00000000000E+00  0.00000000000E+00  0.23729788236E+03  0.23729788236E+03  0.00000000000E+00 0. -1.
          4   -1    0    0  502    0 -0.00000000000E+00 -0.00000000000E+00 -0.39231552771E+04  0.39231552771E+04  0.00000000000E+00 0.  1.
    9000010    2    1    2  501    0 -0.21955159396E+03 -0.51601806409E+03 -0.32421877689E+04  0.34453865242E+04  0.10219732028E+04 0.  0.
        -13    1    3    3    0    0 -0.46573240352E+02 -0.78634155279E+03 -0.17505764137E+04  0.19196405642E+04  0.10566000000E+00 0.  1.
         13    1    1    2    0    0  0.21955159396E+03  0.51601806409E+03 -0.44366962583E+03  0.71506663530E+03  0.10566000000E+00 0. -1.
          4    1    3    3  501    0 -0.17297835361E+03  0.27032348870E+03 -0.14916113552E+04  0.15257459600E+04  0.00000000000E+00 0.  1.
</event>
<event>
 6    1  0.2569591E-005  0.1432228E+04  0.7818608E-02  0.8523123E-01
         21   -1    0    0  501  502  0.00000000000E+00  0.00000000000E+00  0.46280557425E+03  0.46280557425E+03  0.00000000000E+00 0.  1.
         -4   -1    0    0    0  501 -0.00000000000E+00 -0.00000000000E+00 -0.34005506314E+04  0.34005506314E+04  0.00000000000E+00 0. -1.
   -9000010    2    1    2    0  502  0.27637498614E+03  0.98690749938E+03 -0.13166846345E+04  0.19454911295E+04  0.10004537785E+04 0.  0.
        -13    1    1    2    0    0 -0.27637498614E+03 -0.98690749938E+03 -0.16210604226E+04  0.19178650761E+04  0.10566000000E+00 0.  1.
         13    1    3    3    0    0  0.38399334694E+03  0.42144100844E+03 -0.72665997170E+02  0.57475540223E+03  0.10566000000E+00 0. -1.
         -4    1    3    3    0  502 -0.10761836080E+03  0.56546649094E+03 -0.12440186374E+04  0.13707357273E+04  0.00000000000E+00 0. -1.
</event>
<event>
 5    1  0.2569591E-005  0.6513236E+03  0.7818608E-02  0.9427591E-01
         -4   -1    0    0    0  501 -0.00000000000E+00  0.00000000000E+00  0.16948100515E+04  0.16948100515E+04  0.00000000000E+00 0. -1.
         21   -1    0    0  501  502  0.00000000000E+00 -0.00000000000E+00 -0.15938558038E+03  0.15938558038E+03  0.00000000000E+00 0. -1.
        -13    1    1    2    0    0 -0.64044022705E+02 -0.26448374408E+03  0.91522165616E+03  0.95482143817E+03  0.10566000000E+00 0.  1.
         13    1    1    2    0    0 -0.36000945307E+02  0.34594600350E+03  0.97838143817E+02  0.36131291003E+03  0.10566000000E+00 0. -1.
         -4    1    1    2    0  502  0.10004496801E+03 -0.81462259419E+02  0.52236467118E+03  0.53806128371E+03  0.00000000000E+00 0. -1.
</event>
<event>
 5    1  0.2569591E-005  0.1246788E+03  0.7818608E-02  0.1132124E+00
          4   -1    0    0  502    0 -0.00000000000E+00  0.00000000000E+00  0.10772619898E+03  0.10772619898E+03  0.00000000000E+00 0.  1.
         21   -1    0    0  501  502  0.00000000000E+00 -0.00000000000E+00 -0.13876888233E+03  0.13876888233E+03  0.00000000000E+00 0. -1.
        -13    1    1    2    0    0  0.25388575515E+01 -0.10715021135E+03 -0.61082729152E+01  0.10735425353E+03  0.10566000000E+00 0.  1.
         13    1    1    2    0    0  0.58094012541E+01  0.11541685632E+03 -0.37923629083E+02  0.12162652948E+03  0.10566000000E+00 0. -1.
          4    1    1    2  501    0 -0.83482588056E+01 -0.82666449698E+01  0.12989218647E+02  0.17514298307E+02  0.00000000000E+00 0.  1.
</event>
<event>
 6    1  0.2569591E-005  0.9825357E+03  0.7818608E-02  0.9264398E-01
         -4   -1    0    0    0  501 -0.00000000000E+00  0.00000000000E+00  0.26396358281E+04  0.26396358281E+04  0.00000000000E+00 0. -1.
         21   -1    0    0  501  502  0.00000000000E+00 -0.00000000000E+00 -0.12099959868E+03  0.12099959868E+03  0.00000000000E+00 0. -1.
   -9000010    2    1    2    0  502 -0.13068395992E+03 -0.65643009187E+02  0.21416581407E+04  0.23562843509E+04  0.97159098832E+03 0.  0.
        -13    1    1    2    0    0  0.13068395992E+03  0.65643009187E+02  0.37697808864E+03  0.40435107582E+03  0.10566000000E+00 0.  1.
         13    1    3    3    0    0 -0.11510762741E+03  0.44464721265E+03  0.12043029792E+04  0.12889168268E+04  0.10566000000E+00 0. -1.
         -4    1    3    3    0  502 -0.15576332511E+02 -0.51029022183E+03  0.93735516152E+03  0.10673675241E+04  0.00000000000E+00 0. -1.
</event>
<event>
 5    1  0.2569591E-005  0.8857997E+03  0.7818608E-02  0.8975345E-01
          4   -1    0    0  502    0 -0.00000000000E+00  0.00000000000E+00  0.17637018262E+04  0.17637018262E+04  0.00000000000E+00 0.  1.
         21   -1    0    0  501  502  0.00000000000E+00 -0.00000000000E+00 -0.32574328675E+03  0.32574328675E+03  0.00000000000E+00 0. -1.
        -13    1    1    2    0    0 -0.67760406373E+03  0.11575785870E+03  0.74791302777E+03  0.10158351526E+04  0.10566000000E+00 0.  1.
         13    1    1    2    0    0  0.61945454271E+03  0.73222791439E+02  0.50101225100E+03  0.80006174417E+03  0.10566000000E+00 0. -1.
          4    1    1    2  501    0  0.58149521022E+02 -0.18898065014E+03  0.18903326071E+03  0.27354821618E+03  0.00000000000E+00 0.  1.
</event>
<event>
 6    1  0.2569591E-005  0.1116779E+04  0.7818608E-02  0.8855041E-01
          4   -1    0    0  502    0 -0.00000000000E+00  0.00000000000E+00  0.19754742904E+04  0.19754742904E+04  0.00000000000E+00 0.  1.
         21   -1    0    0  501  502  0.00000000000E+00 -0.00000000000E+00 -0.70432293629E+03  0.70432293629E+03  0.00000000000E+00 0.  1.
    9000010    2    1    2  501    0  0.47193695254E+03 -0.19672069548E+03 -0.18905001332E+03  0.11326671210E+04  0.99286020181E+03 0.  0.
        -13    1    3    3    0    0  0.40094856525E+03  0.32377348435E+03 -0.29922738516E+03  0.59592454249E+03  0.10566000000E+00 0.  1.
         13    1    1    2    0    0 -0.47193695254E+03  0.19672069548E+03  0.14602013674E+04  0.15471301057E+04  0.10566000000E+00 0. -1.
          4    1    3    3  501    0  0.70988387288E+02 -0.52049417983E+03  0.11017737184E+03  0.53674257855E+03  0.00000000000E+00 0.  1.
</event>
<event>
 6    1  0.2569591E-005  0.1023199E+04  0.7818608E-02  0.9321841E-01
         -4   -1    0    0    0  501 -0.00000000000E+00  0.00000000000E+00  0.34906167949E+04  0.34906167949E+04  0.00000000000E+00 0. -1.
         21   -1    0    0  501  502  0.00000000000E+00 -0.00000000000E+00 -0.95837214992E+02  0.95837214992E+02  0.00000000000E+00 0. -1.
   -9000010    2    1    2    0  502  0.89197275860E+02 -0.53716858411E+02  0.32558082487E+04  0.34128029317E+04  0.10178874414E+04 0.  0.
        -13    1    1    2    0    0 -0.89197275860E+02  0.53716858411E+02  0.13897133121E+03  0.17365107820E+03  0.10566000000E+00 0.  1.
         13    1    3    3    0    0 -0.44600105811E+03  0.84568601408E+02  0.11696363200E+04  0.12546385633E+04  0.10566000000E+00 0. -1.
         -4    1    3    3    0  502  0.53519833397E+03 -0.13828545982E+03  0.20861719287E+04  0.21581643684E+04  0.00000000000E+00 0. -1.
</event>
<event>
 6    1  0.2569591E-005  0.1048549E+04  0.7818608E-02  0.9012134E-01
         21   -1    0    0  501  502  0.00000000000E+00  0.00000000000E+00  0.24332327669E+03  0.24332327669E+03  0.00000000000E+00 0. -1.
         -4   -1    0    0    0  501 -0.00000000000E+00 -0.00000000000E+00 -0.19477114540E+04  0.19477114540E+04  0.00000000000E+00 0. -1.
   -9000010    2    1    2    0  502  0.29235707507E+03  0.13961423953E+03 -0.13729119982E+04  0.17275250073E+04  0.99724144554E+03 0.  0.
        -13    1    1    2    0    0 -0.29235707507E+03 -0.13961423953E+03 -0.33147617914E+03  0.46350972344E+03  0.10566000000E+00 0.  1.
         13    1    3    3    0    0 -0.17951866548E+03  0.11930999289E+03  0.55892805568E+02  0.22267878781E+03  0.10566000000E+00 0. -1.
         -4    1    3    3    0  502  0.47187574056E+03  0.20304246637E+02 -0.14288048038E+04  0.15048462195E+04  0.00000000000E+00 0. -1.
</event>
<event>
 6    1  0.2569591E-005  0.1050006E+04  0.7818608E-02  0.9021916E-01
         -4   -1    0    0    0  501 -0.00000000000E+00  0.00000000000E+00  0.27394060589E+04  0.27394060589E+04  0.00000000000E+00 0. -1.
         21   -1    0    0  501  502  0.00000000000E+00 -0.00000000000E+00 -0.18918234639E+03  0.18918234639E+03  0.00000000000E+00 0. -1.
   -9000010    2    1    2    0  502 -0.12478968161E+03 -0.28395192236E+03  0.14821580126E+04  0.18163988939E+04  0.10031507407E+04 0.  0.
        -13    1    1    2    0    0  0.12478968161E+03  0.28395192236E+03  0.10680656999E+04  0.11121895114E+04  0.10566000000E+00 0.  1.
         13    1    3    3    0    0  0.22856673801E+03 -0.54245722428E+03  0.65588818226E+03  0.88130126103E+03  0.10566000000E+00 0. -1.
         -4    1    3    3    0  502 -0.35335641962E+03  0.25850530193E+03  0.82626983037E+03  0.93509763287E+03  0.00000000000E+00 0. -1.
</event>
<event>
 6    1  0.2569591E-005  0.1087453E+04  0.7818608E-02  0.8895670E-01
         -4   -1    0    0    0  501 -0.00000000000E+00  0.00000000000E+00  0.32414095730E+04  0.32414095730E+04  0.00000000000E+00 0. -1.
         21   -1    0    0  501  502  0.00000000000E+00 -0.00000000000E+00 -0.18712728028E+03  0.18712728028E+03  0.00000000000E+00 0. -1.
   -9000010    2    1    2    0  502 -0.12093194967E+03  0.45170876511E+03  0.22240493663E+04  0.24756716644E+04  0.98177862126E+03 0.  0.
        -13    1    1    2    0    0  0.12093194967E+03 -0.45170876511E+03  0.83023292639E+03  0.95286518887E+03  0.10566000000E+00 0.  1.
         13    1    3    3    0    0  0.25178917110E+02  0.68978066977E+03  0.96770057260E+03  0.11886445051E+04  0.10566000000E+00 0. -1.
         -4    1    3    3    0  502 -0.14611086678E+03 -0.23807190465E+03  0.12563487937E+04  0.12870271592E+04  0.00000000000E+00 0. -1.
</event>
<event>
 5    1  0.2569591E-005  0.1465417E+03  0.7818608E-02  0.1118405E+00
         21   -1    0    0  501  502  0.00000000000E+00  0.00000000000E+00  0.84984791256E+02  0.84984791256E+02  0.00000000000E+00 0. -1.
          4   -1    0    0  502    0 -0.00000000000E+00 -0.00000000000E+00 -0.20489954470E+03  0.20489954470E+03  0.00000000000E+00 0.  1.
        -13    1    1    2    0    0 -0.36404971211E+02  0.65481495235E+02 -0.10384035422E+03  0.12804678237E+03  0.10566000000E+00 0.  1.
         13    1    1    2    0    0  0.91139781945E+02 -0.44744103637E+02 -0.16023817993E+01  0.10154345599E+03  0.10566000000E+00 0. -1.
          4    1    1    2  501    0 -0.54734810734E+02 -0.20737391598E+02 -0.14472017426E+02  0.60294097595E+02  0.00000000000E+00 0.  1.
</event>
<event>
 6    1  0.2569591E-005  0.1155981E+04  0.7818608E-02  0.8807283E-01
         21   -1    0    0  501  502  0.00000000000E+00  0.00000000000E+00  0.31377457917E+03  0.31377457917E+03  0.00000000000E+00 0. -1.
          4   -1    0    0  502    0 -0.00000000000E+00 -0.00000000000E+00 -0.23874914899E+04  0.23874914899E+04  0.00000000000E+00 0.  1.
    9000010    2    1    2  501    0 -0.45994820511E+03 -0.32560754019E+03 -0.15356110824E+04  0.19220802663E+04  0.10093158733E+04 0.  0.
        -13    1    3    3    0    0  0.17249189384E+03 -0.46417091419E+03 -0.52345555095E+03  0.72056492837E+03  0.10566000000E+00 0.  1.
         13    1    1    2    0    0  0.45994820511E+03  0.32560754019E+03 -0.53810582829E+03  0.77918580275E+03  0.10566000000E+00 0. -1.
          4    1    3    3  501    0 -0.63244009895E+03  0.13856337400E+03 -0.10121555315E+04  0.12015153379E+04  0.00000000000E+00 0.  1.
</event>
<event>
 5    1  0.2569591E-005  0.1102248E+03  0.7818608E-02  0.1170366E+00
         21   -1    0    0  501  502  0.00000000000E+00  0.00000000000E+00  0.55273966101E+02  0.55273966101E+02  0.00000000000E+00 0.  1.
          4   -1    0    0  502    0 -0.00000000000E+00 -0.00000000000E+00 -0.13894059548E+03  0.13894059548E+03  0.00000000000E+00 0.  1.
        -13    1    1    2    0    0  0.26760507473E+02 -0.20192211775E+01 -0.60009408988E+02  0.65736917676E+02  0.10566000000E+00 0.  1.
         13    1    1    2    0    0 -0.34074050547E+02 -0.55272715629E+02 -0.27670042580E+02  0.70581558739E+02  0.10566000000E+00 0. -1.
          4    1    1    2  501    0  0.73135430745E+01  0.57291936806E+02  0.40128221921E+01  0.57896085164E+02  0.00000000000E+00 0.  1.
</event>
<event>
 6    1  0.2569591E-005  0.9954263E+03  0.7818608E-02  0.9375475E-01
         21   -1    0    0  501  502  0.00000000000E+00  0.00000000000E+00  0.35864205362E+03  0.35864205362E+03  0.00000000000E+00 0.  1.
          4   -1    0    0  502    0 -0.00000000000E+00 -0.00000000000E+00 -0.93097782642E+03  0.93097782642E+03  0.00000000000E+00 0.  1.
    9000010    2    1    2  501    0  0.22070134874E+02 -0.89811674976E+02 -0.63241843309E+03  0.11793331399E+04  0.99112075581E+03 0.  0.
        -13    1    3    3    0    0  0.27705413606E+02  0.38179446680E+03  0.93310103020E+01  0.38291210968E+03  0.10566000000E+00 0.  1.
         13    1    1    2    0    0 -0.22070134874E+02  0.89811674976E+02  0.60082660280E+02  0.11028674012E+03  0.10566000000E+00 0. -1.
          4    1    3    3  501    0 -0.56352787316E+01 -0.47160614178E+03 -0.64174944339E+03  0.79642103025E+03  0.00000000000E+00 0.  1.
</event>
<event>
 5    1  0.2569591E-005  0.1963733E+03  0.7818608E-02  0.1109196E+00
         21   -1    0    0  501  502  0.00000000000E+00  0.00000000000E+00  0.38454085765E+03  0.38454085765E+03  0.00000000000E+00 0.  1.
          4   -1    0    0  502    0 -0.00000000000E+00 -0.00000000000E+00 -0.54628693738E+02  0.54628693738E+02  0.00000000000E+00 0.  1.
        -13    1    1    2    0    0  0.71924034058E+02  0.59679965916E+00  0.19328663292E+03  0.20623568187E+03  0.10566000000E+00 0.  1.
         13    1    1    2    0    0  0.33663644501E+02  0.41982206811E+02 -0.16278886080E+01  0.53836863163E+02  0.10566000000E+00 0. -1.
          4    1    1    2  501    0 -0.10558767856E+03 -0.42579006470E+02  0.13825341959E+03  0.17909700635E+03  0.00000000000E+00 0.  1.
</event>
<event>
 5    1  0.2569591E-005  0.7988549E+02  0.7818608E-02  0.1218310E+00
         21   -1    0    0  501  502  0.00000000000E+00  0.00000000000E+00  0.16676205606E+03  0.16676205606E+03  0.00000000000E+00 0. -1.
          4   -1    0    0  502    0 -0.00000000000E+00 -0.00000000000E+00 -0.61182447116E+02  0.61182447116E+02  0.00000000000E+00 0.  1.
        -13    1    1    2    0    0 -0.71773735196E+01 -0.62805014642E+02 -0.16009947696E+02  0.65209770311E+02  0.10566000000E+00 0.  1.
         13    1    1    2    0    0 -0.71445312735E+01  0.56193318581E+02  0.13213159175E+03  0.14376196327E+03  0.10566000000E+00 0. -1.
          4    1    1    2  501    0  0.14321904793E+02  0.66116960607E+01 -0.10542035113E+02  0.18972769593E+02  0.00000000000E+00 0.  1.
</event>
<event>
 5    1  0.2569591E-005  0.1264820E+03  0.7818608E-02  0.1132869E+00
         -4   -1    0    0    0  501 -0.00000000000E+00  0.00000000000E+00  0.29679725501E+03  0.29679725501E+03  0.00000000000E+00 0. -1.
         21   -1    0    0  501  502  0.00000000000E+00 -0.00000000000E+00 -0.48530461322E+02  0.48530461322E+02  0.00000000000E+00 0.  1.
        -13    1    1    2    0    0  0.80484518806E+02 -0.72914409651E+02  0.80298061450E+02  0.13506316574E+03  0.10566000000E+00 0.  1.
         13    1    1    2    0    0 -0.58705331335E+02  0.27509078869E+02  0.13587330908E+03  0.15054777524E+03  0.10566000000E+00 0. -1.
         -4    1    1    2    0  502 -0.21779187470E+02  0.45405330782E+02  0.32095423159E+02  0.59716775348E+02  0.00000000000E+00 0. -1.
</event>
<event>
 6    1  0.2569591E-005  0.1073446E+04  0.7818608E-02  0.9055738E-01
          4   -1    0    0  502    0 -0.00000000000E+00  0.00000000000E+00  0.33095363621E+04  0.33095363621E+04  0.00000000000E+00 0.  1.
         21   -1    0    0  501  502  0.00000000000E+00 -0.00000000000E+00 -0.13900705285E+03  0.13900705285E+03  0.00000000000E+00 0.  1.
    9000010    2    1    2  501    0 -0.25332011130E+03 -0.85005755746E+01  0.28080974301E+04  0.30062762821E+04  0.10430927903E+04 0.  0.
        -13    1    3    3    0    0  0.26841364572E+03 -0.34425024305E+03  0.14257787337E+04  0.14911066775E+04  0.10566000000E+00 0.  1.
         13    1    1    2    0    0  0.25332011130E+03  0.85005755746E+01  0.36243187914E+03  0.44226713280E+03  0.10566000000E+00 0. -1.
          4    1    3    3  501    0 -0.52173375702E+03  0.33574966747E+03  0.13823186963E+04  0.15151696046E+04  0.00000000000E+00 0.  1.
</event>
<event>
 5    1  0.2569591E-005  0.2665475E+03  0.7818608E-02  0.1047333E+00
          4   -1    0    0  502    0 -0.00000000000E+00  0.00000000000E+00  0.61330368441E+02  0.61330368441E+02  0.00000000000E+00 0.  1.
         21   -1    0    0  501  502  0.00000000000E+00 -0.00000000000E+00 -0.87008936938E+03  0.87008936938E+03  0.00000000000E+00 0. -1.
        -13    1    1    2    0    0 -0.67254157390E+02 -0.61021053328E+02  0.29455528040E+01  0.90859111161E+02  0.10566000000E+00 0.  1.
         13    1    1    2    0    0  0.12272316114E+03 -0.12002604735E+02 -0.53617803242E+03  0.55017445452E+03  0.10566000000E+00 0. -1.
          4    1    1    2  501    0 -0.55469003750E+02  0.73023658062E+02 -0.27552652133E+03  0.29038617214E+03  0.00000000000E+00 0.  1.
</event>
<event>
 6    1  0.2569591E-005  0.1038519E+04  0.7818608E-02  0.9186381E-01
         21   -1    0    0  501  502  0.00000000000E+00  0.00000000000E+00  0.27056808302E+03  0.27056808302E+03  0.00000000000E+00 0.  1.
          4   -1    0    0  502    0 -0.00000000000E+00 -0.00000000000E+00 -0.13675545715E+04  0.13675545715E+04  0.00000000000E+00 0.  1.
    9000010    2    1    2  501    0  0.56492858031E+02 -0.15744182652E+03 -0.86184088412E+03  0.13495523197E+04  0.10249596979E+04 0.  0.
        -13    1    3    3    0    0 -0.20756128324E+03  0.36593380304E+03 -0.20124407504E+03  0.46635654108E+03  0.10566000000E+00 0.  1.
         13    1    1    2    0    0 -0.56492858031E+02  0.15744182652E+03 -0.23514560439E+03  0.28857033488E+03  0.10566000000E+00 0. -1.
          4    1    3    3  501    0  0.26405414127E+03 -0.52337562956E+03 -0.66059680908E+03  0.88319577859E+03  0.00000000000E+00 0.  1.
</event>
<event>
 5    1  0.2569591E-005  0.3613755E+03  0.7818608E-02  0.1000110E+00
         -4   -1    0    0    0  501 -0.00000000000E+00  0.00000000000E+00  0.19801531152E+04  0.19801531152E+04  0.00000000000E+00 0. -1.
         21   -1    0    0  501  502  0.00000000000E+00 -0.00000000000E+00 -0.56047349213E+02  0.56047349213E+02  0.00000000000E+00 0.  1.
        -13    1    1    2    0    0  0.18366440745E+03  0.11538591388E+03  0.28733456836E+03  0.36001067905E+03  0.10566000000E+00 0.  1.
         13    1    1    2    0    0 -0.20008724977E+03 -0.67507256417E+01  0.57712954497E+03  0.61086741824E+03  0.10566000000E+00 0. -1.
         -4    1    1    2    0  502  0.16422842322E+02 -0.10863518824E+03  0.10596416526E+04  0.10653223671E+04  0.00000000000E+00 0. -1.
</event>
<event>
 5    1  0.2569591E-005  0.6016810E+03  0.7818608E-02  0.1012350E+00
         -4   -1    0    0    0  501 -0.00000000000E+00  0.00000000000E+00  0.61758755671E+03  0.61758755671E+03  0.00000000000E+00 0. -1.
         21   -1    0    0  501  502  0.00000000000E+00 -0.00000000000E+00 -0.16499426460E+03  0.16499426460E+03  0.00000000000E+00 0. -1.
        -13    1    1    2    0    0  0.31573438515E+02 -0.17049230099E+01  0.48145952624E+02  0.57600631075E+02  0.10566000000E+00 0.  1.
         13    1    1    2    0    0 -0.25190014032E+03  0.12592127913E+03  0.44590462307E+02  0.28512833904E+03  0.10566000000E+00 0. -1.
         -4    1    1    2    0  502  0.22032670180E+03 -0.12421635612E+03  0.35985687718E+03  0.43985285120E+03  0.00000000000E+00 0. -1.
</event>
<event>
 6    1  0.2569591E-005  0.1086116E+04  0.7818608E-02  0.8928556E-01
         21   -1    0    0  501  502  0.00000000000E+00  0.00000000000E+00  0.55392744056E+03  0.55392744056E+03  0.00000000000E+00 0. -1.
         -4   -1    0    0    0  501 -0.00000000000E+00 -0.00000000000E+00 -0.13406671443E+04  0.13406671443E+04  0.00000000000E+00 0. -1.
   -9000010    2    1    2    0  502  0.21463277422E+03 -0.34905360047E+03 -0.94565413989E+02  0.10902247058E+04  0.10058536911E+04 0.  0.
        -13    1    1    2    0    0 -0.21463277422E+03  0.34905360047E+03 -0.69217428979E+03  0.80436987908E+03  0.10566000000E+00 0.  1.
         13    1    3    3    0    0 -0.37472499459E+03  0.20686770942E+02  0.52973242658E+02  0.37901575121E+03  0.10566000000E+00 0. -1.
         -4    1    3    3    0  502  0.58935776881E+03 -0.36974037141E+03 -0.14753865665E+03  0.71120895460E+03  0.00000000000E+00 0. -1.
</event>
<event>
 6    1  0.2569591E-005  0.1035670E+04  0.7818608E-02  0.9119633E-01
          4   -1    0    0  502    0 -0.00000000000E+00  0.00000000000E+00  0.83959410044E+03  0.83959410044E+03  0.00000000000E+00 0.  1.
         21   -1    0    0  501  502  0.00000000000E+00 -0.00000000000E+00 -0.53955935322E+03  0.53955935322E+03  0.00000000000E+00 0.  1.
    9000010    2    1    2  501    0  0.21443851397E+03 -0.44486099482E+02  0.36249703583E+02  0.10363044348E+04  0.10122499451E+04 0.  0.
        -13    1    3    3    0    0 -0.35008347126E+03  0.19473344151E+03 -0.89382285198E+02  0.41044945384E+03  0.10566000000E+00 0.  1.
         13    1    1    2    0    0 -0.21443851397E+03  0.44486099482E+02  0.26378504364E+03  0.34284901886E+03  0.10566000000E+00 0. -1.
          4    1    3    3  501    0  0.56452198522E+03 -0.23921954099E+03  0.12563198878E+03  0.62585498096E+03  0.00000000000E+00 0.  1.
</event>
<event>
 6    1  0.2569591E-005  0.1049284E+04  0.7818608E-02  0.9006684E-01
         -4   -1    0    0    0  501 -0.00000000000E+00  0.00000000000E+00  0.15528185634E+04  0.15528185634E+04  0.00000000000E+00 0. -1.
         21   -1    0    0  501  502  0.00000000000E+00 -0.00000000000E+00 -0.33445739604E+03  0.33445739604E+03  0.00000000000E+00 0. -1.
   -9000010    2    1    2    0  502 -0.22517591444E+02  0.32972796995E+03  0.66355607585E+03  0.12414924997E+04  0.99587618961E+03 0.  0.
        -13    1    1    2    0    0  0.22517591444E+02 -0.32972796995E+03  0.55480509152E+03  0.64578345970E+03  0.10566000000E+00 0.  1.
         13    1    3    3    0    0  0.23725923804E+02  0.26259223704E+03 -0.22657248207E+03  0.34763875390E+03  0.10566000000E+00 0. -1.
         -4    1    3    3    0  502 -0.46243515249E+02  0.67135732903E+02  0.89012855792E+03  0.89385374584E+03  0.00000000000E+00 0. -1.
</event>
<event>
 6    1  0.2569591E-005  0.1002070E+04  0.7818608E-02  0.9439604E-01
          4   -1    0    0  502    0 -0.00000000000E+00  0.00000000000E+00  0.61772365274E+03  0.61772365274E+03  0.00000000000E+00 0.  1.
         21   -1    0    0  501  502  0.00000000000E+00 -0.00000000000E+00 -0.56867331157E+03  0.56867331157E+03  0.00000000000E+00 0.  1.
    9000010    2    1    2  501    0  0.11857354936E+02 -0.70500436129E+02 -0.11383289810E+03  0.10085153487E+04  0.99951706919E+03 0.  0.
        -13    1    3    3    0    0 -0.93219182850E+02  0.20480716377E+01 -0.54804374678E+03  0.55591903205E+03  0.10566000000E+00 0.  1.
         13    1    1    2    0    0 -0.11857354936E+02  0.70500436129E+02  0.16288323927E+03  0.17788161557E+03  0.10566000000E+00 0. -1.
          4    1    3    3  501    0  0.10507653779E+03 -0.72548507767E+02  0.43421084868E+03  0.45259631669E+03  0.00000000000E+00 0.  1.
</event>
<event>
 5    1  0.2569591E-005  0.3970017E+03  0.7818608E-02  0.9929972E-01
          4   -1    0    0  502    0 -0.00000000000E+00  0.00000000000E+00  0.31652247046E+03  0.31652247046E+03  0.00000000000E+00 0.  1.
         21   -1    0    0  501  502  0.00000000000E+00 -0.00000000000E+00 -0.71766573457E+03  0.71766573457E+03  0.00000000000E+00 0. -1.
        -13    1    1    2    0    0  0.20251024055E+03  0.16835040936E+03 -0.60230067339E+03  0.65735711009E+03  0.10566000000E+00 0.  1.
         13    1    1    2    0    0 -0.18367735553E+03 -0.95198854002E+02  0.21682259667E+03  0.29968690717E+03  0.10566000000E+00 0. -1.
          4    1    1    2  501    0 -0.18832885020E+02 -0.73151555354E+02 -0.15665187390E+02  0.77144187758E+02  0.00000000000E+00 0.  1.
</event>
<event>
 6    1  0.2569591E-005  0.1024611E+04  0.7818608E-02  0.9230308E-01
         21   -1    0    0  501  502  0.00000000000E+00  0.00000000000E+00  0.86066851911E+03  0.86066851911E+03  0.00000000000E+00 0. -1.
         -4   -1    0    0    0  501 -0.00000000000E+00 -0.00000000000E+00 -0.43232530479E+03  0.43232530479E+03  0.00000000000E+00 0. -1.
   -9000010    2    1    2    0  502  0.20972429425E+02 -0.14546014042E+03  0.23689200770E+03  0.10516391659E+04  0.10140160831E+04 0.  0.
        -13    1    1    2    0    0 -0.20972429425E+02  0.14546014042E+03  0.19145120662E+03  0.24135465797E+03  0.10566000000E+00 0.  1.
         13    1    3    3    0    0 -0.19287418334E+03  0.25109358004E+03  0.45241614793E+03  0.55220360249E+03  0.10566000000E+00 0. -1.
         -4    1    3    3    0  502  0.21384661276E+03 -0.39655372046E+03 -0.21552414023E+03  0.49943556343E+03  0.00000000000E+00 0. -1.
</event>
<event>
 6    1  0.2569591E-005  0.1035619E+04  0.7818608E-02  0.9087735E-01
         -4   -1    0    0    0  501 -0.00000000000E+00  0.00000000000E+00  0.21288070853E+04  0.21288070853E+04  0.00000000000E+00 0. -1.
         21   -1    0    0  501  502  0.00000000000E+00 -0.00000000000E+00 -0.20734761238E+03  0.20734761238E+03  0.00000000000E+00 0. -1.
   -9000010    2    1    2    0  502  0.23280256905E+03  0.86897193335E+02  0.17526313565E+04  0.20357364852E+04  0.10053647133E+04 0.  0.
        -13    1    1    2    0    0 -0.23280256905E+03 -0.86897193335E+02  0.16882811638E+03  0.30041821251E+03  0.10566000000E+00 0.  1.
         13    1    3    3    0    0  0.21226114282E+03 -0.43917166387E+03  0.63867438753E+03  0.80363643990E+03  0.10566000000E+00 0. -1.
         -4    1    3    3    0  502  0.20541426232E+02  0.52606885720E+03  0.11139569690E+04  0.12321000453E+04  0.00000000000E+00 0. -1.
</event>
<event>
 5    1  0.2569591E-005  0.1516735E+03  0.7818608E-02  0.1116210E+00
         -4   -1    0    0    0  501 -0.00000000000E+00  0.00000000000E+00  0.21533221483E+03  0.21533221483E+03  0.00000000000E+00 0. -1.
         21   -1    0    0  501  502  0.00000000000E+00 -0.00000000000E+00 -0.72314405356E+02  0.72314405356E+02  0.00000000000E+00 0.  1.
        -13    1    1    2    0    0  0.95030088878E+02  0.19462286693E+02  0.67783936450E+02  0.11833922258E+03  0.10566000000E+00 0.  1.
         13    1    1    2    0    0 -0.86326603554E+02 -0.38885225575E+02  0.37851235145E+01  0.94755905216E+02  0.10566000000E+00 0. -1.
         -4    1    1    2    0  502 -0.87034853238E+01  0.19422938882E+02  0.71448749515E+02  0.74551492398E+02  0.00000000000E+00 0. -1.
</event>
<event>
 6    1  0.2569591E-005  0.1062351E+04  0.7818608E-02  0.8980385E-01
         -4   -1    0    0    0  501 -0.00000000000E+00  0.00000000000E+00  0.11317136079E+04  0.11317136079E+04  0.00000000000E+00 0. -1.
         21   -1    0    0  501  502  0.00000000000E+00 -0.00000000000E+00 -0.58119269067E+03  0.58119269067E+03  0.00000000000E+00 0.  1.
   -9000010    2    1    2    0  502  0.34937670992E+03 -0.58630149643E+02  0.75551651464E+03  0.13036083801E+04  0.10015428223E+04 0.  0.
        -13    1    1    2    0    0 -0.34937670992E+03  0.58630149643E+02 -0.20499559744E+03  0.40929791842E+03  0.10566000000E+00 0.  1.
         13    1    3    3    0    0  0.43179406942E+03  0.40462020722E+03  0.41291341940E+03  0.72156852312E+03  0.10566000000E+00 0. -1.
         -4    1    3    3    0  502 -0.82417359497E+02 -0.46325035686E+03  0.34260309524E+03  0.58203985701E+03  0.00000000000E+00 0. -1.
</event>
<event>
 6    1  0.2569591E-005  0.1176164E+04  0.7818608E-02  0.8774760E-01
         -4   -1    0    0    0  501 -0.00000000000E+00  0.00000000000E+00  0.12076148394E+04  0.12076148394E+04  0.00000000000E+00 0. -1.
         21   -1    0    0  501  502  0.00000000000E+00 -0.00000000000E+00 -0.85669729049E+03  0.85669729049E+03  0.00000000000E+00 0.  1.
   -9000010    2    1    2    0  502  0.27631806894E+03 -0.54849367274E+03 -0.25289097303E+03  0.12030446183E+04  0.10030780254E+04 0.  0.
        -13    1    1    2    0    0 -0.27631806894E+03  0.54849367274E+03  0.60380852196E+03  0.86126751165E+03  0.10566000000E+00 0.  1.
         13    1    3    3    0    0 -0.20451339352E+03 -0.32739637934E+03 -0.48944513915E+03  0.62335437171E+03  0.10566000000E+00 0. -1.
         -4    1    3    3    0  502  0.48083146247E+03 -0.22109729340E+03  0.23655416612E+03  0.57969024656E+03  0.00000000000E+00 0. -1.
</event>
<event>
 5    1  0.2624740E-005  0.5388093E+02  0.7818608E-02  0.1285010E+00
         21   -1    0    0  501  502  0.00000000000E+00  0.00000000000E+00  0.15279525476E+03  0.15279525476E+03  0.00000000000E+00 0.  1.
         -4   -1    0    0    0  501 -0.00000000000E+00 -0.00000000000E+00 -0.17119864860E+02  0.17119864860E+02  0.00000000000E+00 0. -1.
        -13    1    1    2    0    0  0.32285471692E+02 -0.32315619352E+02  0.81976460583E+02  0.93844563989E+02  0.10566000000E+00 0.  1.
         13    1    1    2    0    0 -0.13007641756E+02  0.19649728543E+02  0.80104497450E+01  0.24889536859E+02  0.10566000000E+00 0. -1.
         -4    1    1    2    0  502 -0.19277829936E+02  0.12665890809E+02  0.45688479567E+02  0.51181018768E+02  0.00000000000E+00 0. -1.
</event>
<event>
 5    1  0.2569591E-005  0.1668891E+03  0.7818608E-02  0.1118479E+00
         21   -1    0    0  501  502  0.00000000000E+00  0.00000000000E+00  0.80122937551E+03  0.80122937551E+03  0.00000000000E+00 0.  1.
          4   -1    0    0  502    0 -0.00000000000E+00 -0.00000000000E+00 -0.17303727887E+02  0.17303727887E+02  0.00000000000E+00 0.  1.
        -13    1    1    2    0    0  0.90732686943E+02  0.96036481888E+01  0.48075396875E+03  0.48933530444E+03  0.10566000000E+00 0.  1.
         13    1    1    2    0    0 -0.60594325578E+02  0.32168216035E+02  0.22780302581E+03  0.23790900813E+03  0.10566000000E+00 0. -1.
          4    1    1    2  501    0 -0.30138361365E+02 -0.41771864224E+02  0.75368653054E+02  0.91288790822E+02  0.00000000000E+00 0.  1.
</event>
<event>
 5    1  0.2569591E-005  0.3461234E+03  0.7818608E-02  0.9926411E-01
         21   -1    0    0  501  502  0.00000000000E+00  0.00000000000E+00  0.13437725152E+04  0.13437725152E+04  0.00000000000E+00 0. -1.
          4   -1    0    0  502    0 -0.00000000000E+00 -0.00000000000E+00 -0.13557193199E+03  0.13557193199E+03  0.00000000000E+00 0.  1.
        -13    1    1    2    0    0 -0.83831586784E+02 -0.51351798942E+02  0.99394244074E+02  0.13979974648E+03  0.10566000000E+00 0.  1.
         13    1    1    2    0    0  0.31496797466E+03  0.24258708649E+02  0.10541879007E+04  0.11005023631E+04  0.10566000000E+00 0. -1.
          4    1    1    2  501    0 -0.23113638788E+03  0.27093090293E+02  0.54618438395E+02  0.23904233758E+03  0.00000000000E+00 0.  1.
</event>
<event>
 6    1  0.2569591E-005  0.1062094E+04  0.7818608E-02  0.9003151E-01
         21   -1    0    0  501  502  0.00000000000E+00  0.00000000000E+00  0.20325124308E+03  0.20325124308E+03  0.00000000000E+00 0.  1.
         -4   -1    0    0    0  501 -0.00000000000E+00 -0.00000000000E+00 -0.31946156865E+04  0.31946156865E+04  0.00000000000E+00 0. -1.
   -9000010    2    1    2    0  502 -0.22170278033E+03  0.23525966057E+03 -0.28565663209E+04  0.30476244768E+04  0.10117037983E+04 0.  0.
        -13    1    1    2    0    0  0.22170278033E+03 -0.23525966057E+03 -0.13479812255E+03  0.35024245275E+03  0.10566000000E+00 0.  1.
         13    1    3    3    0    0  0.32920792336E+03 -0.13494834667E+03 -0.14394305528E+04  0.14827505659E+04  0.10566000000E+00 0. -1.
         -4    1    3    3    0  502 -0.55091070369E+03  0.37020800724E+03 -0.14171357680E+04  0.15648739109E+04  0.00000000000E+00 0. -1.
</event>
<event>
 5    1  0.2569591E-005  0.6018569E+02  0.7818608E-02  0.1330836E+00
          4   -1    0    0  502    0 -0.00000000000E+00  0.00000000000E+00  0.39985181144E+03  0.39985181144E+03  0.00000000000E+00 0.  1.
         21   -1    0    0  501  502  0.00000000000E+00 -0.00000000000E+00 -0.39133438389E+01  0.39133438389E+01  0.00000000000E+00 0. -1.
        -13    1    1    2    0    0 -0.19057931081E+02 -0.16836798473E+02  0.68426924151E+02  0.72999572826E+02  0.10566000000E+00 0.  1.
         13    1    1    2    0    0  0.13102130442E+02  0.37029360326E+01  0.30465458173E+02  0.33369639841E+02  0.10566000000E+00 0. -1.
          4    1    1    2  501    0  0.59558006386E+01  0.13133862441E+02  0.29704608528E+03  0.29739594261E+03  0.00000000000E+00 0.  1.
</event>
<event>
 6    1  0.2569591E-005  0.1029005E+04  0.7818608E-02  0.9207016E-01
         -4   -1    0    0    0  501 -0.00000000000E+00  0.00000000000E+00  0.23198109737E+04  0.23198109737E+04  0.00000000000E+00 0. -1.
         21   -1    0    0  501  502  0.00000000000E+00 -0.00000000000E+00 -0.15416388846E+03  0.15416388846E+03  0.00000000000E+00 0. -1.
   -9000010    2    1    2    0  502  0.15217761308E+03 -0.45144152335E+02  0.17653978823E+04  0.20433991359E+04  0.10166879194E+04 0.  0.
        -13    1    1    2    0    0 -0.15217761308E+03  0.45144152335E+02  0.40024920298E+03  0.43057572628E+03  0.10566000000E+00 0.  1.
         13    1    3    3    0    0  0.14972457217E+03  0.20211979184E+03 -0.91541144110E+01  0.25170154298E+03  0.10566000000E+00 0. -1.
         -4    1    3    3    0  502  0.24530409083E+01 -0.24726394417E+03  0.17745519967E+04  0.17916975929E+04  0.00000000000E+00 0. -1.
</event>
<event>
 5    1  0.2569591E-005  0.1536125E+03  0.7818608E-02  0.1102906E+00
         21   -1    0    0  501  502  0.00000000000E+00  0.00000000000E+00  0.83325431795E+02  0.83325431795E+02  0.00000000000E+00 0.  1.
         -4   -1    0    0    0  501 -0.00000000000E+00 -0.00000000000E+00 -0.28148341242E+03  0.28148341242E+03  0.00000000000E+00 0. -1.
        -13    1    1    2    0    0 -0.13194210188E+03  0.17196704770E+02 -0.28755211538E+02  0.13612978461E+03  0.10566000000E+00 0.  1.
         13    1    1    2    0    0  0.11267353066E+03 -0.20319153958E+02 -0.17431367311E+03  0.20855085789E+03  0.10566000000E+00 0. -1.
         -4    1    1    2    0  502  0.19268571218E+02  0.31224491882E+01  0.49109040311E+01  0.20128201711E+02  0.00000000000E+00 0. -1.
</event>
<event>
 6    1  0.2569591E-005  0.1004730E+04  0.7818608E-02  0.9463524E-01
         21   -1    0    0  501  502  0.00000000000E+00  0.00000000000E+00  0.45096326161E+03  0.45096326161E+03  0.00000000000E+00 0. -1.
         -4   -1    0    0    0  501 -0.00000000000E+00 -0.00000000000E+00 -0.90395427106E+03  0.90395427106E+03  0.00000000000E+00 0. -1.
   -9000010    2    1    2    0  502 -0.73083047085E+01 -0.64550955905E+02 -0.11563377964E+03  0.10113623713E+04  0.10026277664E+04 0.  0.
        -13    1    1    2    0    0  0.73083047085E+01  0.64550955905E+02 -0.33735722982E+03  0.34355516136E+03  0.10566000000E+00 0.  1.
         13    1    3    3    0    0  0.29417685675E+03  0.34569560611E+03 -0.19871937299E+03  0.49551475810E+03  0.10566000000E+00 0. -1.
         -4    1    3    3    0  502 -0.30148516146E+03 -0.41024656202E+03  0.83085593351E+02  0.51584761320E+03  0.00000000000E+00 0. -1.
</event>
<event>
 5    1  0.2569591E-005  0.1880556E+03  0.7818608E-02  0.1069808E+00
         21   -1    0    0  501  502  0.00000000000E+00  0.00000000000E+00  0.31501550248E+03  0.31501550248E+03  0.00000000000E+00 0.  1.
         -4   -1    0    0    0  501 -0.00000000000E+00 -0.00000000000E+00 -0.14207478718E+03  0.14207478718E+03  0.00000000000E+00 0. -1.
        -13    1    1    2    0    0 -0.18171881708E+03  0.82109271221E+01 -0.25516874080E+02  0.18368524663E+03  0.10566000000E+00 0.  1.
         13    1    1    2    0    0  0.25844908356E+02  0.15839779176E+02  0.33626534188E+02  0.45272650219E+02  0.10566000000E+00 0. -1.
         -4    1    1    2    0  502  0.15587390872E+03 -0.24050706298E+02  0.16483105519E+03  0.22813239281E+03  0.00000000000E+00 0. -1.
</event>
<event>
 5    1  0.2569591E-005  0.1427474E+03  0.7818608E-02  0.1111783E+00
         21   -1    0    0  501  502  0.00000000000E+00  0.00000000000E+00  0.70410167981E+02  0.70410167981E+02  0.00000000000E+00 0.  1.
         -4   -1    0    0    0  501 -0.00000000000E+00 -0.00000000000E+00 -0.29207033693E+03  0.29207033693E+03  0.00000000000E+00 0. -1.
        -13    1    1    2    0    0 -0.10362659409E+03 -0.79798485121E+02 -0.16086698117E+03  0.20732695441E+03  0.10566000000E+00 0.  1.
         13    1    1    2    0    0  0.75057494568E+02  0.83731680996E+02 -0.56989514278E+02  0.12606521247E+03  0.10566000000E+00 0. -1.
         -4    1    1    2    0  502  0.28569099525E+02 -0.39331958750E+01 -0.38036735045E+01  0.29088338034E+02  0.00000000000E+00 0. -1.
</event>
<event>
 6    1  0.2569591E-005  0.1104586E+04  0.7818608E-02  0.8890800E-01
         21   -1    0    0  501  502  0.00000000000E+00  0.00000000000E+00  0.36860349996E+03  0.36860349996E+03  0.00000000000E+00 0.  1.
          4   -1    0    0  502    0 -0.00000000000E+00 -0.00000000000E+00 -0.18484463172E+04  0.18484463172E+04  0.00000000000E+00 0.  1.
    9000010    2    1    2  501    0  0.45509132753E+03  0.13598018056E+02 -0.68120460025E+03  0.12977478889E+04  0.10063880232E+04 0.  0.
        -13    1    3    3    0    0 -0.30599005736E+03  0.11484405582E+03 -0.28560346259E+03  0.43403735020E+03  0.10566000000E+00 0.  1.
         13    1    1    2    0    0 -0.45509132753E+03 -0.13598018056E+02 -0.79863821701E+03  0.91930192827E+03  0.10566000000E+00 0. -1.
          4    1    3    3  501    0  0.76108138488E+03 -0.10124603777E+03 -0.39560113767E+03  0.86371053872E+03  0.00000000000E+00 0.  1.
</event>
<event>
 6    1  0.2569591E-005  0.1106447E+04  0.7818608E-02  0.8853919E-01
         21   -1    0    0  501  502  0.00000000000E+00  0.00000000000E+00  0.48939606508E+03  0.48939606508E+03  0.00000000000E+00 0. -1.
         -4   -1    0    0    0  501 -0.00000000000E+00 -0.00000000000E+00 -0.14446066385E+04  0.14446066385E+04  0.00000000000E+00 0. -1.
   -9000010    2    1    2    0  502 -0.39587150296E+03 -0.34972501596E+03 -0.85036392722E+03  0.13954726079E+04  0.97221559178E+03 0.  0.
        -13    1    1    2    0    0  0.39587150296E+03  0.34972501596E+03 -0.10484664622E+03  0.53853009576E+03  0.10566000000E+00 0.  1.
         13    1    3    3    0    0  0.14306183033E+03 -0.19590983054E+03  0.12322831231E+03  0.27208928152E+03  0.10566000000E+00 0. -1.
         -4    1    3    3    0  502 -0.53893333330E+03 -0.15381518542E+03 -0.97359223954E+03  0.11233833263E+04  0.00000000000E+00 0. -1.
</event>
<event>
 6    1  0.2569591E-005  0.1117646E+04  0.7818608E-02  0.8864758E-01
          4   -1    0    0  502    0 -0.00000000000E+00  0.00000000000E+00  0.94651982788E+03  0.94651982788E+03  0.00000000000E+00 0.  1.
         21   -1    0    0  501  502  0.00000000000E+00 -0.00000000000E+00 -0.71659206566E+03  0.71659206566E+03  0.00000000000E+00 0. -1.
    9000010    2    1    2  501    0 -0.38228123769E+03  0.30623667513E+03 -0.99969663733E+01  0.11176912005E+04  0.10045963540E+04 0.  0.
        -13    1    3    3    0    0 -0.51884125803E+03 -0.14748374060E+03 -0.24072548523E+03  0.59067459331E+03  0.10566000000E+00 0.  1.
         13    1    1    2    0    0  0.38228123769E+03 -0.30623667513E+03  0.23992472859E+03  0.54542069308E+03  0.10566000000E+00 0. -1.
          4    1    3    3  501    0  0.13656002034E+03  0.45372041573E+03  0.23072851885E+03  0.52701660715E+03  0.00000000000E+00 0.  1.
</event>
<event>
 6    1  0.2569591E-005  0.1019204E+04  0.7818608E-02  0.9151908E-01
         21   -1    0    0  501  502  0.00000000000E+00  0.00000000000E+00  0.46392196007E+03  0.46392196007E+03  0.00000000000E+00 0.  1.
          4   -1    0    0  502    0 -0.00000000000E+00 -0.00000000000E+00 -0.86498130007E+03  0.86498130007E+03  0.00000000000E+00 0.  1.
    9000010    2    1    2  501    0  0.17033464484E+02  0.20170955641E+03 -0.19056200131E+03  0.10368655489E+04  0.99889909700E+03 0.  0.
        -13    1    3    3    0    0 -0.16029852629E+03  0.12872255842E+03  0.38158213364E+03  0.43343978873E+03  0.10566000000E+00 0.  1.
         13    1    1    2    0    0 -0.17033464484E+02 -0.20170955641E+03 -0.21049733869E+03  0.29203771130E+03  0.10566000000E+00 0. -1.
          4    1    3    3  501    0  0.17733199078E+03  0.72986997994E+02 -0.57214413495E+03  0.60342576013E+03  0.00000000000E+00 0.  1.
</event>
<event>
 6    1  0.2569591E-005  0.1019487E+04  0.7818608E-02  0.9199855E-01
          4   -1    0    0  502    0 -0.00000000000E+00  0.00000000000E+00  0.24739235745E+04  0.24739235745E+04  0.00000000000E+00 0.  1.
         21   -1    0    0  501  502  0.00000000000E+00 -0.00000000000E+00 -0.19269614240E+03  0.19269614240E+03  0.00000000000E+00 0. -1.
    9000010    2    1    2  501    0  0.14624927833E+03  0.82284981703E+02  0.22813820447E+04  0.24988111811E+04  0.10055812326E+04 0.  0.
        -13    1    3    3    0    0  0.25131073944E+03 -0.42025055058E+03  0.89124301219E+03  0.10168980927E+04  0.10566000000E+00 0.  1.
         13    1    1    2    0    0 -0.14624927833E+03 -0.82284981703E+02 -0.15461257590E+00  0.16780853582E+03  0.10566000000E+00 0. -1.
          4    1    3    3  501    0 -0.10506146111E+03  0.50253553228E+03  0.13901390325E+04  0.14819130884E+04  0.00000000000E+00 0.  1.
</event>
<event>
 5    1  0.2569591E-005  0.6120243E+03  0.7818608E-02  0.9365133E-01
         21   -1    0    0  501  502  0.00000000000E+00  0.00000000000E+00  0.46627998588E+03  0.46627998588E+03  0.00000000000E+00 0.  1.
         -4   -1    0    0    0  501 -0.00000000000E+00 -0.00000000000E+00 -0.69517097597E+03  0.69517097597E+03  0.00000000000E+00 0. -1.
        -13    1    1    2    0    0 -0.38286321084E+03 -0.15638349379E+03  0.15195934169E+03  0.44060377669E+03  0.10566000000E+00 0.  1.
         13    1    1    2    0    0  0.30329752718E+03  0.17133120662E+03 -0.17712389047E+02  0.34879436957E+03  0.10566000000E+00 0. -1.
         -4    1    1    2    0  502  0.79565683663E+02 -0.14947712829E+02 -0.36313794273E+03  0.37205281559E+03  0.00000000000E+00 0. -1.
</event>
<event>
 5    1  0.2569591E-005  0.5994023E+02  0.7818608E-02  0.1296481E+00
         -4   -1    0    0    0  501 -0.00000000000E+00  0.00000000000E+00  0.34555479339E+02  0.34555479339E+02  0.00000000000E+00 0. -1.
         21   -1    0    0  501  502  0.00000000000E+00 -0.00000000000E+00 -0.54029304099E+02  0.54029304099E+02  0.00000000000E+00 0. -1.
        -13    1    1    2    0    0  0.21355968069E+02  0.15646527284E+02 -0.63067082850E+01  0.27215380241E+02  0.10566000000E+00 0.  1.
         13    1    1    2    0    0 -0.35127119281E+02  0.42638966936E+01 -0.11039589534E+02  0.37067223057E+02  0.10566000000E+00 0. -1.
         -4    1    1    2    0  502  0.13771151212E+02 -0.19910423978E+02 -0.21275269413E+01  0.24302180140E+02  0.00000000000E+00 0. -1.
</event>
<event>
 6    1  0.2569591E-005  0.1054451E+04  0.7818608E-02  0.8873757E-01
         -4   -1    0    0    0  501 -0.00000000000E+00  0.00000000000E+00  0.24555653754E+04  0.24555653754E+04  0.00000000000E+00 0. -1.
         21   -1    0    0  501  502  0.00000000000E+00 -0.00000000000E+00 -0.28000117990E+03  0.28000117990E+03  0.00000000000E+00 0.  1.
   -9000010    2    1    2    0  502  0.55161224760E+03  0.10646240268E+03  0.16952782438E+04  0.19964556560E+04  0.89233208370E+03 0.  0.
        -13    1    1    2    0    0 -0.55161224760E+03 -0.10646240268E+03  0.48028595169E+03  0.73911089928E+03  0.10566000000E+00 0.  1.
         13    1    3    3    0    0 -0.14645871420E+03  0.26410201195E+03  0.76721148789E+03  0.82450803878E+03  0.10566000000E+00 0. -1.
         -4    1    3    3    0  502  0.69807096180E+03 -0.15763960927E+03  0.92806675594E+03  0.11719476173E+04  0.00000000000E+00 0. -1.
</event>
<event>
 6    1  0.2569591E-005  0.1120717E+04  0.7818608E-02  0.8979941E-01
         21   -1    0    0  501  502  0.00000000000E+00  0.00000000000E+00  0.26973491579E+03  0.26973491579E+03  0.00000000000E+00 0.  1.
          4   -1    0    0  502    0 -0.00000000000E+00 -0.00000000000E+00 -0.18796074750E+04  0.18796074750E+04  0.00000000000E+00 0.  1.
    9000010    2    1    2  501    0  0.25332210877E+03  0.16494758860E+03 -0.13012009148E+04  0.17173030488E+04  0.10791784575E+04 0.  0.
        -13    1    3    3    0    0 -0.21644015597E+02  0.31602005469E+03  0.58291667695E+02  0.32207928847E+03  0.10566000000E+00 0.  1.
         13    1    1    2    0    0 -0.25332210877E+03 -0.16494758860E+03 -0.30867164434E+03  0.43203934191E+03  0.10566000000E+00 0. -1.
          4    1    3    3  501    0  0.27496612437E+03 -0.15107246608E+03 -0.13594925825E+04  0.13952237604E+04  0.00000000000E+00 0.  1.
</event>
<event>
 6    1  0.2569591E-005  0.1163282E+04  0.7818608E-02  0.8816139E-01
         21   -1    0    0  501  502  0.00000000000E+00  0.00000000000E+00  0.31384916952E+03  0.31384916952E+03  0.00000000000E+00 0.  1.
          4   -1    0    0  502    0 -0.00000000000E+00 -0.00000000000E+00 -0.23016170790E+04  0.23016170790E+04  0.00000000000E+00 0.  1.
    9000010    2    1    2  501    0  0.42483418367E+03  0.32137230581E+03 -0.12799629358E+04  0.17296038808E+04  0.10341471003E+04 0.  0.
        -13    1    3    3    0    0 -0.21745015890E+03  0.42365354448E+03 -0.33408824783E+03  0.58170599606E+03  0.10566000000E+00 0.  1.
         13    1    1    2    0    0 -0.42483418367E+03 -0.32137230581E+03 -0.70780497371E+03  0.88586236771E+03  0.10566000000E+00 0. -1.
          4    1    3    3  501    0  0.64228434257E+03 -0.10228123867E+03 -0.94587468796E+03  0.11478978848E+04  0.00000000000E+00 0.  1.
</event>
<event>
 6    1  0.2569591E-005  0.1014048E+04  0.7818608E-02  0.9289910E-01
         21   -1    0    0  501  502  0.00000000000E+00  0.00000000000E+00  0.13975184805E+03  0.13975184805E+03  0.00000000000E+00 0.  1.
          4   -1    0    0  502    0 -0.00000000000E+00 -0.00000000000E+00 -0.23474280580E+04  0.23474280580E+04  0.00000000000E+00 0.  1.
    9000010    2    1    2  501    0 -0.19728897218E+02  0.11908662989E+03 -0.18500901501E+04  0.21097694449E+04  0.10068379673E+04 0.  0.
        -13    1    3    3    0    0 -0.38778546842E+02 -0.34673564415E+03 -0.21570968812E+03  0.41019515274E+03  0.10566000000E+00 0.  1.
         13    1    1    2    0    0  0.19728897218E+02 -0.11908662989E+03 -0.35758605981E+03  0.37741046109E+03  0.10566000000E+00 0. -1.
          4    1    3    3  501    0  0.19049649624E+02  0.46582227404E+03 -0.16343804620E+04  0.16995742922E+04  0.00000000000E+00 0.  1.
</event>
<event>
 6    1  0.2569591E-005  0.1036148E+04  0.7818608E-02  0.9038943E-01
         21   -1    0    0  501  502  0.00000000000E+00  0.00000000000E+00  0.38861805284E+03  0.38861805284E+03  0.00000000000E+00 0. -1.
         -4   -1    0    0    0  501 -0.00000000000E+00 -0.00000000000E+00 -0.14784791440E+04  0.14784791440E+04  0.00000000000E+00 0. -1.
   -9000010    2    1    2    0  502  0.11665348034E+03  0.27794303039E+03 -0.39360045131E+03  0.11083882590E+04  0.99133387653E+03 0.  0.
        -13    1    1    2    0    0 -0.11665348034E+03 -0.27794303039E+03 -0.69626063980E+03  0.75870893781E+03  0.10566000000E+00 0.  1.
         13    1    3    3    0    0  0.17132118502E+03 -0.23114360085E+03  0.18010162742E+03  0.33943323352E+03  0.10566000000E+00 0. -1.
         -4    1    3    3    0  502 -0.54667704687E+02  0.50908663124E+03 -0.57370207873E+03  0.76895502546E+03  0.00000000000E+00 0. -1.
</event>
<event>
 5    1  0.2569591E-005  0.2931169E+03  0.7818608E-02  0.1071192E+00
          4   -1    0    0  502    0 -0.00000000000E+00  0.00000000000E+00  0.32472157749E+02  0.32472157749E+02  0.00000000000E+00 0.  1.
         21   -1    0    0  501  502  0.00000000000E+00 -0.00000000000E+00 -0.97920619557E+03  0.97920619557E+03  0.00000000000E+00 0.  1.
        -13    1    1    2    0    0 -0.10158112867E+03  0.11547911323E+03 -0.55745009492E+03  0.57827741681E+03  0.10566000000E+00 0.  1.
         13    1    1    2    0    0  0.45577992095E+02  0.73874849426E+01 -0.49106285095E+02  0.67404500570E+02  0.10566000000E+00 0. -1.
          4    1    1    2  501    0  0.56003136580E+02 -0.12286659818E+03 -0.34017765780E+03  0.36599643594E+03  0.00000000000E+00 0.  1.
</event>
<event>
 5    1  0.2569591E-005  0.3290733E+03  0.7818608E-02  0.1041365E+00
         21   -1    0    0  501  502  0.00000000000E+00  0.00000000000E+00  0.22175775452E+03  0.22175775452E+03  0.00000000000E+00 0. -1.
         -4   -1    0    0    0  501 -0.00000000000E+00 -0.00000000000E+00 -0.21450558791E+03  0.21450558791E+03  0.00000000000E+00 0. -1.
        -13    1    1    2    0    0  0.83997344483E+01 -0.77952038483E+02  0.65391339548E+02  0.10209365453E+03  0.10566000000E+00 0.  1.
         13    1    1    2    0    0 -0.10537893166E+03  0.19605985220E+02  0.95353682811E+02  0.14346236400E+03  0.10566000000E+00 0. -1.
         -4    1    1    2    0  502  0.96979197214E+02  0.58346053262E+02 -0.15349285575E+03  0.19070732390E+03  0.00000000000E+00 0. -1.
</event>
<event>
 6    1  0.2569591E-005  0.9450391E+03  0.7818608E-02  0.9325378E-01
         21   -1    0    0  501  502  0.00000000000E+00  0.00000000000E+00  0.15524103489E+04  0.15524103489E+04  0.00000000000E+00 0.  1.
          4   -1    0    0  502    0 -0.00000000000E+00 -0.00000000000E+00 -0.25834901073E+03  0.25834901073E+03  0.00000000000E+00 0.  1.
    9000010    2    1    2  501    0 -0.13038109167E+03  0.24017899123E+01  0.13666036213E+04  0.16615367351E+04  0.93599886049E+03 0.  0.
        -13    1    3    3    0    0 -0.19220135659E+03  0.18344425335E+03  0.14342275113E+04  0.14586300836E+04  0.10566000000E+00 0.  1.
         13    1    1    2    0    0  0.13038109167E+03 -0.24017899123E+01 -0.72542283112E+02  0.14922262450E+03  0.10566000000E+00 0. -1.
          4    1    3    3  501    0  0.61820264918E+02 -0.18104246344E+03 -0.67623890007E+02  0.20290665150E+03  0.00000000000E+00 0.  1.
</event>
<event>
 5    1  0.3566414E-005  0.1675417E+03  0.7818608E-02  0.1085697E+00
          4   -1    0    0  502    0 -0.00000000000E+00  0.00000000000E+00  0.31092006213E+03  0.31092006213E+03  0.00000000000E+00 0.  1.
         21   -1    0    0  501  502  0.00000000000E+00 -0.00000000000E+00 -0.89724783881E+02  0.89724783881E+02  0.00000000000E+00 0. -1.
        -13    1    1    2    0    0 -0.14821417160E+03  0.24636140234E+02  0.89428116205E+02  0.17484787445E+03  0.10566000000E+00 0.  1.
         13    1    1    2    0    0  0.16272774120E+03 -0.22577258026E+02  0.13258785749E+03  0.21111513791E+03  0.10566000000E+00 0. -1.
          4    1    1    2  501    0 -0.14513569600E+02 -0.20588822087E+01 -0.82069543730E+00  0.14681833655E+02  0.00000000000E+00 0.  1.
</event>
<event>
 5    1  0.2569591E-005  0.5432759E+03  0.7818608E-02  0.9475856E-01
          4   -1    0    0  502    0 -0.00000000000E+00  0.00000000000E+00  0.57551233110E+03  0.57551233110E+03  0.00000000000E+00 0.  1.
         21   -1    0    0  501  502  0.00000000000E+00 -0.00000000000E+00 -0.40445769766E+03  0.40445769766E+03  0.00000000000E+00 0. -1.
        -13    1    1    2    0    0  0.52731431861E+02 -0.73173695064E+02 -0.17107105516E+03  0.19339159918E+03  0.10566000000E+00 0.  1.
         13    1    1    2    0    0 -0.35055740882E+03  0.17720956640E+03  0.19004805103E+03  0.43636223504E+03  0.10566000000E+00 0. -1.
          4    1    1    2  501    0  0.29782597696E+03 -0.10403587134E+03  0.15207763757E+03  0.35021619455E+03  0.00000000000E+00 0.  1.
</event>
<event>
 5    1  0.2569591E-005  0.7388998E+03  0.7818608E-02  0.9159089E-01
         -4   -1    0    0    0  501 -0.00000000000E+00  0.00000000000E+00  0.90502089784E+03  0.90502089784E+03  0.00000000000E+00 0. -1.
         21   -1    0    0  501  502  0.00000000000E+00 -0.00000000000E+00 -0.43939216852E+03  0.43939216852E+03  0.00000000000E+00 0.  1.
        -13    1    1    2    0    0 -0.42545000129E+03 -0.29291033241E+03  0.12871339885E+03  0.53232632533E+03  0.10566000000E+00 0.  1.
         13    1    1    2    0    0  0.49515145433E+03  0.88152652550E+02  0.14629847919E+03  0.52378345626E+03  0.10566000000E+00 0. -1.
         -4    1    1    2    0  502 -0.69701453038E+02  0.20475767986E+03  0.19061685127E+03  0.28830328477E+03  0.00000000000E+00 0. -1.
</event>
<event>
 6    1  0.2569591E-005  0.1047807E+04  0.7818608E-02  0.9141069E-01
          4   -1    0    0  502    0 -0.00000000000E+00  0.00000000000E+00  0.81638186219E+03  0.81638186219E+03  0.00000000000E+00 0.  1.
         21   -1    0    0  501  502  0.00000000000E+00 -0.00000000000E+00 -0.50684477583E+03  0.50684477583E+03  0.00000000000E+00 0.  1.
    9000010    2    1    2  501    0 -0.18725838315E+03  0.52143971671E+02  0.12506579406E+03  0.10552446149E+04  0.10296188852E+04 0.  0.
        -13    1    3    3    0    0  0.36385830422E+03  0.12777743866E+01 -0.19815300283E+03  0.41431765827E+03  0.10566000000E+00 0.  1.
         13    1    1    2    0    0  0.18725838315E+03 -0.52143971671E+02  0.18447129230E+03  0.26798202307E+03  0.10566000000E+00 0. -1.
          4    1    3    3  501    0 -0.55111668737E+03  0.50866197284E+02  0.32321879690E+03  0.64092695668E+03  0.00000000000E+00 0.  1.
</event>
<event>
 6    1  0.2569591E-005  0.1540377E+04  0.7818608E-02  0.8447139E-01
         21   -1    0    0  501  502  0.00000000000E+00  0.00000000000E+00  0.53147797283E+03  0.53147797283E+03  0.00000000000E+00 0.  1.
         -4   -1    0    0    0  501 -0.00000000000E+00 -0.00000000000E+00 -0.35300195499E+04  0.35300195499E+04  0.00000000000E+00 0. -1.
   -9000010    2    1    2    0  502  0.13575065932E+03  0.11564031461E+04 -0.13832401210E+04  0.20702930423E+04  0.10084956969E+04 0.  0.
        -13    1    1    2    0    0 -0.13575065932E+03 -0.11564031461E+04 -0.16153014561E+04  0.19912044805E+04  0.10566000000E+00 0.  1.
         13    1    3    3    0    0 -0.60481776521E+02  0.39519607737E+03  0.81429026305E+02  0.40800573814E+03  0.10566000000E+00 0. -1.
         -4    1    3    3    0  502  0.19623243584E+03  0.76120706876E+03 -0.14646691473E+04  0.16622873041E+04  0.00000000000E+00 0. -1.
</event>
<event>
 6    1  0.2569591E-005  0.9657007E+03  0.7818608E-02  0.9325960E-01
          4   -1    0    0  502    0 -0.00000000000E+00  0.00000000000E+00  0.25411814902E+04  0.25411814902E+04  0.00000000000E+00 0.  1.
         21   -1    0    0  501  502  0.00000000000E+00 -0.00000000000E+00 -0.11794085751E+03  0.11794085751E+03  0.00000000000E+00 0.  1.
    9000010    2    1    2  501    0  0.71347818166E+02 -0.98892154683E+02  0.22365949817E+04  0.24361721748E+04  0.95797055465E+03 0.  0.
        -13    1    3    3    0    0  0.36394352653E+03  0.26720651508E+03  0.72977790989E+03  0.85815500997E+03  0.10566000000E+00 0.  1.
         13    1    1    2    0    0 -0.71347818166E+02  0.98892154683E+02  0.18664565103E+03  0.22295017297E+03  0.10566000000E+00 0. -1.
          4    1    3    3  501    0 -0.29259570836E+03 -0.36609866976E+03  0.15068170718E+04  0.15780171648E+04  0.00000000000E+00 0.  1.
</event>
<event>
 5    1  0.2569591E-005  0.5475038E+03  0.7818608E-02  0.9502052E-01
         -4   -1    0    0    0  501 -0.00000000000E+00  0.00000000000E+00  0.18034540143E+03  0.18034540143E+03  0.00000000000E+00 0. -1.
         21   -1    0    0  501  502  0.00000000000E+00 -0.00000000000E+00 -0.15235173777E+04  0.15235173777E+04  0.00000000000E+00 0.  1.
        -13    1    1    2    0    0 -0.30370387059E+03 -0.17164593286E+03 -0.99658546912E+03  0.10558792430E+04  0.10566000000E+00 0.  1.
         13    1    1    2    0    0  0.21880515905E+03  0.28479101714E+03 -0.11589564899E+03  0.37737704446E+03  0.10566000000E+00 0. -1.
         -4    1    1    2    0  502  0.84898711540E+02 -0.11314508428E+03 -0.23069085820E+03  0.27060649175E+03  0.00000000000E+00 0. -1.
</event>
<event>
 6    1  0.2569591E-005  0.1036402E+04  0.7818608E-02  0.9047602E-01
         21   -1    0    0  501  502  0.00000000000E+00  0.00000000000E+00  0.23492132946E+03  0.23492132946E+03  0.00000000000E+00 0.  1.
         -4   -1    0    0    0  501 -0.00000000000E+00 -0.00000000000E+00 -0.21741159426E+04  0.21741159426E+04  0.00000000000E+00 0. -1.
   -9000010    2    1    2    0  502  0.12078080324E+03  0.26468285184E+03 -0.18204589576E+04  0.20948029940E+04  0.99472797918E+03 0.  0.
        -13    1    1    2    0    0 -0.12078080324E+03 -0.26468285184E+03 -0.11873565552E+03  0.31423427812E+03  0.10566000000E+00 0.  1.
         13    1    3    3    0    0  0.46914160711E+03  0.30836781569E+02 -0.41184102057E+03  0.62502623306E+03  0.10566000000E+00 0. -1.
         -4    1    3    3    0  502 -0.34836080387E+03  0.23384607027E+03 -0.14086179371E+04  0.14697767609E+04  0.00000000000E+00 0. -1.
</event>
<event>
 6    1  0.2569591E-005  0.1052019E+04  0.7818608E-02  0.9034962E-01
         -4   -1    0    0    0  501 -0.00000000000E+00  0.00000000000E+00  0.35165896992E+04  0.35165896992E+04  0.00000000000E+00 0. -1.
         21   -1    0    0  501  502  0.00000000000E+00 -0.00000000000E+00 -0.12886287366E+03  0.12886287366E+03  0.00000000000E+00 0. -1.
   -9000010    2    1    2    0  502 -0.20684167798E+02 -0.29189812082E+03  0.27234893599E+04  0.29196125287E+04  0.10105002111E+04 0.  0.
        -13    1    1    2    0    0  0.20684167798E+02  0.29189812082E+03  0.66423746564E+03  0.72584004413E+03  0.10566000000E+00 0.  1.
         13    1    3    3    0    0 -0.44035705161E+03 -0.41675208315E+03  0.14022288773E+04  0.15276918758E+04  0.10566000000E+00 0. -1.
         -4    1    3    3    0  502  0.41967288382E+03  0.12485396233E+03  0.13212604826E+04  0.13919206530E+04  0.00000000000E+00 0. -1.
</event>
<event>
 6    1  0.2569591E-005  0.1003172E+04  0.7818608E-02  0.9344372E-01
          4   -1    0    0  502    0 -0.00000000000E+00  0.00000000000E+00  0.15613303612E+04  0.15613303612E+04  0.00000000000E+00 0.  1.
         21   -1    0    0  501  502  0.00000000000E+00 -0.00000000000E+00 -0.19672594352E+03  0.19672594352E+03  0.00000000000E+00 0.  1.
    9000010    2    1    2  501    0 -0.44447840116E+02 -0.91255891575E+02  0.12774844778E+04  0.16242910502E+04  0.99802383559E+03 0.  0.
        -13    1    3    3    0    0 -0.33834085830E+03  0.11025864447E+03  0.66561277429E+02  0.36202475038E+03  0.10566000000E+00 0.  1.
         13    1    1    2    0    0  0.44447840116E+02  0.91255891575E+02  0.87119939862E+02  0.13376525455E+03  0.10566000000E+00 0. -1.
          4    1    3    3  501    0  0.29389301818E+03 -0.20151453604E+03  0.12109232004E+04  0.12622662998E+04  0.00000000000E+00 0.  1.
</event>
<event>
 5    1  0.2569591E-005  0.5329948E+03  0.7818608E-02  0.9472279E-01
         -4   -1    0    0    0  501 -0.00000000000E+00  0.00000000000E+00  0.37968092257E+03  0.37968092257E+03  0.00000000000E+00 0. -1.
         21   -1    0    0  501  502  0.00000000000E+00 -0.00000000000E+00 -0.90799865261E+03  0.90799865261E+03  0.00000000000E+00 0.  1.
        -13    1    1    2    0    0 -0.20724032068E+03  0.36697134735E+03  0.12963214637E+03  0.44093199569E+03  0.10566000000E+00 0.  1.
         13    1    1    2    0    0  0.25877621791E+03 -0.17507322908E+03 -0.51354282670E+03  0.60111730345E+03  0.10566000000E+00 0. -1.
         -4    1    1    2    0  502 -0.51535897226E+02 -0.19189811827E+03 -0.14440704971E+03  0.24563027603E+03  0.00000000000E+00 0. -1.
</event>
<event>
 6    1  0.2569591E-005  0.1048453E+04  0.7818608E-02  0.9185744E-01
         21   -1    0    0  501  502  0.00000000000E+00  0.00000000000E+00  0.16741526315E+04  0.16741526315E+04  0.00000000000E+00 0.  1.
          4   -1    0    0  502    0 -0.00000000000E+00 -0.00000000000E+00 -0.28692415569E+03  0.28692415569E+03  0.00000000000E+00 0.  1.
    9000010    2    1    2  501    0 -0.35166335729E+02  0.15912401421E+03  0.14475047209E+04  0.17873230535E+04  0.10357107017E+04 0.  0.
        -13    1    3    3    0    0  0.45240744561E+03  0.83539327240E+02  0.10743460263E+04  0.11687047152E+04  0.10566000000E+00 0.  1.
         13    1    1    2    0    0  0.35166335729E+02 -0.15912401421E+03 -0.60276245071E+02  0.17375373363E+03  0.10566000000E+00 0. -1.
          4    1    3    3  501    0 -0.48757378134E+03  0.75584686972E+02  0.37315869461E+03  0.61861833833E+03  0.00000000000E+00 0.  1.
</event>
<event>
 5    1  0.2569591E-005  0.1392982E+03  0.7818608E-02  0.1124540E+00
         21   -1    0    0  501  502  0.00000000000E+00  0.00000000000E+00  0.76279818004E+02  0.76279818004E+02  0.00000000000E+00 0. -1.
          4   -1    0    0  502    0 -0.00000000000E+00 -0.00000000000E+00 -0.21457154996E+03  0.21457154996E+03  0.00000000000E+00 0.  1.
        -13    1    1    2    0    0 -0.80408971734E+02  0.12029824455E+02  0.24779484491E+02  0.84996196547E+02  0.10566000000E+00 0.  1.
         13    1    1    2    0    0  0.99798892280E+02 -0.13711648193E+02 -0.10916164321E+03  0.14853990612E+03  0.10566000000E+00 0. -1.
          4    1    1    2  501    0 -0.19389920546E+02  0.16818237378E+01 -0.53909573235E+02  0.57315265298E+02  0.00000000000E+00 0.  1.
</event>
<event>
 6    1  0.2569591E-005  0.1132515E+04  0.7818608E-02  0.8852749E-01
         21   -1    0    0  501  502  0.00000000000E+00  0.00000000000E+00  0.22080188876E+03  0.22080188876E+03  0.00000000000E+00 0.  1.
          4   -1    0    0  502    0 -0.00000000000E+00 -0.00000000000E+00 -0.29993264516E+04  0.29993264516E+04  0.00000000000E+00 0.  1.
    9000010    2    1    2  501    0  0.48895371689E+03  0.77130542929E+02 -0.19198315191E+04  0.22289781941E+04  0.10186097732E+04 0.  0.
        -13    1    3    3    0    0 -0.14926134036E+03 -0.33744834693E+03 -0.69751279818E+03  0.78909723695E+03  0.10566000000E+00 0.  1.
         13    1    1    2    0    0 -0.48895371689E+03 -0.77130542929E+02 -0.85869304372E+03  0.99115014625E+03  0.10566000000E+00 0. -1.
          4    1    3    3  501    0  0.63821505725E+03  0.41457888986E+03 -0.12223187209E+04  0.14398809571E+04  0.00000000000E+00 0.  1.
</event>
<event>
 5    1  0.2569591E-005  0.1472663E+04  0.7818608E-02  0.8848263E-01
         21   -1    0    0  501  502  0.00000000000E+00  0.00000000000E+00  0.28403928315E+03  0.28403928315E+03  0.00000000000E+00 0.  1.
          4   -1    0    0  502    0 -0.00000000000E+00 -0.00000000000E+00 -0.28405906278E+04  0.28405906278E+04  0.00000000000E+00 0.  1.
        -13    1    1    2    0    0 -0.40285497803E+03 -0.63112834492E+03 -0.12963913218E+04  0.14970790198E+04  0.10566000000E+00 0.  1.
         13    1    1    2    0    0 -0.15434062209E+03  0.16970721483E+03 -0.79322977391E+02  0.24272147062E+03  0.10566000000E+00 0. -1.
          4    1    1    2  501    0  0.55719560012E+03  0.46142113009E+03 -0.11808370455E+04  0.13848294206E+04  0.00000000000E+00 0.  1.
</event>
<event>
 5    1  0.2569591E-005  0.1530712E+03  0.7818608E-02  0.1101694E+00
          4   -1    0    0  502    0 -0.00000000000E+00  0.00000000000E+00  0.43921907561E+02  0.43921907561E+02  0.00000000000E+00 0.  1.
         21   -1    0    0  501  502  0.00000000000E+00 -0.00000000000E+00 -0.49823244111E+03  0.49823244111E+03  0.00000000000E+00 0. -1.
        -13    1    1    2    0    0 -0.10068779864E+03  0.49782790448E+02 -0.12235446920E+03  0.16609330605E+03  0.10566000000E+00 0.  1.
         13    1    1    2    0    0  0.13481644750E+03 -0.33620022740E+02 -0.25995500243E+03  0.29475819734E+03  0.10566000000E+00 0. -1.
          4    1    1    2  501    0 -0.34128648861E+02 -0.16162767708E+02 -0.72001061924E+02  0.81302845283E+02  0.00000000000E+00 0.  1.
</event>
<event>
 6    1  0.2569591E-005  0.1040081E+04  0.7818608E-02  0.9092930E-01
         21   -1    0    0  501  502  0.00000000000E+00  0.00000000000E+00  0.13594079312E+03  0.13594079312E+03  0.00000000000E+00 0. -1.
         -4   -1    0    0    0  501 -0.00000000000E+00 -0.00000000000E+00 -0.32122644615E+04  0.32122644615E+04  0.00000000000E+00 0. -1.
   -9000010    2    1    2    0  502  0.13234295188E+03  0.20057721073E+03 -0.27702897362E+04  0.29591003160E+04  0.10119405041E+04 0.  0.
        -13    1    1    2    0    0 -0.13234295188E+03 -0.20057721073E+03 -0.30603393220E+03  0.38910493855E+03  0.10566000000E+00 0.  1.
         13    1    3    3    0    0 -0.20082042190E+03 -0.14708314553E+03 -0.14100260584E+03  0.28608397293E+03  0.10566000000E+00 0. -1.
         -4    1    3    3    0  502  0.33316337378E+03  0.34766035627E+03 -0.26292871303E+04  0.26730163431E+04  0.00000000000E+00 0. -1.
</event>
<event>
 6    1  0.2569591E-005  0.1113202E+04  0.7818608E-02  0.8879465E-01
         21   -1    0    0  501  502  0.00000000000E+00  0.00000000000E+00  0.29676870266E+03  0.29676870266E+03  0.00000000000E+00 0.  1.
          4   -1    0    0  502    0 -0.00000000000E+00 -0.00000000000E+00 -0.24347018700E+04  0.24347018700E+04  0.00000000000E+00 0.  1.
    9000010    2    1    2  501    0  0.12828531356E+03 -0.44825139730E+03 -0.97969114874E+03  0.14829069893E+04  0.10108570399E+04 0.  0.
        -13    1    3    3    0    0 -0.60499314061E+02 -0.55948756225E+03 -0.94040112991E+02  0.57055241068E+03  0.10566000000E+00 0.  1.
         13    1    1    2    0    0 -0.12828531356E+03  0.44825139730E+03 -0.11582420186E+04  0.12485635834E+04  0.10566000000E+00 0. -1.
          4    1    3    3  501    0  0.18878462762E+03  0.11123616494E+03 -0.88565103575E+03  0.91235457862E+03  0.00000000000E+00 0.  1.
</event>
<event>
 5    1  0.2569591E-005  0.4083152E+03  0.7818608E-02  0.1040315E+00
          4   -1    0    0  502    0 -0.00000000000E+00  0.00000000000E+00  0.82910522415E+03  0.82910522415E+03  0.00000000000E+00 0.  1.
         21   -1    0    0  501  502  0.00000000000E+00 -0.00000000000E+00 -0.61309573737E+02  0.61309573737E+02  0.00000000000E+00 0.  1.
        -13    1    1    2    0    0  0.12033933422E+03  0.10428314527E+03  0.84142815618E+02  0.18010151119E+03  0.10566000000E+00 0.  1.
         13    1    1    2    0    0 -0.42306160832E+02  0.22643496726E+01  0.64065403731E+02  0.76807067663E+02  0.10566000000E+00 0. -1.
          4    1    1    2  501    0 -0.78033173385E+02 -0.10654749494E+03  0.61958743106E+03  0.63350621903E+03  0.00000000000E+00 0.  1.
</event>
<event>
 6    1  0.2569591E-005  0.1087252E+04  0.7818608E-02  0.8915693E-01
         21   -1    0    0  501  502  0.00000000000E+00  0.00000000000E+00  0.82168221090E+03  0.82168221090E+03  0.00000000000E+00 0.  1.
          4   -1    0    0  502    0 -0.00000000000E+00 -0.00000000000E+00 -0.91405778902E+03  0.91405778902E+03  0.00000000000E+00 0.  1.
    9000010    2    1    2  501    0 -0.40223632996E+03  0.15398687440E+03  0.32621570960E+03  0.11351363869E+04  0.99830451521E+03 0.  0.
        -13    1    3    3    0    0  0.11002861992E+03 -0.23241711516E+03  0.41414449604E+03  0.48748301241E+03  0.10566000000E+00 0.  1.
         13    1    1    2    0    0  0.40223632996E+03 -0.15398687440E+03 -0.41859128772E+03  0.60060361300E+03  0.10566000000E+00 0. -1.
          4    1    3    3  501    0 -0.51226494988E+03  0.38640398957E+03 -0.87928786439E+02  0.64765337451E+03  0.00000000000E+00 0.  1.
</event>
<event>
 6    1  0.2569591E-005  0.1076984E+04  0.7818608E-02  0.8967653E-01
         -4   -1    0    0    0  501 -0.00000000000E+00  0.00000000000E+00  0.76143822089E+03  0.76143822089E+03  0.00000000000E+00 0. -1.
         21   -1    0    0  501  502  0.00000000000E+00 -0.00000000000E+00 -0.80864836420E+03  0.80864836420E+03  0.00000000000E+00 0. -1.
   -9000010    2    1    2    0  502  0.25282765094E+03  0.25360713443E+03 -0.31593610700E+03  0.11223678626E+04  0.10157044824E+04 0.  0.
        -13    1    1    2    0    0 -0.25282765094E+03 -0.25360713443E+03  0.26872596370E+03  0.44771872246E+03  0.10566000000E+00 0.  1.
         13    1    3    3    0    0 -0.12944663231E+03  0.19435692856E+03 -0.59907629832E+03  0.64298014640E+03  0.10566000000E+00 0. -1.
         -4    1    3    3    0  502  0.38227428325E+03  0.59250205867E+02  0.28314019132E+03  0.47938771623E+03  0.00000000000E+00 0. -1.
</event>
<event>
 6    1  0.2569591E-005  0.1006362E+04  0.7818608E-02  0.9156131E-01
         21   -1    0    0  501  502  0.00000000000E+00  0.00000000000E+00  0.10325456344E+03  0.10325456344E+03  0.00000000000E+00 0. -1.
         -4   -1    0    0    0  501 -0.00000000000E+00 -0.00000000000E+00 -0.36313381208E+04  0.36313381208E+04  0.00000000000E+00 0. -1.
   -9000010    2    1    2    0  502  0.19313510618E+03  0.74010819327E+02 -0.30980882511E+04  0.32574399360E+04  0.98487834491E+03 0.  0.
        -13    1    1    2    0    0 -0.19313510618E+03 -0.74010819327E+02 -0.42999530625E+03  0.47715274827E+03  0.10566000000E+00 0.  1.
         13    1    3    3    0    0  0.26854387905E+03 -0.37438008275E+03 -0.88093963800E+03  0.99414833818E+03  0.10566000000E+00 0. -1.
         -4    1    3    3    0  502 -0.75408772871E+02  0.44839090208E+03 -0.22171486131E+04  0.22632915978E+04  0.00000000000E+00 0. -1.
</event>
<event>
 5    1  0.2569591E-005  0.1844700E+03  0.7818608E-02  0.1100374E+00
         21   -1    0    0  501  502  0.00000000000E+00  0.00000000000E+00  0.67709567253E+02  0.67709567253E+02  0.00000000000E+00 0. -1.
          4   -1    0    0  502    0 -0.00000000000E+00 -0.00000000000E+00 -0.27899126525E+03  0.27899126525E+03  0.00000000000E+00 0.  1.
        -13    1    1    2    0    0 -0.56091238014E+02 -0.58606887417E+02 -0.13036358156E+03  0.15354370321E+03  0.10566000000E+00 0.  1.
         13    1    1    2    0    0  0.76010485831E+02 -0.31480247582E+02 -0.28649731828E+02  0.87117267185E+02  0.10566000000E+00 0. -1.
          4    1    1    2  501    0 -0.19919247817E+02  0.90087134998E+02 -0.52268384607E+02  0.10603986210E+03  0.00000000000E+00 0.  1.
</event>
<event>
 5    1  0.2569591E-005  0.6247846E+02  0.7818608E-02  0.1252841E+00
          4   -1    0    0  502    0 -0.00000000000E+00  0.00000000000E+00  0.26609018752E+03  0.26609018752E+03  0.00000000000E+00 0.  1.
         21   -1    0    0  501  502  0.00000000000E+00 -0.00000000000E+00 -0.13284308239E+02  0.13284308239E+02  0.00000000000E+00 0. -1.
        -13    1    1    2    0    0  0.11285014180E+02 -0.21789857264E+02  0.29262827737E+02  0.38189968262E+02  0.10566000000E+00 0.  1.
         13    1    1    2    0    0 -0.19752737519E+02  0.52830633530E+02  0.11693591279E+03  0.12982782962E+03  0.10566000000E+00 0. -1.
          4    1    1    2  501    0  0.84677233384E+01 -0.31040776267E+02  0.10660713875E+03  0.11135669788E+03  0.00000000000E+00 0.  1.
</event>
<event>
 6    1  0.2569591E-005  0.9104217E+03  0.7818608E-02  0.9173086E-01
          4   -1    0    0  502    0 -0.00000000000E+00  0.00000000000E+00  0.20631265727E+04  0.20631265727E+04  0.00000000000E+00 0.  1.
         21   -1    0    0  501  502  0.00000000000E+00 -0.00000000000E+00 -0.17788668399E+03  0.17788668399E+03  0.00000000000E+00 0.  1.
    9000010    2    1    2  501    0  0.14391802230E+03 -0.21828363131E+03  0.11906074378E+04  0.14988041259E+04  0.87207086638E+03 0.  0.
        -13    1    3    3    0    0 -0.31759806384E+03 -0.18512327278E+03  0.23290492713E+03  0.43518257379E+03  0.10566000000E+00 0.  1.
         13    1    1    2    0    0 -0.14391802230E+03  0.21828363131E+03  0.69463245088E+03  0.74220913078E+03  0.10566000000E+00 0. -1.
          4    1    3    3  501    0  0.46151608614E+03 -0.33160358528E+02  0.95770251068E+03  0.10636215521E+04  0.00000000000E+00 0.  1.
</event>
<event>
 5    1  0.2569591E-005  0.1865969E+03  0.7818608E-02  0.1074063E+00
         21   -1    0    0  501  502  0.00000000000E+00  0.00000000000E+00  0.41865799184E+03  0.41865799184E+03  0.00000000000E+00 0. -1.
          4   -1    0    0  502    0 -0.00000000000E+00 -0.00000000000E+00 -0.16374744602E+03  0.16374744602E+03  0.00000000000E+00 0.  1.
        -13    1    1    2    0    0  0.91996032032E+02 -0.41258008578E+02 -0.62730370396E+02  0.11874596294E+03  0.10566000000E+00 0.  1.
         13    1    1    2    0    0 -0.11040101614E+03  0.12252031543E+03  0.33957000062E+03  0.37750153449E+03  0.10566000000E+00 0. -1.
          4    1    1    2  501    0  0.18404984103E+02 -0.81262306855E+02 -0.21929084398E+02  0.86157940422E+02  0.00000000000E+00 0.  1.
</event>
<event>
 6    1  0.2569591E-005  0.1516590E+04  0.7818608E-02  0.8460841E-01
          4   -1    0    0  502    0 -0.00000000000E+00  0.00000000000E+00  0.17256277116E+04  0.17256277116E+04  0.00000000000E+00 0.  1.
         21   -1    0    0  501  502  0.00000000000E+00 -0.00000000000E+00 -0.11402027532E+04  0.11402027532E+04  0.00000000000E+00 0. -1.
    9000010    2    1    2  501    0 -0.11435514474E+04 -0.69993550419E+02  0.77730010743E+03  0.17041828874E+04  0.99369756305E+03 0.  0.
        -13    1    3    3    0    0 -0.24903257684E+03  0.21583067125E+03  0.68554243603E+03  0.76063693425E+03  0.10566000000E+00 0.  1.
         13    1    1    2    0    0  0.11435514474E+04  0.69993550419E+02 -0.19187514902E+03  0.11616475773E+04  0.10566000000E+00 0. -1.
          4    1    3    3  501    0 -0.89451887055E+03 -0.28582422167E+03  0.91757671397E+02  0.94354595316E+03  0.00000000000E+00 0.  1.
</event>
<event>
 6    1  0.2569591E-005  0.1070342E+04  0.7818608E-02  0.8969356E-01
         21   -1    0    0  501  502  0.00000000000E+00  0.00000000000E+00  0.31396258960E+03  0.31396258960E+03  0.00000000000E+00 0. -1.
         -4   -1    0    0    0  501 -0.00000000000E+00 -0.00000000000E+00 -0.18362926287E+04  0.18362926287E+04  0.00000000000E+00 0. -1.
   -9000010    2    1    2    0  502 -0.31016505449E+03  0.18721704974E+03 -0.78052315545E+03  0.13247068863E+04  0.10071640152E+04 0.  0.
        -13    1    1    2    0    0  0.31016505449E+03 -0.18721704974E+03 -0.74180688364E+03  0.82554833203E+03  0.10566000000E+00 0.  1.
         13    1    3    3    0    0  0.11817926566E+03  0.50290202062E+03 -0.25223470185E+03  0.57489054363E+03  0.10566000000E+00 0. -1.
         -4    1    3    3    0  502 -0.42834432015E+03 -0.31568497088E+03 -0.52828845361E+03  0.74981634262E+03  0.00000000000E+00 0. -1.
</event>
<event>
 6    1  0.2569591E-005  0.1067215E+04  0.7818608E-02  0.8993217E-01
         21   -1    0    0  501  502  0.00000000000E+00  0.00000000000E+00  0.14050786417E+04  0.14050786417E+04  0.00000000000E+00 0. -1.
         -4   -1    0    0    0  501 -0.00000000000E+00 -0.00000000000E+00 -0.46676216812E+03  0.46676216812E+03  0.00000000000E+00 0. -1.
   -9000010    2    1    2    0  502  0.32407123960E+03  0.70761675835E+02  0.10734304448E+04  0.15136716048E+04  0.10143566553E+04 0.  0.
        -13    1    1    2    0    0 -0.32407123960E+03 -0.70761675835E+02 -0.13511397120E+03  0.35816920510E+03  0.10566000000E+00 0.  1.
         13    1    3    3    0    0 -0.21817328076E+02 -0.42488998916E+03  0.64554717198E+03  0.77313560331E+03  0.10566000000E+00 0. -1.
         -4    1    3    3    0  502  0.34588856768E+03  0.49565166499E+03  0.42788327285E+03  0.74053600145E+03  0.00000000000E+00 0. -1.
</event>
<event>
 6    1  0.2569591E-005  0.1014932E+04  0.7818608E-02  0.9156747E-01
         21   -1    0    0  501  502  0.00000000000E+00  0.00000000000E+00  0.26418240445E+03  0.26418240445E+03  0.00000000000E+00 0. -1.
         -4   -1    0    0    0  501 -0.00000000000E+00 -0.00000000000E+00 -0.16004284019E+04  0.16004284019E+04  0.00000000000E+00 0. -1.
   -9000010    2    1    2    0  502 -0.20099506585E+03 -0.78864720249E+01 -0.80138416970E+03  0.12931754217E+04  0.99479890972E+03 0.  0.
        -13    1    1    2    0    0  0.20099506585E+03  0.78864720249E+01 -0.53486182771E+03  0.57143538466E+03  0.10566000000E+00 0.  1.
         13    1    3    3    0    0 -0.28227879250E+03 -0.21292554287E+03  0.98186787015E+02  0.36695947979E+03  0.10566000000E+00 0. -1.
         -4    1    3    3    0  502  0.81283726650E+02  0.20503907085E+03 -0.89957095672E+03  0.92621594186E+03  0.00000000000E+00 0. -1.
</event>
<event>
 6    1  0.2569591E-005  0.1059419E+04  0.7818608E-02  0.9004416E-01
         21   -1    0    0  501  502  0.00000000000E+00  0.00000000000E+00  0.81836040990E+03  0.81836040990E+03  0.00000000000E+00 0.  1.
          4   -1    0    0  502    0 -0.00000000000E+00 -0.00000000000E+00 -0.67227269861E+03  0.67227269861E+03  0.00000000000E+00 0.  1.
    9000010    2    1    2  501    0 -0.12517480332E+03 -0.29890550833E+03  0.34042565794E+03  0.11127700606E+04  0.10086398490E+04 0.  0.
        -13    1    3    3    0    0 -0.34378442908E+03 -0.47328644818E+03  0.51813343542E+03  0.78144101746E+03  0.10566000000E+00 0.  1.
         13    1    1    2    0    0  0.12517480332E+03  0.29890550833E+03 -0.19433794665E+03  0.37786304791E+03  0.10566000000E+00 0. -1.
          4    1    3    3  501    0  0.21860962576E+03  0.17438093985E+03 -0.17770777748E+03  0.33132904315E+03  0.00000000000E+00 0.  1.
</event>
<event>
 5    1  0.2569591E-005  0.4754129E+03  0.7818608E-02  0.9790063E-01
         21   -1    0    0  501  502  0.00000000000E+00  0.00000000000E+00  0.44206751541E+03  0.44206751541E+03  0.00000000000E+00 0. -1.
          4   -1    0    0  502    0 -0.00000000000E+00 -0.00000000000E+00 -0.25392329268E+03  0.25392329268E+03  0.00000000000E+00 0.  1.
        -13    1    1    2    0    0 -0.12311731949E+03  0.36939568537E+02  0.27510580331E+03  0.30365378355E+03  0.10566000000E+00 0.  1.
         13    1    1    2    0    0  0.15185337843E+03 -0.11931143411E+03  0.75966423000E+02  0.20752246972E+03  0.10566000000E+00 0. -1.
          4    1    1    2  501    0 -0.28736058941E+02  0.82371865573E+02 -0.16292800359E+03  0.18481455482E+03  0.00000000000E+00 0.  1.
</event>
<event>
 6    1  0.2569591E-005  0.1519234E+04  0.7818608E-02  0.8461442E-01
         -4   -1    0    0    0  501 -0.00000000000E+00  0.00000000000E+00  0.39394293801E+04  0.39394293801E+04  0.00000000000E+00 0. -1.
         21   -1    0    0  501  502  0.00000000000E+00 -0.00000000000E+00 -0.44807401003E+03  0.44807401003E+03  0.00000000000E+00 0. -1.
   -9000010    2    1    2    0  502 -0.10153663860E+04  0.51074956847E+03  0.19274787674E+04  0.24542305022E+04  0.10080867720E+04 0.  0.
        -13    1    1    2    0    0  0.10153663860E+04 -0.51074956847E+03  0.15638766027E+04  0.19332728879E+04  0.10566000000E+00 0.  1.
         13    1    3    3    0    0  0.66361713480E+02 -0.10919152078E+03 -0.32005195576E+02  0.13172322853E+03  0.10566000000E+00 0. -1.
         -4    1    3    3    0  502 -0.10817280995E+04  0.61994108925E+03  0.19594839629E+04  0.23225072737E+04  0.00000000000E+00 0. -1.
</event>
<event>
 6    1  0.2569591E-005  0.9858463E+03  0.7818608E-02  0.9361055E-01
         21   -1    0    0  501  502  0.00000000000E+00  0.00000000000E+00  0.11199238412E+03  0.11199238412E+03  0.00000000000E+00 0. -1.
         -4   -1    0    0    0  501 -0.00000000000E+00 -0.00000000000E+00 -0.26383299237E+04  0.26383299237E+04  0.00000000000E+00 0. -1.
   -9000010    2    1    2    0  502 -0.80307781675E+02 -0.60376457432E+02 -0.23222809880E+04  0.25228717774E+04  0.98071319012E+03 0.  0.
        -13    1    1    2    0    0  0.80307781675E+02  0.60376457432E+02 -0.20405655158E+03  0.22745053048E+03  0.10566000000E+00 0.  1.
         13    1    3    3    0    0  0.89434734648E+02  0.26364445109E+03 -0.14276181817E+03  0.31287044642E+03  0.10566000000E+00 0. -1.
         -4    1    3    3    0  502 -0.16974251632E+03 -0.32402090852E+03 -0.21795191699E+04  0.22100013310E+04  0.00000000000E+00 0. -1.
</event>
<event>
 6    1  0.2569591E-005  0.1041000E+04  0.7818608E-02  0.9019658E-01
         -4   -1    0    0    0  501 -0.00000000000E+00  0.00000000000E+00  0.10914150282E+04  0.10914150282E+04  0.00000000000E+00 0. -1.
         21   -1    0    0  501  502  0.00000000000E+00 -0.00000000000E+00 -0.65239136578E+03  0.65239136578E+03  0.00000000000E+00 0. -1.
   -9000010    2    1    2    0  502 -0.22902480683E+03  0.22519093524E+03 -0.17046586471E+03  0.10548645863E+04  0.99021076798E+03 0.  0.
        -13    1    1    2    0    0  0.22902480683E+03 -0.22519093524E+03  0.60948952710E+03  0.68894180761E+03  0.10566000000E+00 0.  1.
         13    1    3    3    0    0 -0.33905250605E+03 -0.30320169390E+03 -0.23382572650E+03  0.51143166756E+03  0.10566000000E+00 0. -1.
         -4    1    3    3    0  502  0.11002769923E+03  0.52839262914E+03  0.63359861788E+02  0.54343291878E+03  0.00000000000E+00 0. -1.
</event>
<event>
 6    1  0.2569591E-005  0.1041594E+04  0.7818608E-02  0.9013534E-01
          4   -1    0    0  502    0 -0.00000000000E+00  0.00000000000E+00  0.22462412693E+04  0.22462412693E+04  0.00000000000E+00 0.  1.
         21   -1    0    0  501  502  0.00000000000E+00 -0.00000000000E+00 -0.23637947945E+03  0.23637947945E+03  0.00000000000E+00 0.  1.
    9000010    2    1    2  501    0 -0.18793434923E+03  0.26961991557E+03  0.10984994497E+04  0.15138093406E+04  0.98838426739E+03 0.  0.
        -13    1    3    3    0    0 -0.35437016094E+03  0.36425323512E+03  0.12726610147E+03  0.52388481750E+03  0.10566000000E+00 0.  1.
         13    1    1    2    0    0  0.18793434923E+03 -0.26961991557E+03  0.91136234012E+03  0.96881140820E+03  0.10566000000E+00 0. -1.
          4    1    3    3  501    0  0.16643581171E+03 -0.94633319553E+02  0.97123334826E+03  0.98992452306E+03  0.00000000000E+00 0.  1.
</event>
<event>
 6    1  0.2569591E-005  0.1014662E+04  0.7818608E-02  0.9123373E-01
         -4   -1    0    0    0  501 -0.00000000000E+00  0.00000000000E+00  0.88216196829E+03  0.88216196829E+03  0.00000000000E+00 0. -1.
         21   -1    0    0  501  502  0.00000000000E+00 -0.00000000000E+00 -0.50421726745E+03  0.50421726745E+03  0.00000000000E+00 0. -1.
   -9000010    2    1    2    0  502  0.20331403480E+03 -0.10642551590E+03  0.49477554704E+03  0.11288672070E+04  0.98837004295E+03 0.  0.
        -13    1    1    2    0    0 -0.20331403480E+03  0.10642551590E+03 -0.11683084620E+03  0.25751202879E+03  0.10566000000E+00 0.  1.
         13    1    3    3    0    0  0.28674540975E+03  0.40413063121E+03  0.27576370188E+03  0.56708917071E+03  0.10566000000E+00 0. -1.
         -4    1    3    3    0  502 -0.83431374953E+02 -0.51055614712E+03  0.21901184516E+03  0.56177803624E+03  0.00000000000E+00 0. -1.
</event>
<event>
 6    1  0.2569591E-005  0.1016918E+04  0.7818608E-02  0.9102893E-01
          4   -1    0    0  502    0 -0.00000000000E+00  0.00000000000E+00  0.14297196751E+04  0.14297196751E+04  0.00000000000E+00 0.  1.
         21   -1    0    0  501  502  0.00000000000E+00 -0.00000000000E+00 -0.36403500760E+03  0.36403500760E+03  0.00000000000E+00 0.  1.
    9000010    2    1    2  501    0  0.14978935985E+03  0.19659312020E+03  0.41612619493E+03  0.10987640873E+04  0.98642577126E+03 0.  0.
        -13    1    3    3    0    0  0.16125908618E+03 -0.37081576904E+03  0.16579229342E+02  0.40470200080E+03  0.10566000000E+00 0.  1.
         13    1    1    2    0    0 -0.14978935985E+03 -0.19659312020E+03  0.64955847260E+03  0.69499059542E+03  0.10566000000E+00 0. -1.
          4    1    3    3  501    0 -0.11469726329E+02  0.56740888924E+03  0.39954696558E+03  0.69406208650E+03  0.00000000000E+00 0.  1.
</event>
<event>
 5    1  0.2569591E-005  0.2919933E+03  0.7818608E-02  0.1012856E+00
         -4   -1    0    0    0  501 -0.00000000000E+00  0.00000000000E+00  0.11057610467E+03  0.11057610467E+03  0.00000000000E+00 0. -1.
         21   -1    0    0  501  502  0.00000000000E+00 -0.00000000000E+00 -0.73209091440E+03  0.73209091440E+03  0.00000000000E+00 0.  1.
        -13    1    1    2    0    0  0.26068830145E+03 -0.78396883662E+02 -0.35477441268E+03  0.44717933420E+03  0.10566000000E+00 0.  1.
         13    1    1    2    0    0 -0.26345685045E+03  0.91008369102E+02 -0.25863803723E+03  0.38024423830E+03  0.10566000000E+00 0. -1.
         -4    1    1    2    0  502  0.27685489952E+01 -0.12611485440E+02 -0.81023598227E+01  0.15243446567E+02  0.00000000000E+00 0. -1.
</event>
<event>
 6    1  0.2569591E-005  0.1016781E+04  0.7818608E-02  0.9123529E-01
          4   -1    0    0  502    0 -0.00000000000E+00  0.00000000000E+00  0.71894024229E+03  0.71894024229E+03  0.00000000000E+00 0.  1.
         21   -1    0    0  501  502  0.00000000000E+00 -0.00000000000E+00 -0.67382939405E+03  0.67382939405E+03  0.00000000000E+00 0.  1.
    9000010    2    1    2  501    0 -0.26858139094E+02 -0.22632436623E+03 -0.22292913241E+03  0.10409322864E+04  0.99090794149E+03 0.  0.
        -13    1    3    3    0    0  0.29576796807E+03 -0.28154751610E+03 -0.47602589502E+03  0.62717490276E+03  0.10566000000E+00 0.  1.
         13    1    1    2    0    0  0.26858139094E+02  0.22632436623E+03  0.26803998066E+03  0.35183734989E+03  0.10566000000E+00 0. -1.
          4    1    3    3  501    0 -0.32262610717E+03  0.55223149868E+02  0.25309676261E+03  0.41375738368E+03  0.00000000000E+00 0.  1.
</event>
<event>
 6    1  0.2569591E-005  0.1083084E+04  0.7818608E-02  0.8936979E-01
          4   -1    0    0  502    0 -0.00000000000E+00  0.00000000000E+00  0.10813646243E+04  0.10813646243E+04  0.00000000000E+00 0.  1.
         21   -1    0    0  501  502  0.00000000000E+00 -0.00000000000E+00 -0.51529213982E+03  0.51529213982E+03  0.00000000000E+00 0.  1.
    9000010    2    1    2  501    0  0.31234842912E+02 -0.39793360172E+03  0.32695899295E+03  0.11313589672E+04  0.10068486296E+04 0.  0.
        -13    1    3    3    0    0 -0.15810931951E+03 -0.16721289323E+03 -0.33430587189E+03  0.40585605296E+03  0.10566000000E+00 0.  1.
         13    1    1    2    0    0 -0.31234842912E+02  0.39793360172E+03  0.23911349155E+03  0.46529779690E+03  0.10566000000E+00 0. -1.
          4    1    3    3  501    0  0.18934416242E+03 -0.23072070850E+03  0.66126486484E+03  0.72550291429E+03  0.00000000000E+00 0.  1.
</event>
<event>
 6    1  0.2569591E-005  0.1391169E+04  0.7818608E-02  0.8559913E-01
         21   -1    0    0  501  502  0.00000000000E+00  0.00000000000E+00  0.63179480745E+03  0.63179480745E+03  0.00000000000E+00 0. -1.
          4   -1    0    0  502    0 -0.00000000000E+00 -0.00000000000E+00 -0.22340717214E+04  0.22340717214E+04  0.00000000000E+00 0.  1.
    9000010    2    1    2  501    0  0.83819136909E+03 -0.44264047431E+03 -0.11959045030E+04  0.18345402428E+04  0.10182607532E+04 0.  0.
        -13    1    3    3    0    0  0.17497662760E+03 -0.84046677347E+02  0.18056362633E+03  0.26511110595E+03  0.10566000000E+00 0.  1.
         13    1    1    2    0    0 -0.83819136909E+03  0.44264047431E+03 -0.40637241092E+03  0.10313262860E+04  0.10566000000E+00 0. -1.
          4    1    3    3  501    0  0.66321474149E+03 -0.35859379697E+03 -0.13764681293E+04  0.15694291369E+04  0.00000000000E+00 0.  1.
</event>
<event>
 5    1  0.2569591E-005  0.7400305E+03  0.7818608E-02  0.9190137E-01
         21   -1    0    0  501  502  0.00000000000E+00  0.00000000000E+00  0.93117460073E+03  0.93117460073E+03  0.00000000000E+00 0.  1.
         -4   -1    0    0    0  501 -0.00000000000E+00 -0.00000000000E+00 -0.38901167272E+03  0.38901167272E+03  0.00000000000E+00 0. -1.
        -13    1    1    2    0    0  0.34292741840E+03  0.29994324648E+03  0.13317238107E+03  0.47465783428E+03  0.10566000000E+00 0.  1.
         13    1    1    2    0    0  0.17872975447E+02 -0.18506401580E+03  0.42775651928E+03  0.46641589182E+03  0.10566000000E+00 0. -1.
         -4    1    1    2    0  502 -0.36080039384E+03 -0.11487923068E+03 -0.18765972331E+02  0.37911254735E+03  0.00000000000E+00 0. -1.
</event>
<event>
 5    1  0.2569591E-005  0.1670319E+03  0.7818608E-02  0.1094236E+00
         21   -1    0    0  501  502  0.00000000000E+00  0.00000000000E+00  0.11460106270E+04  0.11460106270E+04  0.00000000000E+00 0.  1.
          4   -1    0    0  502    0 -0.00000000000E+00 -0.00000000000E+00 -0.22146657732E+02  0.22146657732E+02  0.00000000000E+00 0.  1.
        -13    1    1    2    0    0 -0.44655567891E+02 -0.79866837029E+02  0.40925984299E+03  0.41936435429E+03  0.10566000000E+00 0.  1.
         13    1    1    2    0    0 -0.99302132407E+01  0.13061008340E+03  0.29716889881E+03  0.32475678377E+03  0.10566000000E+00 0. -1.
          4    1    1    2  501    0  0.54585781131E+02 -0.50743246370E+02  0.41743522747E+03  0.42403614668E+03  0.00000000000E+00 0.  1.
</event>
<event>
 6    1  0.2569591E-005  0.1418518E+04  0.7818608E-02  0.8528345E-01
         -4   -1    0    0    0  501 -0.00000000000E+00  0.00000000000E+00  0.17949810431E+04  0.17949810431E+04  0.00000000000E+00 0. -1.
         21   -1    0    0  501  502  0.00000000000E+00 -0.00000000000E+00 -0.99964439348E+03  0.99964439348E+03  0.00000000000E+00 0.  1.
   -9000010    2    1    2    0  502  0.97609709501E+03 -0.32984307714E+03  0.10110597515E+04  0.17419628780E+04  0.97500300141E+03 0.  0.
        -13    1    1    2    0    0 -0.97609709501E+03  0.32984307714E+03 -0.21572310188E+03  0.10526625586E+04  0.10566000000E+00 0.  1.
         13    1    3    3    0    0  0.45865339868E+02 -0.50565415006E+02 -0.18734733708E+03  0.19939790989E+03  0.10566000000E+00 0. -1.
         -4    1    3    3    0  502  0.93023175514E+03 -0.27927766213E+03  0.11984070886E+04  0.15425649681E+04  0.00000000000E+00 0. -1.
</event>
<event>
 6    1  0.2569591E-005  0.1100937E+04  0.7818608E-02  0.8890290E-01
         -4   -1    0    0    0  501 -0.00000000000E+00  0.00000000000E+00  0.13449066063E+04  0.13449066063E+04  0.00000000000E+00 0. -1.
         21   -1    0    0  501  502  0.00000000000E+00 -0.00000000000E+00 -0.45556672364E+03  0.45556672364E+03  0.00000000000E+00 0.  1.
   -9000010    2    1    2    0  502  0.45002948357E+03 -0.99100003322E+02  0.56924334955E+03  0.12393947718E+04  0.99985702107E+03 0.  0.
        -13    1    1    2    0    0 -0.45002948357E+03  0.99100003322E+02  0.32009653312E+03  0.56107855816E+03  0.10566000000E+00 0.  1.
         13    1    3    3    0    0  0.36372651400E+03  0.26100301820E+03 -0.11425509165E+03  0.46203223874E+03  0.10566000000E+00 0. -1.
         -4    1    3    3    0  502  0.86302969571E+02 -0.36010302153E+03  0.68349844120E+03  0.77736253305E+03  0.00000000000E+00 0. -1.
</event>
<event>
 6    1  0.2569591E-005  0.1025309E+04  0.7818608E-02  0.9172521E-01
          4   -1    0    0  502    0 -0.00000000000E+00  0.00000000000E+00  0.10543862263E+04  0.10543862263E+04  0.00000000000E+00 0.  1.
         21   -1    0    0  501  502  0.00000000000E+00 -0.00000000000E+00 -0.34841252167E+03  0.34841252167E+03  0.00000000000E+00 0.  1.
    9000010    2    1    2  501    0  0.10414783930E+02  0.18315604760E+03  0.55940934401E+03  0.11679887642E+04  0.10087637651E+04 0.  0.
        -13    1    3    3    0    0 -0.86430537781E+02  0.53372673465E+03  0.51275290655E+02  0.54310554383E+03  0.10566000000E+00 0.  1.
         13    1    1    2    0    0 -0.10414783930E+02 -0.18315604760E+03  0.14656436064E+03  0.23480998376E+03  0.10566000000E+00 0. -1.
          4    1    3    3  501    0  0.96845321712E+02 -0.35057068705E+03  0.50813405335E+03  0.62488322040E+03  0.00000000000E+00 0.  1.
</event>
<event>
 5    1  0.2569591E-005  0.1450645E+03  0.7818608E-02  0.1106976E+00
         -4   -1    0    0    0  501 -0.00000000000E+00  0.00000000000E+00  0.51504068643E+02  0.51504068643E+02  0.00000000000E+00 0. -1.
         21   -1    0    0  501  502  0.00000000000E+00 -0.00000000000E+00 -0.48748619925E+03  0.48748619925E+03  0.00000000000E+00 0.  1.
        -13    1    1    2    0    0 -0.97062841837E+02  0.10315311705E+03 -0.33067443191E+03  0.35973233370E+03  0.10566000000E+00 0.  1.
         13    1    1    2    0    0  0.56867581092E+02 -0.79727540876E+02 -0.78915789154E+02  0.12577008983E+03  0.10566000000E+00 0. -1.
         -4    1    1    2    0  502  0.40195260745E+02 -0.23425576178E+02 -0.26391909537E+02  0.53487844363E+02  0.00000000000E+00 0. -1.
</event>
<event>
 5    1  0.2569591E-005  0.9058586E+03  0.7818608E-02  0.8917513E-01
          4   -1    0    0  502    0 -0.00000000000E+00  0.00000000000E+00  0.22676411198E+04  0.22676411198E+04  0.00000000000E+00 0.  1.
         21   -1    0    0  501  502  0.00000000000E+00 -0.00000000000E+00 -0.30470130319E+03  0.30470130319E+03  0.00000000000E+00 0. -1.
        -13    1    1    2    0    0 -0.71465186574E+03 -0.69634295611E+02  0.69243569922E+03  0.99751863795E+03  0.10566000000E+00 0.  1.
         13    1    1    2    0    0  0.72980549395E+03 -0.11712922569E+03  0.10691034901E+04  0.12997375113E+04  0.10566000000E+00 0. -1.
          4    1    1    2  501    0 -0.15153628207E+02  0.18676352130E+03  0.20140062728E+03  0.27508627375E+03  0.00000000000E+00 0.  1.
</event>
<event>
 6    1  0.2569591E-005  0.1047683E+04  0.7818608E-02  0.9064484E-01
         -4   -1    0    0    0  501 -0.00000000000E+00  0.00000000000E+00  0.16326146478E+04  0.16326146478E+04  0.00000000000E+00 0. -1.
         21   -1    0    0  501  502  0.00000000000E+00 -0.00000000000E+00 -0.63794339757E+03  0.63794339757E+03  0.00000000000E+00 0. -1.
   -9000010    2    1    2    0  502  0.17533664820E+03  0.19638685525E+03 -0.18323764879E+03  0.10635865782E+04  0.10140658934E+04 0.  0.
        -13    1    1    2    0    0 -0.17533664820E+03 -0.19638685525E+03  0.11779088990E+04  0.12069714672E+04  0.10566000000E+00 0.  1.
         13    1    3    3    0    0 -0.68849613939E+02 -0.34029612141E+03 -0.30429090453E+03  0.46166512250E+03  0.10566000000E+00 0. -1.
         -4    1    3    3    0  502  0.24418626214E+03  0.53668297666E+03  0.12105325574E+03  0.60192145565E+03  0.00000000000E+00 0. -1.
</event>
<event>
 6    1  0.2569591E-005  0.1033225E+04  0.7818608E-02  0.9162921E-01
         21   -1    0    0  501  502  0.00000000000E+00  0.00000000000E+00  0.90224889019E+03  0.90224889019E+03  0.00000000000E+00 0. -1.
         -4   -1    0    0    0  501 -0.00000000000E+00 -0.00000000000E+00 -0.44215453187E+03  0.44215453187E+03  0.00000000000E+00 0. -1.
   -9000010    2    1    2    0  502 -0.11871024747E+03 -0.14333327818E+03  0.24865456906E+03  0.10627239107E+04  0.10163249796E+04 0.  0.
        -13    1    1    2    0    0  0.11871024747E+03  0.14333327818E+03  0.21143978926E+03  0.28167951139E+03  0.10566000000E+00 0.  1.
         13    1    3    3    0    0 -0.24022327334E+03 -0.22679917406E+03  0.59819916563E+03  0.68336471911E+03  0.10566000000E+00 0. -1.
         -4    1    3    3    0  502  0.12151302587E+03  0.83465895877E+02 -0.34954459657E+03  0.37935919156E+03  0.00000000000E+00 0. -1.
</event>
<event>
 5    1  0.2569591E-005  0.2737449E+03  0.7818608E-02  0.1019376E+00
         21   -1    0    0  501  502  0.00000000000E+00  0.00000000000E+00  0.73192654139E+03  0.73192654139E+03  0.00000000000E+00 0. -1.
          4   -1    0    0  502    0 -0.00000000000E+00 -0.00000000000E+00 -0.10452728875E+03  0.10452728875E+03  0.00000000000E+00 0.  1.
        -13    1    1    2    0    0  0.17320942936E+03 -0.19054127977E+03  0.23371755232E+03  0.34775191034E+03  0.10566000000E+00 0.  1.
         13    1    1    2    0    0 -0.17638060773E+03  0.20254521422E+03  0.39333077675E+03  0.47628121282E+03  0.10566000000E+00 0. -1.
          4    1    1    2  501    0  0.31711783718E+01 -0.12003934452E+02  0.35092357618E+00  0.12420706983E+02  0.00000000000E+00 0.  1.
</event>
<event>
 5    1  0.2569591E-005  0.1702128E+03  0.7818608E-02  0.1188659E+00
          4   -1    0    0  502    0 -0.00000000000E+00  0.00000000000E+00  0.56662698993E+03  0.56662698993E+03  0.00000000000E+00 0.  1.
         21   -1    0    0  501  502  0.00000000000E+00 -0.00000000000E+00 -0.14623962717E+02  0.14623962717E+02  0.00000000000E+00 0.  1.
        -13    1    1    2    0    0  0.43184609333E+02  0.28781889711E+02  0.38740203239E+02  0.64762042661E+02  0.10566000000E+00 0.  1.
         13    1    1    2    0    0 -0.10931928674E+02 -0.34304029546E+01  0.45122154042E+02  0.46554212252E+02  0.10566000000E+00 0. -1.
          4    1    1    2  501    0 -0.32252680660E+02 -0.25351486757E+02  0.46814066994E+03  0.46993469774E+03  0.00000000000E+00 0.  1.
</event>
<event>
 5    1  0.2569591E-005  0.8043970E+02  0.7818608E-02  0.1217422E+00
         21   -1    0    0  501  502  0.00000000000E+00  0.00000000000E+00  0.10498206726E+03  0.10498206726E+03  0.00000000000E+00 0.  1.
         -4   -1    0    0    0  501 -0.00000000000E+00 -0.00000000000E+00 -0.46422630761E+02  0.46422630761E+02  0.00000000000E+00 0. -1.
        -13    1    1    2    0    0  0.36207088320E+02  0.43480900210E+02  0.38696069051E+02  0.68548806348E+02  0.10566000000E+00 0.  1.
         13    1    1    2    0    0 -0.47216911248E+02 -0.48796090810E+02  0.19415478832E+02  0.70622002013E+02  0.10566000000E+00 0. -1.
         -4    1    1    2    0  502  0.11009822927E+02  0.53151905998E+01  0.44788861629E+00  0.12233889660E+02  0.00000000000E+00 0. -1.
</event>
<event>
 6    1  0.2569591E-005  0.1044054E+04  0.7818608E-02  0.9097667E-01
         21   -1    0    0  501  502  0.00000000000E+00  0.00000000000E+00  0.18483849036E+03  0.18483849036E+03  0.00000000000E+00 0. -1.
         -4   -1    0    0    0  501 -0.00000000000E+00 -0.00000000000E+00 -0.22063548381E+04  0.22063548381E+04  0.00000000000E+00 0. -1.
   -9000010    2    1    2    0  502  0.23279103533E+03  0.12999607409E+02 -0.16554866183E+04  0.19572135710E+04  0.10176877532E+04 0.  0.
        -13    1    1    2    0    0 -0.23279103533E+03 -0.12999607409E+02 -0.36602972935E+03  0.43397975743E+03  0.10566000000E+00 0.  1.
         13    1    3    3    0    0  0.52771415589E+03  0.14824957487E+03 -0.45112009341E+03  0.70990810435E+03  0.10566000000E+00 0. -1.
         -4    1    3    3    0  502 -0.29492312056E+03 -0.13524996746E+03 -0.12043665249E+04  0.12473054666E+04  0.00000000000E+00 0. -1.
</event>
<event>
 5    1  0.2569591E-005  0.2032688E+03  0.7818608E-02  0.1060772E+00
          4   -1    0    0  502    0 -0.00000000000E+00  0.00000000000E+00  0.51374032142E+03  0.51374032142E+03  0.00000000000E+00 0.  1.
         21   -1    0    0  501  502  0.00000000000E+00 -0.00000000000E+00 -0.96496935167E+02  0.96496935167E+02  0.00000000000E+00 0. -1.
        -13    1    1    2    0    0 -0.20599010386E+01  0.88479578791E+02  0.13443792429E+03  0.16095479399E+03  0.10566000000E+00 0.  1.
         13    1    1    2    0    0 -0.75471015636E+02 -0.17109826540E+03  0.55109572334E+02  0.19495529423E+03  0.10566000000E+00 0. -1.
          4    1    1    2  501    0  0.77530916675E+02  0.82618686604E+02  0.22769588963E+03  0.25432716837E+03  0.00000000000E+00 0.  1.
</event>
<event>
 6    1  0.2569591E-005  0.1082790E+04  0.7818608E-02  0.8933186E-01
         21   -1    0    0  501  502  0.00000000000E+00  0.00000000000E+00  0.81340351165E+03  0.81340351165E+03  0.00000000000E+00 0.  1.
          4   -1    0    0  502    0 -0.00000000000E+00 -0.00000000000E+00 -0.22856429475E+04  0.22856429475E+04  0.00000000000E+00 0.  1.
    9000010    2    1    2  501    0 -0.34708877453E+03  0.21015675097E+03  0.42179045127E+03  0.11620421479E+04  0.10038915735E+04 0.  0.
        -13    1    3    3    0    0 -0.75741058855E+02 -0.19402551617E+03  0.60657015626E+03  0.64133452624E+03  0.10566000000E+00 0.  1.
         13    1    1    2    0    0  0.34708877453E+03 -0.21015675097E+03 -0.18940298871E+04  0.19370043113E+04  0.10566000000E+00 0. -1.
          4    1    3    3  501    0 -0.27134771567E+03  0.40418226715E+03 -0.18477970499E+03  0.52070762166E+03  0.00000000000E+00 0.  1.
</event>
<event>
 5    1  0.2569591E-005  0.1592837E+03  0.7818608E-02  0.1097418E+00
         21   -1    0    0  501  502  0.00000000000E+00  0.00000000000E+00  0.32726771344E+02  0.32726771344E+02  0.00000000000E+00 0.  1.
         -4   -1    0    0    0  501 -0.00000000000E+00 -0.00000000000E+00 -0.94304705072E+03  0.94304705072E+03  0.00000000000E+00 0. -1.
        -13    1    1    2    0    0 -0.91274417795E+02 -0.10413620813E+03 -0.17376727874E+03  0.22219461629E+03  0.10566000000E+00 0.  1.
         13    1    1    2    0    0  0.86688635278E+02  0.40972031611E+02 -0.45442781370E+03  0.46443328465E+03  0.10566000000E+00 0. -1.
         -4    1    1    2    0  502  0.45857825164E+01  0.63164176515E+02 -0.28212518694E+03  0.28914592112E+03  0.00000000000E+00 0. -1.
</event>
<event>
 6    1  0.2569591E-005  0.9905483E+03  0.7818608E-02  0.9190706E-01
         21   -1    0    0  501  502  0.00000000000E+00  0.00000000000E+00  0.31561684641E+03  0.31561684641E+03  0.00000000000E+00 0. -1.
         -4   -1    0    0    0  501 -0.00000000000E+00 -0.00000000000E+00 -0.11169839733E+04  0.11169839733E+04  0.00000000000E+00 0. -1.
   -9000010    2    1    2    0  502  0.87348946019E+02  0.16823217351E+03 -0.61034752839E+03  0.11634904320E+04  0.97224172790E+03 0.  0.
        -13    1    1    2    0    0 -0.87348946019E+02 -0.16823217351E+03 -0.19101959850E+03  0.26911038767E+03  0.10566000000E+00 0.  1.
         13    1    3    3    0    0 -0.35621068677E+03 -0.24032308006E+02  0.33233066526E+02  0.35856387586E+03  0.10566000000E+00 0. -1.
         -4    1    3    3    0  502  0.44355963279E+03  0.19226448151E+03 -0.64358059491E+03  0.80492655618E+03  0.00000000000E+00 0. -1.
</event>
<event>
 5    1  0.2569591E-005  0.2880005E+03  0.7818608E-02  0.1013446E+00
          4   -1    0    0  502    0 -0.00000000000E+00  0.00000000000E+00  0.11415540203E+03  0.11415540203E+03  0.00000000000E+00 0.  1.
         21   -1    0    0  501  502  0.00000000000E+00 -0.00000000000E+00 -0.71657689584E+03  0.71657689584E+03  0.00000000000E+00 0. -1.
        -13    1    1    2    0    0 -0.14782275779E+03  0.19701503061E+03 -0.31418589135E+03  0.39922334037E+03  0.10566000000E+00 0.  1.
         13    1    1    2    0    0  0.18878001570E+03 -0.20461893857E+03 -0.23814725952E+03  0.36636175119E+03  0.10566000000E+00 0. -1.
          4    1    1    2  501    0 -0.40957257909E+02  0.76039079668E+01 -0.50088342941E+02  0.65147206313E+02  0.00000000000E+00 0.  1.
</event>
<event>
 6    1  0.2569591E-005  0.1001956E+04  0.7818608E-02  0.9347239E-01
         21   -1    0    0  501  502  0.00000000000E+00  0.00000000000E+00  0.16636841873E+03  0.16636841873E+03  0.00000000000E+00 0.  1.
          4   -1    0    0  502    0 -0.00000000000E+00 -0.00000000000E+00 -0.19684394913E+04  0.19684394913E+04  0.00000000000E+00 0.  1.
    9000010    2    1    2  501    0  0.87564152378E+02  0.49901755289E+02 -0.14084016702E+04  0.17284419721E+04  0.99687447575E+03 0.  0.
        -13    1    3    3    0    0 -0.99865642277E+02  0.36768002044E+03 -0.13746706541E+03  0.40504191040E+03  0.10566000000E+00 0.  1.
         13    1    1    2    0    0 -0.87564152378E+02 -0.49901755289E+02 -0.39366940236E+03  0.40636593789E+03  0.10566000000E+00 0. -1.
          4    1    3    3  501    0  0.18742979465E+03 -0.31777826516E+03 -0.12709346048E+04  0.13234000617E+04  0.00000000000E+00 0.  1.
</event>
<event>
 6    1  0.2569591E-005  0.1031120E+04  0.7818608E-02  0.9091153E-01
         -4   -1    0    0    0  501 -0.00000000000E+00  0.00000000000E+00  0.17753076013E+04  0.17753076013E+04  0.00000000000E+00 0. -1.
         21   -1    0    0  501  502  0.00000000000E+00 -0.00000000000E+00 -0.30658789435E+03  0.30658789435E+03  0.00000000000E+00 0. -1.
   -9000010    2    1    2    0  502  0.59670526040E+02  0.24109420311E+03  0.15116597392E+04  0.18298422395E+04  0.10007599452E+04 0.  0.
        -13    1    1    2    0    0 -0.59670526040E+02 -0.24109420311E+03 -0.42940032176E+02  0.25205325624E+03  0.10566000000E+00 0.  1.
         13    1    3    3    0    0 -0.44696570399E+03  0.33007317928E+02  0.44935665459E+03  0.63465678738E+03  0.10566000000E+00 0. -1.
         -4    1    3    3    0  502  0.50663623003E+03  0.20808688519E+03  0.10623030846E+04  0.11951854521E+04  0.00000000000E+00 0. -1.
</event>
<event>
 5    1  0.2569591E-005  0.1195706E+03  0.7818608E-02  0.1150650E+00
         21   -1    0    0  501  502  0.00000000000E+00  0.00000000000E+00  0.13357939539E+02  0.13357939539E+02  0.00000000000E+00 0.  1.
         -4   -1    0    0    0  501 -0.00000000000E+00 -0.00000000000E+00 -0.84449992718E+03  0.84449992718E+03  0.00000000000E+00 0. -1.
        -13    1    1    2    0    0 -0.80195058120E+02  0.18032911968E+02 -0.21408167452E+03  0.22931944486E+03  0.10566000000E+00 0.  1.
         13    1    1    2    0    0  0.78093000542E+02 -0.45643366991E+02 -0.42734899892E+03  0.43681690870E+03  0.10566000000E+00 0. -1.
         -4    1    1    2    0  502  0.21020575781E+01  0.27610455023E+02 -0.18971131419E+03  0.19172151315E+03  0.00000000000E+00 0. -1.
</event>
<event>
 6    1  0.2569591E-005  0.1265839E+04  0.7818608E-02  0.8671317E-01
         -4   -1    0    0    0  501 -0.00000000000E+00  0.00000000000E+00  0.16300373148E+04  0.16300373148E+04  0.00000000000E+00 0. -1.
         21   -1    0    0  501  502  0.00000000000E+00 -0.00000000000E+00 -0.77652662315E+03  0.77652662315E+03  0.00000000000E+00 0.  1.
   -9000010    2    1    2    0  502  0.64812346939E+03 -0.41427815201E+03  0.10126608430E+04  0.16210582405E+04  0.10053145863E+04 0.  0.
        -13    1    1    2    0    0 -0.64812346939E+03  0.41427815201E+03 -0.15915015141E+03  0.78550569740E+03  0.10566000000E+00 0.  1.
         13    1    3    3    0    0  0.28692366303E+03 -0.72930303666E+03  0.68057507682E+03  0.10379742550E+04  0.10566000000E+00 0. -1.
         -4    1    3    3    0  502  0.36119980636E+03  0.31502488465E+03  0.33208576621E+03  0.58308398553E+03  0.00000000000E+00 0. -1.
</event>
<event>
 6    1  0.2569591E-005  0.1360278E+04  0.7818608E-02  0.8584997E-01
         -4   -1    0    0    0  501 -0.00000000000E+00  0.00000000000E+00  0.15790081750E+04  0.15790081750E+04  0.00000000000E+00 0. -1.
         21   -1    0    0  501  502  0.00000000000E+00 -0.00000000000E+00 -0.85065168805E+03  0.85065168805E+03  0.00000000000E+00 0.  1.
   -9000010    2    1    2    0  502 -0.62227979527E+03 -0.65927986935E+03  0.68257323586E+03  0.15219274097E+04  0.10141374306E+04 0.  0.
        -13    1    1    2    0    0  0.62227979527E+03  0.65927986935E+03  0.45783251114E+02  0.90773245341E+03  0.10566000000E+00 0.  1.
         13    1    3    3    0    0 -0.49356398937E+03 -0.47393395919E+03 -0.11427689344E+03  0.69374204775E+03  0.10566000000E+00 0. -1.
         -4    1    3    3    0  502 -0.12871580590E+03 -0.18534591016E+03  0.79685012930E+03  0.82818536190E+03  0.00000000000E+00 0. -1.
</event>
<event>
 6    1  0.2569591E-005  0.1009451E+04  0.7818608E-02  0.9211603E-01
         21   -1    0    0  501  502  0.00000000000E+00  0.00000000000E+00  0.17417801115E+03  0.17417801115E+03  0.00000000000E+00 0. -1.
         -4   -1    0    0    0  501 -0.00000000000E+00 -0.00000000000E+00 -0.20160641406E+04  0.20160641406E+04  0.00000000000E+00 0. -1.
   -9000010    2    1    2    0  502 -0.15622458544E+03  0.53653294311E+02 -0.16733981376E+04  0.19542908609E+04  0.99584468920E+03 0.  0.
        -13    1    1    2    0    0  0.15622458544E+03 -0.53653294311E+02 -0.16848799181E+03  0.23595129081E+03  0.10566000000E+00 0.  1.
         13    1    3    3    0    0  0.94231471618E+02 -0.18427621453E+03  0.36222304698E+02  0.21011749096E+03  0.10566000000E+00 0. -1.
         -4    1    3    3    0  502 -0.25045605706E+03  0.23792950884E+03 -0.17096204423E+04  0.17441733700E+04  0.00000000000E+00 0. -1.
</event>
<event>
 5    1  0.2569591E-005  0.3176688E+03  0.7818608E-02  0.1004756E+00
          4   -1    0    0  502    0 -0.00000000000E+00  0.00000000000E+00  0.14719172591E+04  0.14719172591E+04  0.00000000000E+00 0.  1.
         21   -1    0    0  501  502  0.00000000000E+00 -0.00000000000E+00 -0.97039707041E+02  0.97039707041E+02  0.00000000000E+00 0. -1.
        -13    1    1    2    0    0 -0.23594219297E+03  0.13546106243E+03  0.11254473020E+04  0.11578644387E+04  0.10566000000E+00 0.  1.
         13    1    1    2    0    0  0.21655969143E+03 -0.16854585682E+03  0.16978077219E+03  0.32269386045E+03  0.10566000000E+00 0. -1.
          4    1    1    2  501    0  0.19382501536E+02  0.33084794398E+02  0.79649477921E+02  0.88398666954E+02  0.00000000000E+00 0.  1.
</event>
<event>
 6    1  0.2569591E-005  0.1032281E+04  0.7818608E-02  0.9059123E-01
         -4   -1    0    0    0  501 -0.00000000000E+00  0.00000000000E+00  0.75240132595E+03  0.75240132595E+03  0.00000000000E+00 0. -1.
         21   -1    0    0  501  502  0.00000000000E+00 -0.00000000000E+00 -0.58356437330E+03  0.58356437330E+03  0.00000000000E+00 0. -1.
   -9000010    2    1    2    0  502 -0.17208712853E+03 -0.22237203895E+03  0.58588254478E+02  0.10339423721E+04  0.99324767395E+03 0.  0.
        -13    1    1    2    0    0  0.17208712853E+03  0.22237203895E+03  0.11024869818E+03  0.30202332712E+03  0.10566000000E+00 0.  1.
         13    1    3    3    0    0 -0.18892010476E+03  0.76458767188E+02 -0.42150569914E+03  0.46819207024E+03  0.10566000000E+00 0. -1.
         -4    1    3    3    0  502  0.16832976236E+02 -0.29883080614E+03  0.48009395362E+03  0.56575030189E+03  0.00000000000E+00 0. -1.
</event>
<event>
 5    1  0.2569591E-005  0.6839962E+02  0.7818608E-02  0.1238847E+00
         -4   -1    0    0    0  501 -0.00000000000E+00  0.00000000000E+00  0.54287047568E+02  0.54287047568E+02  0.00000000000E+00 0. -1.
         21   -1    0    0  501  502  0.00000000000E+00 -0.00000000000E+00 -0.21261004138E+03  0.21261004138E+03  0.00000000000E+00 0.  1.
        -13    1    1    2    0    0 -0.50157265459E+01 -0.57553448312E+02 -0.18474828652E+03  0.19357039407E+03  0.10566000000E+00 0.  1.
         13    1    1    2    0    0 -0.10475283480E+02  0.20396291430E+02  0.23701812394E+02  0.32977679465E+02  0.10566000000E+00 0. -1.
         -4    1    1    2    0  502  0.15491010026E+02  0.37157156882E+02  0.27234803178E+01  0.40349015406E+02  0.00000000000E+00 0. -1.
</event>
<event>
 5    1  0.2569591E-005  0.2075901E+03  0.7818608E-02  0.1056324E+00
         21   -1    0    0  501  502  0.00000000000E+00  0.00000000000E+00  0.80747815070E+03  0.80747815070E+03  0.00000000000E+00 0. -1.
          4   -1    0    0  502    0 -0.00000000000E+00 -0.00000000000E+00 -0.12136379772E+03  0.12136379772E+03  0.00000000000E+00 0.  1.
        -13    1    1    2    0    0 -0.62330105483E+01  0.18547771662E+03 -0.67784212623E+01  0.18570619791E+03  0.10566000000E+00 0.  1.
         13    1    1    2    0    0  0.23928073560E+02 -0.19853908931E+03  0.69286056002E+03  0.72114221169E+03  0.10566000000E+00 0. -1.
          4    1    1    2  501    0 -0.17695063011E+02  0.13061372692E+02  0.32214218152E-01  0.21993538809E+02  0.00000000000E+00 0.  1.
</event>
<event>
 6    1  0.2569591E-005  0.1144514E+04  0.7818608E-02  0.8845385E-01
         21   -1    0    0  501  502  0.00000000000E+00  0.00000000000E+00  0.47339874139E+03  0.47339874139E+03  0.00000000000E+00 0.  1.
          4   -1    0    0  502    0 -0.00000000000E+00 -0.00000000000E+00 -0.19684406453E+04  0.19684406453E+04  0.00000000000E+00 0.  1.
    9000010    2    1    2  501    0  0.41827375723E+03  0.26398734432E+03 -0.15686315282E+04  0.19417816921E+04  0.10321187017E+04 0.  0.
        -13    1    3    3    0    0 -0.13599666729E+03  0.19391413532E+03 -0.13008554646E+04  0.13222415575E+04  0.10566000000E+00 0.  1.
         13    1    1    2    0    0 -0.41827375723E+03 -0.26398734432E+03  0.73589624318E+02  0.50005769459E+03  0.10566000000E+00 0. -1.
          4    1    3    3  501    0  0.55427042452E+03  0.70073208996E+02 -0.26777606358E+03  0.61954013457E+03  0.00000000000E+00 0.  1.
</event>
<event>
 5    1  0.2569591E-005  0.1203517E+03  0.7818608E-02  0.1151756E+00
         -4   -1    0    0    0  501 -0.00000000000E+00  0.00000000000E+00  0.31614342114E+02  0.31614342114E+02  0.00000000000E+00 0. -1.
         21   -1    0    0  501  502  0.00000000000E+00 -0.00000000000E+00 -0.31289640432E+03  0.31289640432E+03  0.00000000000E+00 0.  1.
        -13    1    1    2    0    0  0.35151915056E+02 -0.70115395109E+02 -0.10489292444E+03  0.13097466367E+03  0.10566000000E+00 0.  1.
         13    1    1    2    0    0 -0.49591596412E+02  0.21495058184E+02 -0.14284246538E+03  0.15272637311E+03  0.10566000000E+00 0. -1.
         -4    1    1    2    0  502  0.14439681357E+02  0.48620336925E+02 -0.33546672391E+02  0.60809709660E+02  0.00000000000E+00 0. -1.
</event>
<event>
 6    1  0.2569591E-005  0.1143516E+04  0.7818608E-02  0.8827258E-01
          4   -1    0    0  502    0 -0.00000000000E+00  0.00000000000E+00  0.14431361419E+04  0.14431361419E+04  0.00000000000E+00 0.  1.
         21   -1    0    0  501  502  0.00000000000E+00 -0.00000000000E+00 -0.51819120394E+03  0.51819120394E+03  0.00000000000E+00 0. -1.
    9000010    2    1    2  501    0 -0.28429340391E+03 -0.45336954743E+03  0.84140040072E+03  0.14197127348E+04  0.10105755434E+04 0.  0.
        -13    1    3    3    0    0 -0.14303127389E+03 -0.71346826696E+03  0.26988526453E+03  0.77610114061E+03  0.10566000000E+00 0.  1.
         13    1    1    2    0    0  0.28429340391E+03  0.45336954743E+03  0.83544537250E+02  0.54161461106E+03  0.10566000000E+00 0. -1.
          4    1    3    3  501    0 -0.14126213002E+03  0.26009871953E+03  0.57151513619E+03  0.64361159419E+03  0.00000000000E+00 0.  1.
</event>
<event>
 6    1  0.2569591E-005  0.1205012E+04  0.7818608E-02  0.8729026E-01
         -4   -1    0    0    0  501 -0.00000000000E+00  0.00000000000E+00  0.63599161140E+03  0.63599161140E+03  0.00000000000E+00 0. -1.
         21   -1    0    0  501  502  0.00000000000E+00 -0.00000000000E+00 -0.14808374637E+04  0.14808374637E+04  0.00000000000E+00 0. -1.
   -9000010    2    1    2    0  502  0.31580213936E+03  0.61858836826E+03 -0.32142511088E+03  0.12471441642E+04  0.98471920047E+03 0.  0.
        -13    1    1    2    0    0 -0.31580213936E+03 -0.61858836826E+03 -0.52342074144E+03  0.86968491093E+03  0.10566000000E+00 0.  1.
         13    1    3    3    0    0  0.20959327940E+03 -0.25141811205E+03 -0.62539355567E+02  0.33324404270E+03  0.10566000000E+00 0. -1.
         -4    1    3    3    0  502  0.10620885996E+03  0.87000648032E+03 -0.25888575531E+03  0.91390012147E+03  0.00000000000E+00 0. -1.
</event>
<event>
 5    1  0.2569591E-005  0.1484975E+03  0.7818608E-02  0.1110735E+00
         21   -1    0    0  501  502  0.00000000000E+00  0.00000000000E+00  0.16351676362E+02  0.16351676362E+02  0.00000000000E+00 0.  1.
         -4   -1    0    0    0  501 -0.00000000000E+00 -0.00000000000E+00 -0.11799662197E+04  0.11799662197E+04  0.00000000000E+00 0. -1.
        -13    1    1    2    0    0 -0.11922360392E+03 -0.74070908852E+01 -0.68020230685E+03  0.69061155662E+03  0.10566000000E+00 0.  1.
         13    1    1    2    0    0  0.52779481621E+00  0.20897549429E+02 -0.28340554333E+02  0.35216250843E+02  0.10566000000E+00 0. -1.
         -4    1    1    2    0  502  0.11869580911E+03 -0.13490458544E+02 -0.45507168219E+03  0.47049008863E+03  0.00000000000E+00 0. -1.
</event>
<event>
 6    1  0.2569591E-005  0.1451883E+04  0.7818608E-02  0.8496754E-01
         21   -1    0    0  501  502  0.00000000000E+00  0.00000000000E+00  0.18472227951E+04  0.18472227951E+04  0.00000000000E+00 0.  1.
         -4   -1    0    0    0  501 -0.00000000000E+00 -0.00000000000E+00 -0.94952588064E+03  0.94952588064E+03  0.00000000000E+00 0. -1.
   -9000010    2    1    2    0  502 -0.52256820730E+03 -0.97766793742E+03  0.15001991798E+03  0.14596125460E+04  0.93757702704E+03 0.  0.
        -13    1    1    2    0    0  0.52256820730E+03  0.97766793742E+03  0.74767699653E+03  0.13371361297E+04  0.10566000000E+00 0.  1.
         13    1    3    3    0    0  0.84512383046E+02 -0.10592728535E+03  0.35298127521E+03  0.37809882898E+03  0.10566000000E+00 0. -1.
         -4    1    3    3    0  502 -0.60708059035E+03 -0.87174065207E+03 -0.20296135723E+03  0.10815137171E+04  0.00000000000E+00 0. -1.
</event>
<event>
 6    1  0.2569591E-005  0.1402718E+04  0.7818608E-02  0.8545023E-01
         21   -1    0    0  501  502  0.00000000000E+00  0.00000000000E+00  0.69963686886E+03  0.69963686886E+03  0.00000000000E+00 0. -1.
          4   -1    0    0  502    0 -0.00000000000E+00 -0.00000000000E+00 -0.23271284227E+04  0.23271284227E+04  0.00000000000E+00 0.  1.
    9000010    2    1    2  501    0 -0.26696428765E+03  0.95176986435E+03 -0.14591361537E+04  0.20240293555E+04  0.99522897435E+03 0.  0.
        -13    1    3    3    0    0 -0.10647003167E+03  0.25924552555E+03  0.11023796276E+03  0.30115864550E+03  0.10566000000E+00 0.  1.
         13    1    1    2    0    0  0.26696428765E+03 -0.95176986435E+03 -0.16835540019E+03  0.10027359361E+04  0.10566000000E+00 0. -1.
          4    1    3    3  501    0 -0.16049425598E+03  0.69252433881E+03 -0.15693741164E+04  0.17228707100E+04  0.00000000000E+00 0.  1.
</event>
<event>
 6    1  0.2569591E-005  0.1010394E+04  0.7818608E-02  0.9175089E-01
         21   -1    0    0  501  502  0.00000000000E+00  0.00000000000E+00  0.87363127797E+03  0.87363127797E+03  0.00000000000E+00 0.  1.
          4   -1    0    0  502    0 -0.00000000000E+00 -0.00000000000E+00 -0.51780228815E+03  0.51780228815E+03  0.00000000000E+00 0.  1.
    9000010    2    1    2  501    0 -0.28316363497E+02 -0.18766375561E+03  0.52370557131E+03  0.11380523131E+04  0.99240921010E+03 0.  0.
        -13    1    3    3    0    0 -0.49094374006E+03 -0.16686198239E+03  0.41043515371E+03  0.66130605897E+03  0.10566000000E+00 0.  1.
         13    1    1    2    0    0  0.28316363497E+02  0.18766375561E+03 -0.16787658149E+03  0.25338125303E+03  0.10566000000E+00 0. -1.
          4    1    3    3  501    0  0.46262737656E+03 -0.20801773221E+02  0.11327041760E+03  0.47674625412E+03  0.00000000000E+00 0.  1.
</event>
<event>
 5    1  0.2569591E-005  0.2761796E+03  0.7818608E-02  0.1029544E+00
         -4   -1    0    0    0  501 -0.00000000000E+00  0.00000000000E+00  0.44828998915E+03  0.44828998915E+03  0.00000000000E+00 0. -1.
         21   -1    0    0  501  502  0.00000000000E+00 -0.00000000000E+00 -0.13665044868E+03  0.13665044868E+03  0.00000000000E+00 0.  1.
        -13    1    1    2    0    0  0.85066426462E+02  0.17029666274E+03  0.22663724326E+03  0.29597584606E+03  0.10566000000E+00 0.  1.
         13    1    1    2    0    0 -0.98229816797E+02  0.51122882391E+01  0.14351441108E+02  0.99404262609E+02  0.10566000000E+00 0. -1.
         -4    1    1    2    0  502  0.13163390334E+02 -0.17540895098E+03  0.70650856099E+02  0.18956032917E+03  0.00000000000E+00 0. -1.
</event>
<event>
 5    1  0.2569591E-005  0.1485909E+03  0.7818608E-02  0.1110342E+00
          4   -1    0    0  502    0 -0.00000000000E+00  0.00000000000E+00  0.28073056609E+02  0.28073056609E+02  0.00000000000E+00 0.  1.
         21   -1    0    0  501  502  0.00000000000E+00 -0.00000000000E+00 -0.65015135426E+03  0.65015135426E+03  0.00000000000E+00 0. -1.
        -13    1    1    2    0    0 -0.61635994794E+02  0.33215985700E+02 -0.84981082177E+02  0.11010945941E+03  0.10566000000E+00 0.  1.
         13    1    1    2    0    0  0.11996958618E+03 -0.11064825735E+02 -0.30960199655E+03  0.33221760851E+03  0.10566000000E+00 0. -1.
          4    1    1    2  501    0 -0.58333591387E+02 -0.22151159964E+02 -0.22749521893E+03  0.23589734294E+03  0.00000000000E+00 0.  1.
</event>
<event>
 6    1  0.2569591E-005  0.1007551E+04  0.7818608E-02  0.9221339E-01
         21   -1    0    0  501  502  0.00000000000E+00  0.00000000000E+00  0.16105434715E+03  0.16105434715E+03  0.00000000000E+00 0. -1.
         -4   -1    0    0    0  501 -0.00000000000E+00 -0.00000000000E+00 -0.21810393995E+04  0.21810393995E+04  0.00000000000E+00 0. -1.
   -9000010    2    1    2    0  502  0.15866553382E+03  0.20546497403E+02 -0.15799198503E+04  0.18738477607E+04  0.99476720221E+03 0.  0.
        -13    1    1    2    0    0 -0.15866553382E+03 -0.20546497403E+02 -0.44006520201E+03  0.46824598595E+03  0.10566000000E+00 0.  1.
         13    1    3    3    0    0  0.26428453801E+01 -0.34833605398E+03 -0.13358672997E+03  0.37308231896E+03  0.10566000000E+00 0. -1.
         -4    1    3    3    0  502  0.15602268844E+03  0.36888255138E+03 -0.14463331204E+04  0.15007654417E+04  0.00000000000E+00 0. -1.
</event>
<event>
 5    1  0.2569591E-005  0.1447281E+03  0.7818608E-02  0.1108490E+00
         21   -1    0    0  501  502  0.00000000000E+00  0.00000000000E+00  0.50822712522E+03  0.50822712522E+03  0.00000000000E+00 0.  1.
         -4   -1    0    0    0  501 -0.00000000000E+00 -0.00000000000E+00 -0.41181664074E+02  0.41181664074E+02  0.00000000000E+00 0. -1.
        -13    1    1    2    0    0 -0.12986257085E+03 -0.43566805443E+02  0.29010909468E+03  0.32082027964E+03  0.10566000000E+00 0.  1.
         13    1    1    2    0    0  0.69162716976E+02  0.45791711988E+02  0.88433498158E+02  0.12124709096E+03  0.10566000000E+00 0. -1.
         -4    1    1    2    0  502  0.60699853874E+02 -0.22249065449E+01  0.88502868304E+02  0.10734141869E+03  0.00000000000E+00 0. -1.
</event>
<event>
 6    1  0.2569591E-005  0.1013480E+04  0.7818608E-02  0.9191504E-01
          4   -1    0    0  502    0 -0.00000000000E+00  0.00000000000E+00  0.20141808684E+04  0.20141808684E+04  0.00000000000E+00 0.  1.
         21   -1    0    0  501  502  0.00000000000E+00 -0.00000000000E+00 -0.19009040591E+03  0.19009040591E+03  0.00000000000E+00 0.  1.
    9000010    2    1    2  501    0  0.12525077961E+03  0.12425903970E+03  0.12821494341E+04  0.16343342988E+04  0.99800469032E+03 0.  0.
        -13    1    3    3    0    0 -0.30570850419E+03  0.21035514443E+03  0.11705954722E+03  0.38911428280E+03  0.10566000000E+00 0.  1.
         13    1    1    2    0    0 -0.12525077961E+03 -0.12425903970E+03  0.54194102839E+03  0.56993697559E+03  0.10566000000E+00 0. -1.
          4    1    3    3  501    0  0.43095928380E+03 -0.86096104729E+02  0.11650898869E+04  0.12452200160E+04  0.00000000000E+00 0.  1.
</event>
<event>
 5    1  0.2569591E-005  0.8254313E+02  0.7818608E-02  0.1244020E+00
          4   -1    0    0  502    0 -0.00000000000E+00  0.00000000000E+00  0.36462341063E+03  0.36462341063E+03  0.00000000000E+00 0.  1.
         21   -1    0    0  501  502  0.00000000000E+00 -0.00000000000E+00 -0.12262355554E+02  0.12262355554E+02  0.00000000000E+00 0. -1.
        -13    1    1    2    0    0 -0.37819621343E+02 -0.27119671264E+02  0.20870725881E+03  0.21383295202E+03  0.10566000000E+00 0.  1.
         13    1    1    2    0    0  0.25839128258E+01  0.29333742601E+02  0.23074246427E+02  0.37410921837E+02  0.10566000000E+00 0. -1.
          4    1    1    2  501    0  0.35235708517E+02 -0.22140713369E+01  0.12057954985E+03  0.12564189233E+03  0.00000000000E+00 0.  1.
</event>
<event>
 6    1  0.2569591E-005  0.1024976E+04  0.7818608E-02  0.9144321E-01
         -4   -1    0    0    0  501 -0.00000000000E+00  0.00000000000E+00  0.30011647767E+04  0.30011647767E+04  0.00000000000E+00 0. -1.
         21   -1    0    0  501  502  0.00000000000E+00 -0.00000000000E+00 -0.12609156460E+03  0.12609156460E+03  0.00000000000E+00 0. -1.
   -9000010    2    1    2    0  502 -0.13666350708E+03  0.15284337900E+03  0.24215804024E+04  0.26295679324E+04  0.10042598536E+04 0.  0.
        -13    1    1    2    0    0  0.13666350708E+03 -0.15284337900E+03  0.45349280976E+03  0.49768840889E+03  0.10566000000E+00 0.  1.
         13    1    3    3    0    0 -0.16615049019E+03  0.82296401592E+01 -0.33802167967E+02  0.16975367475E+03  0.10566000000E+00 0. -1.
         -4    1    3    3    0  502  0.29486983115E+02  0.14461373884E+03  0.24553825703E+04  0.24598142577E+04  0.00000000000E+00 0. -1.
</event>
<event>
 5    1  0.2569591E-005  0.4395563E+03  0.7818608E-02  0.9630941E-01
         -4   -1    0    0    0  501 -0.00000000000E+00  0.00000000000E+00  0.13696091496E+04  0.13696091496E+04  0.00000000000E+00 0. -1.
         21   -1    0    0  501  502  0.00000000000E+00 -0.00000000000E+00 -0.15545770920E+03  0.15545770920E+03  0.00000000000E+00 0.  1.
        -13    1    1    2    0    0  0.42469754557E+03  0.10532387080E+02  0.86507852171E+03  0.96376335076E+03  0.10566000000E+00 0.  1.
         13    1    1    2    0    0 -0.41664048949E+03 -0.30728874560E+02  0.33013530059E+03  0.53246867427E+03  0.10566000000E+00 0. -1.
         -4    1    1    2    0  502 -0.80570560807E+01  0.20196487481E+02  0.18937618081E+02  0.28834833757E+02  0.00000000000E+00 0. -1.
</event>
<event>
 6    1  0.2569591E-005  0.1006180E+04  0.7818608E-02  0.9159453E-01
          4   -1    0    0  502    0 -0.00000000000E+00  0.00000000000E+00  0.13305937862E+04  0.13305937862E+04  0.00000000000E+00 0.  1.
         21   -1    0    0  501  502  0.00000000000E+00 -0.00000000000E+00 -0.30979182844E+03  0.30979182844E+03  0.00000000000E+00 0.  1.
    9000010    2    1    2  501    0  0.52845997380E+02  0.19731783996E+03  0.10246562430E+04  0.14360772788E+04  0.98522611860E+03 0.  0.
        -13    1    3    3    0    0  0.14772430142E+03  0.57603968860E+03  0.47100730760E+03  0.75861194760E+03  0.10566000000E+00 0.  1.
         13    1    1    2    0    0 -0.52845997380E+02 -0.19731783996E+03 -0.38542853246E+01  0.20430833582E+03  0.10566000000E+00 0. -1.
          4    1    3    3  501    0 -0.94878304044E+02 -0.37872184863E+03  0.55364893545E+03  0.67746533117E+03  0.00000000000E+00 0.  1.
</event>
<event>
 5    1  0.2569591E-005  0.1701528E+03  0.7818608E-02  0.1178481E+00
         -4   -1    0    0    0  501 -0.00000000000E+00  0.00000000000E+00  0.48133504521E+03  0.48133504521E+03  0.00000000000E+00 0. -1.
         21   -1    0    0  501  502  0.00000000000E+00 -0.00000000000E+00 -0.65705160116E+02  0.65705160116E+02  0.00000000000E+00 0.  1.
        -13    1    1    2    0    0  0.11876391246E+02  0.84127450987E+01 -0.49589190440E+02  0.51680962855E+02  0.10566000000E+00 0.  1.
         13    1    1    2    0    0 -0.40384108879E+02 -0.54034682166E+02  0.72721038807E+02  0.99191651745E+02  0.10566000000E+00 0. -1.
         -4    1    1    2    0  502  0.28507717633E+02  0.45621937067E+02  0.39249803673E+03  0.39616759073E+03  0.00000000000E+00 0. -1.
</event>
<event>
 6    1  0.2569591E-005  0.1152078E+04  0.7818608E-02  0.8813899E-01
         21   -1    0    0  501  502  0.00000000000E+00  0.00000000000E+00  0.62250951925E+03  0.62250951925E+03  0.00000000000E+00 0. -1.
          4   -1    0    0  502    0 -0.00000000000E+00 -0.00000000000E+00 -0.11889835828E+04  0.11889835828E+04  0.00000000000E+00 0.  1.
    9000010    2    1    2  501    0 -0.27896266716E+02 -0.55289179607E+03 -0.49267116699E+03  0.12530001132E+04  0.10103548214E+04 0.  0.
        -13    1    3    3    0    0 -0.18116361566E+03 -0.44502266133E+01  0.25520514005E+03  0.31300117384E+03  0.10566000000E+00 0.  1.
         13    1    1    2    0    0  0.27896266716E+02  0.55289179607E+03 -0.73802896531E+02  0.55849298882E+03  0.10566000000E+00 0. -1.
          4    1    3    3  501    0  0.15326734894E+03 -0.54844156946E+03 -0.74787630704E+03  0.93999893936E+03  0.00000000000E+00 0.  1.
</event>
<event>
 5    1  0.2569591E-005  0.3929149E+03  0.7818608E-02  0.9834481E-01
         -4   -1    0    0    0  501 -0.00000000000E+00  0.00000000000E+00  0.10054180969E+04  0.10054180969E+04  0.00000000000E+00 0. -1.
         21   -1    0    0  501  502  0.00000000000E+00 -0.00000000000E+00 -0.11782927797E+03  0.11782927797E+03  0.00000000000E+00 0.  1.
        -13    1    1    2    0    0 -0.27644917121E+03  0.10025885203E+03  0.34477075961E+03  0.45314773476E+03  0.10566000000E+00 0.  1.
         13    1    1    2    0    0  0.25269595939E+03 -0.14718342720E+02  0.22023187862E+03  0.33552044502E+03  0.10566000000E+00 0. -1.
         -4    1    1    2    0  502  0.23753211819E+02 -0.85540509311E+02  0.32258618075E+03  0.33457919513E+03  0.00000000000E+00 0. -1.
</event>
<event>
 5    1  0.2569591E-005  0.1835122E+03  0.7818608E-02  0.1083398E+00
          4   -1    0    0  502    0 -0.00000000000E+00  0.00000000000E+00  0.60234878786E+02  0.60234878786E+02  0.00000000000E+00 0.  1.
         21   -1    0    0  501  502  0.00000000000E+00 -0.00000000000E+00 -0.45165342148E+03  0.45165342148E+03  0.00000000000E+00 0. -1.
        -13    1    1    2    0    0  0.10731496621E+03 -0.59015812307E+02 -0.20917234667E+03  0.24238904647E+03  0.10566000000E+00 0.  1.
         13    1    1    2    0    0 -0.13322287321E+03  0.43064579487E+01 -0.96581787900E+02  0.16460538401E+03  0.10566000000E+00 0. -1.
          4    1    1    2  501    0  0.25907907000E+02  0.54709354358E+02 -0.85664408125E+02  0.10489386979E+03  0.00000000000E+00 0.  1.
</event>
<event>
 6    1  0.2569591E-005  0.9743136E+03  0.7818608E-02  0.9129933E-01
         -4   -1    0    0    0  501 -0.00000000000E+00  0.00000000000E+00  0.64743868729E+03  0.64743868729E+03  0.00000000000E+00 0. -1.
         21   -1    0    0  501  502  0.00000000000E+00 -0.00000000000E+00 -0.58534547864E+03  0.58534547864E+03  0.00000000000E+00 0. -1.
   -9000010    2    1    2    0  502  0.24894279214E+03 -0.42734088118E+02  0.90987198779E+02  0.97855279517E+03  0.94100381856E+03 0.  0.
        -13    1    1    2    0    0 -0.24894279214E+03  0.42734088118E+02 -0.28893990126E+02  0.25423137075E+03  0.10566000000E+00 0.  1.
         13    1    3    3    0    0 -0.38579050265E+01  0.41773345962E+03 -0.81565523451E+02  0.42563960401E+03  0.10566000000E+00 0. -1.
         -4    1    3    3    0  502  0.25280069717E+03 -0.46046754774E+03  0.17255272223E+03  0.55291319116E+03  0.00000000000E+00 0. -1.
</event>
<event>
 6    1  0.2569591E-005  0.1074703E+04  0.7818608E-02  0.9212447E-01
         -4   -1    0    0    0  501 -0.00000000000E+00  0.00000000000E+00  0.47247808134E+03  0.47247808134E+03  0.00000000000E+00 0. -1.
         21   -1    0    0  501  502  0.00000000000E+00 -0.00000000000E+00 -0.98677080500E+03  0.98677080500E+03  0.00000000000E+00 0. -1.
   -9000010    2    1    2    0  502 -0.58572918509E+02 -0.12322541581E+03 -0.65876165583E+03  0.12605365983E+04  0.10660067104E+04 0.  0.
        -13    1    1    2    0    0  0.58572918509E+02  0.12322541581E+03  0.14446893216E+03  0.19871228802E+03  0.10566000000E+00 0.  1.
         13    1    3    3    0    0  0.10536875724E+03  0.35023288836E+03 -0.66558325864E+03  0.75945160243E+03  0.10566000000E+00 0. -1.
         -4    1    3    3    0  502 -0.16394167575E+03 -0.47345830418E+03  0.68216028134E+01  0.50108499589E+03  0.00000000000E+00 0. -1.
</event>
<event>
 6    1  0.2569591E-005  0.1001951E+04  0.7818608E-02  0.8888002E-01
         -4   -1    0    0    0  501 -0.00000000000E+00  0.00000000000E+00  0.19374938148E+04  0.19374938148E+04  0.00000000000E+00 0. -1.
         21   -1    0    0  501  502  0.00000000000E+00 -0.00000000000E+00 -0.34727437285E+03  0.34727437285E+03  0.00000000000E+00 0. -1.
   -9000010    2    1    2    0  502  0.41818817061E+03 -0.45387199346E+03  0.11580885021E+04  0.15313637194E+04  0.78931915586E+03 0.  0.
        -13    1    1    2    0    0 -0.41818817061E+03  0.45387199346E+03  0.43213093981E+03  0.75340446826E+03  0.10566000000E+00 0.  1.
         13    1    3    3    0    0  0.58985776783E+03 -0.93877647185E+02  0.77396537548E+03  0.97763368012E+03  0.10566000000E+00 0. -1.
         -4    1    3    3    0  502 -0.17166959722E+03 -0.35999434628E+03  0.38412312666E+03  0.55373003927E+03  0.00000000000E+00 0. -1.
</event>
<event>
 6    1  0.2569591E-005  0.1084755E+04  0.7818608E-02  0.8930564E-01
          4   -1    0    0  502    0 -0.00000000000E+00  0.00000000000E+00  0.29431351522E+04  0.29431351522E+04  0.00000000000E+00 0.  1.
         21   -1    0    0  501  502  0.00000000000E+00 -0.00000000000E+00 -0.32820124066E+03  0.32820124066E+03  0.00000000000E+00 0.  1.
    9000010    2    1    2  501    0  0.20706376228E+03  0.35146396694E+03  0.65018588955E+03  0.12646881619E+04  0.10051328938E+04 0.  0.
        -13    1    3    3    0    0 -0.31990448395E+03  0.21536946206E+03 -0.37753108499E+02  0.38748960296E+03  0.10566000000E+00 0.  1.
         13    1    1    2    0    0 -0.20706376228E+03 -0.35146396694E+03  0.19647480220E+04  0.20066482310E+04  0.10566000000E+00 0. -1.
          4    1    3    3  501    0  0.52696824623E+03  0.13609450488E+03  0.68793899805E+03  0.87719855896E+03  0.00000000000E+00 0.  1.
</event>
<event>
 6    1  0.2569591E-005  0.1128171E+04  0.7818608E-02  0.8843195E-01
         21   -1    0    0  501  502  0.00000000000E+00  0.00000000000E+00  0.87367544126E+03  0.87367544126E+03  0.00000000000E+00 0.  1.
          4   -1    0    0  502    0 -0.00000000000E+00 -0.00000000000E+00 -0.79109520701E+03  0.79109520701E+03  0.00000000000E+00 0.  1.
    9000010    2    1    2  501    0  0.97314975079E+02  0.51201813027E+03 -0.41820593894E+02  0.11289457260E+04  0.10005681986E+04 0.  0.
        -13    1    3    3    0    0 -0.11232027717E+03 -0.13164320465E+03  0.31820967108E+03  0.36221980057E+03  0.10566000000E+00 0.  1.
         13    1    1    2    0    0 -0.97314975079E+02 -0.51201813027E+03  0.12440082814E+03  0.53582492226E+03  0.10566000000E+00 0. -1.
          4    1    3    3  501    0  0.20963525225E+03  0.64366133492E+03 -0.36003026497E+03  0.76672592545E+03  0.00000000000E+00 0.  1.
</event>
<event>
 5    1  0.2569591E-005  0.2438290E+03  0.7818608E-02  0.1071965E+00
         21   -1    0    0  501  502  0.00000000000E+00  0.00000000000E+00  0.10530157043E+03  0.10530157043E+03  0.00000000000E+00 0.  1.
         -4   -1    0    0    0  501 -0.00000000000E+00 -0.00000000000E+00 -0.31851603745E+03  0.31851603745E+03  0.00000000000E+00 0. -1.
        -13    1    1    2    0    0  0.51483230376E+02  0.59210608324E+02  0.25585297219E+02  0.82529011541E+02  0.10566000000E+00 0.  1.
         13    1    1    2    0    0 -0.28869221167E+02  0.47607147849E+02  0.20978379736E+02  0.59497697749E+02  0.10566000000E+00 0. -1.
         -4    1    1    2    0  502 -0.22614009209E+02 -0.10681775617E+03 -0.25977814397E+03  0.28179089860E+03  0.00000000000E+00 0. -1.
</event>
<event>
 5    1  0.2569591E-005  0.3468221E+03  0.7818608E-02  0.1007060E+00
         21   -1    0    0  501  502  0.00000000000E+00  0.00000000000E+00  0.23244262656E+03  0.23244262656E+03  0.00000000000E+00 0.  1.
         -4   -1    0    0    0  501 -0.00000000000E+00 -0.00000000000E+00 -0.33952336956E+03  0.33952336956E+03  0.00000000000E+00 0. -1.
        -13    1    1    2    0    0 -0.18015101791E+03 -0.76461974161E+02  0.31983942044E+02  0.19830231078E+03  0.10566000000E+00 0.  1.
         13    1    1    2    0    0 -0.15513239413E+02  0.12900743464E+03 -0.10746155766E+03  0.16861665495E+03  0.10566000000E+00 0. -1.
         -4    1    1    2    0  502  0.19566425733E+03 -0.52545460475E+02 -0.31603127390E+02  0.20504703039E+03  0.00000000000E+00 0. -1.
</event>
<event>
 5    1  0.2569591E-005  0.2716061E+03  0.7818608E-02  0.1020404E+00
         -4   -1    0    0    0  501 -0.00000000000E+00  0.00000000000E+00  0.94318873654E+03  0.94318873654E+03  0.00000000000E+00 0. -1.
         21   -1    0    0  501  502  0.00000000000E+00 -0.00000000000E+00 -0.98889485399E+02  0.98889485399E+02  0.00000000000E+00 0.  1.
        -13    1    1    2    0    0 -0.24847421357E+03 -0.95525207785E+02  0.66585853919E+03  0.71709978769E+03  0.10566000000E+00 0.  1.
         13    1    1    2    0    0  0.18950266238E+03  0.95452970644E+02  0.13175162900E+03  0.24976194978E+03  0.10566000000E+00 0. -1.
         -4    1    1    2    0  502  0.58971551192E+02  0.72237141086E-01  0.46689082963E+02  0.75216484471E+02  0.00000000000E+00 0. -1.
</event>
<event>
 6    1  0.2569591E-005  0.1032824E+04  0.7818608E-02  0.9132608E-01
          4   -1    0    0  502    0 -0.00000000000E+00  0.00000000000E+00  0.12807639572E+04  0.12807639572E+04  0.00000000000E+00 0.  1.
         21   -1    0    0  501  502  0.00000000000E+00 -0.00000000000E+00 -0.30655175013E+03  0.30655175013E+03  0.00000000000E+00 0.  1.
    9000010    2    1    2  501    0 -0.12362887905E+03  0.16953443044E+03  0.72684456755E+03  0.12629443413E+04  0.10112859937E+04 0.  0.
        -13    1    3    3    0    0 -0.19280216992E+03  0.41113817027E+03 -0.40106887385E+02  0.45586823245E+03  0.10566000000E+00 0.  1.
         13    1    1    2    0    0  0.12362887905E+03 -0.16953443044E+03  0.24736763949E+03  0.32437136599E+03  0.10566000000E+00 0. -1.
          4    1    3    3  501    0  0.69173290871E+02 -0.24160373983E+03  0.76695145493E+03  0.80707610886E+03  0.00000000000E+00 0.  1.
</event>
<event>
 5    1  0.2569591E-005  0.2316965E+03  0.7818608E-02  0.1048804E+00
          4   -1    0    0  502    0 -0.00000000000E+00  0.00000000000E+00  0.98173210734E+03  0.98173210734E+03  0.00000000000E+00 0.  1.
         21   -1    0    0  501  502  0.00000000000E+00 -0.00000000000E+00 -0.11711323161E+03  0.11711323161E+03  0.00000000000E+00 0. -1.
        -13    1    1    2    0    0  0.44507427406E+02 -0.19641775193E+03  0.72530188885E+03  0.75274410360E+03  0.10566000000E+00 0.  1.
         13    1    1    2    0    0 -0.54901200662E+02  0.17108278952E+03 -0.23312735468E+02  0.18118211143E+03  0.10566000000E+00 0. -1.
          4    1    1    2  501    0  0.10393773256E+02  0.25334962416E+02  0.16262972236E+03  0.16491912393E+03  0.00000000000E+00 0.  1.
</event>
<event>
 6    1  0.2569591E-005  0.1012712E+04  0.7818608E-02  0.9338240E-01
         -4   -1    0    0    0  501 -0.00000000000E+00  0.00000000000E+00  0.21773838828E+04  0.21773838828E+04  0.00000000000E+00 0. -1.
         21   -1    0    0  501  502  0.00000000000E+00 -0.00000000000E+00 -0.14479519000E+03  0.14479519000E+03  0.00000000000E+00 0. -1.
   -9000010    2    1    2    0  502  0.64020728175E+02 -0.78068475215E+02  0.17474664641E+04  0.20197091786E+04  0.10076669997E+04 0.  0.
        -13    1    1    2    0    0 -0.64020728175E+02  0.78068475215E+02  0.28512222867E+03  0.30246989421E+03  0.10566000000E+00 0.  1.
         13    1    3    3    0    0  0.38415224810E+03 -0.55337753310E+01  0.19108207332E+03  0.42908733644E+03  0.10566000000E+00 0. -1.
         -4    1    3    3    0  502 -0.32013151992E+03 -0.72534699884E+02  0.15563843908E+04  0.15906218421E+04  0.00000000000E+00 0. -1.
</event>
<event>
 5    1  0.2569591E-005  0.7865454E+02  0.7818608E-02  0.1223111E+00
          4   -1    0    0  502    0 -0.00000000000E+00  0.00000000000E+00  0.26589670146E+02  0.26589670146E+02  0.00000000000E+00 0.  1.
         21   -1    0    0  501  502  0.00000000000E+00 -0.00000000000E+00 -0.19181152789E+03  0.19181152789E+03  0.00000000000E+00 0. -1.
        -13    1    1    2    0    0  0.56262580150E+01 -0.48072498561E+02 -0.64592016090E+02  0.80714060756E+02  0.10566000000E+00 0.  1.
         13    1    1    2    0    0  0.53787375619E+01  0.53126372760E+02 -0.11006583334E+03  0.12233495467E+03  0.10566000000E+00 0. -1.
          4    1    1    2  501    0 -0.11004995577E+02 -0.50538741996E+01  0.94359916819E+01  0.15352182617E+02  0.00000000000E+00 0.  1.
</event>
<event>
 5    1  0.2569591E-005  0.1762183E+03  0.7818608E-02  0.1125666E+00
         -4   -1    0    0    0  501 -0.00000000000E+00  0.00000000000E+00  0.20351160909E+03  0.20351160909E+03  0.00000000000E+00 0. -1.
         21   -1    0    0  501  502  0.00000000000E+00 -0.00000000000E+00 -0.14038590210E+03  0.14038590210E+03  0.00000000000E+00 0.  1.
        -13    1    1    2    0    0 -0.33649782760E+02  0.34689752725E+02 -0.95351362890E+02  0.10689986152E+03  0.10566000000E+00 0.  1.
         13    1    1    2    0    0  0.92802825353E+02 -0.61297604154E+02  0.10457493604E+03  0.15266200929E+03  0.10566000000E+00 0. -1.
         -4    1    1    2    0  502 -0.59153042594E+02  0.26607851429E+02  0.53902133847E+02  0.84335640384E+02  0.00000000000E+00 0. -1.
</event>
<event>
 6    1  0.2569591E-005  0.1030953E+04  0.7818608E-02  0.9227572E-01
         -4   -1    0    0    0  501 -0.00000000000E+00  0.00000000000E+00  0.36852597219E+04  0.36852597219E+04  0.00000000000E+00 0. -1.
         21   -1    0    0  501  502  0.00000000000E+00 -0.00000000000E+00 -0.94108514828E+02  0.94108514828E+02  0.00000000000E+00 0. -1.
   -9000010    2    1    2    0  502  0.75944645835E+02 -0.12445503954E+03  0.30906446501E+04  0.32580588557E+04  0.10205912538E+04 0.  0.
        -13    1    1    2    0    0 -0.75944645835E+02  0.12445503954E+03  0.50050655690E+03  0.52130938104E+03  0.10566000000E+00 0.  1.
         13    1    3    3    0    0  0.39859631463E+03 -0.40990562841E+02  0.47574550474E+03  0.62200727063E+03  0.10566000000E+00 0. -1.
         -4    1    3    3    0  502 -0.32265166880E+03 -0.83464476697E+02  0.26148991454E+04  0.26360515850E+04  0.00000000000E+00 0. -1.
</event>
<event>
 5    1  0.2569591E-005  0.5581234E+03  0.7818608E-02  0.9731611E-01
         21   -1    0    0  501  502  0.00000000000E+00  0.00000000000E+00  0.30991340431E+03  0.30991340431E+03  0.00000000000E+00 0. -1.
         -4   -1    0    0    0  501 -0.00000000000E+00 -0.00000000000E+00 -0.40401235556E+03  0.40401235556E+03  0.00000000000E+00 0. -1.
        -13    1    1    2    0    0  0.11608662734E+03  0.88454638920E+02 -0.49129382590E+02  0.15399362192E+03  0.10566000000E+00 0.  1.
         13    1    1    2    0    0 -0.31721123452E+03 -0.81380862014E+02  0.60026970844E+02  0.33294002523E+03  0.10566000000E+00 0. -1.
         -4    1    1    2    0  502  0.20112460717E+03 -0.70737769059E+01 -0.10499653950E+03  0.22699211272E+03  0.00000000000E+00 0. -1.
</event>
<event>
 5    1  0.2569591E-005  0.3496896E+03  0.7818608E-02  0.1029693E+00
         21   -1    0    0  501  502  0.00000000000E+00  0.00000000000E+00  0.45570669864E+03  0.45570669864E+03  0.00000000000E+00 0.  1.
          4   -1    0    0  502    0 -0.00000000000E+00 -0.00000000000E+00 -0.11589629051E+03  0.11589629051E+03  0.00000000000E+00 0.  1.
        -13    1    1    2    0    0 -0.70533077707E+02  0.13261091830E+03  0.33701442443E+03  0.36897060064E+03  0.10566000000E+00 0.  1.
         13    1    1    2    0    0  0.89359505078E+02 -0.26990273961E+02  0.15402411480E+02  0.94608886896E+02  0.10566000000E+00 0. -1.
          4    1    1    2  501    0 -0.18826427371E+02 -0.10562064434E+03 -0.12606427775E+02  0.10802350161E+03  0.00000000000E+00 0.  1.
</event>
<event>
 6    1  0.2569591E-005  0.1063962E+04  0.7818608E-02  0.8962652E-01
          4   -1    0    0  502    0 -0.00000000000E+00  0.00000000000E+00  0.32394360054E+04  0.32394360054E+04  0.00000000000E+00 0.  1.
         21   -1    0    0  501  502  0.00000000000E+00 -0.00000000000E+00 -0.19185936262E+03  0.19185936262E+03  0.00000000000E+00 0.  1.
    9000010    2    1    2  501    0  0.23266170798E+03  0.29926684691E+03  0.27523118546E+04  0.29508024728E+04  0.99414414084E+03 0.  0.
        -13    1    3    3    0    0  0.44664723521E+03  0.52392132967E+03  0.13598874036E+04  0.15242313060E+04  0.10566000000E+00 0.  1.
         13    1    1    2    0    0 -0.23266170798E+03 -0.29926684691E+03  0.29526478822E+03  0.48049289521E+03  0.10566000000E+00 0. -1.
          4    1    3    3  501    0 -0.21398552723E+03 -0.22465448276E+03  0.13924244509E+04  0.14265711668E+04  0.00000000000E+00 0.  1.
</event>
<event>
 5    1  0.2569591E-005  0.2004752E+03  0.7818608E-02  0.1080316E+00
         -4   -1    0    0    0  501 -0.00000000000E+00  0.00000000000E+00  0.47392942126E+03  0.47392942126E+03  0.00000000000E+00 0. -1.
         21   -1    0    0  501  502  0.00000000000E+00 -0.00000000000E+00 -0.52098439681E+02  0.52098439681E+02  0.00000000000E+00 0.  1.
        -13    1    1    2    0    0 -0.77601713757E+02  0.80003952951E+02  0.18230787915E+03  0.21367927469E+03  0.10566000000E+00 0.  1.
         13    1    1    2    0    0  0.11604872284E+03 -0.70245441764E+02  0.10341042810E+03  0.17057390177E+03  0.10566000000E+00 0. -1.
         -4    1    1    2    0  502 -0.38447009082E+02 -0.97585111866E+01  0.13611267433E+03  0.14177468449E+03  0.00000000000E+00 0. -1.
</event>
<event>
 6    1  0.2569591E-005  0.1019748E+04  0.7818608E-02  0.9214483E-01
          4   -1    0    0  502    0 -0.00000000000E+00  0.00000000000E+00  0.42950902969E+03  0.42950902969E+03  0.00000000000E+00 0.  1.
         21   -1    0    0  501  502  0.00000000000E+00 -0.00000000000E+00 -0.10700160190E+04  0.10700160190E+04  0.00000000000E+00 0.  1.
    9000010    2    1    2  501    0 -0.15582500070E+03  0.28749100964E+02 -0.78358113917E+03  0.12860346153E+04  0.10073617466E+04 0.  0.
        -13    1    3    3    0    0  0.17456719455E+03  0.17127475357E+03 -0.88013659991E+03  0.91348190584E+03  0.10566000000E+00 0.  1.
         13    1    1    2    0    0  0.15582500070E+03 -0.28749100964E+02  0.14307414982E+03  0.21349043342E+03  0.10566000000E+00 0. -1.
          4    1    3    3  501    0 -0.33039219525E+03 -0.14252565261E+03  0.96555460739E+02  0.37255270947E+03  0.00000000000E+00 0.  1.
</event>
<event>
 6    1  0.2569591E-005  0.1588204E+04  0.7818608E-02  0.8414257E-01
          4   -1    0    0  502    0 -0.00000000000E+00  0.00000000000E+00  0.12469293400E+04  0.12469293400E+04  0.00000000000E+00 0.  1.
         21   -1    0    0  501  502  0.00000000000E+00 -0.00000000000E+00 -0.23111324410E+04  0.23111324410E+04  0.00000000000E+00 0. -1.
    9000010    2    1    2  501    0  0.11939875043E+04 -0.32015789742E+03  0.40397575746E+03  0.16387763901E+04  0.99713810708E+03 0.  0.
        -13    1    3    3    0    0  0.12263168753E+03 -0.14763665423E+03  0.51341428817E+03  0.54811436300E+03  0.10566000000E+00 0.  1.
         13    1    1    2    0    0 -0.11939875043E+04  0.32015789742E+03 -0.14681788585E+04  0.19192853908E+04  0.10566000000E+00 0. -1.
          4    1    3    3  501    0  0.10713558168E+04 -0.17252124319E+03 -0.10943853071E+03  0.10906620271E+04  0.00000000000E+00 0.  1.
</event>
<event>
 6    1  0.2569591E-005  0.1039482E+04  0.7818608E-02  0.9094638E-01
         -4   -1    0    0    0  501 -0.00000000000E+00  0.00000000000E+00  0.95209332434E+03  0.95209332434E+03  0.00000000000E+00 0. -1.
         21   -1    0    0  501  502  0.00000000000E+00 -0.00000000000E+00 -0.58544191657E+03  0.58544191657E+03  0.00000000000E+00 0. -1.
   -9000010    2    1    2    0  502  0.20919919902E+03  0.11576861080E+03 -0.67743054414E+02  0.10416872440E+04  0.10116108524E+04 0.  0.
        -13    1    1    2    0    0 -0.20919919902E+03 -0.11576861080E+03  0.43439446219E+03  0.49584799693E+03  0.10566000000E+00 0.  1.
         13    1    3    3    0    0 -0.17057039732E+03  0.37195336991E+03 -0.31932631579E+03  0.51904997539E+03  0.10566000000E+00 0. -1.
         -4    1    3    3    0  502  0.37976959635E+03 -0.25618475911E+03  0.25158326138E+03  0.52263726859E+03  0.00000000000E+00 0. -1.
</event>
<event>
 5    1  0.2569591E-005  0.7680963E+02  0.7818608E-02  0.1301393E+00
          4   -1    0    0  502    0 -0.00000000000E+00  0.00000000000E+00  0.15140648203E+02  0.15140648203E+02  0.00000000000E+00 0.  1.
         21   -1    0    0  501  502  0.00000000000E+00 -0.00000000000E+00 -0.15383152072E+03  0.15383152072E+03  0.00000000000E+00 0.  1.
        -13    1    1    2    0    0 -0.24495902566E+02 -0.20486792438E+02 -0.74129260468E+02  0.80715031614E+02  0.10566000000E+00 0.  1.
         13    1    1    2    0    0 -0.91760856720E+01 -0.68244442424E+01 -0.12232856244E+01  0.11501355539E+02  0.10566000000E+00 0. -1.
          4    1    1    2  501    0  0.33671988238E+02  0.27311236680E+02 -0.63338326421E+02  0.76755781767E+02  0.00000000000E+00 0.  1.
</event>
<event>
 6    1  0.2569591E-005  0.1680321E+04  0.7818608E-02  0.8389984E-01
         -4   -1    0    0    0  501 -0.00000000000E+00  0.00000000000E+00  0.11937649406E+04  0.11937649406E+04  0.00000000000E+00 0. -1.
         21   -1    0    0  501  502  0.00000000000E+00 -0.00000000000E+00 -0.16999430032E+04  0.16999430032E+04  0.00000000000E+00 0.  1.
   -9000010    2    1    2    0  502  0.79806513130E+03 -0.85323512122E+03 -0.27258321823E+03  0.17022866547E+04  0.12077086230E+04 0.  0.
        -13    1    1    2    0    0 -0.79806513130E+03  0.85323512122E+03 -0.23359484438E+03  0.11914212892E+04  0.10566000000E+00 0.  1.
         13    1    3    3    0    0 -0.26776273534E+03 -0.35398614724E+03  0.12307956753E+03  0.46059924661E+03  0.10566000000E+00 0. -1.
         -4    1    3    3    0  502  0.10658278666E+04 -0.49924897399E+03 -0.39566278576E+03  0.12416874081E+04  0.00000000000E+00 0. -1.
</event>
<event>
 5    1  0.5895282E-005  0.5002391E+02  0.7818608E-02  0.1312672E+00
          4   -1    0    0  502    0 -0.00000000000E+00  0.00000000000E+00  0.22460803684E+02  0.22460803684E+02  0.00000000000E+00 0.  1.
         21   -1    0    0  501  502  0.00000000000E+00 -0.00000000000E+00 -0.18109912260E+03  0.18109912260E+03  0.00000000000E+00 0. -1.
        -13    1    1    2    0    0 -0.74615626590E+01 -0.16514887944E+02  0.13398293949E+02  0.22537566104E+02  0.10566000000E+00 0.  1.
         13    1    1    2    0    0  0.53664254390E+01  0.32908050457E+02 -0.14891196760E+03  0.15259922531E+03  0.10566000000E+00 0. -1.
          4    1    1    2  501    0  0.20951372200E+01 -0.16393162513E+02 -0.23124645262E+02  0.28423134866E+02  0.00000000000E+00 0.  1.
</event>
<event>
 5    1  0.2569591E-005  0.3882146E+03  0.7818608E-02  0.9802948E-01
         21   -1    0    0  501  502  0.00000000000E+00  0.00000000000E+00  0.11483771610E+03  0.11483771610E+03  0.00000000000E+00 0. -1.
          4   -1    0    0  502    0 -0.00000000000E+00 -0.00000000000E+00 -0.11587274724E+04  0.11587274724E+04  0.00000000000E+00 0.  1.
        -13    1    1    2    0    0 -0.30119425609E+02  0.21149778543E+03 -0.40383604906E+03  0.45686109347E+03  0.10566000000E+00 0.  1.
         13    1    1    2    0    0 -0.56265870511E+02 -0.33469786390E+03 -0.53358479610E+03  0.63237746171E+03  0.10566000000E+00 0. -1.
          4    1    1    2  501    0  0.86385296120E+02  0.12320007847E+03 -0.10646891119E+03  0.18432663337E+03  0.00000000000E+00 0.  1.
</event>
<event>
 6    1  0.2569591E-005  0.1094763E+04  0.7818608E-02  0.9046457E-01
         21   -1    0    0  501  502  0.00000000000E+00  0.00000000000E+00  0.20471879932E+03  0.20471879932E+03  0.00000000000E+00 0. -1.
         -4   -1    0    0    0  501 -0.00000000000E+00 -0.00000000000E+00 -0.22470752272E+04  0.22470752272E+04  0.00000000000E+00 0. -1.
   -9000010    2    1    2    0  502  0.11611857854E+03  0.21911258742E+03 -0.15161645869E+04  0.18700967557E+04  0.10663081031E+04 0.  0.
        -13    1    1    2    0    0 -0.11611857854E+03 -0.21911258742E+03 -0.52619184090E+03  0.58169727079E+03  0.10566000000E+00 0.  1.
         13    1    3    3    0    0  0.55737651975E+03 -0.45765590425E+02 -0.60687741807E+03  0.82526558499E+03  0.10566000000E+00 0. -1.
         -4    1    3    3    0  502 -0.44125794122E+03  0.26487817784E+03 -0.90928716886E+03  0.10448311707E+04  0.00000000000E+00 0. -1.
</event>
<event>
 6    1  0.2569591E-005  0.1039943E+04  0.7818608E-02  0.9034329E-01
         21   -1    0    0  501  502  0.00000000000E+00  0.00000000000E+00  0.42508941950E+03  0.42508941950E+03  0.00000000000E+00 0.  1.
          4   -1    0    0  502    0 -0.00000000000E+00 -0.00000000000E+00 -0.20885717294E+04  0.20885717294E+04  0.00000000000E+00 0.  1.
    9000010    2    1    2  501    0  0.63768360253E+01  0.30364685601E+03 -0.25222457866E+03  0.10700924902E+04  0.99460475684E+03 0.  0.
        -13    1    3    3    0    0 -0.73728771303E+02 -0.38855889968E+02  0.35700914135E+03  0.36660776052E+03  0.10566000000E+00 0.  1.
         13    1    1    2    0    0 -0.63768360253E+01 -0.30364685601E+03 -0.14112577312E+04  0.14435686587E+04  0.10566000000E+00 0. -1.
          4    1    3    3  501    0  0.80105607329E+02  0.34250274598E+03 -0.60923372000E+03  0.70348472970E+03  0.00000000000E+00 0.  1.
</event>
<event>
 5    1  0.2569591E-005  0.1114028E+03  0.7818608E-02  0.1168023E+00
         -4   -1    0    0    0  501 -0.00000000000E+00  0.00000000000E+00  0.54906833457E+02  0.54906833457E+02  0.00000000000E+00 0. -1.
         21   -1    0    0  501  502  0.00000000000E+00 -0.00000000000E+00 -0.22654640643E+03  0.22654640643E+03  0.00000000000E+00 0.  1.
        -13    1    1    2    0    0  0.57482187611E+02  0.33493939457E+02 -0.15518154333E+03  0.16884125215E+03  0.10566000000E+00 0.  1.
         13    1    1    2    0    0 -0.13813628298E+02 -0.59047350369E+02 -0.59146469557E+01  0.60929468445E+02  0.10566000000E+00 0. -1.
         -4    1    1    2    0  502 -0.43668559313E+02  0.25553410912E+02 -0.10543382684E+02  0.51682519290E+02  0.00000000000E+00 0. -1.
</event>
<event>
 5    1  0.2569591E-005  0.1469811E+03  0.7818608E-02  0.1125689E+00
         -4   -1    0    0    0  501 -0.00000000000E+00  0.00000000000E+00  0.90671268860E+02  0.90671268860E+02  0.00000000000E+00 0. -1.
         21   -1    0    0  501  502  0.00000000000E+00 -0.00000000000E+00 -0.16108696422E+03  0.16108696422E+03  0.00000000000E+00 0. -1.
        -13    1    1    2    0    0  0.77776969321E+02 -0.29648567057E+02  0.10631698383E+02  0.83912684738E+02  0.10566000000E+00 0.  1.
         13    1    1    2    0    0 -0.92233354218E+02 -0.52678675338E+01 -0.90035535948E+02  0.12900058510E+03  0.10566000000E+00 0. -1.
         -4    1    1    2    0  502  0.14456384897E+02  0.34916434591E+02  0.89881422074E+01  0.38844963241E+02  0.00000000000E+00 0. -1.
</event>
<event>
 5    1  0.3305734E-005  0.9083145E+02  0.7818608E-02  0.1183567E+00
         21   -1    0    0  501  502  0.00000000000E+00  0.00000000000E+00  0.38998193283E+02  0.38998193283E+02  0.00000000000E+00 0.  1.
         -4   -1    0    0    0  501 -0.00000000000E+00 -0.00000000000E+00 -0.21055802185E+03  0.21055802185E+03  0.00000000000E+00 0. -1.
        -13    1    1    2    0    0 -0.20354851333E+02  0.82421412802E+02 -0.11355853479E+03  0.14178561722E+03  0.10566000000E+00 0.  1.
         13    1    1    2    0    0  0.22840907458E+02 -0.72400993615E+02 -0.60583127081E+02  0.97128458141E+02  0.10566000000E+00 0. -1.
         -4    1    1    2    0  502 -0.24860561252E+01 -0.10020419187E+02  0.25818333087E+01  0.10642139775E+02  0.00000000000E+00 0. -1.
</event>
<event>
 5    1  0.2569591E-005  0.4014739E+02  0.7818608E-02  0.1344129E+00
          4   -1    0    0  502    0 -0.00000000000E+00  0.00000000000E+00  0.74425563853E+02  0.74425563853E+02  0.00000000000E+00 0.  1.
         21   -1    0    0  501  502  0.00000000000E+00 -0.00000000000E+00 -0.53184940386E+02  0.53184940386E+02  0.00000000000E+00 0. -1.
        -13    1    1    2    0    0  0.12683150501E+02  0.87563339287E+00 -0.24535414389E+02  0.27633797490E+02  0.10566000000E+00 0.  1.
         13    1    1    2    0    0 -0.34281298439E+02  0.10835090213E+02  0.61191728836E+02  0.70972145554E+02  0.10566000000E+00 0. -1.
          4    1    1    2  501    0  0.21598147938E+02 -0.11710723606E+02 -0.15415690980E+02  0.29004561195E+02  0.00000000000E+00 0.  1.
</event>
<event>
 6    1  0.2569591E-005  0.1068651E+04  0.7818608E-02  0.8912127E-01
         21   -1    0    0  501  502  0.00000000000E+00  0.00000000000E+00  0.55545476940E+03  0.55545476940E+03  0.00000000000E+00 0.  1.
          4   -1    0    0  502    0 -0.00000000000E+00 -0.00000000000E+00 -0.10558621905E+04  0.10558621905E+04  0.00000000000E+00 0.  1.
    9000010    2    1    2  501    0  0.37521377645E+03  0.26665176654E+03 -0.30568969499E+03  0.11115134518E+04  0.96443113872E+03 0.  0.
        -13    1    3    3    0    0  0.58661962568E+03  0.19768060498E+03  0.12063677709E+03  0.63067697752E+03  0.10566000000E+00 0.  1.
         13    1    1    2    0    0 -0.37521377645E+03 -0.26665176654E+03 -0.19471772607E+03  0.49980350803E+03  0.10566000000E+00 0. -1.
          4    1    3    3  501    0 -0.21140584924E+03  0.68971161561E+02 -0.42632647209E+03  0.48083647430E+03  0.00000000000E+00 0.  1.
</event>
<event>
 5    1  0.2569591E-005  0.1935342E+03  0.7818608E-02  0.1083463E+00
         21   -1    0    0  501  502  0.00000000000E+00  0.00000000000E+00  0.53193066563E+03  0.53193066563E+03  0.00000000000E+00 0. -1.
          4   -1    0    0  502    0 -0.00000000000E+00 -0.00000000000E+00 -0.77897250119E+02  0.77897250119E+02  0.00000000000E+00 0.  1.
        -13    1    1    2    0    0  0.13998121827E+03  0.25200731940E+02  0.79869970820E+02  0.16312278125E+03  0.10566000000E+00 0.  1.
         13    1    1    2    0    0 -0.11342171378E+03  0.16155253354E+01  0.38971213999E+03  0.40588503089E+03  0.10566000000E+00 0. -1.
          4    1    1    2  501    0 -0.26559504490E+02 -0.26816257275E+02 -0.15548695304E+02  0.40820103609E+02  0.00000000000E+00 0.  1.
</event>
<event>
 5    1  0.2569591E-005  0.7725842E+02  0.7818608E-02  0.1212319E+00
         21   -1    0    0  501  502  0.00000000000E+00  0.00000000000E+00  0.23552320320E+02  0.23552320320E+02  0.00000000000E+00 0.  1.
         -4   -1    0    0    0  501 -0.00000000000E+00 -0.00000000000E+00 -0.65564021382E+03  0.65564021382E+03  0.00000000000E+00 0. -1.
        -13    1    1    2    0    0  0.59354371278E+02 -0.39921207745E+02 -0.39742057521E+02  0.81829618829E+02  0.10566000000E+00 0.  1.
         13    1    1    2    0    0 -0.37937500578E+02  0.26143610539E+02 -0.26063062482E+03  0.26467163823E+03  0.10566000000E+00 0. -1.
         -4    1    1    2    0  502 -0.21416870700E+02  0.13777597206E+02 -0.33171521116E+03  0.33269127709E+03  0.00000000000E+00 0. -1.
</event>
<event>
 6    1  0.2569591E-005  0.1128360E+04  0.7818608E-02  0.8856270E-01
          4   -1    0    0  502    0 -0.00000000000E+00  0.00000000000E+00  0.37474772602E+04  0.37474772602E+04  0.00000000000E+00 0.  1.
         21   -1    0    0  501  502  0.00000000000E+00 -0.00000000000E+00 -0.18027327974E+03  0.18027327974E+03  0.00000000000E+00 0.  1.
    9000010    2    1    2  501    0 -0.47232411416E+03  0.14188056578E+03  0.27609522788E+04  0.29826251613E+04  0.10148769399E+04 0.  0.
        -13    1    3    3    0    0  0.32540781604E+02 -0.75450765836E+02 -0.64340276337E+02  0.10436188411E+03  0.10566000000E+00 0.  1.
         13    1    1    2    0    0  0.47232411416E+03 -0.14188056578E+03  0.80625170166E+03  0.94512537865E+03  0.10566000000E+00 0. -1.
          4    1    3    3  501    0 -0.50486489576E+03  0.21733133161E+03  0.28252925551E+04  0.28782632771E+04  0.00000000000E+00 0.  1.
</event>
<event>
 6    1  0.2569591E-005  0.1024844E+04  0.7818608E-02  0.8841229E-01
         21   -1    0    0  501  502  0.00000000000E+00  0.00000000000E+00  0.52581253927E+03  0.52581253927E+03  0.00000000000E+00 0.  1.
         -4   -1    0    0    0  501 -0.00000000000E+00 -0.00000000000E+00 -0.16741795671E+04  0.16741795671E+04  0.00000000000E+00 0. -1.
   -9000010    2    1    2    0  502  0.26966017017E+03  0.64706885250E+03 -0.23997673149E+03  0.10525655733E+04  0.74758995920E+03 0.  0.
        -13    1    1    2    0    0 -0.26966017017E+03 -0.64706885250E+03 -0.90839029635E+03  0.11474265331E+04  0.10566000000E+00 0.  1.
         13    1    3    3    0    0  0.64329789865E+02 -0.58493307842E+02 -0.30281598895E+03  0.31505130257E+03  0.10566000000E+00 0. -1.
         -4    1    3    3    0  502  0.20533038031E+03  0.70556216034E+03  0.62839257455E+02  0.73751427068E+03  0.00000000000E+00 0. -1.
</event>
<event>
 5    1  0.2569591E-005  0.2505548E+03  0.7818608E-02  0.1044393E+00
         21   -1    0    0  501  502  0.00000000000E+00  0.00000000000E+00  0.77769948864E+02  0.77769948864E+02  0.00000000000E+00 0. -1.
          4   -1    0    0  502    0 -0.00000000000E+00 -0.00000000000E+00 -0.71121285322E+03  0.71121285322E+03  0.00000000000E+00 0.  1.
        -13    1    1    2    0    0 -0.17897736257E+03 -0.99966501898E+02 -0.48099653020E+03  0.52286123498E+03  0.10566000000E+00 0.  1.
         13    1    1    2    0    0  0.13716436561E+03  0.86448410113E+02 -0.78581469035E+02  0.18017338662E+03  0.10566000000E+00 0. -1.
          4    1    1    2  501    0  0.41812996961E+02  0.13518091785E+02 -0.73864905115E+02  0.85948180481E+02  0.00000000000E+00 0.  1.
</event>
<event>
 6    1  0.2569591E-005  0.1492682E+04  0.7818608E-02  0.8480398E-01
          4   -1    0    0  502    0 -0.00000000000E+00  0.00000000000E+00  0.33326519995E+04  0.33326519995E+04  0.00000000000E+00 0.  1.
         21   -1    0    0  501  502  0.00000000000E+00 -0.00000000000E+00 -0.83783566881E+03  0.83783566881E+03  0.00000000000E+00 0. -1.
    9000010    2    1    2  501    0  0.45243654460E+03 -0.10014731004E+04  0.53961090421E+02  0.14936571707E+04  0.10101746120E+04 0.  0.
        -13    1    3    3    0    0  0.42782026906E+02 -0.88829689986E+02 -0.38776603749E+03  0.40010439468E+03  0.10566000000E+00 0.  1.
         13    1    1    2    0    0 -0.45243654460E+03  0.10014731004E+04  0.24408552403E+04  0.26768304976E+04  0.10566000000E+00 0. -1.
          4    1    3    3  501    0  0.40965451770E+03 -0.91264341042E+03  0.44172712791E+03  0.10935527760E+04  0.00000000000E+00 0.  1.
</event>
<event>
 6    1  0.2569591E-005  0.1060111E+04  0.7818608E-02  0.9158328E-01
         21   -1    0    0  501  502  0.00000000000E+00  0.00000000000E+00  0.27418065439E+03  0.27418065439E+03  0.00000000000E+00 0. -1.
         -4   -1    0    0    0  501 -0.00000000000E+00 -0.00000000000E+00 -0.14046117109E+04  0.14046117109E+04  0.00000000000E+00 0. -1.
   -9000010    2    1    2    0  502 -0.16620890918E+03  0.56110683261E+02 -0.10222372400E+04  0.14726862679E+04  0.10454960826E+04 0.  0.
        -13    1    1    2    0    0  0.16620890918E+03 -0.56110683261E+02 -0.10819381654E+03  0.20610609736E+03  0.10566000000E+00 0.  1.
         13    1    3    3    0    0  0.24189060063E+03 -0.37851654646E+03 -0.32016452518E+03  0.55162593573E+03  0.10566000000E+00 0. -1.
         -4    1    3    3    0  502 -0.40809950981E+03  0.43462722972E+03 -0.70207271480E+03  0.92106033222E+03  0.00000000000E+00 0. -1.
</event>
<event>
 5    1  0.2569591E-005  0.5583596E+02  0.7818608E-02  0.1328121E+00
         -4   -1    0    0    0  501 -0.00000000000E+00  0.00000000000E+00  0.19216341151E+03  0.19216341151E+03  0.00000000000E+00 0. -1.
         21   -1    0    0  501  502  0.00000000000E+00 -0.00000000000E+00 -0.73407176742E+01  0.73407176742E+01  0.00000000000E+00 0. -1.
        -13    1    1    2    0    0 -0.16135905366E+02  0.78239545850E+01  0.30379167546E+02  0.35277282947E+02  0.10566000000E+00 0.  1.
         13    1    1    2    0    0  0.67438588298E+01  0.19119079781E+02  0.27791611343E+02  0.34400634713E+02  0.10566000000E+00 0. -1.
         -4    1    1    2    0  502  0.93920465359E+01 -0.26943034366E+02  0.12665191495E+03  0.12982621153E+03  0.00000000000E+00 0. -1.
</event>
<event>
 5    1  0.2569591E-005  0.2712579E+03  0.7818608E-02  0.1029566E+00
         -4   -1    0    0    0  501 -0.00000000000E+00  0.00000000000E+00  0.79235764903E+03  0.79235764903E+03  0.00000000000E+00 0. -1.
         21   -1    0    0  501  502  0.00000000000E+00 -0.00000000000E+00 -0.70474673710E+02  0.70474673710E+02  0.00000000000E+00 0.  1.
        -13    1    1    2    0    0 -0.19388325619E+02  0.19983360388E+03  0.28596268350E+03  0.34940527175E+03  0.10566000000E+00 0.  1.
         13    1    1    2    0    0  0.34776463623E+02 -0.19526229785E+03  0.21724564283E+03  0.29416398127E+03  0.10566000000E+00 0. -1.
         -4    1    1    2    0  502 -0.15388138004E+02 -0.45713060353E+01  0.21867464899E+03  0.21926306972E+03  0.00000000000E+00 0. -1.
</event>
<event>
 6    1  0.2569591E-005  0.1074701E+04  0.7818608E-02  0.9250749E-01
         -4   -1    0    0    0  501 -0.00000000000E+00  0.00000000000E+00  0.23149793168E+04  0.23149793168E+04  0.00000000000E+00 0. -1.
         21   -1    0    0  501  502  0.00000000000E+00 -0.00000000000E+00 -0.15477972215E+03  0.15477972215E+03  0.00000000000E+00 0. -1.
   -9000010    2    1    2    0  502 -0.70696783897E+02  0.94157063577E+02  0.18740970791E+04  0.21603753800E+04  0.10682314041E+04 0.  0.
        -13    1    1    2    0    0  0.70696783897E+02 -0.94157063577E+02  0.28610251561E+03  0.30938365904E+03  0.10566000000E+00 0.  1.
         13    1    3    3    0    0  0.80238909041E+02 -0.25688630355E+03  0.22840133193E+02  0.27009357327E+03  0.10566000000E+00 0. -1.
         -4    1    3    3    0  502 -0.15093569294E+03  0.35104336712E+03  0.18512569459E+04  0.18902818067E+04  0.00000000000E+00 0. -1.
</event>
<event>
 6    1  0.2569591E-005  0.1078818E+04  0.7818608E-02  0.8941308E-01
         21   -1    0    0  501  502  0.00000000000E+00  0.00000000000E+00  0.84002715303E+03  0.84002715303E+03  0.00000000000E+00 0. -1.
         -4   -1    0    0    0  501 -0.00000000000E+00 -0.00000000000E+00 -0.80963049216E+03  0.80963049216E+03  0.00000000000E+00 0. -1.
   -9000010    2    1    2    0  502  0.31864981054E+03 -0.23645709881E+03  0.35634596555E+03  0.11361475462E+04  0.10031944669E+04 0.  0.
        -13    1    1    2    0    0 -0.31864981054E+03  0.23645709881E+03 -0.32594930469E+03  0.51351009895E+03  0.10566000000E+00 0.  1.
         13    1    3    3    0    0  0.47518449923E+03 -0.17157128034E+03  0.63411997820E+03  0.81076825940E+03  0.10566000000E+00 0. -1.
         -4    1    3    3    0  502 -0.15653468869E+03 -0.64885818476E+02 -0.27777401264E+03  0.32537928684E+03  0.00000000000E+00 0. -1.
</event>
<event>
 6    1  0.2569591E-005  0.1171175E+04  0.7818608E-02  0.8779425E-01
         21   -1    0    0  501  502  0.00000000000E+00  0.00000000000E+00  0.17569959054E+04  0.17569959054E+04  0.00000000000E+00 0.  1.
         -4   -1    0    0    0  501 -0.00000000000E+00 -0.00000000000E+00 -0.45903633413E+03  0.45903633413E+03  0.00000000000E+00 0. -1.
   -9000010    2    1    2    0  502 -0.58552472944E+03  0.17041773369E+03  0.98646280100E+03  0.15312609917E+04  0.99988497056E+03 0.  0.
        -13    1    1    2    0    0  0.58552472944E+03 -0.17041773369E+03  0.31149677027E+03  0.68477124779E+03  0.10566000000E+00 0.  1.
         13    1    3    3    0    0  0.51185071957E+02 -0.25939837969E+03  0.63228277204E+03  0.68533856302E+03  0.10566000000E+00 0. -1.
         -4    1    3    3    0  502 -0.63670980140E+03  0.42981611338E+03  0.35418002896E+03  0.84592242873E+03  0.00000000000E+00 0. -1.
</event>
<event>
 5    1  0.2569591E-005  0.4207456E+02  0.7818608E-02  0.1357255E+00
         -4   -1    0    0    0  501 -0.00000000000E+00  0.00000000000E+00  0.76435714890E+02  0.76435714890E+02  0.00000000000E+00 0. -1.
         21   -1    0    0  501  502  0.00000000000E+00 -0.00000000000E+00 -0.17018452891E+02  0.17018452891E+02  0.00000000000E+00 0.  1.
        -13    1    1    2    0    0  0.24657524360E+02 -0.86588452702E+00  0.58830019577E+01  0.25364623783E+02  0.10566000000E+00 0.  1.
         13    1    1    2    0    0  0.39759812892E+01  0.10773799746E+02  0.11306300598E+02  0.16116041245E+02  0.10566000000E+00 0. -1.
         -4    1    1    2    0  502 -0.28633505649E+02 -0.99079152185E+01  0.42227959443E+02  0.51973502754E+02  0.00000000000E+00 0. -1.
</event>
<event>
 5    1  0.2569591E-005  0.1658376E+03  0.7818608E-02  0.1111917E+00
          4   -1    0    0  502    0 -0.00000000000E+00  0.00000000000E+00  0.28138906159E+03  0.28138906159E+03  0.00000000000E+00 0.  1.
         21   -1    0    0  501  502  0.00000000000E+00 -0.00000000000E+00 -0.10359877428E+03  0.10359877428E+03  0.00000000000E+00 0. -1.
        -13    1    1    2    0    0 -0.30634258926E+02 -0.90234270464E+02  0.19442375822E+03  0.21652087731E+03  0.10566000000E+00 0.  1.
         13    1    1    2    0    0  0.68602978114E+02  0.46926355540E+02 -0.54633973757E+02  0.99465238666E+02  0.10566000000E+00 0. -1.
          4    1    1    2  501    0 -0.37968719188E+02  0.43307914923E+02  0.38000502839E+02  0.69001719890E+02  0.00000000000E+00 0.  1.
</event>
<event>
 5    1  0.2569591E-005  0.6476206E+03  0.7818608E-02  0.9653368E-01
         21   -1    0    0  501  502  0.00000000000E+00  0.00000000000E+00  0.86016958361E+03  0.86016958361E+03  0.00000000000E+00 0.  1.
          4   -1    0    0  502    0 -0.00000000000E+00 -0.00000000000E+00 -0.17695284170E+03  0.17695284170E+03  0.00000000000E+00 0.  1.
        -13    1    1    2    0    0  0.31979611928E+03  0.48677393823E+02  0.99883212136E+02  0.33854942595E+03  0.10566000000E+00 0.  1.
         13    1    1    2    0    0 -0.64408894017E+02 -0.10447277729E+03  0.17574846035E+03  0.21436090899E+03  0.10566000000E+00 0. -1.
          4    1    1    2  501    0 -0.25538722527E+03  0.55795383469E+02  0.40758506942E+03  0.48421209037E+03  0.00000000000E+00 0.  1.
</event>
<event>
 5    1  0.2569591E-005  0.4948459E+02  0.7818608E-02  0.1309178E+00
         21   -1    0    0  501  502  0.00000000000E+00  0.00000000000E+00  0.30147901753E+02  0.30147901753E+02  0.00000000000E+00 0. -1.
          4   -1    0    0  502    0 -0.00000000000E+00 -0.00000000000E+00 -0.10313403373E+03  0.10313403373E+03  0.00000000000E+00 0.  1.
        -13    1    1    2    0    0  0.22782070990E+02  0.18951393201E+02 -0.67864538389E+02  0.74052581303E+02  0.10566000000E+00 0.  1.
         13    1    1    2    0    0 -0.15250002978E+02 -0.33511613341E+02  0.86481462346E+01  0.37820529041E+02  0.10566000000E+00 0. -1.
          4    1    1    2  501    0 -0.75320680114E+01  0.14560220140E+02 -0.13769739821E+02  0.21408825138E+02  0.00000000000E+00 0.  1.
</event>
<event>
 6    1  0.2569591E-005  0.1091535E+04  0.7818608E-02  0.8920524E-01
         21   -1    0    0  501  502  0.00000000000E+00  0.00000000000E+00  0.47183637928E+03  0.47183637928E+03  0.00000000000E+00 0. -1.
          4   -1    0    0  502    0 -0.00000000000E+00 -0.00000000000E+00 -0.15888008079E+04  0.15888008079E+04  0.00000000000E+00 0.  1.
    9000010    2    1    2  501    0 -0.77675137848E+02 -0.40996732807E+03 -0.28224380620E+03  0.11274356196E+04  0.10086341621E+04 0.  0.
        -13    1    3    3    0    0  0.18607332667E+03  0.72330730471E+02  0.27819178635E+03  0.34241159242E+03  0.10566000000E+00 0.  1.
         13    1    1    2    0    0  0.77675137848E+02  0.40996732807E+03 -0.83472062245E+03  0.93320156763E+03  0.10566000000E+00 0. -1.
          4    1    3    3  501    0 -0.26374846452E+03 -0.48229805854E+03 -0.56043559254E+03  0.78502402715E+03  0.00000000000E+00 0.  1.
</event>
<event>
 5    1  0.2569591E-005  0.1117063E+03  0.7818608E-02  0.1190856E+00
         -4   -1    0    0    0  501 -0.00000000000E+00  0.00000000000E+00  0.36406258779E+03  0.36406258779E+03  0.00000000000E+00 0. -1.
         21   -1    0    0  501  502  0.00000000000E+00 -0.00000000000E+00 -0.16435239635E+02  0.16435239635E+02  0.00000000000E+00 0. -1.
        -13    1    1    2    0    0 -0.56617317759E+01  0.38108438014E+02  0.13398492477E+03  0.13941405770E+03  0.10566000000E+00 0.  1.
         13    1    1    2    0    0 -0.10114213398E+02 -0.36276206375E+02  0.13040028679E+02  0.39853656966E+02  0.10566000000E+00 0. -1.
         -4    1    1    2    0  502  0.15775945173E+02 -0.18322316394E+01  0.20060239471E+03  0.20123011276E+03  0.00000000000E+00 0. -1.
</event>
<event>
 5    1  0.2569591E-005  0.1409082E+03  0.7818608E-02  0.1112048E+00
          4   -1    0    0  502    0 -0.00000000000E+00  0.00000000000E+00  0.53498254089E+02  0.53498254089E+02  0.00000000000E+00 0.  1.
         21   -1    0    0  501  502  0.00000000000E+00 -0.00000000000E+00 -0.44627454843E+03  0.44627454843E+03  0.00000000000E+00 0. -1.
        -13    1    1    2    0    0  0.62119040840E+02 -0.31307549295E+02 -0.66965249964E+02  0.96557204519E+02  0.10566000000E+00 0.  1.
         13    1    1    2    0    0 -0.12588613377E+03  0.48835878075E+02 -0.30553982649E+03  0.33404619201E+03  0.10566000000E+00 0. -1.
          4    1    1    2  501    0  0.63767092926E+02 -0.17528328780E+02 -0.20271217886E+02  0.69169405987E+02  0.00000000000E+00 0.  1.
</event>
<event>
 6    1  0.2569591E-005  0.1050250E+04  0.7818608E-02  0.9030732E-01
          4   -1    0    0  502    0 -0.00000000000E+00  0.00000000000E+00  0.99776277320E+03  0.99776277320E+03  0.00000000000E+00 0.  1.
         21   -1    0    0  501  502  0.00000000000E+00 -0.00000000000E+00 -0.47393519422E+03  0.47393519422E+03  0.00000000000E+00 0. -1.
    9000010    2    1    2  501    0 -0.22423834733E+03  0.19800984598E+03  0.52136399440E+03  0.11725377830E+04  0.10067441097E+04 0.  0.
        -13    1    3    3    0    0 -0.11052099340E+03  0.25349114463E+03 -0.26085264589E+03  0.38015360634E+03  0.10566000000E+00 0.  1.
         13    1    1    2    0    0  0.22423834733E+03 -0.19800984598E+03  0.24635845687E+01  0.29916018440E+03  0.10566000000E+00 0. -1.
          4    1    3    3  501    0 -0.11371735393E+03 -0.55481298642E+02  0.78221664030E+03  0.79238417667E+03  0.00000000000E+00 0.  1.
</event>
<event>
 6    1  0.2569591E-005  0.1102634E+04  0.7818608E-02  0.8889380E-01
         21   -1    0    0  501  502  0.00000000000E+00  0.00000000000E+00  0.20139514651E+03  0.20139514651E+03  0.00000000000E+00 0. -1.
         -4   -1    0    0    0  501 -0.00000000000E+00 -0.00000000000E+00 -0.30336257567E+04  0.30336257567E+04  0.00000000000E+00 0. -1.
   -9000010    2    1    2    0  502 -0.72915784445E+02  0.45461137894E+03 -0.20225280211E+04  0.23035669261E+04  0.10019045711E+04 0.  0.
        -13    1    1    2    0    0  0.72915784445E+02 -0.45461137894E+03 -0.80970258912E+03  0.93145397711E+03  0.10566000000E+00 0.  1.
         13    1    3    3    0    0 -0.39474889937E+03 -0.55574301891E+02 -0.36808612591E+03  0.54258879812E+03  0.10566000000E+00 0. -1.
         -4    1    3    3    0  502  0.32183311493E+03  0.51018568083E+03 -0.16544418951E+04  0.17609781280E+04  0.00000000000E+00 0. -1.
</event>
<event>
 5    1  0.2569591E-005  0.2562698E+03  0.7818608E-02  0.1054974E+00
         -4   -1    0    0    0  501 -0.00000000000E+00  0.00000000000E+00  0.14202218147E+04  0.14202218147E+04  0.00000000000E+00 0. -1.
         21   -1    0    0  501  502  0.00000000000E+00 -0.00000000000E+00 -0.38246527242E+02  0.38246527242E+02  0.00000000000E+00 0.  1.
        -13    1    1    2    0    0 -0.36077646986E+02 -0.10454759153E+03  0.93706841766E+02  0.14495785203E+03  0.10566000000E+00 0.  1.
         13    1    1    2    0    0 -0.70880044426E+02  0.12252699208E+03  0.58221736064E+03  0.59917769542E+03  0.10566000000E+00 0. -1.
         -4    1    1    2    0  502  0.10695769141E+03 -0.17979400548E+02  0.70605108501E+03  0.71433279446E+03  0.00000000000E+00 0. -1.
</event>
<event>
 6    1  0.2569591E-005  0.1069895E+04  0.7818608E-02  0.8957957E-01
         21   -1    0    0  501  502  0.00000000000E+00  0.00000000000E+00  0.12985184031E+04  0.12985184031E+04  0.00000000000E+00 0. -1.
         -4   -1    0    0    0  501 -0.00000000000E+00 -0.00000000000E+00 -0.75765862276E+03  0.75765862276E+03  0.00000000000E+00 0. -1.
   -9000010    2    1    2    0  502 -0.11588546063E+03 -0.36191099304E+03  0.99704029847E+03  0.14624517670E+04  0.10001333946E+04 0.  0.
        -13    1    1    2    0    0  0.11588546063E+03  0.36191099304E+03 -0.45618051809E+03  0.59372525895E+03  0.10566000000E+00 0.  1.
         13    1    3    3    0    0 -0.30514662113E+03 -0.12317654596E+03  0.10942545249E+04  0.11426635106E+04  0.10566000000E+00 0. -1.
         -4    1    3    3    0  502  0.18926116051E+03 -0.23873444708E+03 -0.97214226466E+02  0.31978825639E+03  0.00000000000E+00 0. -1.
</event>
<event>
 6    1  0.2569591E-005  0.1197707E+04  0.7818608E-02  0.8745454E-01
         -4   -1    0    0    0  501 -0.00000000000E+00  0.00000000000E+00  0.14925841005E+04  0.14925841005E+04  0.00000000000E+00 0. -1.
         21   -1    0    0  501  502  0.00000000000E+00 -0.00000000000E+00 -0.61917936342E+03  0.61917936342E+03  0.00000000000E+00 0.  1.
   -9000010    2    1    2    0  502 -0.61834985687E+03 -0.22834441016E+03  0.81776331267E+03  0.14502548137E+04  0.10000022369E+04 0.  0.
        -13    1    1    2    0    0  0.61834985687E+03  0.22834441016E+03  0.55641424446E+02  0.66150865030E+03  0.10566000000E+00 0.  1.
         13    1    3    3    0    0 -0.73888152896E+03 -0.49410901361E+03  0.50422158419E+03  0.10219241891E+04  0.10566000000E+00 0. -1.
         -4    1    3    3    0  502  0.12053167208E+03  0.26576460346E+03  0.31354172848E+03  0.42833062455E+03  0.00000000000E+00 0. -1.
</event>
<event>
 5    1  0.2569591E-005  0.3958114E+03  0.7818608E-02  0.9783346E-01
         -4   -1    0    0    0  501 -0.00000000000E+00  0.00000000000E+00  0.15616334909E+04  0.15616334909E+04  0.00000000000E+00 0. -1.
         21   -1    0    0  501  502  0.00000000000E+00 -0.00000000000E+00 -0.96945950501E+02  0.96945950501E+02  0.00000000000E+00 0.  1.
        -13    1    1    2    0    0  0.12983739830E+03  0.31684901372E+03  0.42297765568E+03  0.54420690538E+03  0.10566000000E+00 0.  1.
         13    1    1    2    0    0 -0.24083696045E+02 -0.28343940627E+03  0.72524205100E+03  0.77903399486E+03  0.10566000000E+00 0. -1.
         -4    1    1    2    0  502 -0.10575370225E+03 -0.33409607453E+02  0.31646783374E+03  0.33533854118E+03  0.00000000000E+00 0. -1.
</event>
<event>
 5    1  0.3071313E-005  0.1216978E+03  0.7818608E-02  0.1149645E+00
         21   -1    0    0  501  502  0.00000000000E+00  0.00000000000E+00  0.20730115835E+03  0.20730115835E+03  0.00000000000E+00 0. -1.
          4   -1    0    0  502    0 -0.00000000000E+00 -0.00000000000E+00 -0.16673081625E+03  0.16673081625E+03  0.00000000000E+00 0.  1.
        -13    1    1    2    0    0  0.49148520464E+02 -0.66784522639E+02 -0.12746192865E+03  0.15206019844E+03  0.10566000000E+00 0.  1.
         13    1    1    2    0    0 -0.22406505426E+02  0.76721565115E+02  0.17518810612E+03  0.19255942908E+03  0.10566000000E+00 0. -1.
          4    1    1    2  501    0 -0.26742015039E+02 -0.99370424764E+01 -0.71558353633E+01  0.29412347088E+02  0.00000000000E+00 0.  1.
</event>
<event>
 5    1  0.2569591E-005  0.1682995E+03  0.7818608E-02  0.1160284E+00
         21   -1    0    0  501  502  0.00000000000E+00  0.00000000000E+00  0.57538895412E+02  0.57538895412E+02  0.00000000000E+00 0. -1.
          4   -1    0    0  502    0 -0.00000000000E+00 -0.00000000000E+00 -0.57688157232E+03  0.57688157232E+03  0.00000000000E+00 0.  1.
        -13    1    1    2    0    0  0.81983856530E+02 -0.12564721215E+02 -0.36610202593E+03  0.37537971376E+03  0.10566000000E+00 0.  1.
         13    1    1    2    0    0 -0.35728111260E+01  0.22991827210E+02  0.42205436402E+02  0.48194388924E+02  0.10566000000E+00 0. -1.
          4    1    1    2  501    0 -0.78411045404E+02 -0.10427105995E+02 -0.19544608739E+03  0.21084636505E+03  0.00000000000E+00 0.  1.
</event>
<event>
 5    1  0.2569591E-005  0.1269861E+03  0.7818608E-02  0.1148954E+00
         21   -1    0    0  501  502  0.00000000000E+00  0.00000000000E+00  0.10687425987E+03  0.10687425987E+03  0.00000000000E+00 0. -1.
          4   -1    0    0  502    0 -0.00000000000E+00 -0.00000000000E+00 -0.44433909097E+03  0.44433909097E+03  0.00000000000E+00 0.  1.
        -13    1    1    2    0    0 -0.61261731844E+02  0.66702507741E+02 -0.37318394004E+03  0.38401626085E+03  0.10566000000E+00 0.  1.
         13    1    1    2    0    0  0.32652206643E+02 -0.63685784450E+02  0.84395204712E+02  0.11065535451E+03  0.10566000000E+00 0. -1.
          4    1    1    2  501    0  0.28609525201E+02 -0.30167232907E+01 -0.48676095764E+02  0.56541735475E+02  0.00000000000E+00 0.  1.
</event>
<event>
 6    1  0.2569591E-005  0.7782110E+03  0.7818608E-02  0.9480415E-01
         21   -1    0    0  501  502  0.00000000000E+00  0.00000000000E+00  0.87417390837E+03  0.87417390837E+03  0.00000000000E+00 0. -1.
         -4   -1    0    0    0  501 -0.00000000000E+00 -0.00000000000E+00 -0.23679387020E+03  0.23679387020E+03  0.00000000000E+00 0. -1.
   -9000010    2    1    2    0  502  0.88642780116E+02 -0.97046561573E+02  0.53518384393E+03  0.94447558398E+03  0.76703116256E+03 0.  0.
        -13    1    1    2    0    0 -0.88642780116E+02  0.97046561573E+02  0.10219619424E+03  0.16649219459E+03  0.10566000000E+00 0.  1.
         13    1    3    3    0    0  0.25710426381E+03 -0.33091632775E+03  0.50264889037E+03  0.65441893050E+03  0.10566000000E+00 0. -1.
         -4    1    3    3    0  502 -0.16846148369E+03  0.23386976618E+03  0.32534953562E+02  0.29005665348E+03  0.00000000000E+00 0. -1.
</event>
<event>
 5    1  0.2569591E-005  0.1063282E+03  0.7818608E-02  0.1164034E+00
         21   -1    0    0  501  502  0.00000000000E+00  0.00000000000E+00  0.14219345901E+03  0.14219345901E+03  0.00000000000E+00 0.  1.
         -4   -1    0    0    0  501 -0.00000000000E+00 -0.00000000000E+00 -0.70173741574E+02  0.70173741574E+02  0.00000000000E+00 0. -1.
        -13    1    1    2    0    0  0.66431334689E+02  0.51805986041E+02  0.63886568553E+02  0.10572836528E+03  0.10566000000E+00 0.  1.
         13    1    1    2    0    0 -0.64552987160E+02 -0.16113106887E+02  0.19154280906E+02  0.69235958908E+02  0.10566000000E+00 0. -1.
         -4    1    1    2    0  502 -0.18783475289E+01 -0.35692879155E+02 -0.11021132026E+02  0.37402876399E+02  0.00000000000E+00 0. -1.
</event>
<event>
 6    1  0.2569591E-005  0.1098145E+04  0.7818608E-02  0.8929061E-01
         -4   -1    0    0    0  501 -0.00000000000E+00  0.00000000000E+00  0.23862311415E+04  0.23862311415E+04  0.00000000000E+00 0. -1.
         21   -1    0    0  501  502  0.00000000000E+00 -0.00000000000E+00 -0.23724888755E+03  0.23724888755E+03  0.00000000000E+00 0.  1.
   -9000010    2    1    2    0  502  0.39497868425E+03 -0.22534998700E+02  0.17128517178E+04  0.20346457205E+04  0.10244052975E+04 0.  0.
        -13    1    1    2    0    0 -0.39497868425E+03  0.22534998700E+02  0.43613053615E+03  0.58883430853E+03  0.10566000000E+00 0.  1.
         13    1    3    3    0    0 -0.13129965300E+03  0.38906986997E+03  0.47410902429E+03  0.62721155974E+03  0.10566000000E+00 0. -1.
         -4    1    3    3    0  502  0.52627833725E+03 -0.41160486867E+03  0.12387426935E+04  0.14074341607E+04  0.00000000000E+00 0. -1.
</event>
<event>
 6    1  0.2569591E-005  0.1573987E+04  0.7818608E-02  0.8422262E-01
          4   -1    0    0  502    0 -0.00000000000E+00  0.00000000000E+00  0.28635994898E+04  0.28635994898E+04  0.00000000000E+00 0.  1.
         21   -1    0    0  501  502  0.00000000000E+00 -0.00000000000E+00 -0.71095174294E+03  0.71095174294E+03  0.00000000000E+00 0. -1.
    9000010    2    1    2  501    0  0.12232066714E+04  0.38809065260E+02  0.85651871061E+03  0.17919432573E+04  0.98979575222E+03 0.  0.
        -13    1    3    3    0    0 -0.17278722188E+03  0.25825162096E+02  0.60460187948E+02  0.18487241150E+03  0.10566000000E+00 0.  1.
         13    1    1    2    0    0 -0.12232066714E+04 -0.38809065260E+02  0.12961290363E+04  0.17826079755E+04  0.10566000000E+00 0. -1.
          4    1    3    3  501    0  0.13959938933E+04  0.12983903165E+02  0.79605852266E+03  0.16070708458E+04  0.00000000000E+00 0.  1.
</event>
<event>
 5    1  0.2569591E-005  0.2040816E+03  0.7818608E-02  0.1090339E+00
         21   -1    0    0  501  502  0.00000000000E+00  0.00000000000E+00  0.65213468100E+02  0.65213468100E+02  0.00000000000E+00 0. -1.
          4   -1    0    0  502    0 -0.00000000000E+00 -0.00000000000E+00 -0.83118128196E+03  0.83118128196E+03  0.00000000000E+00 0.  1.
        -13    1    1    2    0    0  0.86628402021E+02 -0.10873609545E+03 -0.63136417043E+03  0.64648955548E+03  0.10566000000E+00 0.  1.
         13    1    1    2    0    0 -0.52871295022E+02  0.59948622166E+02  0.21612322609E+02  0.82802867037E+02  0.10566000000E+00 0. -1.
          4    1    1    2  501    0 -0.33757106998E+02  0.48787473279E+02 -0.15621596605E+03  0.16710232754E+03  0.00000000000E+00 0.  1.
</event>
<event>
 5    1  0.2569591E-005  0.1361446E+03  0.7818608E-02  0.1116439E+00
          4   -1    0    0  502    0 -0.00000000000E+00  0.00000000000E+00  0.92710930389E+03  0.92710930389E+03  0.00000000000E+00 0.  1.
         21   -1    0    0  501  502  0.00000000000E+00 -0.00000000000E+00 -0.24470439559E+02  0.24470439559E+02  0.00000000000E+00 0. -1.
        -13    1    1    2    0    0  0.95953626513E+02 -0.70930308612E+02  0.58176685837E+03  0.59387784584E+03  0.10566000000E+00 0.  1.
         13    1    1    2    0    0 -0.10107632147E+03  0.86934050469E+02  0.23483844251E+03  0.27004269503E+03  0.10566000000E+00 0. -1.
          4    1    1    2  501    0  0.51226949546E+01 -0.16003741856E+02  0.86033563453E+02  0.87659202583E+02  0.00000000000E+00 0.  1.
</event>
<event>
 5    1  0.2569591E-005  0.4645689E+03  0.7818608E-02  0.9606282E-01
         21   -1    0    0  501  502  0.00000000000E+00  0.00000000000E+00  0.98635692956E+02  0.98635692956E+02  0.00000000000E+00 0.  1.
         -4   -1    0    0    0  501 -0.00000000000E+00 -0.00000000000E+00 -0.20411361921E+04  0.20411361921E+04  0.00000000000E+00 0. -1.
        -13    1    1    2    0    0 -0.35530230080E+03 -0.16723408564E+03 -0.12122943033E+04  0.12743094025E+04  0.10566000000E+00 0.  1.
         13    1    1    2    0    0  0.27395708876E+03  0.15044701091E+02 -0.55729669798E+03  0.62117505604E+03  0.10566000000E+00 0. -1.
         -4    1    1    2    0  502  0.81345212041E+02  0.15218938455E+03 -0.17290949785E+03  0.24428742649E+03  0.00000000000E+00 0. -1.
</event>
<event>
 5    1  0.2569591E-005  0.8485671E+02  0.7818608E-02  0.1221809E+00
         -4   -1    0    0    0  501 -0.00000000000E+00  0.00000000000E+00  0.38683686202E+02  0.38683686202E+02  0.00000000000E+00 0. -1.
         21   -1    0    0  501  502  0.00000000000E+00 -0.00000000000E+00 -0.18398801709E+03  0.18398801709E+03  0.00000000000E+00 0.  1.
        -13    1    1    2    0    0  0.16408579579E+02  0.40563866985E+02 -0.12905747030E+03  0.13627366067E+03  0.10566000000E+00 0.  1.
         13    1    1    2    0    0  0.23410391458E+02 -0.37355748604E+02 -0.25192028776E+01  0.44157173021E+02  0.10566000000E+00 0. -1.
         -4    1    1    2    0  502 -0.39818971037E+02 -0.32081183807E+01 -0.13727657704E+02  0.42240869594E+02  0.00000000000E+00 0. -1.
</event>
<event>
 5    1  0.2569591E-005  0.1931015E+03  0.7818608E-02  0.1076062E+00
         21   -1    0    0  501  502  0.00000000000E+00  0.00000000000E+00  0.58100829927E+03  0.58100829927E+03  0.00000000000E+00 0.  1.
         -4   -1    0    0    0  501 -0.00000000000E+00 -0.00000000000E+00 -0.54559300560E+02  0.54559300560E+02  0.00000000000E+00 0. -1.
        -13    1    1    2    0    0  0.27185827969E+02  0.13795854829E+03  0.33651721681E+03  0.36471287153E+03  0.10566000000E+00 0.  1.
         13    1    1    2    0    0 -0.42118801795E+02 -0.54519155620E+02  0.70124814067E+01  0.69249677644E+02  0.10566000000E+00 0. -1.
         -4    1    1    2    0  502  0.14932973826E+02 -0.83439392669E+02  0.18291930050E+03  0.20160505066E+03  0.00000000000E+00 0. -1.
</event>
<event>
 5    1  0.2569591E-005  0.1833242E+03  0.7818608E-02  0.1101143E+00
         21   -1    0    0  501  502  0.00000000000E+00  0.00000000000E+00  0.95233903132E+02  0.95233903132E+02  0.00000000000E+00 0.  1.
         -4   -1    0    0    0  501 -0.00000000000E+00 -0.00000000000E+00 -0.26561208720E+03  0.26561208720E+03  0.00000000000E+00 0. -1.
        -13    1    1    2    0    0 -0.38506727873E+02 -0.72508103229E+02  0.31696988435E+02  0.88005132607E+02  0.10566000000E+00 0.  1.
         13    1    1    2    0    0  0.63798211058E+02  0.11632863913E+03 -0.14922351982E+03  0.19967532158E+03  0.10566000000E+00 0. -1.
         -4    1    1    2    0  502 -0.25291483186E+02 -0.43820535901E+02 -0.52851652687E+02  0.73165536150E+02  0.00000000000E+00 0. -1.
</event>
<event>
 5    1  0.2569591E-005  0.3188028E+03  0.7818608E-02  0.1001002E+00
         21   -1    0    0  501  502  0.00000000000E+00  0.00000000000E+00  0.49771173052E+02  0.49771173052E+02  0.00000000000E+00 0.  1.
         -4   -1    0    0    0  501 -0.00000000000E+00 -0.00000000000E+00 -0.19670035454E+04  0.19670035454E+04  0.00000000000E+00 0. -1.
        -13    1    1    2    0    0 -0.24787191811E+03  0.18084060847E+03 -0.96222335582E+03  0.10099592126E+04  0.10566000000E+00 0.  1.
         13    1    1    2    0    0  0.23498415587E+03 -0.14547648035E+03 -0.77207056036E+03  0.82004507265E+03  0.10566000000E+00 0. -1.
         -4    1    1    2    0  502  0.12887762241E+02 -0.35364128118E+02 -0.18293845616E+03  0.18677043319E+03  0.00000000000E+00 0. -1.
</event>
<event>
 6    1  0.2569591E-005  0.1328890E+04  0.7818608E-02  0.8604895E-01
         21   -1    0    0  501  502  0.00000000000E+00  0.00000000000E+00  0.61765919437E+03  0.61765919437E+03  0.00000000000E+00 0. -1.
          4   -1    0    0  502    0 -0.00000000000E+00 -0.00000000000E+00 -0.24616801908E+04  0.24616801908E+04  0.00000000000E+00 0.  1.
    9000010    2    1    2  501    0  0.88532862478E+03  0.92521414298E+02 -0.40855172100E+03  0.13902748400E+04  0.98670291171E+03 0.  0.
        -13    1    3    3    0    0  0.62374351699E+03 -0.37854305303E+03 -0.27154031900E+02  0.73012887260E+03  0.10566000000E+00 0.  1.
         13    1    1    2    0    0 -0.88532862478E+03 -0.92521414298E+02 -0.14354692754E+04  0.16890645452E+04  0.10566000000E+00 0. -1.
          4    1    3    3  501    0  0.26158510779E+03  0.47106446733E+03 -0.38139768910E+03  0.66014596738E+03  0.00000000000E+00 0.  1.
</event>
<event>
 5    1  0.2706953E-005  0.1019543E+03  0.7818608E-02  0.1163343E+00
         -4   -1    0    0    0  501 -0.00000000000E+00  0.00000000000E+00  0.47932625538E+02  0.47932625538E+02  0.00000000000E+00 0. -1.
         21   -1    0    0  501  502  0.00000000000E+00 -0.00000000000E+00 -0.20945526856E+03  0.20945526856E+03  0.00000000000E+00 0.  1.
        -13    1    1    2    0    0  0.89877456719E+02  0.36932870805E+02 -0.64368307696E+02  0.11655592809E+03  0.10566000000E+00 0.  1.
         13    1    1    2    0    0 -0.62964460434E+02 -0.19498744393E+02 -0.45713830791E+02  0.80215271615E+02  0.10566000000E+00 0. -1.
         -4    1    1    2    0  502 -0.26912996286E+02 -0.17434126413E+02 -0.51440504536E+02  0.60616694398E+02  0.00000000000E+00 0. -1.
</event>
<event>
 6    1  0.2569591E-005  0.1593336E+04  0.7818608E-02  0.8426496E-01
         -4   -1    0    0    0  501 -0.00000000000E+00  0.00000000000E+00  0.13825238662E+04  0.13825238662E+04  0.00000000000E+00 0. -1.
         21   -1    0    0  501  502  0.00000000000E+00 -0.00000000000E+00 -0.14114269495E+04  0.14114269495E+04  0.00000000000E+00 0.  1.
   -9000010    2    1    2    0  502  0.95377895624E+03 -0.65483767338E+03  0.22594468853E+03  0.16092761456E+04  0.10955418909E+04 0.  0.
        -13    1    1    2    0    0 -0.95377895624E+03  0.65483767338E+03 -0.25484777191E+03  0.11846746700E+04  0.10566000000E+00 0.  1.
         13    1    3    3    0    0  0.89723006579E+03  0.60131019163E+01  0.28993236787E+03  0.94293092931E+03  0.10566000000E+00 0. -1.
         -4    1    3    3    0  502  0.56548890446E+02 -0.66085077530E+03 -0.63987679333E+02  0.66634521633E+03  0.00000000000E+00 0. -1.
</event>
<event>
 5    1  0.2569591E-005  0.1308394E+03  0.7818608E-02  0.1128718E+00
          4   -1    0    0  502    0 -0.00000000000E+00  0.00000000000E+00  0.80346159799E+02  0.80346159799E+02  0.00000000000E+00 0.  1.
         21   -1    0    0  501  502  0.00000000000E+00 -0.00000000000E+00 -0.19635209434E+03  0.19635209434E+03  0.00000000000E+00 0. -1.
        -13    1    1    2    0    0  0.51258733160E+02 -0.98109007649E+02 -0.19603495551E+02  0.11241504930E+03  0.10566000000E+00 0.  1.
         13    1    1    2    0    0 -0.32113846938E+02  0.10429708732E+03 -0.93977977204E+02  0.14401754390E+03  0.10566000000E+00 0. -1.
          4    1    1    2  501    0 -0.19144886222E+02 -0.61880796667E+01 -0.24244617876E+01  0.20265660941E+02  0.00000000000E+00 0.  1.
</event>
<event>
 6    1  0.2569591E-005  0.1019657E+04  0.7818608E-02  0.9174165E-01
         21   -1    0    0  501  502  0.00000000000E+00  0.00000000000E+00  0.76539826612E+03  0.76539826612E+03  0.00000000000E+00 0.  1.
          4   -1    0    0  502    0 -0.00000000000E+00 -0.00000000000E+00 -0.48818286445E+03  0.48818286445E+03  0.00000000000E+00 0.  1.
    9000010    2    1    2  501    0 -0.18468720512E+03 -0.15401089617E+02  0.30921393746E+03  0.10655107322E+04  0.10026730793E+04 0.  0.
        -13    1    3    3    0    0 -0.34466514962E+03  0.27355765557E+03  0.51420314906E+03  0.67678116548E+03  0.10566000000E+00 0.  1.
         13    1    1    2    0    0  0.18468720512E+03  0.15401089617E+02 -0.31998535789E+02  0.18807039840E+03  0.10566000000E+00 0. -1.
          4    1    3    3  501    0  0.15997794450E+03 -0.28895874519E+03 -0.20498921161E+03  0.38872956669E+03  0.00000000000E+00 0.  1.
</event>
<event>
 5    1  0.2569591E-005  0.3923876E+02  0.7818608E-02  0.1374087E+00
         -4   -1    0    0    0  501 -0.00000000000E+00  0.00000000000E+00  0.15204636513E+02  0.15204636513E+02  0.00000000000E+00 0. -1.
         21   -1    0    0  501  502  0.00000000000E+00 -0.00000000000E+00 -0.63138641014E+02  0.63138641014E+02  0.00000000000E+00 0.  1.
        -13    1    1    2    0    0 -0.20563922133E+02 -0.94418491281E+01 -0.19704670637E+02  0.30005143182E+02  0.10566000000E+00 0.  1.
         13    1    1    2    0    0  0.17683522299E+02  0.20863888689E+02 -0.18046190217E+02  0.32767132275E+02  0.10566000000E+00 0. -1.
         -4    1    1    2    0  502  0.28803998337E+01 -0.11422039561E+02 -0.10183143648E+02  0.15571002071E+02  0.00000000000E+00 0. -1.
</event>
<event>
 6    1  0.2569591E-005  0.1458363E+04  0.7818608E-02  0.8507620E-01
          4   -1    0    0  502    0 -0.00000000000E+00  0.00000000000E+00  0.13361764113E+04  0.13361764113E+04  0.00000000000E+00 0.  1.
         21   -1    0    0  501  502  0.00000000000E+00 -0.00000000000E+00 -0.18060211670E+04  0.18060211670E+04  0.00000000000E+00 0. -1.
    9000010    2    1    2  501    0  0.50693454468E+03 -0.90951824848E+03  0.66432059993E+03  0.16025427008E+04  0.10210852910E+04 0.  0.
        -13    1    3    3    0    0 -0.13090244015E+03 -0.52643271720E+03 -0.82085570142E+02  0.54863914057E+03  0.10566000000E+00 0.  1.
         13    1    1    2    0    0 -0.50693454468E+03  0.90951824848E+03 -0.11341653556E+04  0.15396548775E+04  0.10566000000E+00 0. -1.
          4    1    3    3  501    0  0.63783698484E+03 -0.38308553129E+03  0.74640617008E+03  0.10539035602E+04  0.00000000000E+00 0.  1.
</event>
<event>
 6    1  0.2569591E-005  0.1591060E+04  0.7818608E-02  0.8411862E-01
          4   -1    0    0  502    0 -0.00000000000E+00  0.00000000000E+00  0.16716095347E+04  0.16716095347E+04  0.00000000000E+00 0.  1.
         21   -1    0    0  501  502  0.00000000000E+00 -0.00000000000E+00 -0.12186218576E+04  0.12186218576E+04  0.00000000000E+00 0. -1.
    9000010    2    1    2  501    0  0.20643476342E+03  0.12259708266E+04  0.42432912889E+03  0.16466715415E+04  0.99290088964E+03 0.  0.
        -13    1    3    3    0    0  0.11513796856E+03  0.62585284642E+03 -0.29839752213E+03  0.70284395818E+03  0.10566000000E+00 0.  1.
         13    1    1    2    0    0 -0.20643476342E+03 -0.12259708266E+04  0.28658548152E+02  0.12435598509E+04  0.10566000000E+00 0. -1.
          4    1    3    3  501    0  0.91296794863E+02  0.60011798015E+03  0.72272665102E+03  0.94382758327E+03  0.00000000000E+00 0.  1.
</event>
<event>
 6    1  0.2569591E-005  0.1585096E+04  0.7818608E-02  0.8421969E-01
         21   -1    0    0  501  502  0.00000000000E+00  0.00000000000E+00  0.94041733147E+03  0.94041733147E+03  0.00000000000E+00 0.  1.
         -4   -1    0    0    0  501 -0.00000000000E+00 -0.00000000000E+00 -0.20917265270E+04  0.20917265270E+04  0.00000000000E+00 0. -1.
   -9000010    2    1    2    0  502  0.11993863117E+04  0.34869688701E+02 -0.83348069172E+03  0.17908709679E+04  0.10357535133E+04 0.  0.
        -13    1    1    2    0    0 -0.11993863117E+04 -0.34869688701E+02 -0.31782850381E+03  0.12412728906E+04  0.10566000000E+00 0.  1.
         13    1    3    3    0    0  0.35606214113E+03  0.42087248429E+03 -0.11228353066E+02  0.55139820770E+03  0.10566000000E+00 0. -1.
         -4    1    3    3    0  502  0.84332417056E+03 -0.38600279559E+03 -0.82225233866E+03  0.12394727602E+04  0.00000000000E+00 0. -1.
</event>
<event>
 6    1  0.2569591E-005  0.1091331E+04  0.7818608E-02  0.8919701E-01
         -4   -1    0    0    0  501 -0.00000000000E+00  0.00000000000E+00  0.15684261158E+04  0.15684261158E+04  0.00000000000E+00 0. -1.
         21   -1    0    0  501  502  0.00000000000E+00 -0.00000000000E+00 -0.44152936511E+03  0.44152936511E+03  0.00000000000E+00 0.  1.
   -9000010    2    1    2    0  502 -0.29636216771E+03 -0.29607131460E+03  0.11563404585E+04  0.15900082212E+04  0.10077272101E+04 0.  0.
        -13    1    1    2    0    0  0.29636216771E+03  0.29607131460E+03 -0.29443707807E+02  0.41994725963E+03  0.10566000000E+00 0.  1.
         13    1    3    3    0    0 -0.41633766009E+03  0.27616277803E+03  0.62334854309E+03  0.79885314327E+03  0.10566000000E+00 0. -1.
         -4    1    3    3    0  502  0.11997549237E+03 -0.57223409263E+03  0.53299191537E+03  0.79115507797E+03  0.00000000000E+00 0. -1.
</event>
<event>
 6    1  0.2569591E-005  0.1173285E+04  0.7818608E-02  0.8806750E-01
         21   -1    0    0  501  502  0.00000000000E+00  0.00000000000E+00  0.96243996697E+03  0.96243996697E+03  0.00000000000E+00 0.  1.
          4   -1    0    0  502    0 -0.00000000000E+00 -0.00000000000E+00 -0.16111999005E+04  0.16111999005E+04  0.00000000000E+00 0.  1.
    9000010    2    1    2  501    0  0.14986964284E+03 -0.51897686785E+03  0.52207843158E+03  0.12841979775E+04  0.10415376409E+04 0.  0.
        -13    1    3    3    0    0 -0.35459966133E+03 -0.30243006978E+03  0.56632373674E+03  0.73343537744E+03  0.10566000000E+00 0.  1.
         13    1    1    2    0    0 -0.14986964284E+03  0.51897686785E+03 -0.11708383651E+04  0.12894418900E+04  0.10566000000E+00 0. -1.
          4    1    3    3  501    0  0.50446930417E+03 -0.21654679807E+03 -0.44245305153E+02  0.55076260007E+03  0.00000000000E+00 0.  1.
</event>
<event>
 6    1  0.2569591E-005  0.1017336E+04  0.7818608E-02  0.9179123E-01
         21   -1    0    0  501  502  0.00000000000E+00  0.00000000000E+00  0.14212118028E+03  0.14212118028E+03  0.00000000000E+00 0.  1.
          4   -1    0    0  502    0 -0.00000000000E+00 -0.00000000000E+00 -0.25441093301E+04  0.25441093301E+04  0.00000000000E+00 0.  1.
    9000010    2    1    2  501    0  0.11105373215E+03  0.14549076166E+03 -0.20917505761E+04  0.23260252127E+04  0.10007358914E+04 0.  0.
        -13    1    3    3    0    0  0.25583845454E+03  0.16521598288E+03 -0.88074428016E+02  0.31702799853E+03  0.10566000000E+00 0.  1.
         13    1    1    2    0    0 -0.11105373215E+03 -0.14549076166E+03 -0.31023757369E+03  0.36020529764E+03  0.10566000000E+00 0. -1.
          4    1    3    3  501    0 -0.14478472238E+03 -0.19725221213E+02 -0.20036761481E+04  0.20089972142E+04  0.00000000000E+00 0.  1.
</event>
<event>
 5    1  0.2569591E-005  0.4490863E+02  0.7818608E-02  0.1332374E+00
          4   -1    0    0  502    0 -0.00000000000E+00  0.00000000000E+00  0.11134821312E+02  0.11134821312E+02  0.00000000000E+00 0.  1.
         21   -1    0    0  501  502  0.00000000000E+00 -0.00000000000E+00 -0.16607013261E+03  0.16607013261E+03  0.00000000000E+00 0. -1.
        -13    1    1    2    0    0  0.11512217282E+02  0.20305332646E+01  0.45359057489E+00  0.11699193157E+02  0.10566000000E+00 0.  1.
         13    1    1    2    0    0 -0.21374507731E+02 -0.23619455563E+02 -0.10646279818E+03  0.11112644520E+03  0.10566000000E+00 0. -1.
          4    1    1    2  501    0  0.98622904490E+01  0.21588922299E+02 -0.48926103690E+02  0.54379315564E+02  0.00000000000E+00 0.  1.
</event>
<event>
 6    1  0.2569591E-005  0.1109054E+04  0.7818608E-02  0.8874987E-01
          4   -1    0    0  502    0 -0.00000000000E+00  0.00000000000E+00  0.28843422610E+04  0.28843422610E+04  0.00000000000E+00 0.  1.
         21   -1    0    0  501  502  0.00000000000E+00 -0.00000000000E+00 -0.22103140127E+03  0.22103140127E+03  0.00000000000E+00 0.  1.
    9000010    2    1    2  501    0  0.78366057528E+02  0.47393012417E+03  0.17153775463E+04  0.20426749376E+04  0.99962481599E+03 0.  0.
        -13    1    3    3    0    0  0.27416602466E+03 -0.23573577402E+03  0.70778513747E+03  0.79479442387E+03  0.10566000000E+00 0.  1.
         13    1    1    2    0    0 -0.78366057528E+02 -0.47393012417E+03  0.94793331339E+03  0.10626987246E+04  0.10566000000E+00 0. -1.
          4    1    3    3  501    0 -0.19579996713E+03  0.70966589819E+03  0.10075924088E+04  0.12478805137E+04  0.00000000000E+00 0.  1.
</event>
<event>
 6    1  0.2569591E-005  0.1091392E+04  0.7818608E-02  0.8897583E-01
         21   -1    0    0  501  502  0.00000000000E+00  0.00000000000E+00  0.41223657230E+03  0.41223657230E+03  0.00000000000E+00 0. -1.
          4   -1    0    0  502    0 -0.00000000000E+00 -0.00000000000E+00 -0.18004458822E+04  0.18004458822E+04  0.00000000000E+00 0.  1.
    9000010    2    1    2  501    0 -0.27867745935E+03 -0.36462105294E+03 -0.13724391732E+04  0.17534893067E+04  0.99021504034E+03 0.  0.
        -13    1    3    3    0    0  0.18236779467E+03 -0.55365072114E+03 -0.85807843830E+03  0.10373455311E+04  0.10566000000E+00 0.  1.
         13    1    1    2    0    0  0.27867745935E+03  0.36462105294E+03 -0.15770136731E+02  0.45919314779E+03  0.10566000000E+00 0. -1.
          4    1    3    3  501    0 -0.46104525402E+03  0.18902966820E+03 -0.51436073487E+03  0.71614377557E+03  0.00000000000E+00 0.  1.
</event>
<event>
 6    1  0.2569591E-005  0.1078950E+04  0.7818608E-02  0.9006421E-01
         21   -1    0    0  501  502  0.00000000000E+00  0.00000000000E+00  0.11241481259E+04  0.11241481259E+04  0.00000000000E+00 0. -1.
         -4   -1    0    0    0  501 -0.00000000000E+00 -0.00000000000E+00 -0.47590775931E+03  0.47590775931E+03  0.00000000000E+00 0. -1.
   -9000010    2    1    2    0  502 -0.17068999704E+03 -0.25191902194E+03  0.70724465574E+03  0.12900884901E+04  0.10351497672E+04 0.  0.
        -13    1    1    2    0    0  0.17068999704E+03  0.25191902194E+03 -0.59004289184E+02  0.30996739508E+03  0.10566000000E+00 0.  1.
         13    1    3    3    0    0 -0.74578868854E+02 -0.34171199534E+03  0.95090850224E+03  0.10131910413E+04  0.10566000000E+00 0. -1.
         -4    1    3    3    0  502 -0.96111128190E+02  0.89792973400E+02 -0.24366384650E+03  0.27689744876E+03  0.00000000000E+00 0. -1.
</event>
<event>
 6    1  0.2569591E-005  0.1065162E+04  0.7818608E-02  0.8971448E-01
          4   -1    0    0  502    0 -0.00000000000E+00  0.00000000000E+00  0.26491614216E+04  0.26491614216E+04  0.00000000000E+00 0.  1.
         21   -1    0    0  501  502  0.00000000000E+00 -0.00000000000E+00 -0.20507680702E+03  0.20507680702E+03  0.00000000000E+00 0. -1.
    9000010    2    1    2  501    0  0.36432868189E+03 -0.10479204049E+02  0.20915722726E+04  0.23471779121E+04  0.10008618174E+04 0.  0.
        -13    1    3    3    0    0  0.62132403543E+03  0.22753891445E+03  0.16865013484E+04  0.18116578937E+04  0.10566000000E+00 0.  1.
         13    1    1    2    0    0 -0.36432868189E+03  0.10479204049E+02  0.35251234203E+03  0.50706031654E+03  0.10566000000E+00 0. -1.
          4    1    3    3  501    0 -0.25699535354E+03 -0.23801811850E+03  0.40507092424E+03  0.53552001844E+03  0.00000000000E+00 0.  1.
</event>
<event>
 5    1  0.2569591E-005  0.1666120E+03  0.7818608E-02  0.1099882E+00
         21   -1    0    0  501  502  0.00000000000E+00  0.00000000000E+00  0.66956375201E+02  0.66956375201E+02  0.00000000000E+00 0. -1.
          4   -1    0    0  502    0 -0.00000000000E+00 -0.00000000000E+00 -0.48812094746E+03  0.48812094746E+03  0.00000000000E+00 0.  1.
        -13    1    1    2    0    0 -0.47583907951E+02 -0.46867680212E+02 -0.30947305339E+03  0.31659815174E+03  0.10566000000E+00 0.  1.
         13    1    1    2    0    0  0.11282618168E+03  0.86963268085E+01 -0.12616691569E+02  0.11386204567E+03  0.10566000000E+00 0. -1.
          4    1    1    2  501    0 -0.65242273733E+02  0.38171353403E+02 -0.99074827294E+02  0.12461712525E+03  0.00000000000E+00 0.  1.
</event>
<event>
 6    1  0.2569591E-005  0.1986363E+04  0.7818608E-02  0.8201881E-01
          4   -1    0    0  502    0 -0.00000000000E+00  0.00000000000E+00  0.39271428988E+04  0.39271428988E+04  0.00000000000E+00 0.  1.
         21   -1    0    0  501  502  0.00000000000E+00 -0.00000000000E+00 -0.90167480680E+03  0.90167480680E+03  0.00000000000E+00 0. -1.
    9000010    2    1    2  501    0  0.96378355942E+03  0.14401939312E+04  0.12452091593E+04  0.23443943948E+04  0.97087688154E+03 0.  0.
        -13    1    3    3    0    0  0.47495108437E+03  0.17186345385E+03  0.73648594491E+03  0.89304374895E+03  0.10566000000E+00 0.  1.
         13    1    1    2    0    0 -0.96378355942E+03 -0.14401939312E+04  0.17802589326E+04  0.24844233108E+04  0.10566000000E+00 0. -1.
          4    1    3    3  501    0  0.48883247505E+03  0.12683304773E+04  0.50872321444E+03  0.14513506459E+04  0.00000000000E+00 0.  1.
</event>
<event>
 6    1  0.2569591E-005  0.1115549E+04  0.7818608E-02  0.8870672E-01
         -4   -1    0    0    0  501 -0.00000000000E+00  0.00000000000E+00  0.32285616624E+04  0.32285616624E+04  0.00000000000E+00 0. -1.
         21   -1    0    0  501  502  0.00000000000E+00 -0.00000000000E+00 -0.20882250020E+03  0.20882250020E+03  0.00000000000E+00 0.  1.
   -9000010    2    1    2    0  502 -0.44644452608E+03  0.17790160878E+03  0.17045526572E+04  0.20371423080E+04  0.10067210758E+04 0.  0.
        -13    1    1    2    0    0  0.44644452608E+03 -0.17790160878E+03  0.13151865050E+04  0.14002418546E+04  0.10566000000E+00 0.  1.
         13    1    3    3    0    0 -0.28840547771E+03 -0.39829633962E+03  0.99237074316E+03  0.11075276054E+04  0.10566000000E+00 0. -1.
         -4    1    3    3    0  502 -0.15803904837E+03  0.57619794839E+03  0.71218191402E+03  0.92961470255E+03  0.00000000000E+00 0. -1.
</event>
<event>
 5    1  0.2569591E-005  0.4167191E+03  0.7818608E-02  0.9699662E-01
         21   -1    0    0  501  502  0.00000000000E+00  0.00000000000E+00  0.16987748390E+03  0.16987748390E+03  0.00000000000E+00 0. -1.
          4   -1    0    0  502    0 -0.00000000000E+00 -0.00000000000E+00 -0.11090744830E+04  0.11090744830E+04  0.00000000000E+00 0.  1.
        -13    1    1    2    0    0  0.15061812451E+03 -0.22521419570E+03 -0.23341402273E+03  0.35761623362E+03  0.10566000000E+00 0.  1.
         13    1    1    2    0    0 -0.25527434583E+03  0.29717761598E+03 -0.68984967450E+03  0.79332976223E+03  0.10566000000E+00 0. -1.
          4    1    1    2  501    0  0.10465622132E+03 -0.71963420276E+02 -0.15933301888E+02  0.12800597106E+03  0.00000000000E+00 0.  1.
</event>
<event>
 5    1  0.2569591E-005  0.1066170E+03  0.7818608E-02  0.1203248E+00
         21   -1    0    0  501  502  0.00000000000E+00  0.00000000000E+00  0.17824837885E+03  0.17824837885E+03  0.00000000000E+00 0.  1.
         -4   -1    0    0    0  501 -0.00000000000E+00 -0.00000000000E+00 -0.52204136914E+02  0.52204136914E+02  0.00000000000E+00 0. -1.
        -13    1    1    2    0    0  0.33371628418E+02 -0.34218526711E+00 -0.27690558801E+02  0.43365434216E+02  0.10566000000E+00 0.  1.
         13    1    1    2    0    0 -0.25032739410E+02 -0.18172499139E+02  0.16217360484E+03  0.16509744710E+03  0.10566000000E+00 0. -1.
         -4    1    1    2    0  502 -0.83388890076E+01  0.18514684406E+02 -0.84388041029E+01  0.21989634450E+02  0.00000000000E+00 0. -1.
</event>
<event>
 5    1  0.2569591E-005  0.5192119E+02  0.7818608E-02  0.1290427E+00
         21   -1    0    0  501  502  0.00000000000E+00  0.00000000000E+00  0.30789151247E+02  0.30789151247E+02  0.00000000000E+00 0.  1.
         -4   -1    0    0    0  501 -0.00000000000E+00 -0.00000000000E+00 -0.78122413804E+02  0.78122413804E+02  0.00000000000E+00 0. -1.
        -13    1    1    2    0    0 -0.14756444903E+02 -0.43425576553E+02 -0.17943907672E+02  0.49249653316E+02  0.10566000000E+00 0.  1.
         13    1    1    2    0    0  0.40225784405E+01  0.36760559840E+02 -0.29044356667E+02  0.47022395890E+02  0.10566000000E+00 0. -1.
         -4    1    1    2    0  502  0.10733866463E+02  0.66650167134E+01 -0.34499821870E+00  0.12639515845E+02  0.00000000000E+00 0. -1.
</event>
<event>
 6    1  0.2569591E-005  0.9797446E+03  0.7818608E-02  0.9214766E-01
         -4   -1    0    0    0  501 -0.00000000000E+00  0.00000000000E+00  0.12031561959E+04  0.12031561959E+04  0.00000000000E+00 0. -1.
         21   -1    0    0  501  502  0.00000000000E+00 -0.00000000000E+00 -0.27880996301E+03  0.27880996301E+03  0.00000000000E+00 0. -1.
   -9000010    2    1    2    0  502 -0.11613017362E+03  0.13552248804E+03  0.77331291753E+03  0.12481636023E+04  0.96335193342E+03 0.  0.
        -13    1    1    2    0    0  0.11613017362E+03 -0.13552248804E+03  0.15103331541E+03  0.23380255669E+03  0.10566000000E+00 0.  1.
         13    1    3    3    0    0 -0.19880923336E+03  0.92138188677E+02 -0.18410848363E+03  0.28620010829E+03  0.10566000000E+00 0. -1.
         -4    1    3    3    0  502  0.82679059740E+02  0.43384299359E+02  0.95742140116E+03  0.96196349398E+03  0.00000000000E+00 0. -1.
</event>
<event>
 5    1  0.2569591E-005  0.7358040E+02  0.7818608E-02  0.1218355E+00
          4   -1    0    0  502    0 -0.00000000000E+00  0.00000000000E+00  0.25906671699E+03  0.25906671699E+03  0.00000000000E+00 0.  1.
         21   -1    0    0  501  502  0.00000000000E+00 -0.00000000000E+00 -0.22910592971E+02  0.22910592971E+02  0.00000000000E+00 0. -1.
        -13    1    1    2    0    0 -0.47885658995E+02 -0.40912050987E+02  0.14386924022E+03  0.15705158929E+03  0.10566000000E+00 0.  1.
         13    1    1    2    0    0  0.58116969907E+02  0.43208569822E+02  0.72171861017E+02  0.10224163234E+03  0.10566000000E+00 0. -1.
          4    1    1    2  501    0 -0.10231310912E+02 -0.22965188348E+01  0.20115022779E+02  0.22684088325E+02  0.00000000000E+00 0.  1.
</event>
<event>
 6    1  0.2569591E-005  0.1117783E+04  0.7818608E-02  0.8853801E-01
         -4   -1    0    0    0  501 -0.00000000000E+00  0.00000000000E+00  0.35595852346E+04  0.35595852346E+04  0.00000000000E+00 0. -1.
         21   -1    0    0  501  502  0.00000000000E+00 -0.00000000000E+00 -0.19210759016E+03  0.19210759016E+03  0.00000000000E+00 0.  1.
   -9000010    2    1    2    0  502  0.46212321038E+03  0.22174726458E+03  0.19977653119E+04  0.22892149289E+04  0.99333228993E+03 0.  0.
        -13    1    1    2    0    0 -0.46212321038E+03 -0.22174726458E+03  0.13697123325E+04  0.14624778959E+04  0.10566000000E+00 0.  1.
         13    1    3    3    0    0  0.25036854883E+03 -0.70691400113E+02  0.10915437384E+01  0.26015934911E+03  0.10566000000E+00 0. -1.
         -4    1    3    3    0  502  0.21175466155E+03  0.29243866469E+03  0.19966737682E+04  0.20290555798E+04  0.00000000000E+00 0. -1.
</event>
<event>
 5    1  0.2975337E-005  0.7660559E+02  0.7818608E-02  0.1215537E+00
         21   -1    0    0  501  502  0.00000000000E+00  0.00000000000E+00  0.19295879392E+02  0.19295879392E+02  0.00000000000E+00 0. -1.
          4   -1    0    0  502    0 -0.00000000000E+00 -0.00000000000E+00 -0.28355762615E+03  0.28355762615E+03  0.00000000000E+00 0.  1.
        -13    1    1    2    0    0  0.83777255579E+01 -0.50552078632E+02 -0.15607988912E+03  0.16427611479E+03  0.10566000000E+00 0.  1.
         13    1    1    2    0    0 -0.85484338531E+01  0.67766874382E+02 -0.94428353104E+02  0.11654248161E+03  0.10566000000E+00 0. -1.
          4    1    1    2  501    0  0.17070829527E+00 -0.17214795750E+02 -0.13753504539E+02  0.22034909147E+02  0.00000000000E+00 0.  1.
</event>
<event>
 6    1  0.2569591E-005  0.1469399E+04  0.7818608E-02  0.8493156E-01
         21   -1    0    0  501  502  0.00000000000E+00  0.00000000000E+00  0.12328784940E+04  0.12328784940E+04  0.00000000000E+00 0. -1.
         -4   -1    0    0    0  501 -0.00000000000E+00 -0.00000000000E+00 -0.14811719148E+04  0.14811719148E+04  0.00000000000E+00 0. -1.
   -9000010    2    1    2    0  502  0.10837794243E+04  0.83721319635E+02  0.29517577845E+03  0.14987537859E+04  0.98870980107E+03 0.  0.
        -13    1    1    2    0    0 -0.10837794243E+04 -0.83721319635E+02 -0.54346919926E+03  0.12152966229E+04  0.10566000000E+00 0.  1.
         13    1    3    3    0    0  0.47996825888E+03 -0.42820309507E+03  0.29379573171E+03  0.70713744300E+03  0.10566000000E+00 0. -1.
         -4    1    3    3    0  502  0.60381116539E+03  0.51192441470E+03  0.13800467408E+01  0.79161634290E+03  0.00000000000E+00 0. -1.
</event>
<event>
 5    1  0.2569591E-005  0.1023174E+03  0.7818608E-02  0.1168877E+00
         -4   -1    0    0    0  501 -0.00000000000E+00  0.00000000000E+00  0.14636234677E+03  0.14636234677E+03  0.00000000000E+00 0. -1.
         21   -1    0    0  501  502  0.00000000000E+00 -0.00000000000E+00 -0.15119606223E+03  0.15119606223E+03  0.00000000000E+00 0.  1.
        -13    1    1    2    0    0  0.10824045226E+02 -0.83429161957E+02 -0.11804895941E+03  0.14495914253E+03  0.10566000000E+00 0.  1.
         13    1    1    2    0    0 -0.11429011515E+02  0.36497718473E+02  0.94722501150E+02  0.10215218620E+03  0.10566000000E+00 0. -1.
         -4    1    1    2    0  502  0.60496628949E+00  0.46931443484E+02  0.18492742795E+02  0.50447080270E+02  0.00000000000E+00 0. -1.
</event>
<event>
 5    1  0.2569591E-005  0.2665983E+03  0.7818608E-02  0.1056767E+00
         -4   -1    0    0    0  501 -0.00000000000E+00  0.00000000000E+00  0.91119076319E+02  0.91119076319E+02  0.00000000000E+00 0. -1.
         21   -1    0    0  501  502  0.00000000000E+00 -0.00000000000E+00 -0.35538252911E+03  0.35538252911E+03  0.00000000000E+00 0. -1.
        -13    1    1    2    0    0 -0.73458317153E+02 -0.57344166552E+02 -0.73364068928E+02  0.11860343827E+03  0.10566000000E+00 0.  1.
         13    1    1    2    0    0  0.15681500681E+03 -0.55970317843E+01 -0.14555613788E+03  0.21403007630E+03  0.10566000000E+00 0. -1.
         -4    1    1    2    0  502 -0.83356689654E+02  0.62941198337E+02 -0.45343245989E+02  0.11386809085E+03  0.00000000000E+00 0. -1.
</event>
<event>
 6    1  0.2569591E-005  0.1579325E+04  0.7818608E-02  0.8420573E-01
          4   -1    0    0  502    0 -0.00000000000E+00  0.00000000000E+00  0.19570455303E+04  0.19570455303E+04  0.00000000000E+00 0.  1.
         21   -1    0    0  501  502  0.00000000000E+00 -0.00000000000E+00 -0.12143129955E+04  0.12143129955E+04  0.00000000000E+00 0.  1.
    9000010    2    1    2  501    0  0.12077574492E+04  0.17896423729E+03 -0.24843127407E+03  0.15987454260E+04  0.10017797088E+04 0.  0.
        -13    1    3    3    0    0  0.83362548669E+03  0.25398593656E+02 -0.62807002201E+03  0.10440538800E+04  0.10566000000E+00 0.  1.
         13    1    1    2    0    0 -0.12077574492E+04 -0.17896423729E+03  0.99116380886E+03  0.15726130997E+04  0.10566000000E+00 0. -1.
          4    1    3    3  501    0  0.37413196250E+03  0.15356564363E+03  0.37963874794E+03  0.55469154601E+03  0.00000000000E+00 0.  1.
</event>
<event>
 5    1  0.2569591E-005  0.1594586E+03  0.7818608E-02  0.1095173E+00
         21   -1    0    0  501  502  0.00000000000E+00  0.00000000000E+00  0.36982977923E+02  0.36982977923E+02  0.00000000000E+00 0.  1.
         -4   -1    0    0    0  501 -0.00000000000E+00 -0.00000000000E+00 -0.69301703223E+03  0.69301703223E+03  0.00000000000E+00 0. -1.
        -13    1    1    2    0    0  0.38112912221E+02  0.14170329249E+03 -0.20893235613E+03  0.25531384174E+03  0.10566000000E+00 0.  1.
         13    1    1    2    0    0 -0.51976221704E+02 -0.96349877039E+02 -0.34815296474E+03  0.36495934629E+03  0.10566000000E+00 0. -1.
         -4    1    1    2    0  502  0.13863309483E+02 -0.45353415455E+02 -0.98948733441E+02  0.10972682212E+03  0.00000000000E+00 0. -1.
</event>
<event>
 5    1  0.2569591E-005  0.5096708E+02  0.7818608E-02  0.1305055E+00
          4   -1    0    0  502    0 -0.00000000000E+00  0.00000000000E+00  0.46752122446E+02  0.46752122446E+02  0.00000000000E+00 0.  1.
         21   -1    0    0  501  502  0.00000000000E+00 -0.00000000000E+00 -0.42730610219E+02  0.42730610219E+02  0.00000000000E+00 0. -1.
        -13    1    1    2    0    0 -0.29809304135E+02  0.13474115580E+02  0.24365296072E+01  0.32803875446E+02  0.10566000000E+00 0.  1.
         13    1    1    2    0    0  0.23154244477E+02 -0.28179142228E+02  0.10870910899E+02  0.38057469199E+02  0.10566000000E+00 0. -1.
          4    1    1    2  501    0  0.66550596588E+01  0.14705026648E+02 -0.92859282796E+01  0.18621388020E+02  0.00000000000E+00 0.  1.
</event>
<event>
 5    1  0.2569591E-005  0.1955387E+03  0.7818608E-02  0.1064371E+00
         21   -1    0    0  501  502  0.00000000000E+00  0.00000000000E+00  0.58779645221E+02  0.58779645221E+02  0.00000000000E+00 0.  1.
         -4   -1    0    0    0  501 -0.00000000000E+00 -0.00000000000E+00 -0.66014361450E+03  0.66014361450E+03  0.00000000000E+00 0. -1.
        -13    1    1    2    0    0  0.16097075469E+03 -0.99473163645E+02 -0.37321546179E+03  0.41844508150E+03  0.10566000000E+00 0.  1.
         13    1    1    2    0    0 -0.14108762093E+03  0.96545290847E+02 -0.17971642843E+03  0.24804176216E+03  0.10566000000E+00 0. -1.
         -4    1    1    2    0  502 -0.19883133760E+02  0.29278727983E+01 -0.48432079054E+02  0.52436416055E+02  0.00000000000E+00 0. -1.
</event>
<event>
 6    1  0.2569591E-005  0.1231398E+04  0.7818608E-02  0.8989778E-01
          4   -1    0    0  502    0 -0.00000000000E+00  0.00000000000E+00  0.59996543079E+03  0.59996543079E+03  0.00000000000E+00 0.  1.
         21   -1    0    0  501  502  0.00000000000E+00 -0.00000000000E+00 -0.88184963080E+03  0.88184963080E+03  0.00000000000E+00 0.  1.
    9000010    2    1    2  501    0 -0.16580979750E+02  0.21833436231E+03 -0.19740375977E+03  0.12471199858E+04  0.12117735729E+04 0.  0.
        -13    1    3    3    0    0 -0.33471164232E+03  0.58418418587E+03 -0.32233374090E+03  0.74645970971E+03  0.10566000000E+00 0.  1.
         13    1    1    2    0    0  0.16580979750E+02 -0.21833436231E+03 -0.84480440237E+02  0.23469507579E+03  0.10566000000E+00 0. -1.
          4    1    3    3  501    0  0.31813066257E+03 -0.36584982357E+03  0.12492998113E+03  0.50066027609E+03  0.00000000000E+00 0.  1.
</event>
<event>
 6    1  0.2569591E-005  0.1079516E+04  0.7818608E-02  0.8953103E-01
         -4   -1    0    0    0  501 -0.00000000000E+00  0.00000000000E+00  0.20519115079E+04  0.20519115079E+04  0.00000000000E+00 0. -1.
         21   -1    0    0  501  502  0.00000000000E+00 -0.00000000000E+00 -0.26051174599E+03  0.26051174599E+03  0.00000000000E+00 0.  1.
   -9000010    2    1    2    0  502 -0.37170470129E+03  0.65058439497E+02  0.12372817416E+04  0.16420175729E+04  0.10114141665E+04 0.  0.
        -13    1    1    2    0    0  0.37170470129E+03 -0.65058439497E+02  0.55411802040E+03  0.67040568106E+03  0.10566000000E+00 0.  1.
         13    1    3    3    0    0  0.34011377327E+03  0.10124065884E+03  0.30104159624E+03  0.46535266584E+03  0.10566000000E+00 0. -1.
         -4    1    3    3    0  502 -0.71181847457E+03 -0.36182219346E+02  0.93624014532E+03  0.11766649070E+04  0.00000000000E+00 0. -1.
</event>
<event>
 6    1  0.2569591E-005  0.1035384E+04  0.7818608E-02  0.9093209E-01
         21   -1    0    0  501  502  0.00000000000E+00  0.00000000000E+00  0.40430319916E+03  0.40430319916E+03  0.00000000000E+00 0.  1.
          4   -1    0    0  502    0 -0.00000000000E+00 -0.00000000000E+00 -0.10232502562E+04  0.10232502562E+04  0.00000000000E+00 0.  1.
    9000010    2    1    2  501    0 -0.17350334046E+03 -0.17059159984E+03 -0.43747330954E+03  0.11240116374E+04  0.10063867851E+04 0.  0.
        -13    1    3    3    0    0  0.38510413364E+02  0.40221491345E+03 -0.66769694649E+02  0.40953399350E+03  0.10566000000E+00 0.  1.
         13    1    1    2    0    0  0.17350334046E+03  0.17059159984E+03 -0.18147374754E+03  0.30354181803E+03  0.10566000000E+00 0. -1.
          4    1    3    3  501    0 -0.21201375382E+03 -0.57280651329E+03 -0.37070361489E+03  0.71447764386E+03  0.00000000000E+00 0.  1.
</event>
<event>
 5    1  0.2569591E-005  0.2842865E+02  0.7818608E-02  0.1470818E+00
         -4   -1    0    0    0  501 -0.00000000000E+00  0.00000000000E+00  0.59317051127E+02  0.59317051127E+02  0.00000000000E+00 0. -1.
         21   -1    0    0  501  502  0.00000000000E+00 -0.00000000000E+00 -0.70648147539E+01  0.70648147539E+01  0.00000000000E+00 0. -1.
        -13    1    1    2    0    0 -0.52085618599E+01 -0.11242745590E+02  0.18281818472E+02  0.22085391002E+02  0.10566000000E+00 0.  1.
         13    1    1    2    0    0  0.88451232652E+01 -0.47079522762E+01  0.54239866337E+01  0.11394376475E+02  0.10566000000E+00 0. -1.
         -4    1    1    2    0  502 -0.36365614053E+01  0.15950697866E+02  0.28546431267E+02  0.32902098404E+02  0.00000000000E+00 0. -1.
</event>
<event>
 5    1  0.2569591E-005  0.1402843E+03  0.7818608E-02  0.1119534E+00
         -4   -1    0    0    0  501 -0.00000000000E+00  0.00000000000E+00  0.32872339985E+03  0.32872339985E+03  0.00000000000E+00 0. -1.
         21   -1    0    0  501  502  0.00000000000E+00 -0.00000000000E+00 -0.51492863832E+02  0.51492863832E+02  0.00000000000E+00 0.  1.
        -13    1    1    2    0    0  0.10709117932E+03 -0.34005573603E+02  0.78936583864E+02  0.13731676941E+03  0.10566000000E+00 0.  1.
         13    1    1    2    0    0 -0.11466767374E+03  0.12198642486E+02  0.14850819542E+03  0.18802174754E+03  0.10566000000E+00 0. -1.
         -4    1    1    2    0  502  0.75764944139E+01  0.21806931117E+02  0.49785756741E+02  0.54877746734E+02  0.00000000000E+00 0. -1.
</event>
<event>
 5    1  0.2569591E-005  0.3652287E+03  0.7818608E-02  0.9913487E-01
         21   -1    0    0  501  502  0.00000000000E+00  0.00000000000E+00  0.93404424001E+02  0.93404424001E+02  0.00000000000E+00 0. -1.
          4   -1    0    0  502    0 -0.00000000000E+00 -0.00000000000E+00 -0.12122213496E+04  0.12122213496E+04  0.00000000000E+00 0.  1.
        -13    1    1    2    0    0  0.11297441614E+03 -0.16915218094E+03 -0.68641298948E+03  0.71591792987E+03  0.10566000000E+00 0.  1.
         13    1    1    2    0    0 -0.23250534883E+03  0.15727851461E+03 -0.31020175441E+03  0.41835440478E+03  0.10566000000E+00 0. -1.
          4    1    1    2  501    0  0.11953093270E+03  0.11873666328E+02 -0.12220218168E+03  0.17135343892E+03  0.00000000000E+00 0.  1.
</event>
<event>
 6    1  0.2569591E-005  0.1177598E+04  0.7818608E-02  0.8760111E-01
         21   -1    0    0  501  502  0.00000000000E+00  0.00000000000E+00  0.37057894060E+03  0.37057894060E+03  0.00000000000E+00 0.  1.
          4   -1    0    0  502    0 -0.00000000000E+00 -0.00000000000E+00 -0.32437965104E+04  0.32437965104E+04  0.00000000000E+00 0.  1.
    9000010    2    1    2  501    0 -0.59668558923E+03 -0.26123459916E+03 -0.75637812449E+03  0.13995873220E+04  0.98105025171E+03 0.  0.
        -13    1    3    3    0    0 -0.18381651379E+03  0.28082439725E+03 -0.61951324798E+03  0.70459032666E+03  0.10566000000E+00 0.  1.
         13    1    1    2    0    0  0.59668558923E+03  0.26123459916E+03 -0.21168394453E+04  0.22147881291E+04  0.10566000000E+00 0. -1.
          4    1    3    3  501    0 -0.41286907544E+03 -0.54205899642E+03 -0.13686487651E+03  0.69499699530E+03  0.00000000000E+00 0.  1.
</event>
<event>
 6    1  0.2569591E-005  0.1120012E+04  0.7818608E-02  0.8977829E-01
         -4   -1    0    0    0  501 -0.00000000000E+00  0.00000000000E+00  0.40419710790E+03  0.40419710790E+03  0.00000000000E+00 0. -1.
         21   -1    0    0  501  502  0.00000000000E+00 -0.00000000000E+00 -0.13965853410E+04  0.13965853410E+04  0.00000000000E+00 0.  1.
   -9000010    2    1    2    0  502  0.30448983555E+03  0.24491749844E+02 -0.51198890411E+03  0.12314868910E+04  0.10775497293E+04 0.  0.
        -13    1    1    2    0    0 -0.30448983555E+03 -0.24491749844E+02 -0.48039932895E+03  0.56929555784E+03  0.10566000000E+00 0.  1.
         13    1    3    3    0    0 -0.40263857803E+03  0.49400909544E+02 -0.12222715483E+03  0.42367176319E+03  0.10566000000E+00 0. -1.
         -4    1    3    3    0  502  0.70712841358E+03 -0.24909159700E+02 -0.38976174929E+03  0.80781512782E+03  0.00000000000E+00 0. -1.
</event>
<event>
 5    1  0.2569591E-005  0.1965491E+03  0.7818608E-02  0.1093880E+00
         21   -1    0    0  501  502  0.00000000000E+00  0.00000000000E+00  0.69821392119E+02  0.69821392119E+02  0.00000000000E+00 0.  1.
         -4   -1    0    0    0  501 -0.00000000000E+00 -0.00000000000E+00 -0.29274074048E+03  0.29274074048E+03  0.00000000000E+00 0. -1.
        -13    1    1    2    0    0  0.70242443531E+02  0.40694894940E+02 -0.28326478492E+02  0.85979508578E+02  0.10566000000E+00 0.  1.
         13    1    1    2    0    0 -0.97887108056E+02  0.52108690271E+01 -0.28537957165E+02  0.10209537327E+03  0.10566000000E+00 0. -1.
         -4    1    1    2    0  502  0.27644664525E+02 -0.45905763967E+02 -0.16605491270E+03  0.17448725075E+03  0.00000000000E+00 0. -1.
</event>
<event>
 5    1  0.2569591E-005  0.1253510E+03  0.7818608E-02  0.1154832E+00
         -4   -1    0    0    0  501 -0.00000000000E+00  0.00000000000E+00  0.11047535426E+03  0.11047535426E+03  0.00000000000E+00 0. -1.
         21   -1    0    0  501  502  0.00000000000E+00 -0.00000000000E+00 -0.10310274956E+03  0.10310274956E+03  0.00000000000E+00 0. -1.
        -13    1    1    2    0    0 -0.49006077388E+02 -0.41706289684E+02  0.49662299198E+02  0.81285701976E+02  0.10566000000E+00 0.  1.
         13    1    1    2    0    0  0.19217792376E+02  0.57018131435E+02 -0.67460484561E+02  0.90395348317E+02  0.10566000000E+00 0. -1.
         -4    1    1    2    0  502  0.29788285011E+02 -0.15311841751E+02  0.25170790066E+02  0.41897053527E+02  0.00000000000E+00 0. -1.
</event>
<event>
 5    1  0.2569591E-005  0.3829408E+03  0.7818608E-02  0.9796901E-01
         21   -1    0    0  501  502  0.00000000000E+00  0.00000000000E+00  0.21025648389E+03  0.21025648389E+03  0.00000000000E+00 0.  1.
         -4   -1    0    0    0  501 -0.00000000000E+00 -0.00000000000E+00 -0.79654281546E+03  0.79654281546E+03  0.00000000000E+00 0. -1.
        -13    1    1    2    0    0 -0.30821713058E+01  0.36097320632E+03 -0.49583393778E+03  0.61332084628E+03  0.10566000000E+00 0.  1.
         13    1    1    2    0    0  0.18077428885E+02 -0.28011190467E+03 -0.13766046555E+02  0.28103200489E+03  0.10566000000E+00 0. -1.
         -4    1    1    2    0  502 -0.14995257579E+02 -0.80861301651E+02 -0.76686347241E+02  0.11244644818E+03  0.00000000000E+00 0. -1.
</event>
<event>
 5    1  0.2569591E-005  0.8708968E+03  0.7818608E-02  0.8935711E-01
         21   -1    0    0  501  502  0.00000000000E+00  0.00000000000E+00  0.27884964341E+03  0.27884964341E+03  0.00000000000E+00 0. -1.
          4   -1    0    0  502    0 -0.00000000000E+00 -0.00000000000E+00 -0.25217926991E+04  0.25217926991E+04  0.00000000000E+00 0.  1.
        -13    1    1    2    0    0  0.41029662652E+03  0.37018471255E+03 -0.68026540954E+03  0.87643658169E+03  0.10566000000E+00 0.  1.
         13    1    1    2    0    0 -0.70900768940E+03 -0.30487450682E+03 -0.13384960138E+04  0.15450605032E+04  0.10566000000E+00 0. -1.
          4    1    1    2  501    0  0.29871106288E+03 -0.65310205735E+02 -0.22418163234E+03  0.37914525758E+03  0.00000000000E+00 0.  1.
</event>
<event>
 6    1  0.2569591E-005  0.1007121E+04  0.7818608E-02  0.9349552E-01
         21   -1    0    0  501  502  0.00000000000E+00  0.00000000000E+00  0.22387333870E+03  0.22387333870E+03  0.00000000000E+00 0.  1.
          4   -1    0    0  502    0 -0.00000000000E+00 -0.00000000000E+00 -0.15103548962E+04  0.15103548962E+04  0.00000000000E+00 0.  1.
    9000010    2    1    2  501    0 -0.88896242428E+02  0.42156463674E+02 -0.12890231814E+04  0.16358098404E+04  0.10023040270E+04 0.  0.
        -13    1    3    3    0    0 -0.65255091120E+02  0.50857647592E+03 -0.86212301021E+03  0.10030774420E+04  0.10566000000E+00 0.  1.
         13    1    1    2    0    0  0.88896242428E+02 -0.42156463674E+02  0.25416239269E+01  0.98418394437E+02  0.10566000000E+00 0. -1.
          4    1    3    3  501    0 -0.23641151308E+02 -0.46642001224E+03 -0.42690017118E+03  0.63273239842E+03  0.00000000000E+00 0.  1.
</event>
<event>
 5    1  0.2569591E-005  0.1798951E+03  0.7818608E-02  0.1076602E+00
         -4   -1    0    0    0  501 -0.00000000000E+00  0.00000000000E+00  0.30877588125E+03  0.30877588125E+03  0.00000000000E+00 0. -1.
         21   -1    0    0  501  502  0.00000000000E+00 -0.00000000000E+00 -0.10149128109E+03  0.10149128109E+03  0.00000000000E+00 0.  1.
        -13    1    1    2    0    0 -0.68291554058E+02  0.15706617705E+03  0.75008587930E+02  0.18697545229E+03  0.10566000000E+00 0.  1.
         13    1    1    2    0    0  0.56981624735E+02 -0.15680842126E+03  0.13055226156E+03  0.21184827282E+03  0.10566000000E+00 0. -1.
         -4    1    1    2    0  502  0.11309929323E+02 -0.25775579686E+00  0.17237506729E+01  0.11443437234E+02  0.00000000000E+00 0. -1.
</event>
<event>
 5    1  0.2569591E-005  0.1546003E+03  0.7818608E-02  0.1104515E+00
         -4   -1    0    0    0  501 -0.00000000000E+00  0.00000000000E+00  0.38426164578E+02  0.38426164578E+02  0.00000000000E+00 0. -1.
         21   -1    0    0  501  502  0.00000000000E+00 -0.00000000000E+00 -0.60995463044E+03  0.60995463044E+03  0.00000000000E+00 0.  1.
        -13    1    1    2    0    0  0.77761099014E+02 -0.97860606501E+02 -0.39207084797E+03  0.41151311986E+03  0.10566000000E+00 0.  1.
         13    1    1    2    0    0 -0.25740870080E+02  0.99249457977E+02 -0.12117353717E+03  0.15873274576E+03  0.10566000000E+00 0. -1.
         -4    1    1    2    0  502 -0.52020228934E+02 -0.13888514761E+01 -0.58284080722E+02  0.78134929401E+02  0.00000000000E+00 0. -1.
</event>
<event>
 6    1  0.2569591E-005  0.1252679E+04  0.7818608E-02  0.8669815E-01
         21   -1    0    0  501  502  0.00000000000E+00  0.00000000000E+00  0.35097771845E+03  0.35097771845E+03  0.00000000000E+00 0.  1.
         -4   -1    0    0    0  501 -0.00000000000E+00 -0.00000000000E+00 -0.33830765572E+04  0.33830765572E+04  0.00000000000E+00 0. -1.
   -9000010    2    1    2    0  502  0.39435619658E+03 -0.69481625308E+03 -0.24291941376E+04  0.27331644090E+04  0.96484044953E+03 0.  0.
        -13    1    1    2    0    0 -0.39435619658E+03  0.69481625308E+03 -0.60290470107E+03  0.10008898666E+04  0.10566000000E+00 0.  1.
         13    1    3    3    0    0  0.31470305384E+03 -0.94009856597E+03 -0.18421285660E+04  0.20919514791E+04  0.10566000000E+00 0. -1.
         -4    1    3    3    0  502  0.79653142733E+02  0.24528231289E+03 -0.58706557161E+03  0.64121292994E+03  0.00000000000E+00 0. -1.
</event>
<event>
 6    1  0.2569591E-005  0.1546639E+04  0.7818608E-02  0.8446674E-01
         21   -1    0    0  501  502  0.00000000000E+00  0.00000000000E+00  0.13055693107E+04  0.13055693107E+04  0.00000000000E+00 0.  1.
         -4   -1    0    0    0  501 -0.00000000000E+00 -0.00000000000E+00 -0.15828731231E+04  0.15828731231E+04  0.00000000000E+00 0. -1.
   -9000010    2    1    2    0  502  0.89809034313E+03  0.72262319701E+03  0.33601694309E+03  0.15827192971E+04  0.10311849680E+04 0.  0.
        -13    1    1    2    0    0 -0.89809034313E+03 -0.72262319701E+03 -0.61332075552E+03  0.13057231367E+04  0.10566000000E+00 0.  1.
         13    1    3    3    0    0  0.47545045516E+03  0.43147894900E+02  0.57523191829E+03  0.74753370969E+03  0.10566000000E+00 0. -1.
         -4    1    3    3    0  502  0.42263988797E+03  0.67947530211E+03 -0.23921497520E+03  0.83518558743E+03  0.00000000000E+00 0. -1.
</event>
<event>
 5    1  0.2569591E-005  0.1686735E+03  0.7818608E-02  0.1098093E+00
         -4   -1    0    0    0  501 -0.00000000000E+00  0.00000000000E+00  0.15862437858E+03  0.15862437858E+03  0.00000000000E+00 0. -1.
         21   -1    0    0  501  502  0.00000000000E+00 -0.00000000000E+00 -0.16448925572E+03  0.16448925572E+03  0.00000000000E+00 0.  1.
        -13    1    1    2    0    0  0.11255268186E+03 -0.20984452423E+02 -0.79170572488E+02  0.13919929651E+03  0.10566000000E+00 0.  1.
         13    1    1    2    0    0 -0.76924892994E+02 -0.45226309627E+02  0.19185176740E+02  0.91273985425E+02  0.10566000000E+00 0. -1.
         -4    1    1    2    0  502 -0.35627788867E+02  0.66210762050E+02  0.54120518606E+02  0.92640352358E+02  0.00000000000E+00 0. -1.
</event>
<event>
 6    1  0.2569591E-005  0.1009778E+04  0.7818608E-02  0.9290839E-01
         -4   -1    0    0    0  501 -0.00000000000E+00  0.00000000000E+00  0.20619996995E+04  0.20619996995E+04  0.00000000000E+00 0. -1.
         21   -1    0    0  501  502  0.00000000000E+00 -0.00000000000E+00 -0.15527321426E+03  0.15527321426E+03  0.00000000000E+00 0. -1.
   -9000010    2    1    2    0  502 -0.87190694435E+01 -0.12150489785E+03  0.16931076373E+04  0.19713613733E+04  0.10024034768E+04 0.  0.
        -13    1    1    2    0    0  0.87190694435E+01  0.12150489785E+03  0.21361884795E+03  0.24591154047E+03  0.10566000000E+00 0.  1.
         13    1    3    3    0    0  0.36946496003E+03  0.12982981882E+03  0.26511998926E+03  0.47291517042E+03  0.10566000000E+00 0. -1.
         -4    1    3    3    0  502 -0.37818402948E+03 -0.25133471667E+03  0.14279876481E+04  0.14984462029E+04  0.00000000000E+00 0. -1.
</event>
<event>
 6    1  0.2569591E-005  0.9081527E+03  0.7818608E-02  0.9233576E-01
         21   -1    0    0  501  502  0.00000000000E+00  0.00000000000E+00  0.34632021530E+03  0.34632021530E+03  0.00000000000E+00 0.  1.
         -4   -1    0    0    0  501 -0.00000000000E+00 -0.00000000000E+00 -0.91421216012E+03  0.91421216012E+03  0.00000000000E+00 0. -1.
   -9000010    2    1    2    0  502  0.12371751376E+03 -0.16773579009E+03 -0.52067367608E+03  0.10468248778E+04  0.88391172030E+03 0.  0.
        -13    1    1    2    0    0 -0.12371751376E+03  0.16773579009E+03 -0.47218268741E+02  0.21370749765E+03  0.10566000000E+00 0.  1.
         13    1    3    3    0    0 -0.32366853181E+03 -0.25250813016E+03 -0.90408246628E+02  0.42035144403E+03  0.10566000000E+00 0. -1.
         -4    1    3    3    0  502  0.44738604556E+03  0.84772340077E+02 -0.43026542945E+03  0.62647343374E+03  0.00000000000E+00 0. -1.
</event>
<event>
 6    1  0.2569591E-005  0.1381858E+04  0.7818608E-02  0.8560273E-01
         -4   -1    0    0    0  501 -0.00000000000E+00  0.00000000000E+00  0.30647091193E+04  0.30647091193E+04  0.00000000000E+00 0. -1.
         21   -1    0    0  501  502  0.00000000000E+00 -0.00000000000E+00 -0.44984203717E+03  0.44984203717E+03  0.00000000000E+00 0.  1.
   -9000010    2    1    2    0  502  0.74305205778E+03  0.61669039164E+03  0.14933435555E+04  0.20346023629E+04  0.98848287826E+03 0.  0.
        -13    1    1    2    0    0 -0.74305205778E+03 -0.61669039164E+03  0.11215235267E+04  0.14799487937E+04  0.10566000000E+00 0.  1.
         13    1    3    3    0    0 -0.12462433815E+03  0.45726186105E+03  0.71680301960E+03  0.85931729606E+03  0.10566000000E+00 0. -1.
         -4    1    3    3    0  502  0.86767639593E+03  0.15942853059E+03  0.77654053585E+03  0.11752850668E+04  0.00000000000E+00 0. -1.
</event>
<event>
 6    1  0.2569591E-005  0.1110667E+04  0.7818608E-02  0.8863552E-01
         21   -1    0    0  501  502  0.00000000000E+00  0.00000000000E+00  0.23135563416E+03  0.23135563416E+03  0.00000000000E+00 0. -1.
          4   -1    0    0  502    0 -0.00000000000E+00 -0.00000000000E+00 -0.38228100334E+04  0.38228100334E+04  0.00000000000E+00 0.  1.
    9000010    2    1    2  501    0  0.47096592227E+03 -0.17268522787E+03 -0.32818301147E+04  0.34646775026E+04  0.99093501688E+03 0.  0.
        -13    1    3    3    0    0  0.37256524991E+03  0.21573627373E+03 -0.52531876097E+03  0.67919571335E+03  0.10566000000E+00 0.  1.
         13    1    1    2    0    0 -0.47096592227E+03  0.17268522787E+03 -0.30962428459E+03  0.58948816497E+03  0.10566000000E+00 0. -1.
          4    1    3    3  501    0  0.98400672359E+02 -0.38842150159E+03 -0.27565113537E+04  0.27854817893E+04  0.00000000000E+00 0.  1.
</event>
<event>
 5    1  0.2569591E-005  0.3592940E+02  0.7818608E-02  0.1405179E+00
         -4   -1    0    0    0  501 -0.00000000000E+00  0.00000000000E+00  0.59377306162E+02  0.59377306162E+02  0.00000000000E+00 0. -1.
         21   -1    0    0  501  502  0.00000000000E+00 -0.00000000000E+00 -0.12153595489E+02  0.12153595489E+02  0.00000000000E+00 0.  1.
        -13    1    1    2    0    0 -0.16467784340E+02 -0.55730079855E+01  0.11375395655E+02  0.20776359870E+02  0.10566000000E+00 0.  1.
         13    1    1    2    0    0  0.23916332508E+02 -0.35199076984E+01  0.23945041041E+02  0.34025826446E+02  0.10566000000E+00 0. -1.
         -4    1    1    2    0  502 -0.74485481674E+01  0.90929156839E+01  0.11903273977E+02  0.16728715336E+02  0.00000000000E+00 0. -1.
</event>
<event>
 5    1  0.2569591E-005  0.4990589E+03  0.7818608E-02  0.9494610E-01
          4   -1    0    0  502    0 -0.00000000000E+00  0.00000000000E+00  0.13360868619E+04  0.13360868619E+04  0.00000000000E+00 0.  1.
         21   -1    0    0  501  502  0.00000000000E+00 -0.00000000000E+00 -0.18287889558E+03  0.18287889558E+03  0.00000000000E+00 0. -1.
        -13    1    1    2    0    0  0.43813976848E+03 -0.46341595163E+02  0.44032137709E+03  0.62289399295E+03  0.10566000000E+00 0.  1.
         13    1    1    2    0    0 -0.46489912382E+03  0.88543226928E+02  0.69912088207E+03  0.84423996427E+03  0.10566000000E+00 0. -1.
          4    1    1    2  501    0  0.26759355343E+02 -0.42201631765E+02  0.13765707119E+02  0.51831800224E+02  0.00000000000E+00 0.  1.
</event>
<event>
 6    1  0.2569591E-005  0.1393091E+04  0.7818608E-02  0.8575766E-01
          4   -1    0    0  502    0 -0.00000000000E+00  0.00000000000E+00  0.12356451393E+04  0.12356451393E+04  0.00000000000E+00 0.  1.
         21   -1    0    0  501  502  0.00000000000E+00 -0.00000000000E+00 -0.11208877591E+04  0.11208877591E+04  0.00000000000E+00 0. -1.
    9000010    2    1    2  501    0 -0.20738149905E+03  0.85463855499E+03 -0.22996508073E+03  0.14119442408E+04  0.10804112434E+04 0.  0.
        -13    1    3    3    0    0 -0.31310831291E+03 -0.17063078536E+03 -0.11589789977E+03  0.37494534917E+03  0.10566000000E+00 0.  1.
         13    1    1    2    0    0  0.20738149905E+03 -0.85463855499E+03  0.34472246102E+03  0.94458865763E+03  0.10566000000E+00 0. -1.
          4    1    3    3  501    0  0.10572681386E+03  0.10252693403E+04 -0.11406718096E+03  0.10369988916E+04  0.00000000000E+00 0.  1.
</event>
<event>
 5    1  0.2569591E-005  0.1429691E+03  0.7818608E-02  0.1111454E+00
         21   -1    0    0  501  502  0.00000000000E+00  0.00000000000E+00  0.50706457659E+02  0.50706457659E+02  0.00000000000E+00 0.  1.
         -4   -1    0    0    0  501 -0.00000000000E+00 -0.00000000000E+00 -0.41601759169E+03  0.41601759169E+03  0.00000000000E+00 0. -1.
        -13    1    1    2    0    0 -0.74331106921E+02  0.10826080388E+03 -0.98983424185E+02  0.16444830355E+03  0.10566000000E+00 0.  1.
         13    1    1    2    0    0  0.58162562057E+02 -0.11081163950E+03 -0.24739746412E+03  0.27725010278E+03  0.10566000000E+00 0. -1.
         -4    1    1    2    0  502  0.16168544864E+02  0.25508356274E+01 -0.18930245727E+02  0.25025643023E+02  0.00000000000E+00 0. -1.
</event>
<event>
 5    1  0.2569591E-005  0.1660098E+03  0.7818608E-02  0.1111187E+00
          4   -1    0    0  502    0 -0.00000000000E+00  0.00000000000E+00  0.10429773374E+03  0.10429773374E+03  0.00000000000E+00 0.  1.
         21   -1    0    0  501  502  0.00000000000E+00 -0.00000000000E+00 -0.18390946550E+03  0.18390946550E+03  0.00000000000E+00 0. -1.
        -13    1    1    2    0    0 -0.28157067267E+02  0.10429028647E+03 -0.84641240089E+01  0.10835560368E+03  0.10566000000E+00 0.  1.
         13    1    1    2    0    0  0.60266531698E+02 -0.59196729791E+02 -0.88000881839E+02  0.12198554844E+03  0.10566000000E+00 0. -1.
          4    1    1    2  501    0 -0.32109464431E+02 -0.45093556683E+02  0.16853274091E+02  0.57866047108E+02  0.00000000000E+00 0.  1.
</event>
<event>
 5    1  0.2569591E-005  0.1841630E+03  0.7818608E-02  0.1076445E+00
          4   -1    0    0  502    0 -0.00000000000E+00  0.00000000000E+00  0.17155664844E+04  0.17155664844E+04  0.00000000000E+00 0.  1.
         21   -1    0    0  501  502  0.00000000000E+00 -0.00000000000E+00 -0.20786498415E+02  0.20786498415E+02  0.00000000000E+00 0. -1.
        -13    1    1    2    0    0 -0.56631398412E+02  0.37717299904E+02  0.38482670780E+03  0.39079574742E+03  0.10566000000E+00 0.  1.
         13    1    1    2    0    0  0.51280553983E+02 -0.15192629574E+03  0.44357623886E+03  0.47166851220E+03  0.10566000000E+00 0. -1.
          4    1    1    2  501    0  0.53508444288E+01  0.11420899584E+03  0.86637703932E+03  0.87388872320E+03  0.00000000000E+00 0.  1.
</event>
<event>
 5    1  0.2569591E-005  0.4542033E+02  0.7818608E-02  0.1379471E+00
         -4   -1    0    0    0  501 -0.00000000000E+00  0.00000000000E+00  0.16190343352E+02  0.16190343352E+02  0.00000000000E+00 0. -1.
         21   -1    0    0  501  502  0.00000000000E+00 -0.00000000000E+00 -0.55315488821E+02  0.55315488821E+02  0.00000000000E+00 0. -1.
        -13    1    1    2    0    0 -0.27038676647E+00  0.13289192737E+02 -0.15120247238E+02  0.20132282364E+02  0.10566000000E+00 0.  1.
         13    1    1    2    0    0 -0.19015412862E+02 -0.11362131886E+02 -0.23049264528E+02  0.31968167396E+02  0.10566000000E+00 0. -1.
         -4    1    1    2    0  502  0.19285799628E+02 -0.19270608508E+01 -0.95563370328E+00  0.19405382413E+02  0.00000000000E+00 0. -1.
</event>
<event>
 6    1  0.2569591E-005  0.1231219E+04  0.7818608E-02  0.8712317E-01
         -4   -1    0    0    0  501 -0.00000000000E+00  0.00000000000E+00  0.13847428260E+04  0.13847428260E+04  0.00000000000E+00 0. -1.
         21   -1    0    0  501  502  0.00000000000E+00 -0.00000000000E+00 -0.69927189056E+03  0.69927189056E+03  0.00000000000E+00 0.  1.
   -9000010    2    1    2    0  502 -0.65206517139E+02 -0.69668267565E+03  0.23963303038E+03  0.12543219486E+04  0.10130552409E+04 0.  0.
        -13    1    1    2    0    0  0.65206517139E+02  0.69668267565E+03  0.44583790510E+03  0.82969276797E+03  0.10566000000E+00 0.  1.
         13    1    3    3    0    0 -0.37644327509E+03  0.57723855844E+02 -0.58849282286E+02  0.38536324693E+03  0.10566000000E+00 0. -1.
         -4    1    3    3    0  502  0.31123675795E+03 -0.75440653150E+03  0.29848231266E+03  0.86895870169E+03  0.00000000000E+00 0. -1.
</event>
<event>
 5    1  0.2569591E-005  0.3909949E+02  0.7818608E-02  0.1374175E+00
         21   -1    0    0  501  502  0.00000000000E+00  0.00000000000E+00  0.52638427264E+02  0.52638427264E+02  0.00000000000E+00 0. -1.
          4   -1    0    0  502    0 -0.00000000000E+00 -0.00000000000E+00 -0.18903420445E+02  0.18903420445E+02  0.00000000000E+00 0.  1.
        -13    1    1    2    0    0  0.64445925691E+01  0.16262217939E+02  0.18795576266E+02  0.25676396883E+02  0.10566000000E+00 0.  1.
         13    1    1    2    0    0 -0.20565095194E+02 -0.99277870175E+01  0.19176142085E+02  0.29819786799E+02  0.10566000000E+00 0. -1.
          4    1    1    2  501    0  0.14120502625E+02 -0.63344309217E+01 -0.42367115327E+01  0.16045664028E+02  0.00000000000E+00 0.  1.
</event>
<event>
 6    1  0.2569591E-005  0.1253547E+04  0.7818608E-02  0.8720638E-01
         21   -1    0    0  501  502  0.00000000000E+00  0.00000000000E+00  0.37166123125E+03  0.37166123125E+03  0.00000000000E+00 0.  1.
          4   -1    0    0  502    0 -0.00000000000E+00 -0.00000000000E+00 -0.24499460858E+04  0.24499460858E+04  0.00000000000E+00 0.  1.
    9000010    2    1    2  501    0  0.53576846276E+03 -0.34939283252E+03 -0.15394424033E+04  0.19852614582E+04  0.10780802138E+04 0.  0.
        -13    1    3    3    0    0  0.67862297649E+03 -0.51491013868E+03 -0.65602041576E+03  0.10751857478E+04  0.10566000000E+00 0.  1.
         13    1    1    2    0    0 -0.53576846276E+03  0.34939283252E+03 -0.53884245123E+03  0.83634585879E+03  0.10566000000E+00 0. -1.
          4    1    3    3  501    0 -0.14285451373E+03  0.16551730616E+03 -0.88342198752E+03  0.91007571045E+03  0.00000000000E+00 0.  1.
</event>
<event>
 5    1  0.2569591E-005  0.1301591E+03  0.7818608E-02  0.1131470E+00
         -4   -1    0    0    0  501 -0.00000000000E+00  0.00000000000E+00  0.19807367151E+03  0.19807367151E+03  0.00000000000E+00 0. -1.
         21   -1    0    0  501  502  0.00000000000E+00 -0.00000000000E+00 -0.84459107631E+02  0.84459107631E+02  0.00000000000E+00 0.  1.
        -13    1    1    2    0    0  0.96002112717E+02  0.38098711653E+02 -0.90493840762E+01  0.10368133869E+03  0.10566000000E+00 0.  1.
         13    1    1    2    0    0 -0.71706439138E+02 -0.52524598106E+02  0.12153874714E+03  0.15057332114E+03  0.10566000000E+00 0. -1.
         -4    1    1    2    0  502 -0.24295673579E+02  0.14425886454E+02  0.11252008113E+01  0.28278119306E+02  0.00000000000E+00 0. -1.
</event>
<event>
 6    1  0.2569591E-005  0.1102346E+04  0.7818608E-02  0.8973767E-01
          4   -1    0    0  502    0 -0.00000000000E+00  0.00000000000E+00  0.19007815752E+04  0.19007815752E+04  0.00000000000E+00 0.  1.
         21   -1    0    0  501  502  0.00000000000E+00 -0.00000000000E+00 -0.32685356782E+03  0.32685356782E+03  0.00000000000E+00 0.  1.
    9000010    2    1    2  501    0 -0.17930484408E+03 -0.27194300589E+03  0.72769110466E+03  0.13208715949E+04  0.10531211710E+04 0.  0.
        -13    1    3    3    0    0  0.39252108476E+03  0.41333564771E+02  0.48464080524E+03  0.62502638891E+03  0.10566000000E+00 0.  1.
         13    1    1    2    0    0  0.17930484408E+03  0.27194300589E+03  0.84623690270E+03  0.90676354813E+03  0.10566000000E+00 0. -1.
          4    1    3    3  501    0 -0.57182592883E+03 -0.31327657067E+03  0.24305029941E+03  0.69584520596E+03  0.00000000000E+00 0.  1.
</event>
<event>
 6    1  0.2569591E-005  0.1202529E+04  0.7818608E-02  0.8733379E-01
         21   -1    0    0  501  502  0.00000000000E+00  0.00000000000E+00  0.11810943870E+04  0.11810943870E+04  0.00000000000E+00 0.  1.
         -4   -1    0    0    0  501 -0.00000000000E+00 -0.00000000000E+00 -0.20473097727E+04  0.20473097727E+04  0.00000000000E+00 0. -1.
   -9000010    2    1    2    0  502 -0.50011243869E+03  0.46940447929E+03  0.78794144506E+03  0.14376814428E+04  0.98773639890E+03 0.  0.
        -13    1    1    2    0    0  0.50011243869E+03 -0.46940447929E+03 -0.16541568308E+04  0.17907227169E+04  0.10566000000E+00 0.  1.
         13    1    3    3    0    0 -0.27342104562E+03  0.52826774945E+01  0.87243443467E+03  0.91429143539E+03  0.10566000000E+00 0. -1.
         -4    1    3    3    0  502 -0.22669139307E+03  0.46412180179E+03 -0.84492989609E+02  0.52339000744E+03  0.00000000000E+00 0. -1.
</event>
<event>
 6    1  0.2569591E-005  0.1184991E+04  0.7818608E-02  0.8752313E-01
         21   -1    0    0  501  502  0.00000000000E+00  0.00000000000E+00  0.87988415413E+03  0.87988415413E+03  0.00000000000E+00 0. -1.
         -4   -1    0    0    0  501 -0.00000000000E+00 -0.00000000000E+00 -0.11229979297E+04  0.11229979297E+04  0.00000000000E+00 0. -1.
   -9000010    2    1    2    0  502  0.44712865298E+03 -0.48671286763E+03  0.20742451371E+03  0.12030082131E+04  0.98356005613E+03 0.  0.
        -13    1    1    2    0    0 -0.44712865298E+03  0.48671286763E+03 -0.45053828929E+03  0.79987387076E+03  0.10566000000E+00 0.  1.
         13    1    3    3    0    0  0.33915382491E+03 -0.40463050208E+03  0.59317481676E+03  0.79410801190E+03  0.10566000000E+00 0. -1.
         -4    1    3    3    0  502  0.10797482808E+03 -0.82082365554E+02 -0.38575030304E+03  0.40890020119E+03  0.00000000000E+00 0. -1.
</event>
<event>
 5    1  0.2569591E-005  0.2671074E+03  0.7818608E-02  0.1045282E+00
         -4   -1    0    0    0  501 -0.00000000000E+00  0.00000000000E+00  0.92288694592E+03  0.92288694592E+03  0.00000000000E+00 0. -1.
         21   -1    0    0  501  502  0.00000000000E+00 -0.00000000000E+00 -0.57718272141E+02  0.57718272141E+02  0.00000000000E+00 0.  1.
        -13    1    1    2    0    0  0.17716533694E+02 -0.12908612019E+03  0.83985182849E+02  0.15501814117E+03  0.10566000000E+00 0.  1.
         13    1    1    2    0    0 -0.90363810306E+02  0.16174549737E+03  0.59213330216E+03  0.62044265071E+03  0.10566000000E+00 0. -1.
         -4    1    1    2    0  502  0.72647276612E+02 -0.32659377178E+02  0.18905018878E+03  0.20514442618E+03  0.00000000000E+00 0. -1.
</event>
<event>
 5    1  0.2569591E-005  0.2363372E+03  0.7818608E-02  0.1038306E+00
          4   -1    0    0  502    0 -0.00000000000E+00  0.00000000000E+00  0.50083398325E+03  0.50083398325E+03  0.00000000000E+00 0.  1.
         21   -1    0    0  501  502  0.00000000000E+00 -0.00000000000E+00 -0.54567197463E+03  0.54567197463E+03  0.00000000000E+00 0. -1.
        -13    1    1    2    0    0  0.10756551610E+03  0.19215843121E+03 -0.44046692866E+03  0.49244931653E+03  0.10566000000E+00 0.  1.
         13    1    1    2    0    0 -0.12032652577E+03 -0.19860326768E+03  0.44538671428E+03  0.50228584208E+03  0.10566000000E+00 0. -1.
          4    1    1    2  501    0  0.12761009665E+02  0.64448364663E+01 -0.49757776994E+02  0.51770799261E+02  0.00000000000E+00 0.  1.
</event>
<event>
 6    1  0.2569591E-005  0.1053404E+04  0.7818608E-02  0.9029666E-01
         -4   -1    0    0    0  501 -0.00000000000E+00  0.00000000000E+00  0.33653448049E+03  0.33653448049E+03  0.00000000000E+00 0. -1.
         21   -1    0    0  501  502  0.00000000000E+00 -0.00000000000E+00 -0.13818484128E+04  0.13818484128E+04  0.00000000000E+00 0. -1.
   -9000010    2    1    2    0  502  0.21174739063E+03  0.20931855866E+03 -0.90702747163E+03  0.13900928191E+04  0.10104494025E+04 0.  0.
        -13    1    1    2    0    0 -0.21174739063E+03 -0.20931855866E+03 -0.13828646073E+03  0.32829007420E+03  0.10566000000E+00 0.  1.
         13    1    3    3    0    0 -0.24700553968E+03  0.21359767782E+03 -0.87065601405E+03  0.92988042811E+03  0.10566000000E+00 0. -1.
         -4    1    3    3    0  502  0.45875293031E+03 -0.42791191615E+01 -0.36371457578E+02  0.46021239102E+03  0.00000000000E+00 0. -1.
</event>
<event>
 6    1  0.2569591E-005  0.1024373E+04  0.7818608E-02  0.9036878E-01
         -4   -1    0    0    0  501 -0.00000000000E+00  0.00000000000E+00  0.29456462345E+04  0.29456462345E+04  0.00000000000E+00 0. -1.
         21   -1    0    0  501  502  0.00000000000E+00 -0.00000000000E+00 -0.16635494534E+03  0.16635494534E+03  0.00000000000E+00 0. -1.
   -9000010    2    1    2    0  502  0.30977552074E+03 -0.54535393951E+02  0.16715033253E+04  0.19604243624E+04  0.97488734311E+03 0.  0.
        -13    1    1    2    0    0 -0.30977552074E+03  0.54535393951E+02  0.11077879638E+04  0.11515768174E+04  0.10566000000E+00 0.  1.
         13    1    3    3    0    0  0.11342928480E+03  0.42659286632E+03  0.43760999118E+03  0.62157074561E+03  0.10566000000E+00 0. -1.
         -4    1    3    3    0  502  0.19634623594E+03 -0.48112826028E+03  0.12338933342E+04  0.13388536168E+04  0.00000000000E+00 0. -1.
</event>
<event>
 6    1  0.2569591E-005  0.1004480E+04  0.7818608E-02  0.9245173E-01
         21   -1    0    0  501  502  0.00000000000E+00  0.00000000000E+00  0.22954346474E+03  0.22954346474E+03  0.00000000000E+00 0.  1.
          4   -1    0    0  502    0 -0.00000000000E+00 -0.00000000000E+00 -0.14625897826E+04  0.14625897826E+04  0.00000000000E+00 0.  1.
    9000010    2    1    2  501    0 -0.84210124218E+02  0.12087865739E+03 -0.10071039838E+04  0.14224057102E+04  0.99361792218E+03 0.  0.
        -13    1    3    3    0    0 -0.19678541531E+03  0.15260516776E+03  0.12889287984E+03  0.28040367783E+03  0.10566000000E+00 0.  1.
         13    1    1    2    0    0  0.84210124218E+02 -0.12087865739E+03 -0.22594233400E+03  0.26972753714E+03  0.10566000000E+00 0. -1.
          4    1    3    3  501    0  0.11257529109E+03 -0.31726510369E+02 -0.11359968637E+04  0.11420020324E+04  0.00000000000E+00 0.  1.
</event>
<event>
 6    1  0.2569591E-005  0.1066752E+04  0.7818608E-02  0.8964309E-01
          4   -1    0    0  502    0 -0.00000000000E+00  0.00000000000E+00  0.32368280382E+04  0.32368280382E+04  0.00000000000E+00 0.  1.
         21   -1    0    0  501  502  0.00000000000E+00 -0.00000000000E+00 -0.16193659981E+03  0.16193659981E+03  0.00000000000E+00 0. -1.
    9000010    2    1    2  501    0  0.33914992735E+03 -0.15661585547E+03  0.24228450626E+04  0.26472889652E+04  0.99920441792E+03 0.  0.
        -13    1    3    3    0    0 -0.16618024808E+03 -0.44195950282E+03  0.87567805264E+03  0.99486488531E+03  0.10566000000E+00 0.  1.
         13    1    1    2    0    0 -0.33914992735E+03  0.15661585547E+03  0.65204637580E+03  0.75147567277E+03  0.10566000000E+00 0. -1.
          4    1    3    3  501    0  0.50533017543E+03  0.28534364734E+03  0.15471670099E+04  0.16524240799E+04  0.00000000000E+00 0.  1.
</event>
<event>
 5    1  0.2569591E-005  0.1895754E+03  0.7818608E-02  0.1075219E+00
         21   -1    0    0  501  502  0.00000000000E+00  0.00000000000E+00  0.17824109206E+03  0.17824109206E+03  0.00000000000E+00 0. -1.
          4   -1    0    0  502    0 -0.00000000000E+00 -0.00000000000E+00 -0.25360332153E+03  0.25360332153E+03  0.00000000000E+00 0.  1.
        -13    1    1    2    0    0  0.10881096436E+02  0.10304858521E+02 -0.84992165284E+02  0.86303346937E+02  0.10566000000E+00 0.  1.
         13    1    1    2    0    0  0.31909187403E+02 -0.14881492646E+03  0.92947637401E+02  0.17833494622E+03  0.10566000000E+00 0. -1.
          4    1    1    2  501    0 -0.42790283839E+02  0.13851006794E+03 -0.83317701590E+02  0.16720612043E+03  0.00000000000E+00 0.  1.
</event>
<event>
 6    1  0.2569591E-005  0.1226168E+04  0.7818608E-02  0.8711716E-01
         -4   -1    0    0    0  501 -0.00000000000E+00  0.00000000000E+00  0.14145357775E+04  0.14145357775E+04  0.00000000000E+00 0. -1.
         21   -1    0    0  501  502  0.00000000000E+00 -0.00000000000E+00 -0.81052161948E+03  0.81052161948E+03  0.00000000000E+00 0.  1.
   -9000010    2    1    2    0  502 -0.67040760039E+03 -0.23454599297E+03  0.82889767207E+03  0.14800535181E+04  0.99951432817E+03 0.  0.
        -13    1    1    2    0    0  0.67040760039E+03  0.23454599297E+03 -0.22488351405E+03  0.74500387887E+03  0.10566000000E+00 0.  1.
         13    1    3    3    0    0 -0.92636796213E+03 -0.18907326333E+03  0.52987486136E+03  0.10838236388E+04  0.10566000000E+00 0. -1.
         -4    1    3    3    0  502  0.25596036174E+03 -0.45472729638E+02  0.29902281071E+03  0.39622987930E+03  0.00000000000E+00 0. -1.
</event>
<event>
 5    1  0.2569591E-005  0.1105055E+03  0.7818608E-02  0.1185363E+00
          4   -1    0    0  502    0 -0.00000000000E+00  0.00000000000E+00  0.25752530641E+03  0.25752530641E+03  0.00000000000E+00 0.  1.
         21   -1    0    0  501  502  0.00000000000E+00 -0.00000000000E+00 -0.47244661259E+02  0.47244661259E+02  0.00000000000E+00 0.  1.
        -13    1    1    2    0    0 -0.45482862318E+02 -0.55181300634E+02  0.10350745980E+03  0.12580728160E+03  0.10566000000E+00 0.  1.
         13    1    1    2    0    0  0.24794710676E+02  0.37803302573E+02 -0.19932516809E+02  0.49408336880E+02  0.10566000000E+00 0. -1.
          4    1    1    2  501    0  0.20688151642E+02  0.17377998061E+02  0.12670570216E+03  0.12955434920E+03  0.00000000000E+00 0.  1.
</event>
<event>
 6    1  0.2569591E-005  0.1069267E+04  0.7818608E-02  0.9011564E-01
         21   -1    0    0  501  502  0.00000000000E+00  0.00000000000E+00  0.17262205170E+03  0.17262205170E+03  0.00000000000E+00 0. -1.
         -4   -1    0    0    0  501 -0.00000000000E+00 -0.00000000000E+00 -0.27721834529E+04  0.27721834529E+04  0.00000000000E+00 0. -1.
   -9000010    2    1    2    0  502  0.23387450163E+03  0.19766500411E+03 -0.18801853220E+04  0.21629674838E+04  0.10244817004E+04 0.  0.
        -13    1    1    2    0    0 -0.23387450163E+03 -0.19766500411E+03 -0.71937607915E+03  0.78183802080E+03  0.10566000000E+00 0.  1.
         13    1    3    3    0    0  0.55976968530E+03  0.19095927639E+03 -0.60220858373E+03  0.84407507682E+03  0.10566000000E+00 0. -1.
         -4    1    3    3    0  502 -0.32589518367E+03  0.67057277181E+01 -0.12779767383E+04  0.13188924070E+04  0.00000000000E+00 0. -1.
</event>
<event>
 6    1  0.2569591E-005  0.1004658E+04  0.7818608E-02  0.9306500E-01
         21   -1    0    0  501  502  0.00000000000E+00  0.00000000000E+00  0.13668357910E+03  0.13668357910E+03  0.00000000000E+00 0. -1.
         -4   -1    0    0    0  501 -0.00000000000E+00 -0.00000000000E+00 -0.24775210807E+04  0.24775210807E+04  0.00000000000E+00 0. -1.
   -9000010    2    1    2    0  502  0.12142186756E+02  0.11592486564E+03 -0.22573718264E+04  0.24708430985E+04  0.99787376321E+03 0.  0.
        -13    1    1    2    0    0 -0.12142186756E+02 -0.11592486564E+03 -0.83465675178E+02  0.14336156134E+03  0.10566000000E+00 0.  1.
         13    1    3    3    0    0 -0.70448132223E+02  0.30947630162E+03 -0.14661187312E+03  0.34961918297E+03  0.10566000000E+00 0. -1.
         -4    1    3    3    0  502  0.82590318979E+02 -0.19355143597E+03 -0.21107599533E+04  0.21212239155E+04  0.00000000000E+00 0. -1.
</event>
<event>
 6    1  0.2569591E-005  0.1128198E+04  0.7818608E-02  0.8823259E-01
          4   -1    0    0  502    0 -0.00000000000E+00  0.00000000000E+00  0.79418685176E+03  0.79418685176E+03  0.00000000000E+00 0.  1.
         21   -1    0    0  501  502  0.00000000000E+00 -0.00000000000E+00 -0.12922793515E+04  0.12922793515E+04  0.00000000000E+00 0. -1.
    9000010    2    1    2  501    0 -0.39128713562E+03 -0.40991513097E+03 -0.85603237961E+03  0.14161998339E+04  0.97554830608E+03 0.  0.
        -13    1    3    3    0    0  0.40596957342E+02 -0.61000846890E+03 -0.66498167897E+03  0.90330453868E+03  0.10566000000E+00 0.  1.
         13    1    1    2    0    0  0.39128713562E+03  0.40991513097E+03  0.35793987989E+03  0.67026636935E+03  0.10566000000E+00 0. -1.
          4    1    3    3  501    0 -0.43188409296E+03  0.20009333794E+03 -0.19105070064E+03  0.51289529522E+03  0.00000000000E+00 0.  1.
</event>
<event>
 6    1  0.2569591E-005  0.1056893E+04  0.7818608E-02  0.9024557E-01
         21   -1    0    0  501  502  0.00000000000E+00  0.00000000000E+00  0.10350580070E+04  0.10350580070E+04  0.00000000000E+00 0.  1.
         -4   -1    0    0    0  501 -0.00000000000E+00 -0.00000000000E+00 -0.56131644727E+03  0.56131644727E+03  0.00000000000E+00 0. -1.
   -9000010    2    1    2    0  502 -0.29283666852E+03 -0.69295849652E+02  0.26382480693E+02  0.10572219842E+04  0.10131471065E+04 0.  0.
        -13    1    1    2    0    0  0.29283666852E+03  0.69295849652E+02  0.44735907900E+03  0.53915247002E+03  0.10566000000E+00 0.  1.
         13    1    3    3    0    0 -0.57852500267E+03 -0.15766673271E+03  0.28310539960E+03  0.66309777240E+03  0.10566000000E+00 0. -1.
         -4    1    3    3    0  502  0.28568833415E+03  0.88370883058E+02 -0.25672291890E+03  0.39412421181E+03  0.00000000000E+00 0. -1.
</event>
<event>
 5    1  0.2569591E-005  0.6362129E+03  0.7818608E-02  0.9292602E-01
          4   -1    0    0  502    0 -0.00000000000E+00  0.00000000000E+00  0.22526330903E+04  0.22526330903E+04  0.00000000000E+00 0.  1.
         21   -1    0    0  501  502  0.00000000000E+00 -0.00000000000E+00 -0.14384663729E+03  0.14384663729E+03  0.00000000000E+00 0. -1.
        -13    1    1    2    0    0  0.21442842657E+03 -0.11293517419E+03  0.82029531571E+03  0.85534690029E+03  0.10566000000E+00 0.  1.
         13    1    1    2    0    0 -0.47945347262E+03  0.64762470678E+02  0.11284946945E+04  0.12278314610E+04  0.10566000000E+00 0. -1.
          4    1    1    2  501    0  0.26502504605E+03  0.48172703508E+02  0.15999644280E+03  0.31330136627E+03  0.00000000000E+00 0.  1.
</event>
<event>
 6    1  0.2569591E-005  0.1211217E+04  0.7818608E-02  0.8717979E-01
         21   -1    0    0  501  502  0.00000000000E+00  0.00000000000E+00  0.56888026729E+03  0.56888026729E+03  0.00000000000E+00 0.  1.
          4   -1    0    0  502    0 -0.00000000000E+00 -0.00000000000E+00 -0.16848278414E+04  0.16848278414E+04  0.00000000000E+00 0.  1.
    9000010    2    1    2  501    0  0.29390286634E+03  0.65425142918E+03 -0.50781623485E+03  0.13133637226E+04  0.97602413499E+03 0.  0.
        -13    1    3    3    0    0  0.14789500134E+03  0.48404076878E+03  0.21992986349E+03  0.55184921245E+03  0.10566000000E+00 0.  1.
         13    1    1    2    0    0 -0.29390286634E+03 -0.65425142918E+03 -0.60813133922E+03  0.94034438603E+03  0.10566000000E+00 0. -1.
          4    1    3    3  501    0  0.14600786501E+03  0.17021066040E+03 -0.72774609834E+03  0.76151451017E+03  0.00000000000E+00 0.  1.
</event>
<event>
 6    1  0.2569591E-005  0.1005672E+04  0.7818608E-02  0.9182616E-01
          4   -1    0    0  502    0 -0.00000000000E+00  0.00000000000E+00  0.62890921340E+03  0.62890921340E+03  0.00000000000E+00 0.  1.
         21   -1    0    0  501  502  0.00000000000E+00 -0.00000000000E+00 -0.75395132928E+03  0.75395132928E+03  0.00000000000E+00 0. -1.
    9000010    2    1    2  501    0 -0.15666455166E+03  0.10195221321E+03 -0.37276165054E+03  0.10725332726E+04  0.98814894487E+03 0.  0.
        -13    1    3    3    0    0 -0.37535329284E+03 -0.32001420820E+03 -0.33397749654E+03  0.59568462062E+03  0.10566000000E+00 0.  1.
         13    1    1    2    0    0  0.15666455166E+03 -0.10195221321E+03  0.24771953466E+03  0.31032727006E+03  0.10566000000E+00 0. -1.
          4    1    3    3  501    0  0.21868874118E+03  0.42196642141E+03 -0.38784154000E+02  0.47684865200E+03  0.00000000000E+00 0.  1.
</event>
<event>
 6    1  0.2569591E-005  0.1041097E+04  0.7818608E-02  0.9044446E-01
         21   -1    0    0  501  502  0.00000000000E+00  0.00000000000E+00  0.36644413195E+03  0.36644413195E+03  0.00000000000E+00 0.  1.
          4   -1    0    0  502    0 -0.00000000000E+00 -0.00000000000E+00 -0.12801546425E+04  0.12801546425E+04  0.00000000000E+00 0.  1.
    9000010    2    1    2  501    0 -0.14768008330E+03 -0.25035999093E+03 -0.53895241227E+03  0.11723275699E+04  0.99969630210E+03 0.  0.
        -13    1    3    3    0    0 -0.73265529114E+02 -0.56136148009E+03 -0.24580076491E+02  0.56665575123E+03  0.10566000000E+00 0.  1.
         13    1    1    2    0    0  0.14768008330E+03  0.25035999093E+03 -0.37475809829E+03  0.47427120454E+03  0.10566000000E+00 0. -1.
          4    1    3    3  501    0 -0.74414554183E+02  0.31100148916E+03 -0.51437233578E+03  0.60567181869E+03  0.00000000000E+00 0.  1.
</event>
<event>
 6    1  0.2569591E-005  0.1005274E+04  0.7818608E-02  0.9085597E-01
         21   -1    0    0  501  502  0.00000000000E+00  0.00000000000E+00  0.35683957059E+03  0.35683957059E+03  0.00000000000E+00 0.  1.
          4   -1    0    0  502    0 -0.00000000000E+00 -0.00000000000E+00 -0.12215074774E+04  0.12215074774E+04  0.00000000000E+00 0.  1.
    9000010    2    1    2  501    0 -0.13973336542E+03 -0.23568808951E+03 -0.50152760298E+03  0.11234347703E+04  0.96721324311E+03 0.  0.
        -13    1    3    3    0    0 -0.49129386887E+03  0.19939271346E+02 -0.46079035425E+02  0.49385274000E+03  0.10566000000E+00 0.  1.
         13    1    1    2    0    0  0.13973336542E+03  0.23568808951E+03 -0.36314030381E+03  0.45491227766E+03  0.10566000000E+00 0. -1.
          4    1    3    3  501    0  0.35156050345E+03 -0.25562736086E+03 -0.45544856756E+03  0.62958203032E+03  0.00000000000E+00 0.  1.
</event>
<event>
 6    1  0.2569591E-005  0.1089273E+04  0.7818608E-02  0.9261515E-01
         21   -1    0    0  501  502  0.00000000000E+00  0.00000000000E+00  0.17871901387E+03  0.17871901387E+03  0.00000000000E+00 0. -1.
         -4   -1    0    0    0  501 -0.00000000000E+00 -0.00000000000E+00 -0.26688019920E+04  0.26688019920E+04  0.00000000000E+00 0. -1.
   -9000010    2    1    2    0  502  0.38508263717E+02  0.10145460354E+03 -0.25109286176E+04  0.27370199887E+04  0.10838542212E+04 0.  0.
        -13    1    1    2    0    0 -0.38508263717E+02 -0.10145460354E+03  0.20845639439E+02  0.11050101719E+03  0.10566000000E+00 0.  1.
         13    1    3    3    0    0  0.41936147501E+03  0.37772000863E+02 -0.36686644327E+03  0.55846375812E+03  0.10566000000E+00 0. -1.
         -4    1    3    3    0  502 -0.38085321129E+03  0.63682602673E+02 -0.21440621743E+04  0.21785562305E+04  0.00000000000E+00 0. -1.
</event>
<event>
 6    1  0.2569591E-005  0.1164763E+04  0.7818608E-02  0.8782991E-01
         21   -1    0    0  501  502  0.00000000000E+00  0.00000000000E+00  0.78892972210E+03  0.78892972210E+03  0.00000000000E+00 0. -1.
         -4   -1    0    0    0  501 -0.00000000000E+00 -0.00000000000E+00 -0.11723851285E+04  0.11723851285E+04  0.00000000000E+00 0. -1.
   -9000010    2    1    2    0  502 -0.48035980154E+03 -0.37697594041E+03  0.11861700364E+03  0.11707877387E+04  0.99187576688E+03 0.  0.
        -13    1    1    2    0    0  0.48035980154E+03  0.37697594041E+03 -0.50207241004E+03  0.79052711191E+03  0.10566000000E+00 0.  1.
         13    1    3    3    0    0  0.40063977946E+01 -0.43097888254E+03  0.41669399977E+03  0.59949374394E+03  0.10566000000E+00 0. -1.
         -4    1    3    3    0  502 -0.48436619933E+03  0.54002942129E+02 -0.29807699613E+03  0.57129399475E+03  0.00000000000E+00 0. -1.
</event>
<event>
 6    1  0.2569591E-005  0.1068441E+04  0.7818608E-02  0.8962132E-01
          4   -1    0    0  502    0 -0.00000000000E+00  0.00000000000E+00  0.14152036593E+04  0.14152036593E+04  0.00000000000E+00 0.  1.
         21   -1    0    0  501  502  0.00000000000E+00 -0.00000000000E+00 -0.37119126846E+03  0.37119126846E+03  0.00000000000E+00 0. -1.
    9000010    2    1    2  501    0  0.37297721347E+03  0.39984772417E+02  0.69928194338E+03  0.12769345501E+04  0.10004278211E+04 0.  0.
        -13    1    3    3    0    0  0.21572754151E+03  0.22724219684E+03 -0.18200165891E+03  0.36235618279E+03  0.10566000000E+00 0.  1.
         13    1    1    2    0    0 -0.37297721347E+03 -0.39984772417E+02  0.34473044741E+03  0.50946037759E+03  0.10566000000E+00 0. -1.
          4    1    3    3  501    0  0.15724967196E+03 -0.18725742443E+03  0.88128360229E+03  0.91457836734E+03  0.00000000000E+00 0.  1.
</event>
<event>
 6    1  0.2569591E-005  0.1252014E+04  0.7818608E-02  0.8685331E-01
         21   -1    0    0  501  502  0.00000000000E+00  0.00000000000E+00  0.61024417284E+03  0.61024417284E+03  0.00000000000E+00 0.  1.
         -4   -1    0    0    0  501 -0.00000000000E+00 -0.00000000000E+00 -0.16629887096E+04  0.16629887096E+04  0.00000000000E+00 0. -1.
   -9000010    2    1    2    0  502  0.10717489583E+03 -0.74022409728E+03 -0.52387260520E+03  0.13571959271E+04  0.10040518440E+04 0.  0.
        -13    1    1    2    0    0 -0.10717489583E+03  0.74022409728E+03 -0.52887193160E+03  0.91603695542E+03  0.10566000000E+00 0.  1.
         13    1    3    3    0    0 -0.35281306942E+03  0.57647317771E+01 -0.27136233371E+03  0.44513798019E+03  0.10566000000E+00 0. -1.
         -4    1    3    3    0  502  0.45998796525E+03 -0.74598882906E+03 -0.25251027149E+03  0.91205794688E+03  0.00000000000E+00 0. -1.
</event>
<event>
 5    1  0.2569591E-005  0.1922830E+03  0.7818608E-02  0.1122952E+00
          4   -1    0    0  502    0 -0.00000000000E+00  0.00000000000E+00  0.11524313836E+03  0.11524313836E+03  0.00000000000E+00 0.  1.
         21   -1    0    0  501  502  0.00000000000E+00 -0.00000000000E+00 -0.25491565896E+03  0.25491565896E+03  0.00000000000E+00 0. -1.
        -13    1    1    2    0    0 -0.18712026393E+02  0.95683074983E+02  0.44661579981E+02  0.10723832645E+03  0.10566000000E+00 0.  1.
         13    1    1    2    0    0 -0.31117573226E+02 -0.24993029577E+02 -0.17077466011E+03  0.17537659647E+03  0.10566000000E+00 0. -1.
          4    1    1    2  501    0  0.49829599619E+02 -0.70690045406E+02 -0.13559440480E+02  0.87543874393E+02  0.00000000000E+00 0.  1.
</event>
<event>
 5    1  0.2569591E-005  0.1737130E+03  0.7818608E-02  0.1085010E+00
          4   -1    0    0  502    0 -0.00000000000E+00  0.00000000000E+00  0.74689422163E+03  0.74689422163E+03  0.00000000000E+00 0.  1.
         21   -1    0    0  501  502  0.00000000000E+00 -0.00000000000E+00 -0.46740648369E+02  0.46740648369E+02  0.00000000000E+00 0. -1.
        -13    1    1    2    0    0  0.45150067032E+02  0.11703962116E+03  0.54251203667E+03  0.55682683356E+03  0.10566000000E+00 0.  1.
         13    1    1    2    0    0 -0.44478920108E+02 -0.14350296519E+03  0.13360117288E+03  0.20104914800E+03  0.10566000000E+00 0. -1.
          4    1    1    2  501    0 -0.67114692319E+00  0.26463344025E+02  0.24040363712E+02  0.35758888442E+02  0.00000000000E+00 0.  1.
</event>
<event>
 5    1  0.2569591E-005  0.5384633E+03  0.7818608E-02  0.9414176E-01
         21   -1    0    0  501  502  0.00000000000E+00  0.00000000000E+00  0.12936269157E+03  0.12936269157E+03  0.00000000000E+00 0.  1.
         -4   -1    0    0    0  501 -0.00000000000E+00 -0.00000000000E+00 -0.22043269806E+04  0.22043269806E+04  0.00000000000E+00 0. -1.
        -13    1    1    2    0    0 -0.37264928631E+03 -0.34240692077E+03 -0.76356185742E+03  0.91604405530E+03  0.10566000000E+00 0.  1.
         13    1    1    2    0    0  0.38866094757E+03  0.31964943167E+03 -0.11715832789E+04  0.12750844999E+04  0.10566000000E+00 0. -1.
         -4    1    1    2    0  502 -0.16011661266E+02  0.22757489095E+02 -0.13981915275E+03  0.14256111700E+03  0.00000000000E+00 0. -1.
</event>
<event>
 6    1  0.2569591E-005  0.2027018E+04  0.7818608E-02  0.8186302E-01
         -4   -1    0    0    0  501 -0.00000000000E+00  0.00000000000E+00  0.28766837067E+04  0.28766837067E+04  0.00000000000E+00 0. -1.
         21   -1    0    0  501  502  0.00000000000E+00 -0.00000000000E+00 -0.12726402175E+04  0.12726402175E+04  0.00000000000E+00 0.  1.
   -9000010    2    1    2    0  502  0.68431152838E+02 -0.17582862449E+04  0.11563165336E+04  0.23336387148E+04  0.10062546317E+04 0.  0.
        -13    1    1    2    0    0 -0.68431152838E+02  0.17582862449E+04  0.44772695566E+03  0.18156852094E+04  0.10566000000E+00 0.  1.
         13    1    3    3    0    0 -0.19506066905E+03 -0.22336007917E+03 -0.12017674855E+03  0.31997007928E+03  0.10566000000E+00 0. -1.
         -4    1    3    3    0  502  0.26349182189E+03 -0.15349261657E+04  0.12764932822E+04  0.20136686355E+04  0.00000000000E+00 0. -1.
</event>
<event>
 6    1  0.2569591E-005  0.1163778E+04  0.7818608E-02  0.8789548E-01
         21   -1    0    0  501  502  0.00000000000E+00  0.00000000000E+00  0.42657113394E+03  0.42657113394E+03  0.00000000000E+00 0. -1.
         -4   -1    0    0    0  501 -0.00000000000E+00 -0.00000000000E+00 -0.18162306024E+04  0.18162306024E+04  0.00000000000E+00 0. -1.
   -9000010    2    1    2    0  502  0.32837616394E+03  0.49661466803E+03 -0.95914119192E+03  0.15080888461E+04  0.99996155328E+03 0.  0.
        -13    1    1    2    0    0 -0.32837616394E+03 -0.49661466803E+03 -0.43051827657E+03  0.73471289030E+03  0.10566000000E+00 0.  1.
         13    1    3    3    0    0 -0.38416549089E+01 -0.18903117421E+03  0.91681377576E+02  0.21012622229E+03  0.10566000000E+00 0. -1.
         -4    1    3    3    0  502  0.33221781885E+03  0.68564584224E+03 -0.10508225695E+04  0.12979626238E+04  0.00000000000E+00 0. -1.
</event>
<event>
 5    1  0.2569591E-005  0.6958810E+02  0.7818608E-02  0.1234837E+00
         21   -1    0    0  501  502  0.00000000000E+00  0.00000000000E+00  0.11591251951E+02  0.11591251951E+02  0.00000000000E+00 0.  1.
         -4   -1    0    0    0  501 -0.00000000000E+00 -0.00000000000E+00 -0.40524637658E+03  0.40524637658E+03  0.00000000000E+00 0. -1.
        -13    1    1    2    0    0  0.58803845192E+02  0.10785252090E+02 -0.11484325760E+03  0.12947277263E+03  0.10566000000E+00 0.  1.
         13    1    1    2    0    0 -0.36947754343E+02 -0.23509319539E+02 -0.15954967296E+03  0.16545069949E+03  0.10566000000E+00 0. -1.
         -4    1    1    2    0  502 -0.21856090849E+02  0.12724067449E+02 -0.11926219407E+03  0.12191415641E+03  0.00000000000E+00 0. -1.
</event>
<event>
 5    1  0.2569591E-005  0.7124713E+02  0.7818608E-02  0.1246268E+00
          4   -1    0    0  502    0 -0.00000000000E+00  0.00000000000E+00  0.12844773761E+02  0.12844773761E+02  0.00000000000E+00 0.  1.
         21   -1    0    0  501  502  0.00000000000E+00 -0.00000000000E+00 -0.26111541015E+03  0.26111541015E+03  0.00000000000E+00 0. -1.
        -13    1    1    2    0    0  0.41503455820E+02  0.28192246641E+02 -0.16062645787E+03  0.16828015257E+03  0.10566000000E+00 0.  1.
         13    1    1    2    0    0 -0.29153116740E+02 -0.32508172494E+02 -0.78127972994E+02  0.89502384453E+02  0.10566000000E+00 0. -1.
          4    1    1    2  501    0 -0.12350339080E+02  0.43159258528E+01 -0.95162055235E+01  0.16177646891E+02  0.00000000000E+00 0.  1.
</event>
<event>
 6    1  0.2569591E-005  0.1380492E+04  0.7818608E-02  0.8574745E-01
         21   -1    0    0  501  502  0.00000000000E+00  0.00000000000E+00  0.67627557890E+03  0.67627557890E+03  0.00000000000E+00 0.  1.
         -4   -1    0    0    0  501 -0.00000000000E+00 -0.00000000000E+00 -0.26980542593E+04  0.26980542593E+04  0.00000000000E+00 0. -1.
   -9000010    2    1    2    0  502  0.25418895825E+03  0.87155072632E+03 -0.27775278248E+03  0.14081561331E+04  0.10399732650E+04 0.  0.
        -13    1    1    2    0    0 -0.25418895825E+03 -0.87155072632E+03 -0.17440258979E+04  0.19661737052E+04  0.10566000000E+00 0.  1.
         13    1    3    3    0    0 -0.11725414476E+03 -0.14265293145E+03 -0.27114644666E+03  0.32805304451E+03  0.10566000000E+00 0. -1.
         -4    1    3    3    0  502  0.37144310302E+03  0.10142036578E+04 -0.66063358215E+01  0.10801030885E+04  0.00000000000E+00 0. -1.
</event>
<event>
 6    1  0.2569591E-005  0.1038514E+04  0.7818608E-02  0.9134356E-01
         21   -1    0    0  501  502  0.00000000000E+00  0.00000000000E+00  0.20929429577E+03  0.20929429577E+03  0.00000000000E+00 0.  1.
          4   -1    0    0  502    0 -0.00000000000E+00 -0.00000000000E+00 -0.18648142980E+04  0.18648142980E+04  0.00000000000E+00 0.  1.
    9000010    2    1    2  501    0 -0.17053956917E+03 -0.11372618441E+03 -0.13018518149E+04  0.16653316526E+04  0.10180834817E+04 0.  0.
        -13    1    3    3    0    0  0.97908888922E+02  0.41956154223E+03 -0.66515304254E+03  0.79249392389E+03  0.10566000000E+00 0.  1.
         13    1    1    2    0    0  0.17053956917E+03  0.11372618441E+03 -0.35366818732E+03  0.40877694109E+03  0.10566000000E+00 0. -1.
          4    1    3    3  501    0 -0.26844845810E+03 -0.53328772664E+03 -0.63669877233E+03  0.87283772875E+03  0.00000000000E+00 0.  1.
</event>
<event>
 5    1  0.2569591E-005  0.9738127E+02  0.7818608E-02  0.1179047E+00
         -4   -1    0    0    0  501 -0.00000000000E+00  0.00000000000E+00  0.28226267202E+03  0.28226267202E+03  0.00000000000E+00 0. -1.
         21   -1    0    0  501  502  0.00000000000E+00 -0.00000000000E+00 -0.30856223144E+02  0.30856223144E+02  0.00000000000E+00 0.  1.
        -13    1    1    2    0    0  0.67963197405E+02  0.35355624598E+02  0.56339910938E+02  0.95095810217E+02  0.10566000000E+00 0.  1.
         13    1    1    2    0    0 -0.89039632335E+01  0.11811168556E+02  0.72749085265E+02  0.74237624119E+02  0.10566000000E+00 0. -1.
         -4    1    1    2    0  502 -0.59059234172E+02 -0.47166793154E+02  0.12231745268E+03  0.14378546083E+03  0.00000000000E+00 0. -1.
</event>
<event>
 6    1  0.2569591E-005  0.1117730E+04  0.7818608E-02  0.8862347E-01
         21   -1    0    0  501  502  0.00000000000E+00  0.00000000000E+00  0.21044441630E+04  0.21044441630E+04  0.00000000000E+00 0.  1.
          4   -1    0    0  502    0 -0.00000000000E+00 -0.00000000000E+00 -0.93259425048E+03  0.93259425048E+03  0.00000000000E+00 0.  1.
    9000010    2    1    2  501    0 -0.44330577039E+03 -0.21946726911E+03  0.18716887032E+04  0.21800318602E+04  0.10023145323E+04 0.  0.
        -13    1    3    3    0    0 -0.24682934337E+03 -0.36804694806E+03  0.18820147551E+04  0.19334846341E+04  0.10566000000E+00 0.  1.
         13    1    1    2    0    0  0.44330577039E+03  0.21946726911E+03 -0.69983879066E+03  0.85700655328E+03  0.10566000000E+00 0. -1.
          4    1    3    3  501    0 -0.19647642702E+03  0.14857967895E+03 -0.10326051869E+02  0.24654722615E+03  0.00000000000E+00 0.  1.
</event>
<event>
 6    1  0.2569591E-005  0.1003509E+04  0.7818608E-02  0.9276594E-01
         21   -1    0    0  501  502  0.00000000000E+00  0.00000000000E+00  0.18579007431E+03  0.18579007431E+03  0.00000000000E+00 0. -1.
         -4   -1    0    0    0  501 -0.00000000000E+00 -0.00000000000E+00 -0.21605209731E+04  0.21605209731E+04  0.00000000000E+00 0. -1.
   -9000010    2    1    2    0  502  0.50174138341E+02 -0.12103731812E+03 -0.12171965618E+04  0.15775290501E+04  0.99491856817E+03 0.  0.
        -13    1    1    2    0    0 -0.50174138341E+02  0.12103731812E+03 -0.75753433697E+03  0.76878199731E+03  0.10566000000E+00 0.  1.
         13    1    3    3    0    0  0.30430670173E+03  0.29013614237E+03 -0.23217488686E+03  0.48029859367E+03  0.10566000000E+00 0. -1.
         -4    1    3    3    0  502 -0.25413256338E+03 -0.41117346049E+03 -0.98502167497E+03  0.10972304564E+04  0.00000000000E+00 0. -1.
</event>
<event>
 6    1  0.2569591E-005  0.9258418E+03  0.7818608E-02  0.9291385E-01
         21   -1    0    0  501  502  0.00000000000E+00  0.00000000000E+00  0.22018269718E+03  0.22018269718E+03  0.00000000000E+00 0. -1.
         -4   -1    0    0    0  501 -0.00000000000E+00 -0.00000000000E+00 -0.13488680740E+04  0.13488680740E+04  0.00000000000E+00 0. -1.
   -9000010    2    1    2    0  502  0.14998697239E+03 -0.48766846526E+02 -0.89953313635E+03  0.12908690721E+04  0.91230959699E+03 0.  0.
        -13    1    1    2    0    0 -0.14998697239E+03  0.48766846526E+02 -0.22915224042E+03  0.27818169900E+03  0.10566000000E+00 0.  1.
         13    1    3    3    0    0 -0.26738215735E+03  0.16861070553E+03 -0.50458388005E+02  0.32010755719E+03  0.10566000000E+00 0. -1.
         -4    1    3    3    0  502  0.41736912974E+03 -0.21737755205E+03 -0.84907474835E+03  0.97076151493E+03  0.00000000000E+00 0. -1.
</event>
<event>
 6    1  0.2569591E-005  0.1016481E+04  0.7818608E-02  0.9221264E-01
         -4   -1    0    0    0  501 -0.00000000000E+00  0.00000000000E+00  0.15514881805E+04  0.15514881805E+04  0.00000000000E+00 0. -1.
         21   -1    0    0  501  502  0.00000000000E+00 -0.00000000000E+00 -0.22729669944E+03  0.22729669944E+03  0.00000000000E+00 0. -1.
   -9000010    2    1    2    0  502 -0.10599529752E+03 -0.11426317258E+03  0.12338810369E+04  0.15986541963E+04  0.10044609253E+04 0.  0.
        -13    1    1    2    0    0  0.10599529752E+03  0.11426317258E+03  0.90310444169E+02  0.18013068366E+03  0.10566000000E+00 0.  1.
         13    1    3    3    0    0  0.23619601560E+03  0.14767408767E+03 -0.13544848924E+02  0.27889006445E+03  0.10566000000E+00 0. -1.
         -4    1    3    3    0  502 -0.34219131312E+03 -0.26193726025E+03  0.12474258858E+04  0.13197641318E+04  0.00000000000E+00 0. -1.
</event>
<event>
 6    1  0.2569591E-005  0.1034865E+04  0.7818608E-02  0.9029614E-01
         -4   -1    0    0    0  501 -0.00000000000E+00  0.00000000000E+00  0.33930363421E+03  0.33930363421E+03  0.00000000000E+00 0. -1.
         21   -1    0    0  501  502  0.00000000000E+00 -0.00000000000E+00 -0.13563164043E+04  0.13563164043E+04  0.00000000000E+00 0. -1.
   -9000010    2    1    2    0  502  0.20324307723E+03 -0.23948044544E+03 -0.85400543457E+03  0.13417414791E+04  0.98604578108E+03 0.  0.
        -13    1    1    2    0    0 -0.20324307723E+03  0.23948044544E+03 -0.16300733552E+03  0.35387855938E+03  0.10566000000E+00 0.  1.
         13    1    3    3    0    0 -0.22357125121E+03 -0.11225738887E+03 -0.86069874537E+03  0.89631923284E+03  0.10566000000E+00 0. -1.
         -4    1    3    3    0  502  0.42681432844E+03 -0.12722305657E+03  0.66933107963E+01  0.44542224630E+03  0.00000000000E+00 0. -1.
</event>
<event>
 6    1  0.2569591E-005  0.1097241E+04  0.7818608E-02  0.8854621E-01
          4   -1    0    0  502    0 -0.00000000000E+00  0.00000000000E+00  0.85967653208E+03  0.85967653208E+03  0.00000000000E+00 0.  1.
         21   -1    0    0  501  502  0.00000000000E+00 -0.00000000000E+00 -0.11527218484E+04  0.11527218484E+04  0.00000000000E+00 0.  1.
    9000010    2    1    2  501    0  0.34935074615E+03 -0.41182901620E+03 -0.72985492057E+03  0.13178109317E+04  0.95513787703E+03 0.  0.
        -13    1    3    3    0    0  0.17519544821E+03 -0.41978537694E+03 -0.94029229692E+03  0.10445395266E+04  0.10566000000E+00 0.  1.
         13    1    1    2    0    0 -0.34935074615E+03  0.41182901620E+03  0.43680960430E+03  0.69458744877E+03  0.10566000000E+00 0. -1.
          4    1    3    3  501    0  0.17415529793E+03  0.79563607476E+01  0.21043737635E+03  0.27327140509E+03  0.00000000000E+00 0.  1.
</event>
<event>
 6    1  0.2569591E-005  0.1038006E+04  0.7818608E-02  0.9056524E-01
         -4   -1    0    0    0  501 -0.00000000000E+00  0.00000000000E+00  0.97976864956E+03  0.97976864956E+03  0.00000000000E+00 0. -1.
         21   -1    0    0  501  502  0.00000000000E+00 -0.00000000000E+00 -0.49719668249E+03  0.49719668249E+03  0.00000000000E+00 0. -1.
   -9000010    2    1    2    0  502 -0.15339764439E+02  0.27902002191E+03  0.16013030722E+03  0.10502849878E+04  0.99968462993E+03 0.  0.
        -13    1    1    2    0    0  0.15339764439E+02 -0.27902002191E+03  0.32244165985E+03  0.42668034425E+03  0.10566000000E+00 0.  1.
         13    1    3    3    0    0 -0.38753221139E+03  0.17090486951E+03 -0.24526029470E+03  0.48943060040E+03  0.10566000000E+00 0. -1.
         -4    1    3    3    0  502  0.37219244695E+03  0.10811515240E+03  0.40539060192E+03  0.56085438740E+03  0.00000000000E+00 0. -1.
</event>
<event>
 6    1  0.2569591E-005  0.1798736E+04  0.7818608E-02  0.8294471E-01
          4   -1    0    0  502    0 -0.00000000000E+00  0.00000000000E+00  0.23917627154E+04  0.23917627154E+04  0.00000000000E+00 0.  1.
         21   -1    0    0  501  502  0.00000000000E+00 -0.00000000000E+00 -0.11372897322E+04  0.11372897322E+04  0.00000000000E+00 0. -1.
    9000010    2    1    2  501    0 -0.17817460645E+02  0.14935262724E+04  0.57753484200E+03  0.18891794506E+04  0.10022546156E+04 0.  0.
        -13    1    3    3    0    0 -0.41644387006E+03  0.89443733477E+03  0.62515249101E+03  0.11680151073E+04  0.10566000000E+00 0.  1.
         13    1    1    2    0    0  0.17817460645E+02 -0.14935262724E+04  0.67693814117E+03  0.16398729971E+04  0.10566000000E+00 0. -1.
          4    1    3    3  501    0  0.39862640941E+03  0.59908893768E+03 -0.47617649014E+02  0.72116434329E+03  0.00000000000E+00 0.  1.
</event>
<event>
 6    1  0.2569591E-005  0.1254408E+04  0.7818608E-02  0.8683813E-01
         -4   -1    0    0    0  501 -0.00000000000E+00  0.00000000000E+00  0.17525350650E+04  0.17525350650E+04  0.00000000000E+00 0. -1.
         21   -1    0    0  501  502  0.00000000000E+00 -0.00000000000E+00 -0.65817389424E+03  0.65817389424E+03  0.00000000000E+00 0. -1.
   -9000010    2    1    2    0  502  0.60534114368E+03 -0.44039708116E+03  0.24422565566E+03  0.12779610197E+04  0.10065538772E+04 0.  0.
        -13    1    1    2    0    0 -0.60534114368E+03  0.44039708116E+03  0.85013551508E+03  0.11327479395E+04  0.10566000000E+00 0.  1.
         13    1    3    3    0    0 -0.13911349951E+03 -0.48771712567E+03  0.70545904230E+02  0.51205204441E+03  0.10566000000E+00 0. -1.
         -4    1    3    3    0  502  0.74445464318E+03  0.47320044505E+02  0.17367975143E+03  0.76590897529E+03  0.00000000000E+00 0. -1.
</event>
<event>
 6    1  0.2569591E-005  0.8518615E+03  0.7818608E-02  0.9181589E-01
         -4   -1    0    0    0  501 -0.00000000000E+00  0.00000000000E+00  0.26691834142E+04  0.26691834142E+04  0.00000000000E+00 0. -1.
         21   -1    0    0  501  502  0.00000000000E+00 -0.00000000000E+00 -0.19852515928E+03  0.19852515928E+03  0.00000000000E+00 0. -1.
   -9000010    2    1    2    0  502 -0.26852287275E+03  0.15244438986E+03  0.79954121012E+03  0.11683039678E+04  0.79392958713E+03 0.  0.
        -13    1    1    2    0    0  0.26852287275E+03 -0.15244438986E+03  0.16711170448E+04  0.16994046057E+04  0.10566000000E+00 0.  1.
         13    1    3    3    0    0  0.33407671809E+02 -0.14570161148E+03 -0.95769161954E+02  0.17752964729E+03  0.10566000000E+00 0. -1.
         -4    1    3    3    0  502 -0.30193054456E+03  0.29814600134E+03  0.89531037207E+03  0.99077432051E+03  0.00000000000E+00 0. -1.
</event>
<event>
 6    1  0.2569591E-005  0.1009276E+04  0.7818608E-02  0.9351581E-01
         21   -1    0    0  501  502  0.00000000000E+00  0.00000000000E+00  0.20803095496E+03  0.20803095496E+03  0.00000000000E+00 0. -1.
         -4   -1    0    0    0  501 -0.00000000000E+00 -0.00000000000E+00 -0.14723572656E+04  0.14723572656E+04  0.00000000000E+00 0. -1.
   -9000010    2    1    2    0  502 -0.40691069853E+02 -0.88070269218E+02 -0.11373904124E+04  0.15206231777E+04  0.10046022909E+04 0.  0.
        -13    1    1    2    0    0  0.40691069853E+02  0.88070269218E+02 -0.12693589823E+03  0.15976504283E+03  0.10566000000E+00 0.  1.
         13    1    3    3    0    0 -0.18045804151E+03  0.41709278119E+03 -0.34503822880E+03  0.57059870607E+03  0.10566000000E+00 0. -1.
         -4    1    3    3    0  502  0.13976697166E+03 -0.50516305041E+03 -0.79235218357E+03  0.95002447162E+03  0.00000000000E+00 0. -1.
</event>
<event>
 6    1  0.2569591E-005  0.1106561E+04  0.7818608E-02  0.8954875E-01
         21   -1    0    0  501  502  0.00000000000E+00  0.00000000000E+00  0.35996491239E+03  0.35996491239E+03  0.00000000000E+00 0. -1.
         -4   -1    0    0    0  501 -0.00000000000E+00 -0.00000000000E+00 -0.23648526982E+04  0.23648526982E+04  0.00000000000E+00 0. -1.
   -9000010    2    1    2    0  502 -0.33678070951E+03 -0.86964644655E+02 -0.56296233500E+03  0.12415330416E+04  0.10504730397E+04 0.  0.
        -13    1    1    2    0    0  0.33678070951E+03  0.86964644655E+02 -0.14419254508E+04  0.14832845690E+04  0.10566000000E+00 0.  1.
         13    1    3    3    0    0 -0.93885997137E+02  0.11205697227E+03  0.29427737959E+03  0.32858869852E+03  0.10566000000E+00 0. -1.
         -4    1    3    3    0  502 -0.24289471237E+03 -0.19902161692E+03 -0.85723971459E+03  0.91294434309E+03  0.00000000000E+00 0. -1.
</event>
<event>
 5    1  0.2569591E-005  0.2904477E+03  0.7818608E-02  0.1073823E+00
          4   -1    0    0  502    0 -0.00000000000E+00  0.00000000000E+00  0.41118101823E+03  0.41118101823E+03  0.00000000000E+00 0.  1.
         21   -1    0    0  501  502  0.00000000000E+00 -0.00000000000E+00 -0.69368689793E+02  0.69368689793E+02  0.00000000000E+00 0.  1.
        -13    1    1    2    0    0  0.21189212795E+02  0.11745519141E+03  0.66321695929E+02  0.13654040883E+03  0.10566000000E+00 0.  1.
         13    1    1    2    0    0  0.22296313238E+02  0.37967051733E+02  0.70350679985E+02  0.82993083686E+02  0.10566000000E+00 0. -1.
          4    1    1    2  501    0 -0.43485526034E+02 -0.15542224314E+03  0.20513995252E+03  0.26101621551E+03  0.00000000000E+00 0.  1.
</event>
<event>
 6    1  0.2569591E-005  0.1262548E+04  0.7818608E-02  0.8681851E-01
          4   -1    0    0  502    0 -0.00000000000E+00  0.00000000000E+00  0.25198292114E+04  0.25198292114E+04  0.00000000000E+00 0.  1.
         21   -1    0    0  501  502  0.00000000000E+00 -0.00000000000E+00 -0.42559806547E+03  0.42559806547E+03  0.00000000000E+00 0. -1.
    9000010    2    1    2  501    0 -0.49893078058E+03 -0.54717116807E+03  0.16648913335E+04  0.20894711468E+04  0.10225939125E+04 0.  0.
        -13    1    3    3    0    0  0.30641762971E+03 -0.12921493531E+03  0.63568511805E+03  0.71741469443E+03  0.10566000000E+00 0.  1.
         13    1    1    2    0    0  0.49893078058E+03  0.54717116807E+03  0.42933981244E+03  0.85595613012E+03  0.10566000000E+00 0. -1.
          4    1    3    3  501    0 -0.80534841030E+03 -0.41795623275E+03  0.10292062155E+04  0.13720564524E+04  0.00000000000E+00 0.  1.
</event>
<event>
 6    1  0.2569591E-005  0.1080537E+04  0.7818608E-02  0.8926316E-01
         21   -1    0    0  501  502  0.00000000000E+00  0.00000000000E+00  0.88071965966E+03  0.88071965966E+03  0.00000000000E+00 0.  1.
          4   -1    0    0  502    0 -0.00000000000E+00 -0.00000000000E+00 -0.76413813540E+03  0.76413813540E+03  0.00000000000E+00 0.  1.
    9000010    2    1    2  501    0  0.40939566035E+03  0.93760311575E+02  0.38424315153E+03  0.11468230968E+04  0.99557250525E+03 0.  0.
        -13    1    3    3    0    0  0.44633764815E+03 -0.83722304966E+02  0.66940989721E+03  0.80891058971E+03  0.10566000000E+00 0.  1.
         13    1    1    2    0    0 -0.40939566035E+03 -0.93760311575E+02 -0.26766162727E+03  0.49803469821E+03  0.10566000000E+00 0. -1.
          4    1    3    3  501    0 -0.36941987799E+02  0.17748261654E+03 -0.28516674567E+03  0.33791250713E+03  0.00000000000E+00 0.  1.
</event>
<event>
 6    1  0.2569591E-005  0.1005662E+04  0.7818608E-02  0.9248258E-01
          4   -1    0    0  502    0 -0.00000000000E+00  0.00000000000E+00  0.10608352017E+04  0.10608352017E+04  0.00000000000E+00 0.  1.
         21   -1    0    0  501  502  0.00000000000E+00 -0.00000000000E+00 -0.33550254209E+03  0.33550254209E+03  0.00000000000E+00 0.  1.
    9000010    2    1    2  501    0  0.97371200676E+01  0.14474709866E+03  0.48712121068E+03  0.11174269343E+04  0.99514287696E+03 0.  0.
        -13    1    3    3    0    0  0.25174666068E+03  0.62629866331E+01 -0.23431919215E+03  0.34397834400E+03  0.10566000000E+00 0.  1.
         13    1    1    2    0    0 -0.97371200676E+01 -0.14474709866E+03  0.23821144894E+03  0.27891080949E+03  0.10566000000E+00 0. -1.
          4    1    3    3  501    0 -0.24200954061E+03  0.13848411203E+03  0.72144040283E+03  0.77344859032E+03  0.00000000000E+00 0.  1.
</event>
<event>
 6    1  0.2569591E-005  0.7678212E+03  0.7818608E-02  0.9368709E-01
         -4   -1    0    0    0  501 -0.00000000000E+00  0.00000000000E+00  0.70206728752E+03  0.70206728752E+03  0.00000000000E+00 0. -1.
         21   -1    0    0  501  502  0.00000000000E+00 -0.00000000000E+00 -0.60055591682E+03  0.60055591682E+03  0.00000000000E+00 0. -1.
   -9000010    2    1    2    0  502 -0.19356687014E+03  0.72415201395E+02 -0.32104228837E+03  0.83223644797E+03  0.73948445541E+03 0.  0.
        -13    1    1    2    0    0  0.19356687014E+03 -0.72415201395E+02  0.42255365907E+03  0.47038675637E+03  0.10566000000E+00 0.  1.
         13    1    3    3    0    0  0.17489911598E+03 -0.58352753687E+02 -0.39353921486E+03  0.43458931123E+03  0.10566000000E+00 0. -1.
         -4    1    3    3    0  502 -0.36846598613E+03  0.13076795508E+03  0.72496926493E+02  0.39764713674E+03  0.00000000000E+00 0. -1.
</event>
<event>
 5    1  0.2569591E-005  0.1624702E+03  0.7818608E-02  0.1139512E+00
         21   -1    0    0  501  502  0.00000000000E+00  0.00000000000E+00  0.25461383535E+02  0.25461383535E+02  0.00000000000E+00 0. -1.
         -4   -1    0    0    0  501 -0.00000000000E+00 -0.00000000000E+00 -0.46439978370E+03  0.46439978370E+03  0.00000000000E+00 0. -1.
        -13    1    1    2    0    0 -0.39866113554E+02 -0.16858377490E+02 -0.17203651431E+03  0.17739809842E+03  0.10566000000E+00 0.  1.
         13    1    1    2    0    0  0.30975951761E+02 -0.39809140976E+02 -0.12899254460E+02  0.52064183681E+02  0.10566000000E+00 0. -1.
         -4    1    1    2    0  502  0.88901617926E+01  0.56667518466E+02 -0.25400263139E+03  0.26039888513E+03  0.00000000000E+00 0. -1.
</event>
<event>
 6    1  0.2569591E-005  0.9668869E+03  0.7818608E-02  0.9364677E-01
          4   -1    0    0  502    0 -0.00000000000E+00  0.00000000000E+00  0.30173001256E+03  0.30173001256E+03  0.00000000000E+00 0.  1.
         21   -1    0    0  501  502  0.00000000000E+00 -0.00000000000E+00 -0.10263377585E+04  0.10263377585E+04  0.00000000000E+00 0.  1.
    9000010    2    1    2  501    0 -0.65407164262E+02 -0.82225325399E+02 -0.51949024466E+03  0.10976067076E+04  0.96116141672E+03 0.  0.
        -13    1    3    3    0    0  0.45029363979E+02 -0.37154506156E+03 -0.65907075310E+03  0.75792324489E+03  0.10566000000E+00 0.  1.
         13    1    1    2    0    0  0.65407164262E+02  0.82225325399E+02 -0.20511750125E+03  0.23046106343E+03  0.10566000000E+00 0. -1.
          4    1    3    3  501    0 -0.11043652824E+03  0.28931973616E+03  0.13958050844E+03  0.33968346271E+03  0.00000000000E+00 0.  1.
</event>
<event>
 6    1  0.2569591E-005  0.1115060E+04  0.7818608E-02  0.8864399E-01
         21   -1    0    0  501  502  0.00000000000E+00  0.00000000000E+00  0.23429477144E+03  0.23429477144E+03  0.00000000000E+00 0. -1.
          4   -1    0    0  502    0 -0.00000000000E+00 -0.00000000000E+00 -0.27657494796E+04  0.27657494796E+04  0.00000000000E+00 0.  1.
    9000010    2    1    2  501    0  0.16956247088E+03  0.46395679454E+03 -0.18009918903E+04  0.21182374252E+04  0.99967527813E+03 0.  0.
        -13    1    3    3    0    0 -0.14355962329E+03  0.39052411697E+03 -0.15960313186E+03  0.44563619943E+03  0.10566000000E+00 0.  1.
         13    1    1    2    0    0 -0.16956247088E+03 -0.46395679454E+03 -0.73046281786E+03  0.88180682588E+03  0.10566000000E+00 0. -1.
          4    1    3    3  501    0  0.31312209416E+03  0.73432677566E+02 -0.16413887585E+04  0.16726012258E+04  0.00000000000E+00 0.  1.
</event>
<event>
 6    1  0.2569591E-005  0.1073623E+04  0.7818608E-02  0.8952860E-01
         21   -1    0    0  501  502  0.00000000000E+00  0.00000000000E+00  0.40346514122E+03  0.40346514122E+03  0.00000000000E+00 0. -1.
         -4   -1    0    0    0  501 -0.00000000000E+00 -0.00000000000E+00 -0.13179076738E+04  0.13179076738E+04  0.00000000000E+00 0. -1.
   -9000010    2    1    2    0  502  0.38394431720E+03  0.55181403413E+01 -0.69825446944E+03  0.12807131069E+04  0.10026081335E+04 0.  0.
        -13    1    1    2    0    0 -0.38394431720E+03 -0.55181403413E+01 -0.21618806316E+03  0.44065970817E+03  0.10566000000E+00 0.  1.
         13    1    3    3    0    0 -0.10637450775E+03  0.28748957120E+03  0.81715862010E+02  0.31724325480E+03  0.10566000000E+00 0. -1.
         -4    1    3    3    0  502  0.49031882495E+03 -0.28197143086E+03 -0.77997033145E+03  0.96346985207E+03  0.00000000000E+00 0. -1.
</event>
<event>
 6    1  0.2569591E-005  0.9930666E+03  0.7818608E-02  0.9292372E-01
         21   -1    0    0  501  502  0.00000000000E+00  0.00000000000E+00  0.16932727174E+03  0.16932727174E+03  0.00000000000E+00 0. -1.
         -4   -1    0    0    0  501 -0.00000000000E+00 -0.00000000000E+00 -0.19040328799E+04  0.19040328799E+04  0.00000000000E+00 0. -1.
   -9000010    2    1    2    0  502  0.22802787239E+02  0.12526942895E+03 -0.14102506228E+04  0.17248153975E+04  0.98487001146E+03 0.  0.
        -13    1    1    2    0    0 -0.22802787239E+02 -0.12526942895E+03 -0.32445498538E+03  0.34854475413E+03  0.10566000000E+00 0.  1.
         13    1    3    3    0    0  0.23639281881E+03 -0.37812796674E+03 -0.61274497882E+03  0.75783820454E+03  0.10566000000E+00 0. -1.
         -4    1    3    3    0  502 -0.21359003157E+03  0.50339739569E+03 -0.79750564395E+03  0.96697719296E+03  0.00000000000E+00 0. -1.
</event>
<event>
 5    1  0.2569591E-005  0.1556744E+03  0.7818608E-02  0.1101963E+00
         21   -1    0    0  501  502  0.00000000000E+00  0.00000000000E+00  0.27929799271E+03  0.27929799271E+03  0.00000000000E+00 0.  1.
         -4   -1    0    0    0  501 -0.00000000000E+00 -0.00000000000E+00 -0.21024359947E+03  0.21024359947E+03  0.00000000000E+00 0. -1.
        -13    1    1    2    0    0 -0.70558212817E+02 -0.11053685300E+03  0.23054666064E+03  0.26523316377E+03  0.10566000000E+00 0.  1.
         13    1    1    2    0    0  0.63469286515E+02  0.12405852190E+03 -0.13679705747E+03  0.19527496840E+03  0.10566000000E+00 0. -1.
         -4    1    1    2    0  502  0.70889263023E+01 -0.13521668901E+02 -0.24695209944E+02  0.29033460010E+02  0.00000000000E+00 0. -1.
</event>
<event>
 5    1  0.2569591E-005  0.4208938E+03  0.7818608E-02  0.9800009E-01
          4   -1    0    0  502    0 -0.00000000000E+00  0.00000000000E+00  0.14922442759E+03  0.14922442759E+03  0.00000000000E+00 0.  1.
         21   -1    0    0  501  502  0.00000000000E+00 -0.00000000000E+00 -0.87718807196E+03  0.87718807196E+03  0.00000000000E+00 0. -1.
        -13    1    1    2    0    0  0.11505381241E+02  0.30941299043E+03 -0.23081029963E+03  0.38618930335E+03  0.10566000000E+00 0.  1.
         13    1    1    2    0    0  0.83857773746E+02 -0.25559926866E+03 -0.44247981963E+03  0.51783348125E+03  0.10566000000E+00 0. -1.
          4    1    1    2  501    0 -0.95363154986E+02 -0.53813721765E+02 -0.54673525111E+02  0.12238971496E+03  0.00000000000E+00 0.  1.
</event>
<event>
 5    1  0.2569591E-005  0.1347502E+03  0.7818608E-02  0.1140737E+00
         21   -1    0    0  501  502  0.00000000000E+00  0.00000000000E+00  0.68756497625E+02  0.68756497625E+02  0.00000000000E+00 0.  1.
         -4   -1    0    0    0  501 -0.00000000000E+00 -0.00000000000E+00 -0.20424048805E+03  0.20424048805E+03  0.00000000000E+00 0. -1.
        -13    1    1    2    0    0  0.72946905265E+02  0.94739263369E+01  0.10527183604E+02  0.74309077687E+02  0.10566000000E+00 0.  1.
         13    1    1    2    0    0 -0.25488540081E+02  0.11925984526E+02  0.13271542912E+02  0.31113337939E+02  0.10566000000E+00 0. -1.
         -4    1    1    2    0  502 -0.47458365184E+02 -0.21399910863E+02 -0.15928271695E+03  0.16757457005E+03  0.00000000000E+00 0. -1.
</event>
<event>
 6    1  0.2569591E-005  0.1074952E+04  0.7818608E-02  0.8998596E-01
         21   -1    0    0  501  502  0.00000000000E+00  0.00000000000E+00  0.25218985797E+03  0.25218985797E+03  0.00000000000E+00 0. -1.
          4   -1    0    0  502    0 -0.00000000000E+00 -0.00000000000E+00 -0.20922398008E+04  0.20922398008E+04  0.00000000000E+00 0.  1.
    9000010    2    1    2  501    0  0.29348797253E+03  0.12138953289E+03 -0.16647988769E+04  0.19816851812E+04  0.10269616585E+04 0.  0.
        -13    1    3    3    0    0  0.39281849498E+03 -0.24344389126E+03 -0.26716145482E+03  0.53380385189E+03  0.10566000000E+00 0.  1.
         13    1    1    2    0    0 -0.29348797253E+03 -0.12138953289E+03 -0.17525106584E+03  0.36274447750E+03  0.10566000000E+00 0. -1.
          4    1    3    3  501    0 -0.99330522453E+02  0.36483342415E+03 -0.13976374221E+04  0.14478813293E+04  0.00000000000E+00 0.  1.
</event>
<event>
 6    1  0.2569591E-005  0.1288657E+04  0.7818608E-02  0.8643033E-01
         21   -1    0    0  501  502  0.00000000000E+00  0.00000000000E+00  0.50435210617E+03  0.50435210617E+03  0.00000000000E+00 0. -1.
          4   -1    0    0  502    0 -0.00000000000E+00 -0.00000000000E+00 -0.23546344219E+04  0.23546344219E+04  0.00000000000E+00 0.  1.
    9000010    2    1    2  501    0 -0.72195591131E+02 -0.82192169728E+03 -0.77544079152E+03  0.15039766413E+04  0.98988374906E+03 0.  0.
        -13    1    3    3    0    0  0.37452121396E+03 -0.44601431351E+03 -0.67431485037E+02  0.58629508262E+03  0.10566000000E+00 0.  1.
         13    1    1    2    0    0  0.72195591131E+02  0.82192169728E+03 -0.10748415242E+04  0.13550098867E+04  0.10566000000E+00 0. -1.
          4    1    3    3  501    0 -0.44671680509E+03 -0.37590738377E+03 -0.70800930648E+03  0.91768155871E+03  0.00000000000E+00 0.  1.
</event>
<event>
 6    1  0.2569591E-005  0.1045985E+04  0.7818608E-02  0.8978855E-01
          4   -1    0    0  502    0 -0.00000000000E+00  0.00000000000E+00  0.20882944321E+04  0.20882944321E+04  0.00000000000E+00 0.  1.
         21   -1    0    0  501  502  0.00000000000E+00 -0.00000000000E+00 -0.24940979988E+03  0.24940979988E+03  0.00000000000E+00 0. -1.
    9000010    2    1    2  501    0 -0.37222540895E+03 -0.30441396937E+02  0.11531755350E+04  0.15568870889E+04  0.97703897540E+03 0.  0.
        -13    1    3    3    0    0 -0.61400847882E+03 -0.26897893340E+02  0.32725072239E+03  0.69629229149E+03  0.10566000000E+00 0.  1.
         13    1    1    2    0    0  0.37222540895E+03  0.30441396937E+02  0.68570909726E+03  0.78081714309E+03  0.10566000000E+00 0. -1.
          4    1    3    3  501    0  0.24178306987E+03 -0.35435035973E+01  0.82592481261E+03  0.86059479744E+03  0.00000000000E+00 0.  1.
</event>
<event>
 6    1  0.2569591E-005  0.1025725E+04  0.7818608E-02  0.9114335E-01
          4   -1    0    0  502    0 -0.00000000000E+00  0.00000000000E+00  0.10184583278E+04  0.10184583278E+04  0.00000000000E+00 0.  1.
         21   -1    0    0  501  502  0.00000000000E+00 -0.00000000000E+00 -0.48200449406E+03  0.48200449406E+03  0.00000000000E+00 0.  1.
    9000010    2    1    2  501    0 -0.12200447422E+03  0.19520601368E+03  0.13078124483E+03  0.10340287536E+04  0.99956052829E+03 0.  0.
        -13    1    3    3    0    0 -0.16795264843E+03 -0.32778635807E+03 -0.19440774400E+03  0.41646893131E+03  0.10566000000E+00 0.  1.
         13    1    1    2    0    0  0.12200447422E+03 -0.19520601368E+03  0.40567258892E+03  0.46643406830E+03  0.10566000000E+00 0. -1.
          4    1    3    3  501    0  0.45948174212E+02  0.52299237175E+03  0.32518898883E+03  0.61755982227E+03  0.00000000000E+00 0.  1.
</event>
<event>
 5    1  0.2569591E-005  0.8472124E+02  0.7818608E-02  0.1211338E+00
         -4   -1    0    0    0  501 -0.00000000000E+00  0.00000000000E+00  0.25442113660E+03  0.25442113660E+03  0.00000000000E+00 0. -1.
         21   -1    0    0  501  502  0.00000000000E+00 -0.00000000000E+00 -0.19976736680E+02  0.19976736680E+02  0.00000000000E+00 0.  1.
        -13    1    1    2    0    0 -0.34993055455E+02  0.43006900942E+02  0.11818200749E+03  0.13054158539E+03  0.10566000000E+00 0.  1.
         13    1    1    2    0    0  0.53108256266E+02 -0.39312487509E+02  0.94351257679E+02  0.11518736713E+03  0.10566000000E+00 0. -1.
         -4    1    1    2    0  502 -0.18115200810E+02 -0.36944134329E+01  0.21911134753E+02  0.28668920754E+02  0.00000000000E+00 0. -1.
</event>
<event>
 5    1  0.2569591E-005  0.1591438E+03  0.7818608E-02  0.1093879E+00
         21   -1    0    0  501  502  0.00000000000E+00  0.00000000000E+00  0.27799008997E+03  0.27799008997E+03  0.00000000000E+00 0. -1.
          4   -1    0    0  502    0 -0.00000000000E+00 -0.00000000000E+00 -0.10961648845E+03  0.10961648845E+03  0.00000000000E+00 0.  1.
        -13    1    1    2    0    0  0.63354315624E+02 -0.12017826366E+03  0.11371279890E+02  0.13633011969E+03  0.10566000000E+00 0.  1.
         13    1    1    2    0    0 -0.78903974124E+02  0.13100532175E+03  0.16971864051E+03  0.22845712850E+03  0.10566000000E+00 0. -1.
          4    1    1    2  501    0  0.15549658499E+02 -0.10827058094E+02 -0.12716318880E+02  0.22819330233E+02  0.00000000000E+00 0.  1.
</event>
<event>
 6    1  0.2569591E-005  0.1195370E+04  0.7818608E-02  0.8731997E-01
         -4   -1    0    0    0  501 -0.00000000000E+00  0.00000000000E+00  0.19877293306E+04  0.19877293306E+04  0.00000000000E+00 0. -1.
         21   -1    0    0  501  502  0.00000000000E+00 -0.00000000000E+00 -0.45519020455E+03  0.45519020455E+03  0.00000000000E+00 0.  1.
   -9000010    2    1    2    0  502  0.65497860867E+03 -0.25385154660E+03  0.10462612385E+04  0.15885754706E+04  0.96719794308E+03 0.  0.
        -13    1    1    2    0    0 -0.65497860867E+03  0.25385154660E+03  0.48627788754E+03  0.85434406453E+03  0.10566000000E+00 0.  1.
         13    1    3    3    0    0  0.44666771172E+02  0.72239851918E+01 -0.18463337811E+03  0.19009682240E+03  0.10566000000E+00 0. -1.
         -4    1    3    3    0  502  0.61031183749E+03 -0.26107553179E+03  0.12308946166E+04  0.13984786482E+04  0.00000000000E+00 0. -1.
</event>
<event>
 5    1  0.2569591E-005  0.1074282E+03  0.7818608E-02  0.1158167E+00
         21   -1    0    0  501  502  0.00000000000E+00  0.00000000000E+00  0.10373110897E+03  0.10373110897E+03  0.00000000000E+00 0.  1.
         -4   -1    0    0    0  501 -0.00000000000E+00 -0.00000000000E+00 -0.11823804961E+03  0.11823804961E+03  0.00000000000E+00 0. -1.
        -13    1    1    2    0    0  0.93444346666E+02  0.11977697703E+02  0.38989062943E+02  0.10195817456E+03  0.10566000000E+00 0.  1.
         13    1    1    2    0    0 -0.88049054872E+02 -0.23901791155E+02 -0.35816255257E+02  0.98014014248E+02  0.10566000000E+00 0. -1.
         -4    1    1    2    0  502 -0.53952917937E+01  0.11924093452E+02 -0.17679748324E+02  0.21996969769E+02  0.00000000000E+00 0. -1.
</event>
<event>
 6    1  0.2569591E-005  0.1002053E+04  0.7818608E-02  0.9330349E-01
          4   -1    0    0  502    0 -0.00000000000E+00  0.00000000000E+00  0.20615610884E+04  0.20615610884E+04  0.00000000000E+00 0.  1.
         21   -1    0    0  501  502  0.00000000000E+00 -0.00000000000E+00 -0.18387173448E+03  0.18387173448E+03  0.00000000000E+00 0.  1.
    9000010    2    1    2  501    0 -0.10708321045E+03 -0.76740291861E+01  0.18881426887E+04  0.21375672210E+04  0.99628565525E+03 0.  0.
        -13    1    3    3    0    0 -0.27244393418E+03 -0.34022725100E+03  0.36111930629E+03  0.56602777682E+03  0.10566000000E+00 0.  1.
         13    1    1    2    0    0  0.10708321045E+03  0.76740291861E+01 -0.10453334795E+02  0.10786560183E+03  0.10566000000E+00 0. -1.
          4    1    3    3  501    0  0.16536072373E+03  0.33255322181E+03  0.15270233824E+04  0.15715394442E+04  0.00000000000E+00 0.  1.
</event>
<event>
 6    1  0.2569591E-005  0.1024897E+04  0.7818608E-02  0.9200488E-01
         21   -1    0    0  501  502  0.00000000000E+00  0.00000000000E+00  0.39352265958E+03  0.39352265958E+03  0.00000000000E+00 0.  1.
          4   -1    0    0  502    0 -0.00000000000E+00 -0.00000000000E+00 -0.15397741378E+04  0.15397741378E+04  0.00000000000E+00 0.  1.
    9000010    2    1    2  501    0 -0.27367897459E+02  0.16247165771E+03 -0.29536930348E+03  0.10666096982E+04  0.10115666966E+04 0.  0.
        -13    1    3    3    0    0  0.46876204790E+03  0.23327829152E+03 -0.14211069173E+03  0.54254223680E+03  0.10566000000E+00 0.  1.
         13    1    1    2    0    0  0.27367897459E+02 -0.16247165771E+03 -0.85088217474E+03  0.86668709915E+03  0.10566000000E+00 0. -1.
          4    1    3    3  501    0 -0.49612994536E+03 -0.70806633811E+02 -0.15325861175E+03  0.52406746145E+03  0.00000000000E+00 0.  1.
</event>
<event>
 5    1  0.2569591E-005  0.9823013E+03  0.7818608E-02  0.8859096E-01
         -4   -1    0    0    0  501 -0.00000000000E+00  0.00000000000E+00  0.49752557446E+03  0.49752557446E+03  0.00000000000E+00 0. -1.
         21   -1    0    0  501  502  0.00000000000E+00 -0.00000000000E+00 -0.17130428831E+04  0.17130428831E+04  0.00000000000E+00 0.  1.
        -13    1    1    2    0    0 -0.72270626697E+03  0.15297730018E+03 -0.13619919543E+03  0.75117017691E+03  0.10566000000E+00 0.  1.
         13    1    1    2    0    0  0.66594353413E+03  0.87153647355E+02 -0.99135510400E+03  0.11974395610E+04  0.10566000000E+00 0. -1.
         -4    1    1    2    0  502  0.56762732840E+02 -0.24013094753E+03 -0.87963009202E+02  0.26195871963E+03  0.00000000000E+00 0. -1.
</event>
<event>
 6    1  0.2569591E-005  0.1299103E+04  0.7818608E-02  0.8642612E-01
         21   -1    0    0  501  502  0.00000000000E+00  0.00000000000E+00  0.23650097988E+04  0.23650097988E+04  0.00000000000E+00 0.  1.
          4   -1    0    0  502    0 -0.00000000000E+00 -0.00000000000E+00 -0.71692221758E+03  0.71692221758E+03  0.00000000000E+00 0.  1.
    9000010    2    1    2  501    0 -0.66508580712E+03  0.45677237505E+03  0.18401874959E+04  0.22525451815E+04  0.10181795720E+04 0.  0.
        -13    1    3    3    0    0  0.51637637098E+02  0.55646728545E+03  0.62675282355E+03  0.83972697845E+03  0.10566000000E+00 0.  1.
         13    1    1    2    0    0  0.66508580712E+03 -0.45677237505E+03 -0.19209991476E+03  0.82938683487E+03  0.10566000000E+00 0. -1.
          4    1    3    3  501    0 -0.71672344422E+03 -0.99694910400E+02  0.12134346724E+04  0.14128182030E+04  0.00000000000E+00 0.  1.
</event>
<event>
 5    1  0.2569591E-005  0.2402531E+03  0.7818608E-02  0.1043707E+00
         21   -1    0    0  501  502  0.00000000000E+00  0.00000000000E+00  0.28775259963E+03  0.28775259963E+03  0.00000000000E+00 0.  1.
         -4   -1    0    0    0  501 -0.00000000000E+00 -0.00000000000E+00 -0.19628415669E+03  0.19628415669E+03  0.00000000000E+00 0. -1.
        -13    1    1    2    0    0 -0.15911417672E+03  0.99622228334E+02  0.14582459766E+03  0.23771145125E+03  0.10566000000E+00 0.  1.
         13    1    1    2    0    0  0.17454400425E+03 -0.41829962820E+02 -0.50150476728E+02  0.18636103855E+03  0.10566000000E+00 0. -1.
         -4    1    1    2    0  502 -0.15429827537E+02 -0.57792265513E+02 -0.42056779954E+01  0.59964266513E+02  0.00000000000E+00 0. -1.
</event>
<event>
 6    1  0.2569591E-005  0.1202975E+04  0.7818608E-02  0.8712093E-01
         21   -1    0    0  501  502  0.00000000000E+00  0.00000000000E+00  0.53454615415E+03  0.53454615415E+03  0.00000000000E+00 0.  1.
         -4   -1    0    0    0  501 -0.00000000000E+00 -0.00000000000E+00 -0.18277815989E+04  0.18277815989E+04  0.00000000000E+00 0. -1.
   -9000010    2    1    2    0  502 -0.42302283457E+03 -0.62041375727E+03 -0.61780339419E+03  0.13523425973E+04  0.93983398415E+03 0.  0.
        -13    1    1    2    0    0  0.42302283457E+03  0.62041375727E+03 -0.67543205054E+03  0.10099851558E+04  0.10566000000E+00 0.  1.
         13    1    3    3    0    0 -0.12594246224E+03 -0.16224140215E+03  0.25214937481E+03  0.32521238406E+03  0.10566000000E+00 0. -1.
         -4    1    3    3    0  502 -0.29708037233E+03 -0.45817235512E+03 -0.86995276900E+03  0.10271302132E+04  0.00000000000E+00 0. -1.
</event>
<event>
 5    1  0.2569591E-005  0.1548056E+03  0.7818608E-02  0.1108115E+00
          4   -1    0    0  502    0 -0.00000000000E+00  0.00000000000E+00  0.61015214417E+03  0.61015214417E+03  0.00000000000E+00 0.  1.
         21   -1    0    0  501  502  0.00000000000E+00 -0.00000000000E+00 -0.47014561516E+02  0.47014561516E+02  0.00000000000E+00 0. -1.
        -13    1    1    2    0    0  0.86226099189E+02  0.10191136752E+03  0.44435146504E+03  0.46397101489E+03  0.10566000000E+00 0.  1.
         13    1    1    2    0    0 -0.76988080191E+02 -0.82790966200E+02  0.54525071269E+02  0.12551694362E+03  0.10566000000E+00 0. -1.
          4    1    1    2  501    0 -0.92380189988E+01 -0.19120401318E+02  0.64261046348E+02  0.67678747177E+02  0.00000000000E+00 0.  1.
</event>
<event>
 5    1  0.2569591E-005  0.3803870E+03  0.7818608E-02  0.1023658E+00
         21   -1    0    0  501  502  0.00000000000E+00  0.00000000000E+00  0.74512009285E+02  0.74512009285E+02  0.00000000000E+00 0.  1.
          4   -1    0    0  502    0 -0.00000000000E+00 -0.00000000000E+00 -0.87833487060E+03  0.87833487060E+03  0.00000000000E+00 0.  1.
        -13    1    1    2    0    0  0.14117060945E+03 -0.17262975949E+02 -0.19738517956E+02  0.14358541558E+03  0.10566000000E+00 0.  1.
         13    1    1    2    0    0 -0.44510853524E+02  0.75330751760E+02 -0.34960186770E+03  0.36038509307E+03  0.10566000000E+00 0. -1.
          4    1    1    2  501    0 -0.96659755926E+02 -0.58067775812E+02 -0.43448247565E+03  0.44887637124E+03  0.00000000000E+00 0.  1.
</event>
<event>
 5    1  0.2569591E-005  0.1274466E+03  0.7818608E-02  0.1137974E+00
         21   -1    0    0  501  502  0.00000000000E+00  0.00000000000E+00  0.47749154061E+02  0.47749154061E+02  0.00000000000E+00 0.  1.
         -4   -1    0    0    0  501 -0.00000000000E+00 -0.00000000000E+00 -0.29545741449E+03  0.29545741449E+03  0.00000000000E+00 0. -1.
        -13    1    1    2    0    0 -0.35891721332E+02 -0.86042955247E+02 -0.44416623695E+02  0.10326884057E+03  0.10566000000E+00 0.  1.
         13    1    1    2    0    0  0.53598566150E+02  0.75385153043E+02 -0.19809711584E+03  0.21862800841E+03  0.10566000000E+00 0. -1.
         -4    1    1    2    0  502 -0.17706844818E+02  0.10657802204E+02 -0.51945208992E+01  0.21309719580E+02  0.00000000000E+00 0. -1.
</event>
<event>
 5    1  0.2569591E-005  0.1987203E+03  0.7818608E-02  0.1062537E+00
         21   -1    0    0  501  502  0.00000000000E+00  0.00000000000E+00  0.99518372029E+02  0.99518372029E+02  0.00000000000E+00 0. -1.
          4   -1    0    0  502    0 -0.00000000000E+00 -0.00000000000E+00 -0.54391706980E+03  0.54391706980E+03  0.00000000000E+00 0.  1.
        -13    1    1    2    0    0  0.11611981880E+03 -0.10129487926E+03 -0.36400877641E+03  0.39528074245E+03  0.10566000000E+00 0.  1.
         13    1    1    2    0    0 -0.13615785221E+03  0.13269982946E+03 -0.42099017763E+02  0.19473197970E+03  0.10566000000E+00 0. -1.
          4    1    1    2  501    0  0.20038033413E+02 -0.31404950192E+02 -0.38290903598E+02  0.53422719680E+02  0.00000000000E+00 0.  1.
</event>
<event>
 6    1  0.2569591E-005  0.1021840E+04  0.7818608E-02  0.9115483E-01
         -4   -1    0    0    0  501 -0.00000000000E+00  0.00000000000E+00  0.19227441920E+04  0.19227441920E+04  0.00000000000E+00 0. -1.
         21   -1    0    0  501  502  0.00000000000E+00 -0.00000000000E+00 -0.30150431634E+03  0.30150431634E+03  0.00000000000E+00 0. -1.
   -9000010    2    1    2    0  502  0.12923442415E+03 -0.19240684736E+03  0.61713306908E+03  0.11937377508E+04  0.99520583868E+03 0.  0.
        -13    1    1    2    0    0 -0.12923442415E+03  0.19240684736E+03  0.10041068066E+04  0.10305107576E+04  0.10566000000E+00 0.  1.
         13    1    3    3    0    0  0.15317720140E+03  0.42748550888E+02 -0.24926489302E+03  0.29567497643E+03  0.10566000000E+00 0. -1.
         -4    1    3    3    0  502 -0.23942777247E+02 -0.23515539825E+03  0.86639796210E+03  0.89806277433E+03  0.00000000000E+00 0. -1.
</event>
<event>
 5    1  0.2569591E-005  0.3913074E+03  0.7818608E-02  0.9864592E-01
          4   -1    0    0  502    0 -0.00000000000E+00  0.00000000000E+00  0.17367641414E+03  0.17367641414E+03  0.00000000000E+00 0.  1.
         21   -1    0    0  501  502  0.00000000000E+00 -0.00000000000E+00 -0.68481596800E+03  0.68481596800E+03  0.00000000000E+00 0. -1.
        -13    1    1    2    0    0 -0.82150668986E+02 -0.12482441470E+03 -0.33006627885E+02  0.15303370730E+03  0.10566000000E+00 0.  1.
         13    1    1    2    0    0  0.26811514982E+03 -0.20512297113E+02 -0.33445200150E+03  0.42914407879E+03  0.10566000000E+00 0. -1.
          4    1    1    2  501    0 -0.18596448083E+03  0.14533671182E+03 -0.14368092448E+03  0.27631459605E+03  0.00000000000E+00 0.  1.
</event>
<event>
 5    1  0.2569591E-005  0.2046587E+03  0.7818608E-02  0.1065483E+00
         21   -1    0    0  501  502  0.00000000000E+00  0.00000000000E+00  0.21113972971E+03  0.21113972971E+03  0.00000000000E+00 0.  1.
         -4   -1    0    0    0  501 -0.00000000000E+00 -0.00000000000E+00 -0.21969394547E+03  0.21969394547E+03  0.00000000000E+00 0. -1.
        -13    1    1    2    0    0  0.83219003017E+02 -0.13644388114E+03  0.11028094507E+03  0.19417577906E+03  0.10566000000E+00 0.  1.
         13    1    1    2    0    0 -0.24649768279E+02  0.11205763793E+03 -0.12873725193E+03  0.17244656127E+03  0.10566000000E+00 0. -1.
         -4    1    1    2    0  502 -0.58569234738E+02  0.24386243206E+02  0.99020911013E+01  0.64211334854E+02  0.00000000000E+00 0. -1.
</event>
<event>
 6    1  0.2569591E-005  0.1367942E+04  0.7818608E-02  0.8565702E-01
         21   -1    0    0  501  502  0.00000000000E+00  0.00000000000E+00  0.10222998326E+04  0.10222998326E+04  0.00000000000E+00 0.  1.
         -4   -1    0    0    0  501 -0.00000000000E+00 -0.00000000000E+00 -0.14800039780E+04  0.14800039780E+04  0.00000000000E+00 0. -1.
   -9000010    2    1    2    0  502  0.28496570859E+03 -0.92878784210E+03  0.11799294094E+03  0.13730210927E+04  0.96302246918E+03 0.  0.
        -13    1    1    2    0    0 -0.28496570859E+03  0.92878784210E+03 -0.57569708627E+03  0.11292827179E+04  0.10566000000E+00 0.  1.
         13    1    3    3    0    0 -0.18354936082E+03  0.10351011237E+03 -0.73790388921E+02  0.22327056206E+03  0.10566000000E+00 0. -1.
         -4    1    3    3    0  502  0.46851506941E+03 -0.10322979545E+04  0.19178332986E+03  0.11497505306E+04  0.00000000000E+00 0. -1.
</event>
<event>
 5    1  0.2569591E-005  0.1376414E+03  0.7818608E-02  0.1130209E+00
         -4   -1    0    0    0  501 -0.00000000000E+00  0.00000000000E+00  0.31937749044E+03  0.31937749044E+03  0.00000000000E+00 0. -1.
         21   -1    0    0  501  502  0.00000000000E+00 -0.00000000000E+00 -0.40980209024E+02  0.40980209024E+02  0.00000000000E+00 0. -1.
        -13    1    1    2    0    0 -0.83364861768E+02 -0.34472288175E+02  0.12654659784E+03  0.15540943156E+03  0.10566000000E+00 0.  1.
         13    1    1    2    0    0  0.88422072236E+02  0.60156136715E+02  0.97927112763E+02  0.14500673854E+03  0.10566000000E+00 0. -1.
         -4    1    1    2    0  502 -0.50572104676E+01 -0.25683848540E+02  0.53923570817E+02  0.59941529369E+02  0.00000000000E+00 0. -1.
</event>
<event>
 6    1  0.2569591E-005  0.1140744E+04  0.7818608E-02  0.8827924E-01
         21   -1    0    0  501  502  0.00000000000E+00  0.00000000000E+00  0.27220609379E+03  0.27220609379E+03  0.00000000000E+00 0.  1.
         -4   -1    0    0    0  501 -0.00000000000E+00 -0.00000000000E+00 -0.29259258380E+04  0.29259258380E+04  0.00000000000E+00 0. -1.
   -9000010    2    1    2    0  502  0.49006791822E+03 -0.22085818593E+03 -0.22608223150E+04  0.25323141611E+04  0.10061573275E+04 0.  0.
        -13    1    1    2    0    0 -0.49006791822E+03  0.22085818593E+03 -0.39289742927E+03  0.66581777076E+03  0.10566000000E+00 0.  1.
         13    1    3    3    0    0  0.22615293246E+03  0.33525654143E+03 -0.38610369004E+03  0.55912267711E+03  0.10566000000E+00 0. -1.
         -4    1    3    3    0  502  0.26391498576E+03 -0.55611472737E+03 -0.18747186249E+04  0.19731914840E+04  0.00000000000E+00 0. -1.
</event>
<event>
 6    1  0.2569591E-005  0.1038105E+04  0.7818608E-02  0.8982679E-01
          4   -1    0    0  502    0 -0.00000000000E+00  0.00000000000E+00  0.11347532712E+04  0.11347532712E+04  0.00000000000E+00 0.  1.
         21   -1    0    0  501  502  0.00000000000E+00 -0.00000000000E+00 -0.79467254144E+03  0.79467254144E+03  0.00000000000E+00 0.  1.
    9000010    2    1    2  501    0  0.23221828486E+03  0.29590663536E+03 -0.38935330694E+03  0.11087187433E+04  0.96756146336E+03 0.  0.
        -13    1    3    3    0    0  0.32915682596E+03 -0.25553802199E+03 -0.35558725940E+03  0.54780124769E+03  0.10566000000E+00 0.  1.
         13    1    1    2    0    0 -0.23221828486E+03 -0.29590663536E+03  0.72943403673E+03  0.82070706941E+03  0.10566000000E+00 0. -1.
          4    1    3    3  501    0 -0.96938541096E+02  0.55144465736E+03 -0.33766047538E+02  0.56091749558E+03  0.00000000000E+00 0.  1.
</event>
<event>
 5    1  0.2569591E-005  0.9476702E+02  0.7818608E-02  0.1190957E+00
         -4   -1    0    0    0  501 -0.00000000000E+00  0.00000000000E+00  0.32349519573E+02  0.32349519573E+02  0.00000000000E+00 0. -1.
         21   -1    0    0  501  502  0.00000000000E+00 -0.00000000000E+00 -0.20828638802E+03  0.20828638802E+03  0.00000000000E+00 0.  1.
        -13    1    1    2    0    0  0.34923451626E+02  0.52376952520E+02 -0.10435388347E+03  0.12187180473E+03  0.10566000000E+00 0.  1.
         13    1    1    2    0    0 -0.85433978076E+01 -0.64006082027E+02 -0.58393127959E+02  0.87060534914E+02  0.10566000000E+00 0. -1.
         -4    1    1    2    0  502 -0.26380053818E+02  0.11629129508E+02 -0.13189857018E+02  0.31703567949E+02  0.00000000000E+00 0. -1.
</event>
<event>
 6    1  0.2569591E-005  0.1172628E+04  0.7818608E-02  0.8772164E-01
         21   -1    0    0  501  502  0.00000000000E+00  0.00000000000E+00  0.48023827749E+03  0.48023827749E+03  0.00000000000E+00 0.  1.
          4   -1    0    0  502    0 -0.00000000000E+00 -0.00000000000E+00 -0.17786704822E+04  0.17786704822E+04  0.00000000000E+00 0.  1.
    9000010    2    1    2  501    0 -0.46658967822E+03 -0.41827419766E+03 -0.58860435471E+03  0.13120640945E+04  0.99115986065E+03 0.  0.
        -13    1    3    3    0    0 -0.63621915369E+03 -0.47194799372E+03 -0.10787438528E+03  0.79946645612E+03  0.10566000000E+00 0.  1.
         13    1    1    2    0    0  0.46658967822E+03  0.41827419766E+03 -0.70982784997E+03  0.94684466519E+03  0.10566000000E+00 0. -1.
          4    1    3    3  501    0  0.16962947547E+03  0.53673796062E+02 -0.48072996943E+03  0.51259763835E+03  0.00000000000E+00 0.  1.
</event>
<event>
 6    1  0.2569591E-005  0.1346783E+04  0.7818608E-02  0.8589468E-01
         21   -1    0    0  501  502  0.00000000000E+00  0.00000000000E+00  0.10639236688E+04  0.10639236688E+04  0.00000000000E+00 0.  1.
         -4   -1    0    0    0  501 -0.00000000000E+00 -0.00000000000E+00 -0.16143989647E+04  0.16143989647E+04  0.00000000000E+00 0. -1.
   -9000010    2    1    2    0  502 -0.74129173016E+03  0.53761032978E+03 -0.98125565482E+03  0.16663394200E+04  0.98756574792E+03 0.  0.
        -13    1    1    2    0    0  0.74129173016E+03 -0.53761032978E+03  0.43078035892E+03  0.10119832136E+04  0.10566000000E+00 0.  1.
         13    1    3    3    0    0 -0.16299905184E+03 -0.71040739201E+02  0.16696784786E+03  0.24391340863E+03  0.10566000000E+00 0. -1.
         -4    1    3    3    0  502 -0.57829267831E+03  0.60865106899E+03 -0.11482235027E+04  0.14224260113E+04  0.00000000000E+00 0. -1.
</event>
<event>
 6    1  0.2569591E-005  0.1022782E+04  0.7818608E-02  0.9100783E-01
         21   -1    0    0  501  502  0.00000000000E+00  0.00000000000E+00  0.15022307286E+03  0.15022307286E+03  0.00000000000E+00 0. -1.
          4   -1    0    0  502    0 -0.00000000000E+00 -0.00000000000E+00 -0.27592985524E+04  0.27592985524E+04  0.00000000000E+00 0.  1.
    9000010    2    1    2  501    0 -0.11634965391E+03  0.21556958391E+03 -0.22834284335E+04  0.25020250029E+04  0.99301370425E+03 0.  0.
        -13    1    3    3    0    0  0.19355192893E+03  0.50064084255E+03 -0.82674391389E+03  0.98570234490E+03  0.10566000000E+00 0.  1.
         13    1    1    2    0    0  0.11634965391E+03 -0.21556958391E+03 -0.32564704605E+03  0.40749662236E+03  0.10566000000E+00 0. -1.
          4    1    3    3  501    0 -0.30990158283E+03 -0.28507125864E+03 -0.14566845196E+04  0.15163226580E+04  0.00000000000E+00 0.  1.
</event>
<event>
 5    1  0.2569591E-005  0.7488935E+03  0.7818608E-02  0.9134558E-01
         21   -1    0    0  501  502  0.00000000000E+00  0.00000000000E+00  0.15113813453E+03  0.15113813453E+03  0.00000000000E+00 0.  1.
         -4   -1    0    0    0  501 -0.00000000000E+00 -0.00000000000E+00 -0.27751715273E+04  0.27751715273E+04  0.00000000000E+00 0. -1.
        -13    1    1    2    0    0 -0.50175153792E+03 -0.21580443696E+03 -0.11314102203E+04  0.12563499746E+04  0.10566000000E+00 0.  1.
         13    1    1    2    0    0  0.53449431843E+03  0.35456727114E+02 -0.87723132691E+03  0.10278502654E+04  0.10566000000E+00 0. -1.
         -4    1    1    2    0  502 -0.32742780519E+02  0.18034770984E+03 -0.61539184551E+03  0.64210942186E+03  0.00000000000E+00 0. -1.
</event>
<event>
 6    1  0.2569591E-005  0.8858335E+03  0.7818608E-02  0.9461920E-01
         21   -1    0    0  501  502  0.00000000000E+00  0.00000000000E+00  0.45185527104E+03  0.45185527104E+03  0.00000000000E+00 0.  1.
          4   -1    0    0  502    0 -0.00000000000E+00 -0.00000000000E+00 -0.59919440030E+03  0.59919440030E+03  0.00000000000E+00 0.  1.
    9000010    2    1    2  501    0 -0.55927141153E+02 -0.77223028794E+02 -0.12521103360E+02  0.88592198570E+03  0.88068708712E+03 0.  0.
        -13    1    3    3    0    0  0.27107520022E+03  0.26266616055E+03  0.11988102429E+03  0.39603882034E+03  0.10566000000E+00 0.  1.
         13    1    1    2    0    0  0.55927141153E+02  0.77223028794E+02 -0.13481802589E+03  0.16512768564E+03  0.10566000000E+00 0. -1.
          4    1    3    3  501    0 -0.32700234137E+03 -0.33988918934E+03 -0.13240212765E+03  0.48988316536E+03  0.00000000000E+00 0.  1.
</event>
<event>
 6    1  0.2569591E-005  0.1171047E+04  0.7818608E-02  0.8800014E-01
         21   -1    0    0  501  502  0.00000000000E+00  0.00000000000E+00  0.37384156871E+03  0.37384156871E+03  0.00000000000E+00 0.  1.
         -4   -1    0    0    0  501 -0.00000000000E+00 -0.00000000000E+00 -0.21187851909E+04  0.21187851909E+04  0.00000000000E+00 0. -1.
   -9000010    2    1    2    0  502 -0.28883707096E+03 -0.47858298901E+03 -0.14393657391E+04  0.18555660210E+04  0.10290204062E+04 0.  0.
        -13    1    1    2    0    0  0.28883707096E+03  0.47858298901E+03 -0.30557788314E+03  0.63706073868E+03  0.10566000000E+00 0.  1.
         13    1    3    3    0    0  0.32187504015E+02 -0.67184707584E+03 -0.48202119466E+03  0.82750164471E+03  0.10566000000E+00 0. -1.
         -4    1    3    3    0  502 -0.32102457497E+03  0.19326408682E+03 -0.95734454442E+03  0.10280643763E+04  0.00000000000E+00 0. -1.
</event>
<event>
 6    1  0.2569591E-005  0.1329953E+04  0.7818608E-02  0.8608108E-01
         21   -1    0    0  501  502  0.00000000000E+00  0.00000000000E+00  0.18454561829E+04  0.18454561829E+04  0.00000000000E+00 0.  1.
         -4   -1    0    0    0  501 -0.00000000000E+00 -0.00000000000E+00 -0.72635531568E+03  0.72635531568E+03  0.00000000000E+00 0. -1.
   -9000010    2    1    2    0  502  0.87251938272E+03  0.71910161486E+02  0.10483834500E+04  0.16934823412E+04  0.10011560503E+04 0.  0.
        -13    1    1    2    0    0 -0.87251938272E+03 -0.71910161486E+02  0.70717417266E+02  0.87832915745E+03  0.10566000000E+00 0.  1.
         13    1    3    3    0    0  0.12537682977E+03 -0.39313273936E+03  0.15879394119E+03  0.44214050609E+03  0.10566000000E+00 0. -1.
         -4    1    3    3    0  502  0.74714255295E+03  0.46504290084E+03  0.88958950878E+03  0.12513418351E+04  0.00000000000E+00 0. -1.
</event>
<event>
 6    1  0.2569591E-005  0.9836479E+03  0.7818608E-02  0.9362771E-01
         -4   -1    0    0    0  501 -0.00000000000E+00  0.00000000000E+00  0.58112328425E+03  0.58112328425E+03  0.00000000000E+00 0. -1.
         21   -1    0    0  501  502  0.00000000000E+00 -0.00000000000E+00 -0.77595187501E+03  0.77595187501E+03  0.00000000000E+00 0. -1.
   -9000010    2    1    2    0  502 -0.66151303459E+02  0.75659886971E+02 -0.45083959167E+03  0.10820441479E+04  0.97850027449E+03 0.  0.
        -13    1    1    2    0    0  0.66151303459E+02 -0.75659886971E+02  0.25601100092E+03  0.27503101134E+03  0.10566000000E+00 0.  1.
         13    1    3    3    0    0  0.38690575809E+03 -0.19589076333E+03 -0.31691363799E+03  0.53712523857E+03  0.10566000000E+00 0. -1.
         -4    1    3    3    0  502 -0.45305706155E+03  0.27155065030E+03 -0.13392595368E+03  0.54491890935E+03  0.00000000000E+00 0. -1.
</event>
<event>
 6    1  0.2569591E-005  0.1332894E+04  0.7818608E-02  0.8603555E-01
         -4   -1    0    0    0  501 -0.00000000000E+00  0.00000000000E+00  0.10737018222E+04  0.10737018222E+04  0.00000000000E+00 0. -1.
         21   -1    0    0  501  502  0.00000000000E+00 -0.00000000000E+00 -0.13362729724E+04  0.13362729724E+04  0.00000000000E+00 0. -1.
   -9000010    2    1    2    0  502  0.87348683288E+02 -0.88309578726E+03  0.29069531474E+03  0.13642254201E+04  0.99454475453E+03 0.  0.
        -13    1    1    2    0    0 -0.87348683288E+02  0.88309578726E+03 -0.55326646501E+03  0.10457493746E+04  0.10566000000E+00 0.  1.
         13    1    3    3    0    0  0.30046661167E+03  0.60730704925E+02 -0.97491859220E+02  0.32167231312E+03  0.10566000000E+00 0. -1.
         -4    1    3    3    0  502 -0.21311792838E+03 -0.94382649219E+03  0.38818717395E+03  0.10425531069E+04  0.00000000000E+00 0. -1.
</event>
<event>
 6    1  0.2569591E-005  0.1129635E+04  0.7818608E-02  0.8836572E-01
          4   -1    0    0  502    0 -0.00000000000E+00  0.00000000000E+00  0.39310236332E+03  0.39310236332E+03  0.00000000000E+00 0.  1.
         21   -1    0    0  501  502  0.00000000000E+00 -0.00000000000E+00 -0.18081574250E+04  0.18081574250E+04  0.00000000000E+00 0. -1.
    9000010    2    1    2  501    0 -0.46062943392E+03 -0.26972601061E+03 -0.11227153078E+04  0.15926596412E+04  0.99556188867E+03 0.  0.
        -13    1    3    3    0    0 -0.50792333730E+03  0.27144020273E+03 -0.68573088039E+03  0.89548464628E+03  0.10566000000E+00 0.  1.
         13    1    1    2    0    0  0.46062943392E+03  0.26972601061E+03 -0.29233975388E+03  0.60860014710E+03  0.10566000000E+00 0. -1.
          4    1    3    3  501    0  0.47293903386E+02 -0.54116621333E+03 -0.43698442740E+03  0.69717499492E+03  0.00000000000E+00 0.  1.
</event>
<event>
 5    1  0.2569591E-005  0.4258640E+02  0.7818608E-02  0.1351073E+00
         21   -1    0    0  501  502  0.00000000000E+00  0.00000000000E+00  0.18009338123E+02  0.18009338123E+02  0.00000000000E+00 0.  1.
         -4   -1    0    0    0  501 -0.00000000000E+00 -0.00000000000E+00 -0.73202982321E+02  0.73202982321E+02  0.00000000000E+00 0. -1.
        -13    1    1    2    0    0 -0.23839140285E+02 -0.11741147407E+02 -0.82386355443E+01  0.27821671978E+02  0.10566000000E+00 0.  1.
         13    1    1    2    0    0  0.17709556251E+02 -0.81455044142E+01 -0.33024506659E+02  0.38348491872E+02  0.10566000000E+00 0. -1.
         -4    1    1    2    0  502  0.61295840343E+01  0.19886651821E+02 -0.13930501995E+02  0.25042156595E+02  0.00000000000E+00 0. -1.
</event>
<event>
 6    1  0.2569591E-005  0.1011606E+04  0.7818608E-02  0.9161548E-01
         21   -1    0    0  501  502  0.00000000000E+00  0.00000000000E+00  0.35933901187E+03  0.35933901187E+03  0.00000000000E+00 0. -1.
         -4   -1    0    0    0  501 -0.00000000000E+00 -0.00000000000E+00 -0.10502555776E+04  0.10502555776E+04  0.00000000000E+00 0. -1.
   -9000010    2    1    2    0  502  0.38469257851E+02  0.19561681335E+03 -0.48114833000E+03  0.11202011802E+04  0.99176667977E+03 0.  0.
        -13    1    1    2    0    0 -0.38469257851E+02 -0.19561681335E+03 -0.20976823575E+03  0.28939340932E+03  0.10566000000E+00 0.  1.
         13    1    3    3    0    0 -0.21021451748E+03 -0.66945641393E+02  0.23227802761E+03  0.32035130019E+03  0.10566000000E+00 0. -1.
         -4    1    3    3    0  502  0.24868377533E+03  0.26256245475E+03 -0.71342635761E+03  0.79984987997E+03  0.00000000000E+00 0. -1.
</event>
<event>
 6    1  0.2569591E-005  0.1065117E+04  0.7818608E-02  0.8988996E-01
          4   -1    0    0  502    0 -0.00000000000E+00  0.00000000000E+00  0.41881130419E+03  0.41881130419E+03  0.00000000000E+00 0.  1.
         21   -1    0    0  501  502  0.00000000000E+00 -0.00000000000E+00 -0.12836368461E+04  0.12836368461E+04  0.00000000000E+00 0. -1.
    9000010    2    1    2  501    0  0.31900001270E+03  0.11598188201E+03 -0.42476457814E+03  0.11466905880E+04  0.10095848417E+04 0.  0.
        -13    1    3    3    0    0  0.13057206407E+02  0.16813666388E+03 -0.70721760414E+03  0.72704688924E+03  0.10566000000E+00 0.  1.
         13    1    1    2    0    0 -0.31900001270E+03 -0.11598188201E+03 -0.44006096372E+03  0.55575756227E+03  0.10566000000E+00 0. -1.
          4    1    3    3  501    0  0.30594280629E+03 -0.52154781863E+02  0.28245302601E+03  0.41964369874E+03  0.00000000000E+00 0.  1.
</event>
<event>
 5    1  0.2569591E-005  0.1977819E+03  0.7818608E-02  0.1062176E+00
         21   -1    0    0  501  502  0.00000000000E+00  0.00000000000E+00  0.66557396098E+02  0.66557396098E+02  0.00000000000E+00 0. -1.
          4   -1    0    0  502    0 -0.00000000000E+00 -0.00000000000E+00 -0.58269176676E+03  0.58269176676E+03  0.00000000000E+00 0.  1.
        -13    1    1    2    0    0 -0.32242694438E+02  0.17162088460E+03 -0.19285436578E+03  0.26016559523E+03  0.10566000000E+00 0.  1.
         13    1    1    2    0    0  0.41270294720E+02 -0.19045936096E+03 -0.28153163886E+03  0.34240046765E+03  0.10566000000E+00 0. -1.
          4    1    1    2  501    0 -0.90276002817E+01  0.18838476356E+02 -0.41748366021E+02  0.46683099979E+02  0.00000000000E+00 0.  1.
</event>
<event>
 6    1  0.2569591E-005  0.1194649E+04  0.7818608E-02  0.8742309E-01
         21   -1    0    0  501  502  0.00000000000E+00  0.00000000000E+00  0.77552174363E+03  0.77552174363E+03  0.00000000000E+00 0. -1.
         -4   -1    0    0    0  501 -0.00000000000E+00 -0.00000000000E+00 -0.14383110996E+04  0.14383110996E+04  0.00000000000E+00 0. -1.
   -9000010    2    1    2    0  502 -0.20670139644E+03  0.64074000676E+03  0.97109529406E+02  0.11985892514E+04  0.98687015831E+03 0.  0.
        -13    1    1    2    0    0  0.20670139644E+03 -0.64074000676E+03 -0.75989888534E+03  0.10152435918E+04  0.10566000000E+00 0.  1.
         13    1    3    3    0    0  0.31401100463E+03 -0.47253723515E+01  0.18523074288E+03  0.36460345506E+03  0.10566000000E+00 0. -1.
         -4    1    3    3    0  502 -0.52071240107E+03  0.64546537911E+03 -0.88121213474E+02  0.83398579635E+03  0.00000000000E+00 0. -1.
</event>
<event>
 6    1  0.2569591E-005  0.1136432E+04  0.7818608E-02  0.8797218E-01
          4   -1    0    0  502    0 -0.00000000000E+00  0.00000000000E+00  0.24308268352E+04  0.24308268352E+04  0.00000000000E+00 0.  1.
         21   -1    0    0  501  502  0.00000000000E+00 -0.00000000000E+00 -0.35537438295E+03  0.35537438295E+03  0.00000000000E+00 0. -1.
    9000010    2    1    2  501    0  0.58680181639E+03 -0.19680554213E+03  0.17508170357E+04  0.20873042601E+04  0.95310544466E+03 0.  0.
        -13    1    3    3    0    0  0.79748167528E+03  0.19148355721E+02  0.10073225712E+04  0.12849289691E+04  0.10566000000E+00 0.  1.
         13    1    1    2    0    0 -0.58680181639E+03  0.19680554213E+03  0.32463541659E+03  0.69889695807E+03  0.10566000000E+00 0. -1.
          4    1    3    3  501    0 -0.21067985889E+03 -0.21595389785E+03  0.74349446446E+03  0.80237529101E+03  0.00000000000E+00 0.  1.
</event>
<event>
 6    1  0.2569591E-005  0.1238118E+04  0.7818608E-02  0.8728146E-01
         21   -1    0    0  501  502  0.00000000000E+00  0.00000000000E+00  0.89385468282E+03  0.89385468282E+03  0.00000000000E+00 0.  1.
          4   -1    0    0  502    0 -0.00000000000E+00 -0.00000000000E+00 -0.27647315061E+04  0.27647315061E+04  0.00000000000E+00 0.  1.
    9000010    2    1    2  501    0 -0.24016345287E+03  0.59617325417E+03  0.39793210541E+03  0.13004947999E+04  0.10582229117E+04 0.  0.
        -13    1    3    3    0    0  0.37471191319E+03  0.18644298188E+03  0.37389432347E+03  0.56121919039E+03  0.10566000000E+00 0.  1.
         13    1    1    2    0    0  0.24016345287E+03 -0.59617325417E+03 -0.22688089287E+04  0.23580913891E+04  0.10566000000E+00 0. -1.
          4    1    3    3  501    0 -0.61487536605E+03  0.40973027229E+03  0.24037781937E+02  0.73927560948E+03  0.00000000000E+00 0.  1.
</event>
<event>
 5    1  0.2569591E-005  0.4361393E+02  0.7818608E-02  0.1361841E+00
          4   -1    0    0  502    0 -0.00000000000E+00  0.00000000000E+00  0.10688141737E+03  0.10688141737E+03  0.00000000000E+00 0.  1.
         21   -1    0    0  501  502  0.00000000000E+00 -0.00000000000E+00 -0.10444244054E+02  0.10444244054E+02  0.00000000000E+00 0.  1.
        -13    1    1    2    0    0  0.19017651735E+02  0.46091993451E+01  0.53352586774E+01  0.20282799247E+02  0.10566000000E+00 0.  1.
         13    1    1    2    0    0 -0.13141781999E+02 -0.15631149026E+02  0.47902156163E+02  0.52073668808E+02  0.10566000000E+00 0. -1.
          4    1    1    2  501    0 -0.58758697360E+01  0.11021949681E+02  0.43199758478E+02  0.44969193371E+02  0.00000000000E+00 0.  1.
</event>
<event>
 6    1  0.2569591E-005  0.1024618E+04  0.7818608E-02  0.9404910E-01
         21   -1    0    0  501  502  0.00000000000E+00  0.00000000000E+00  0.30725971597E+03  0.30725971597E+03  0.00000000000E+00 0. -1.
         -4   -1    0    0    0  501 -0.00000000000E+00 -0.00000000000E+00 -0.10057415848E+04  0.10057415848E+04  0.00000000000E+00 0. -1.
   -9000010    2    1    2    0  502 -0.71380980199E+02 -0.26131439210E+02 -0.59582015974E+03  0.11852611969E+04  0.10217946691E+04 0.  0.
        -13    1    1    2    0    0  0.71380980199E+02  0.26131439210E+02 -0.10266170908E+03  0.12774010382E+03  0.10566000000E+00 0.  1.
         13    1    3    3    0    0  0.98071349716E+02  0.60012330379E+02  0.27282357710E+03  0.29606111670E+03  0.10566000000E+00 0. -1.
         -4    1    3    3    0  502 -0.16945232992E+03 -0.86143769590E+02 -0.86864373685E+03  0.88920008025E+03  0.00000000000E+00 0. -1.
</event>
<event>
 6    1  0.2569591E-005  0.1032697E+04  0.7818608E-02  0.9078523E-01
         21   -1    0    0  501  502  0.00000000000E+00  0.00000000000E+00  0.25706485802E+03  0.25706485802E+03  0.00000000000E+00 0.  1.
          4   -1    0    0  502    0 -0.00000000000E+00 -0.00000000000E+00 -0.19510220700E+04  0.19510220700E+04  0.00000000000E+00 0.  1.
    9000010    2    1    2  501    0  0.23209788616E+03  0.11706493249E+03 -0.89047825659E+03  0.13636036126E+04  0.99944467557E+03 0.  0.
        -13    1    3    3    0    0  0.38235793362E+03 -0.71842079374E+02  0.50360341392E+02  0.39229459456E+03  0.10566000000E+00 0.  1.
         13    1    1    2    0    0 -0.23209788616E+03 -0.11706493249E+03 -0.80347895539E+03  0.84448331547E+03  0.10566000000E+00 0. -1.
          4    1    3    3  501    0 -0.15026004746E+03  0.18890701186E+03 -0.94083859798E+03  0.97130901800E+03  0.00000000000E+00 0.  1.
</event>
<event>
 6    1  0.2569591E-005  0.1243209E+04  0.7818608E-02  0.8694396E-01
         -4   -1    0    0    0  501 -0.00000000000E+00  0.00000000000E+00  0.17298063886E+04  0.17298063886E+04  0.00000000000E+00 0. -1.
         21   -1    0    0  501  502  0.00000000000E+00 -0.00000000000E+00 -0.72110349242E+03  0.72110349242E+03  0.00000000000E+00 0.  1.
   -9000010    2    1    2    0  502 -0.12578302995E+03  0.72362098414E+03  0.11607607519E+04  0.17008630145E+04  0.10030557171E+04 0.  0.
        -13    1    1    2    0    0  0.12578302995E+03 -0.72362098414E+03 -0.15205785573E+03  0.75004686651E+03  0.10566000000E+00 0.  1.
         13    1    3    3    0    0 -0.12152308762E+03 -0.96636213735E+02  0.78218800033E+03  0.79744874296E+03  0.10566000000E+00 0. -1.
         -4    1    3    3    0  502 -0.42599423319E+01  0.82025719787E+03  0.37857275156E+03  0.90341427152E+03  0.00000000000E+00 0. -1.
</event>
<event>
 6    1  0.2569591E-005  0.1299245E+04  0.7818608E-02  0.8624853E-01
          4   -1    0    0  502    0 -0.00000000000E+00  0.00000000000E+00  0.24054523630E+04  0.24054523630E+04  0.00000000000E+00 0.  1.
         21   -1    0    0  501  502  0.00000000000E+00 -0.00000000000E+00 -0.49908480454E+03  0.49908480454E+03  0.00000000000E+00 0. -1.
    9000010    2    1    2  501    0 -0.85015611569E+03  0.19438551903E+03  0.94514019060E+03  0.16066507261E+04  0.96306044705E+03 0.  0.
        -13    1    3    3    0    0  0.16701367317E+03  0.12911499171E+03  0.39629083139E+03  0.44901078196E+03  0.10566000000E+00 0.  1.
         13    1    1    2    0    0  0.85015611569E+03 -0.19438551903E+03  0.96122736790E+03  0.12978864415E+04  0.10566000000E+00 0. -1.
          4    1    3    3  501    0 -0.10171697889E+04  0.65270527315E+02  0.54884935921E+03  0.11576399441E+04  0.00000000000E+00 0.  1.
</event>
<event>
 6    1  0.2569591E-005  0.1025189E+04  0.7818608E-02  0.9239943E-01
         -4   -1    0    0    0  501 -0.00000000000E+00  0.00000000000E+00  0.18037039015E+04  0.18037039015E+04  0.00000000000E+00 0. -1.
         21   -1    0    0  501  502  0.00000000000E+00 -0.00000000000E+00 -0.18898117181E+03  0.18898117181E+03  0.00000000000E+00 0. -1.
   -9000010    2    1    2    0  502 -0.11438180578E+03 -0.83098030035E+02  0.14461939146E+04  0.17727067726E+04  0.10153935114E+04 0.  0.
        -13    1    1    2    0    0  0.11438180578E+03  0.83098030035E+02  0.16852881504E+03  0.21997830064E+03  0.10566000000E+00 0.  1.
         13    1    3    3    0    0  0.18079289382E+03 -0.16043511453E+03 -0.49054324363E+02  0.24664110430E+03  0.10566000000E+00 0. -1.
         -4    1    3    3    0  502 -0.29517469960E+03  0.77337084490E+02  0.14952482390E+04  0.15260656683E+04  0.00000000000E+00 0. -1.
</event>
<event>
 6    1  0.2569591E-005  0.1112270E+04  0.7818608E-02  0.8915772E-01
         21   -1    0    0  501  502  0.00000000000E+00  0.00000000000E+00  0.58895866773E+03  0.58895866773E+03  0.00000000000E+00 0.  1.
          4   -1    0    0  502    0 -0.00000000000E+00 -0.00000000000E+00 -0.10447049121E+04  0.10447049121E+04  0.00000000000E+00 0.  1.
    9000010    2    1    2  501    0 -0.27517039681E+03 -0.29328156190E+03 -0.13734214824E+03  0.11207171875E+04  0.10370204081E+04 0.  0.
        -13    1    3    3    0    0  0.10436897237E+03 -0.14875000364E+03  0.40457370365E+03  0.44350799184E+03  0.10566000000E+00 0.  1.
         13    1    1    2    0    0  0.27517039681E+03  0.29328156190E+03 -0.31840409611E+03  0.51294639234E+03  0.10566000000E+00 0. -1.
          4    1    3    3  501    0 -0.37953936918E+03 -0.14453155826E+03 -0.54191585189E+03  0.67720919561E+03  0.00000000000E+00 0.  1.
</event>
<event>
 6    1  0.2569591E-005  0.1295831E+04  0.7818608E-02  0.8640485E-01
         21   -1    0    0  501  502  0.00000000000E+00  0.00000000000E+00  0.63066796222E+03  0.63066796222E+03  0.00000000000E+00 0.  1.
         -4   -1    0    0    0  501 -0.00000000000E+00 -0.00000000000E+00 -0.26524743121E+04  0.26524743121E+04  0.00000000000E+00 0. -1.
   -9000010    2    1    2    0  502 -0.65311594737E+03  0.49679112854E+03 -0.23506851335E+03  0.13169800293E+04  0.10029044449E+04 0.  0.
        -13    1    1    2    0    0  0.65311594737E+03 -0.49679112854E+03 -0.17867378365E+04  0.19661622450E+04  0.10566000000E+00 0.  1.
         13    1    3    3    0    0 -0.11344509903E+03 -0.28212280588E+03 -0.20907680871E+03  0.36902058371E+03  0.10566000000E+00 0. -1.
         -4    1    3    3    0  502 -0.53967084833E+03  0.77891393442E+03 -0.25991704637E+02  0.94795944559E+03  0.00000000000E+00 0. -1.
</event>
<event>
 5    1  0.2569591E-005  0.1804758E+03  0.7818608E-02  0.1090644E+00
          4   -1    0    0  502    0 -0.00000000000E+00  0.00000000000E+00  0.29548403862E+03  0.29548403862E+03  0.00000000000E+00 0.  1.
         21   -1    0    0  501  502  0.00000000000E+00 -0.00000000000E+00 -0.93357493812E+02  0.93357493812E+02  0.00000000000E+00 0. -1.
        -13    1    1    2    0    0  0.94405818102E+01  0.66400816406E+02  0.34380259943E+02  0.75367144314E+02  0.10566000000E+00 0.  1.
         13    1    1    2    0    0  0.90140411920E+02 -0.70783502464E+02 -0.42420386515E+01  0.11468916312E+03  0.10566000000E+00 0. -1.
          4    1    1    2  501    0 -0.99580993730E+02  0.43826860578E+01  0.17198832351E+03  0.19878522499E+03  0.00000000000E+00 0.  1.
</event>
<event>
 6    1  0.2569591E-005  0.1215116E+04  0.7818608E-02  0.8710445E-01
         21   -1    0    0  501  502  0.00000000000E+00  0.00000000000E+00  0.13383134068E+04  0.13383134068E+04  0.00000000000E+00 0. -1.
         -4   -1    0    0    0  501 -0.00000000000E+00 -0.00000000000E+00 -0.84508188118E+03  0.84508188118E+03  0.00000000000E+00 0. -1.
   -9000010    2    1    2    0  502  0.68505268389E+03 -0.26306060291E+03  0.72361305136E+03  0.14142569915E+04  0.96850861087E+03 0.  0.
        -13    1    1    2    0    0 -0.68505268389E+03  0.26306060291E+03 -0.23038152578E+03  0.76913829647E+03  0.10566000000E+00 0.  1.
         13    1    3    3    0    0 -0.22171746908E+03 -0.25137034074E+02  0.32807123284E+03  0.39676347055E+03  0.10566000000E+00 0. -1.
         -4    1    3    3    0  502  0.90677015297E+03 -0.23792356884E+03  0.39554181852E+03  0.10174935209E+04  0.00000000000E+00 0. -1.
</event>
<event>
 5    1  0.2569591E-005  0.6623398E+02  0.7818608E-02  0.1310605E+00
         21   -1    0    0  501  502  0.00000000000E+00  0.00000000000E+00  0.82286227101E+02  0.82286227101E+02  0.00000000000E+00 0.  1.
         -4   -1    0    0    0  501 -0.00000000000E+00 -0.00000000000E+00 -0.65710736023E+02  0.65710736023E+02  0.00000000000E+00 0. -1.
        -13    1    1    2    0    0  0.14919812795E+02 -0.79959496062E+00  0.64522462785E+02  0.66229899093E+02  0.10566000000E+00 0.  1.
         13    1    1    2    0    0  0.21316926530E+02 -0.14352442942E+02 -0.11388978609E+02  0.28109143937E+02  0.10566000000E+00 0. -1.
         -4    1    1    2    0  502 -0.36236739325E+02  0.15152037902E+02 -0.36557993098E+02  0.53657920094E+02  0.00000000000E+00 0. -1.
</event>
<event>
 5    1  0.2569591E-005  0.6387912E+02  0.7818608E-02  0.1268677E+00
         21   -1    0    0  501  502  0.00000000000E+00  0.00000000000E+00  0.75196100068E+01  0.75196100068E+01  0.00000000000E+00 0. -1.
          4   -1    0    0  502    0 -0.00000000000E+00 -0.00000000000E+00 -0.35249751090E+03  0.35249751090E+03  0.00000000000E+00 0.  1.
        -13    1    1    2    0    0 -0.91771343593E+01 -0.13858537185E+02 -0.66604749855E+02  0.68647525194E+02  0.10566000000E+00 0.  1.
         13    1    1    2    0    0  0.22896283520E+02 -0.30413358166E+02 -0.15416060366E+03  0.15879141991E+03  0.10566000000E+00 0. -1.
          4    1    1    2  501    0 -0.13719149161E+02  0.44271895351E+02 -0.12421254739E+03  0.13257817581E+03  0.00000000000E+00 0.  1.
</event>
<event>
 5    1  0.2569591E-005  0.1476061E+03  0.7818608E-02  0.1135799E+00
         21   -1    0    0  501  502  0.00000000000E+00  0.00000000000E+00  0.47273880024E+02  0.47273880024E+02  0.00000000000E+00 0. -1.
         -4   -1    0    0    0  501 -0.00000000000E+00 -0.00000000000E+00 -0.25711902209E+03  0.25711902209E+03  0.00000000000E+00 0. -1.
        -13    1    1    2    0    0  0.61831985559E+02 -0.14073096802E+02 -0.10738485586E+03  0.12471072498E+03  0.10566000000E+00 0.  1.
         13    1    1    2    0    0  0.88758984112E+01  0.18158162021E+02  0.26035397385E+02  0.32959877148E+02  0.10566000000E+00 0. -1.
         -4    1    1    2    0  502 -0.70707883970E+02 -0.40850652193E+01 -0.12849568359E+03  0.14672229999E+03  0.00000000000E+00 0. -1.
</event>
<event>
 6    1  0.2569591E-005  0.1039932E+04  0.7818608E-02  0.9052687E-01
         21   -1    0    0  501  502  0.00000000000E+00  0.00000000000E+00  0.22183165241E+03  0.22183165241E+03  0.00000000000E+00 0. -1.
         -4   -1    0    0    0  501 -0.00000000000E+00 -0.00000000000E+00 -0.20124838879E+04  0.20124838879E+04  0.00000000000E+00 0. -1.
   -9000010    2    1    2    0  502  0.24478881064E+03 -0.14038237970E+03 -0.12638576981E+04  0.16367025634E+04  0.10009146945E+04 0.  0.
        -13    1    1    2    0    0 -0.24478881064E+03  0.14038237970E+03 -0.52679453743E+03  0.59761297691E+03  0.10566000000E+00 0.  1.
         13    1    3    3    0    0 -0.39050674850E+03 -0.95368655741E+01 -0.50389127869E+03  0.63756796055E+03  0.10566000000E+00 0. -1.
         -4    1    3    3    0  502  0.63529555913E+03 -0.13084551413E+03 -0.75996641939E+03  0.99913460286E+03  0.00000000000E+00 0. -1.
</event>
<event>
 6    1  0.2569591E-005  0.1147950E+04  0.7818608E-02  0.8809078E-01
          4   -1    0    0  502    0 -0.00000000000E+00  0.00000000000E+00  0.12895556483E+04  0.12895556483E+04  0.00000000000E+00 0.  1.
         21   -1    0    0  501  502  0.00000000000E+00 -0.00000000000E+00 -0.72777868569E+03  0.72777868569E+03  0.00000000000E+00 0. -1.
    9000010    2    1    2  501    0 -0.56612239126E+03  0.75221563347E+02  0.79930193890E+03  0.13988111162E+04  0.99580927075E+03 0.  0.
        -13    1    3    3    0    0 -0.14009148422E+03  0.30038531980E+03 -0.12677684951E+03  0.35486524912E+03  0.10566000000E+00 0.  1.
         13    1    1    2    0    0  0.56612239126E+03 -0.75221563347E+02 -0.23752497628E+03  0.61852321783E+03  0.10566000000E+00 0. -1.
          4    1    3    3  501    0 -0.42603090704E+03 -0.22516375645E+03  0.92607878841E+03  0.10439458670E+04  0.00000000000E+00 0.  1.
</event>
<event>
 6    1  0.2569591E-005  0.1370197E+04  0.7818608E-02  0.8597428E-01
         21   -1    0    0  501  502  0.00000000000E+00  0.00000000000E+00  0.51197076994E+03  0.51197076994E+03  0.00000000000E+00 0.  1.
          4   -1    0    0  502    0 -0.00000000000E+00 -0.00000000000E+00 -0.27277550618E+04  0.27277550618E+04  0.00000000000E+00 0.  1.
    9000010    2    1    2  501    0 -0.78435261894E+03  0.29889686134E+03 -0.78017791495E+03  0.15767423546E+04  0.10830006968E+04 0.  0.
        -13    1    3    3    0    0  0.22607315122E+03 -0.12800387789E+03 -0.66737780429E+02  0.26823125276E+03  0.10566000000E+00 0.  1.
         13    1    1    2    0    0  0.78435261894E+03 -0.29889686134E+03 -0.14356063770E+04  0.16629834772E+04  0.10566000000E+00 0. -1.
          4    1    3    3  501    0 -0.10104257702E+04  0.42690073922E+03 -0.71344013452E+03  0.13085111019E+04  0.00000000000E+00 0.  1.
</event>
<event>
 5    1  0.2569591E-005  0.5285397E+03  0.7818608E-02  0.9499143E-01
          4   -1    0    0  502    0 -0.00000000000E+00  0.00000000000E+00  0.85681286050E+03  0.85681286050E+03  0.00000000000E+00 0.  1.
         21   -1    0    0  501  502  0.00000000000E+00 -0.00000000000E+00 -0.99220226952E+03  0.99220226952E+03  0.00000000000E+00 0. -1.
        -13    1    1    2    0    0 -0.27784561743E+03 -0.34429203786E+03  0.70841450212E+03  0.83521632673E+03  0.10566000000E+00 0.  1.
         13    1    1    2    0    0  0.27117345715E+03  0.28291430291E+03 -0.86409747479E+03  0.94880978270E+03  0.10566000000E+00 0. -1.
          4    1    1    2  501    0  0.66721602834E+01  0.61377734949E+02  0.20293563648E+02  0.64989020579E+02  0.00000000000E+00 0.  1.
</event>
<event>
 6    1  0.2569591E-005  0.1179094E+04  0.7818608E-02  0.8771749E-01
         21   -1    0    0  501  502  0.00000000000E+00  0.00000000000E+00  0.45155870617E+03  0.45155870617E+03  0.00000000000E+00 0. -1.
          4   -1    0    0  502    0 -0.00000000000E+00 -0.00000000000E+00 -0.18963667169E+04  0.18963667169E+04  0.00000000000E+00 0.  1.
    9000010    2    1    2  501    0  0.56453631416E+03  0.25012269010E+03 -0.12039182583E+04  0.16851354910E+04  0.10044898407E+04 0.  0.
        -13    1    3    3    0    0 -0.14020372173E+03 -0.25517845594E+03 -0.17570548045E+03  0.34006698603E+03  0.10566000000E+00 0.  1.
         13    1    1    2    0    0 -0.56453631416E+03 -0.25012269010E+03 -0.24088975239E+03  0.66278993209E+03  0.10566000000E+00 0. -1.
          4    1    3    3  501    0  0.70474003589E+03  0.50530114604E+03 -0.10282127779E+04  0.13450685049E+04  0.00000000000E+00 0.  1.
</event>
<event>
 6    1  0.2569591E-005  0.1023443E+04  0.7818608E-02  0.9223259E-01
         21   -1    0    0  501  502  0.00000000000E+00  0.00000000000E+00  0.14958188486E+03  0.14958188486E+03  0.00000000000E+00 0. -1.
         -4   -1    0    0    0  501 -0.00000000000E+00 -0.00000000000E+00 -0.23082917053E+04  0.23082917053E+04  0.00000000000E+00 0. -1.
   -9000010    2    1    2    0  502  0.12145303566E+03 -0.90606526877E+02 -0.18633922717E+04  0.21259506347E+04  0.10121635048E+04 0.  0.
        -13    1    1    2    0    0 -0.12145303566E+03  0.90606526877E+02 -0.29531754883E+03  0.33192295551E+03  0.10566000000E+00 0.  1.
         13    1    3    3    0    0 -0.60004982150E+02 -0.72254401485E+02  0.10971877162E+03  0.14442823971E+03  0.10566000000E+00 0. -1.
         -4    1    3    3    0  502  0.18145801781E+03 -0.18352125392E+02 -0.19731110433E+04  0.19815223950E+04  0.00000000000E+00 0. -1.
</event>
<event>
 6    1  0.2569591E-005  0.1021420E+04  0.7818608E-02  0.9128951E-01
         -4   -1    0    0    0  501 -0.00000000000E+00  0.00000000000E+00  0.96855038285E+03  0.96855038285E+03  0.00000000000E+00 0. -1.
         21   -1    0    0  501  502  0.00000000000E+00 -0.00000000000E+00 -0.47166776076E+03  0.47166776076E+03  0.00000000000E+00 0. -1.
   -9000010    2    1    2    0  502  0.65535202843E+02  0.21008937611E+03  0.15425672951E+03  0.10330020803E+04  0.99742957174E+03 0.  0.
        -13    1    1    2    0    0 -0.65535202843E+02 -0.21008937611E+03  0.34262589258E+03  0.40721606329E+03  0.10566000000E+00 0.  1.
         13    1    3    3    0    0 -0.28449536002E+03  0.33264418335E+03 -0.23378947704E+03  0.49623310382E+03  0.10566000000E+00 0. -1.
         -4    1    3    3    0  502  0.35003056286E+03 -0.12255480724E+03  0.38804620655E+03  0.53676897650E+03  0.00000000000E+00 0. -1.
</event>
<event>
 6    1  0.2569591E-005  0.1079941E+04  0.7818608E-02  0.8911859E-01
         21   -1    0    0  501  502  0.00000000000E+00  0.00000000000E+00  0.26277631945E+03  0.26277631945E+03  0.00000000000E+00 0. -1.
          4   -1    0    0  502    0 -0.00000000000E+00 -0.00000000000E+00 -0.25999865184E+04  0.25999865184E+04  0.00000000000E+00 0.  1.
    9000010    2    1    2  501    0 -0.44135812408E+03 -0.67704299577E+02 -0.20896342596E+04  0.23521996951E+04  0.98330625985E+03 0.  0.
        -13    1    3    3    0    0 -0.45954305621E+03 -0.15414931529E+03 -0.32100486040E+03  0.58136560225E+03  0.10566000000E+00 0.  1.
         13    1    1    2    0    0  0.44135812408E+03  0.67704299577E+02 -0.24757593934E+03  0.51056314279E+03  0.10566000000E+00 0. -1.
          4    1    3    3  501    0  0.18184932135E+02  0.86445015713E+02 -0.17686293992E+04  0.17708340928E+04  0.00000000000E+00 0.  1.
</event>
<event>
 5    1  0.2569591E-005  0.7504000E+02  0.7818608E-02  0.1216360E+00
         -4   -1    0    0    0  501 -0.00000000000E+00  0.00000000000E+00  0.12233756921E+03  0.12233756921E+03  0.00000000000E+00 0. -1.
         21   -1    0    0  501  502  0.00000000000E+00 -0.00000000000E+00 -0.75902871876E+02  0.75902871876E+02  0.00000000000E+00 0.  1.
        -13    1    1    2    0    0  0.31736593359E+02 -0.63908491715E+02 -0.41574555699E+02  0.82583058292E+02  0.10566000000E+00 0.  1.
         13    1    1    2    0    0 -0.19872509874E+02  0.55255119439E+02  0.59543019835E+02  0.83626713723E+02  0.10566000000E+00 0. -1.
         -4    1    1    2    0  502 -0.11864083485E+02  0.86533722755E+01  0.28466233195E+02  0.32030669068E+02  0.00000000000E+00 0. -1.
</event>
<event>
 6    1  0.2569591E-005  0.1024675E+04  0.7818608E-02  0.9313939E-01
         -4   -1    0    0    0  501 -0.00000000000E+00  0.00000000000E+00  0.17834097724E+03  0.17834097724E+03  0.00000000000E+00 0. -1.
         21   -1    0    0  501  502  0.00000000000E+00 -0.00000000000E+00 -0.18032433903E+04  0.18032433903E+04  0.00000000000E+00 0. -1.
   -9000010    2    1    2    0  502 -0.73982296926E+02 -0.77043628359E+02 -0.14282913946E+04  0.17578322621E+04  0.10190921710E+04 0.  0.
        -13    1    1    2    0    0  0.73982296926E+02  0.77043628359E+02 -0.19661101848E+03  0.22375210542E+03  0.10566000000E+00 0.  1.
         13    1    3    3    0    0 -0.49564706296E+03 -0.10433035264E+03 -0.11366930057E+04  0.12444363519E+04  0.10566000000E+00 0. -1.
         -4    1    3    3    0  502  0.42166476603E+03  0.27286724286E+02 -0.29159838881E+03  0.51339591018E+03  0.00000000000E+00 0. -1.
</event>
<event>
 6    1  0.2569591E-005  0.1040096E+04  0.7818608E-02  0.9193830E-01
         21   -1    0    0  501  502  0.00000000000E+00  0.00000000000E+00  0.76559951738E+03  0.76559951738E+03  0.00000000000E+00 0. -1.
         -4   -1    0    0    0  501 -0.00000000000E+00 -0.00000000000E+00 -0.70424467942E+03  0.70424467942E+03  0.00000000000E+00 0. -1.
   -9000010    2    1    2    0  502  0.63713909553E+02 -0.14868826391E+03  0.38416141730E+03  0.11087738977E+04  0.10274394870E+04 0.  0.
        -13    1    1    2    0    0 -0.63713909553E+02  0.14868826391E+03 -0.32280657934E+03  0.36107029914E+03  0.10566000000E+00 0.  1.
         13    1    3    3    0    0  0.20591208273E+02  0.17977819933E+03  0.65583390634E+03  0.68033985822E+03  0.10566000000E+00 0. -1.
         -4    1    3    3    0  502  0.43122701280E+02 -0.32846646324E+03 -0.27167248905E+03  0.42843403943E+03  0.00000000000E+00 0. -1.
</event>
<event>
 6    1  0.2569591E-005  0.1068315E+04  0.7818608E-02  0.8978664E-01
         21   -1    0    0  501  502  0.00000000000E+00  0.00000000000E+00  0.51666590730E+03  0.51666590730E+03  0.00000000000E+00 0. -1.
         -4   -1    0    0    0  501 -0.00000000000E+00 -0.00000000000E+00 -0.21572789144E+04  0.21572789144E+04  0.00000000000E+00 0. -1.
   -9000010    2    1    2    0  502  0.19653284495E+03 -0.29058650358E+03 -0.76584276536E+02  0.10710563177E+04  0.10090742336E+04 0.  0.
        -13    1    1    2    0    0 -0.19653284495E+03  0.29058650358E+03 -0.15640287306E+04  0.16028885041E+04  0.10566000000E+00 0.  1.
         13    1    3    3    0    0 -0.35032340079E+02  0.90399683017E+02  0.40402646183E+03  0.41549580090E+03  0.10566000000E+00 0. -1.
         -4    1    3    3    0  502  0.23156518503E+03 -0.38098618660E+03 -0.48061073837E+03  0.65556051676E+03  0.00000000000E+00 0. -1.
</event>
<event>
 5    1  0.2569591E-005  0.5169815E+02  0.7818608E-02  0.1309467E+00
         -4   -1    0    0    0  501 -0.00000000000E+00  0.00000000000E+00  0.10615310760E+02  0.10615310760E+02  0.00000000000E+00 0. -1.
         21   -1    0    0  501  502  0.00000000000E+00 -0.00000000000E+00 -0.17506121091E+03  0.17506121091E+03  0.00000000000E+00 0.  1.
        -13    1    1    2    0    0  0.30048291389E+02 -0.11322387913E+02 -0.85281653269E+02  0.91126658184E+02  0.10566000000E+00 0.  1.
         13    1    1    2    0    0 -0.18967067484E+02 -0.13359170339E+02 -0.25650666699E+02  0.34585906771E+02  0.10566000000E+00 0. -1.
         -4    1    1    2    0  502 -0.11081223905E+02  0.24681558252E+02 -0.53513580184E+02  0.59963956716E+02  0.00000000000E+00 0. -1.
</event>
<event>
 6    1  0.2569591E-005  0.1452327E+04  0.7818608E-02  0.8516350E-01
         21   -1    0    0  501  502  0.00000000000E+00  0.00000000000E+00  0.51806476612E+03  0.51806476612E+03  0.00000000000E+00 0.  1.
         -4   -1    0    0    0  501 -0.00000000000E+00 -0.00000000000E+00 -0.32004636865E+04  0.32004636865E+04  0.00000000000E+00 0. -1.
   -9000010    2    1    2    0  502  0.99647645919E+03 -0.18469940349E+03 -0.10314328528E+04  0.17813221727E+04  0.10402767660E+04 0.  0.
        -13    1    1    2    0    0 -0.99647645919E+03  0.18469940349E+03 -0.16509660675E+04  0.19372062799E+04  0.10566000000E+00 0.  1.
         13    1    3    3    0    0  0.27572968182E+03 -0.55349524445E+03 -0.28799640761E+03  0.68214792020E+03  0.10566000000E+00 0. -1.
         -4    1    3    3    0  502  0.72074677737E+03  0.36879584097E+03 -0.74343644521E+03  0.10991742526E+04  0.00000000000E+00 0. -1.
</event>
<event>
 5    1  0.2569591E-005  0.6897219E+03  0.7818608E-02  0.9347725E-01
          4   -1    0    0  502    0 -0.00000000000E+00  0.00000000000E+00  0.18276713466E+04  0.18276713466E+04  0.00000000000E+00 0.  1.
         21   -1    0    0  501  502  0.00000000000E+00 -0.00000000000E+00 -0.24937222731E+03  0.24937222731E+03  0.00000000000E+00 0.  1.
        -13    1    1    2    0    0 -0.14725508008E+03  0.14788065873E+03 -0.39417991227E+02  0.21238299610E+03  0.10566000000E+00 0.  1.
         13    1    1    2    0    0  0.13644266458E+03  0.27658717125E+03  0.12953172861E+04  0.13315269231E+04  0.10566000000E+00 0. -1.
          4    1    1    2  501    0  0.10812415495E+02 -0.42446782998E+03  0.32239982438E+03  0.53313365471E+03  0.00000000000E+00 0.  1.
</event>
<event>
 5    1  0.2569591E-005  0.3193124E+03  0.7818608E-02  0.1032608E+00
         -4   -1    0    0    0  501 -0.00000000000E+00  0.00000000000E+00  0.22538505706E+03  0.22538505706E+03  0.00000000000E+00 0. -1.
         21   -1    0    0  501  502  0.00000000000E+00 -0.00000000000E+00 -0.28047070727E+03  0.28047070727E+03  0.00000000000E+00 0. -1.
        -13    1    1    2    0    0 -0.11253334332E+02  0.11149914913E+03  0.10061430693E+03  0.15060527120E+03  0.10566000000E+00 0.  1.
         13    1    1    2    0    0  0.15371068466E+03 -0.57571296987E+02 -0.57038355578E+02  0.17376655025E+03  0.10566000000E+00 0. -1.
         -4    1    1    2    0  502 -0.14245735033E+03 -0.53927852141E+02 -0.98661601563E+02  0.18148394288E+03  0.00000000000E+00 0. -1.
</event>
<event>
 5    1  0.2569591E-005  0.1503491E+03  0.7818608E-02  0.1109160E+00
         21   -1    0    0  501  502  0.00000000000E+00  0.00000000000E+00  0.78800988993E+03  0.78800988993E+03  0.00000000000E+00 0. -1.
          4   -1    0    0  502    0 -0.00000000000E+00 -0.00000000000E+00 -0.44649081888E+02  0.44649081888E+02  0.00000000000E+00 0.  1.
        -13    1    1    2    0    0 -0.10680191865E+03  0.16116474206E+01  0.11503894193E+03  0.15698158032E+03  0.10566000000E+00 0.  1.
         13    1    1    2    0    0  0.11821587702E+03  0.20729266561E+02  0.63769859293E+03  0.64889460058E+03  0.10566000000E+00 0. -1.
          4    1    1    2  501    0 -0.11413958372E+02 -0.22340913982E+02 -0.93767268231E+01  0.26782790914E+02  0.00000000000E+00 0.  1.
</event>
<event>
 6    1  0.2569591E-005  0.1381295E+04  0.7818608E-02  0.8562411E-01
          4   -1    0    0  502    0 -0.00000000000E+00  0.00000000000E+00  0.28550180156E+04  0.28550180156E+04  0.00000000000E+00 0.  1.
         21   -1    0    0  501  502  0.00000000000E+00 -0.00000000000E+00 -0.49375768893E+03  0.49375768893E+03  0.00000000000E+00 0. -1.
    9000010    2    1    2  501    0 -0.31388356809E+03  0.90469913939E+03  0.11034818272E+04  0.17679499102E+04  0.99547542153E+03 0.  0.
        -13    1    3    3    0    0 -0.25518241487E+03  0.29577843430E+03 -0.11270305969E+03  0.40657709955E+03  0.10566000000E+00 0.  1.
         13    1    1    2    0    0  0.31388356809E+03 -0.90469913939E+03  0.12577784996E+04  0.15808257944E+04  0.10566000000E+00 0. -1.
          4    1    3    3  501    0 -0.58701153221E+02  0.60892070510E+03  0.12161848868E+04  0.13613728106E+04  0.00000000000E+00 0.  1.
</event>
<event>
 6    1  0.2569591E-005  0.1078708E+04  0.7818608E-02  0.8931883E-01
         21   -1    0    0  501  502  0.00000000000E+00  0.00000000000E+00  0.34072288625E+03  0.34072288625E+03  0.00000000000E+00 0. -1.
         -4   -1    0    0    0  501 -0.00000000000E+00 -0.00000000000E+00 -0.16989348323E+04  0.16989348323E+04  0.00000000000E+00 0. -1.
   -9000010    2    1    2    0  502 -0.39705022007E+03 -0.11213413612E+03 -0.78816444303E+03  0.13359695002E+04  0.99668870492E+03 0.  0.
        -13    1    1    2    0    0  0.39705022007E+03  0.11213413612E+03 -0.57004750297E+03  0.70368821829E+03  0.10566000000E+00 0.  1.
         13    1    3    3    0    0 -0.28404109418E+02  0.17707759310E+03  0.18390052889E+03  0.25687094640E+03  0.10566000000E+00 0. -1.
         -4    1    3    3    0  502 -0.36864611066E+03 -0.28921172922E+03 -0.97206497192E+03  0.10790985538E+04  0.00000000000E+00 0. -1.
</event>
<event>
 5    1  0.2569591E-005  0.2665967E+03  0.7818608E-02  0.1027436E+00
          4   -1    0    0  502    0 -0.00000000000E+00  0.00000000000E+00  0.68042361578E+03  0.68042361578E+03  0.00000000000E+00 0.  1.
         21   -1    0    0  501  502  0.00000000000E+00 -0.00000000000E+00 -0.93923249146E+02  0.93923249146E+02  0.00000000000E+00 0. -1.
        -13    1    1    2    0    0  0.12624299704E+03  0.14003733174E+03  0.11471649545E+03  0.22069806088E+03  0.10566000000E+00 0.  1.
         13    1    1    2    0    0 -0.18801361704E+03 -0.12526158330E+03  0.35749062601E+03  0.42289377306E+03  0.10566000000E+00 0. -1.
          4    1    1    2  501    0  0.61770619998E+02 -0.14775748442E+02  0.11429324518E+03  0.13075503099E+03  0.00000000000E+00 0.  1.
</event>
<event>
 6    1  0.2569591E-005  0.1013697E+04  0.7818608E-02  0.9254415E-01
         -4   -1    0    0    0  501 -0.00000000000E+00  0.00000000000E+00  0.91699628596E+03  0.91699628596E+03  0.00000000000E+00 0. -1.
         21   -1    0    0  501  502  0.00000000000E+00 -0.00000000000E+00 -0.59272336707E+03  0.59272336707E+03  0.00000000000E+00 0. -1.
   -9000010    2    1    2    0  502 -0.92883430516E+02  0.10253422610E+03 -0.14178168958E+03  0.10235638051E+04  0.10042112410E+04 0.  0.
        -13    1    1    2    0    0  0.92883430516E+02 -0.10253422610E+03  0.46605460847E+03  0.48615584788E+03  0.10566000000E+00 0.  1.
         13    1    3    3    0    0  0.34361636944E+03  0.12980735603E+03 -0.37751687164E+03  0.52672683486E+03  0.10566000000E+00 0. -1.
         -4    1    3    3    0  502 -0.43649979996E+03 -0.27273129928E+02  0.23573518205E+03  0.49683697028E+03  0.00000000000E+00 0. -1.
</event>
<event>
 6    1  0.2569591E-005  0.1115030E+04  0.7818608E-02  0.8862461E-01
         -4   -1    0    0    0  501 -0.00000000000E+00  0.00000000000E+00  0.34317445037E+04  0.34317445037E+04  0.00000000000E+00 0. -1.
         21   -1    0    0  501  502  0.00000000000E+00 -0.00000000000E+00 -0.36884138633E+03  0.36884138633E+03  0.00000000000E+00 0.  1.
   -9000010    2    1    2    0  502 -0.19371275021E+03  0.45880651776E+03  0.31066037047E+04  0.33006480910E+04  0.99762878469E+03 0.  0.
        -13    1    1    2    0    0  0.19371275021E+03 -0.45880651776E+03 -0.43700587424E+02  0.49993779897E+03  0.10566000000E+00 0.  1.
         13    1    3    3    0    0 -0.17911670992E+03  0.37911047480E+03  0.35938957374E+03  0.55223946324E+03  0.10566000000E+00 0. -1.
         -4    1    3    3    0  502 -0.14596040293E+02  0.79696042959E+02  0.27472141310E+04  0.27484086278E+04  0.00000000000E+00 0. -1.
</event>
<event>
 6    1  0.2569591E-005  0.1020102E+04  0.7818608E-02  0.9099703E-01
         21   -1    0    0  501  502  0.00000000000E+00  0.00000000000E+00  0.67843703091E+03  0.67843703091E+03  0.00000000000E+00 0. -1.
         -4   -1    0    0    0  501 -0.00000000000E+00 -0.00000000000E+00 -0.60079874422E+03  0.60079874422E+03  0.00000000000E+00 0. -1.
   -9000010    2    1    2    0  502 -0.91176415548E+02  0.23058738082E+03  0.12189304201E+03  0.10273584767E+04  0.98950687060E+03 0.  0.
        -13    1    1    2    0    0  0.91176415548E+02 -0.23058738082E+03 -0.44254755327E+02  0.25187729846E+03  0.10566000000E+00 0.  1.
         13    1    3    3    0    0  0.93432350079E+02  0.23617186852E+03  0.52541263837E+03  0.58357964945E+03  0.10566000000E+00 0. -1.
         -4    1    3    3    0  502 -0.18460876563E+03 -0.55844877017E+01 -0.40351959636E+03  0.44377882723E+03  0.00000000000E+00 0. -1.
</event>
<event>
 6    1  0.2569591E-005  0.1228437E+04  0.7818608E-02  0.8706036E-01
         21   -1    0    0  501  502  0.00000000000E+00  0.00000000000E+00  0.56815014297E+03  0.56815014297E+03  0.00000000000E+00 0.  1.
         -4   -1    0    0    0  501 -0.00000000000E+00 -0.00000000000E+00 -0.16941766502E+04  0.16941766502E+04  0.00000000000E+00 0. -1.
   -9000010    2    1    2    0  502  0.71869261116E+03  0.86449906438E+02 -0.59750825738E+03  0.13660432402E+04  0.99250458986E+03 0.  0.
        -13    1    1    2    0    0 -0.71869261116E+03 -0.86449906438E+02 -0.52851824983E+03  0.89628355292E+03  0.10566000000E+00 0.  1.
         13    1    3    3    0    0  0.51298857222E+03 -0.39600252949E+03 -0.12476669685E+03  0.65995607308E+03  0.10566000000E+00 0. -1.
         -4    1    3    3    0  502  0.20570403895E+03  0.48245243593E+03 -0.47274156052E+03  0.70608716715E+03  0.00000000000E+00 0. -1.
</event>
<event>
 5    1  0.2569591E-005  0.9013201E+02  0.7818608E-02  0.1183399E+00
         -4   -1    0    0    0  501 -0.00000000000E+00  0.00000000000E+00  0.56336977215E+02  0.56336977215E+02  0.00000000000E+00 0. -1.
         21   -1    0    0  501  502  0.00000000000E+00 -0.00000000000E+00 -0.13970164048E+03  0.13970164048E+03  0.00000000000E+00 0.  1.
        -13    1    1    2    0    0  0.23210433549E+02  0.84085861551E+02 -0.38295025750E+02  0.95266345052E+02  0.10566000000E+00 0.  1.
         13    1    1    2    0    0 -0.18838355187E+02 -0.36278528755E+02 -0.12450973634E+02  0.42732343526E+02  0.10566000000E+00 0. -1.
         -4    1    1    2    0  502 -0.43720783617E+01 -0.47807332796E+02 -0.32618663876E+02  0.58039929112E+02  0.00000000000E+00 0. -1.
</event>
<event>
 6    1  0.2569591E-005  0.8094015E+03  0.7818608E-02  0.9356686E-01
          4   -1    0    0  502    0 -0.00000000000E+00  0.00000000000E+00  0.21737820470E+04  0.21737820470E+04  0.00000000000E+00 0.  1.
         21   -1    0    0  501  502  0.00000000000E+00 -0.00000000000E+00 -0.12099002470E+03  0.12099002470E+03  0.00000000000E+00 0.  1.
    9000010    2    1    2  501    0 -0.10734727384E+03 -0.15009979092E+03  0.14077265912E+04  0.16238303410E+04  0.78808466317E+03 0.  0.
        -13    1    3    3    0    0  0.19475017743E+03  0.28555458402E+02  0.26378292228E+02  0.19859222361E+03  0.10566000000E+00 0.  1.
         13    1    1    2    0    0  0.10734727384E+03  0.15009979092E+03  0.64506543104E+03  0.67094173064E+03  0.10566000000E+00 0. -1.
          4    1    3    3  501    0 -0.30209745127E+03 -0.17865524932E+03  0.13813482990E+04  0.14252381174E+04  0.00000000000E+00 0.  1.
</event>
<event>
 5    1  0.2569591E-005  0.6504928E+02  0.7818608E-02  0.1285790E+00
         21   -1    0    0  501  502  0.00000000000E+00  0.00000000000E+00  0.39365513875E+02  0.39365513875E+02  0.00000000000E+00 0.  1.
         -4   -1    0    0    0  501 -0.00000000000E+00 -0.00000000000E+00 -0.15829497106E+03  0.15829497106E+03  0.00000000000E+00 0. -1.
        -13    1    1    2    0    0  0.21008960551E+02  0.14559942701E+02  0.27431650076E+02  0.37494998931E+02  0.10566000000E+00 0.  1.
         13    1    1    2    0    0 -0.19459059414E+02  0.10361628658E+02 -0.12609146650E+03  0.12800424770E+03  0.10566000000E+00 0. -1.
         -4    1    1    2    0  502 -0.15499011364E+01 -0.24921571359E+02 -0.20269640764E+02  0.32161238304E+02  0.00000000000E+00 0. -1.
</event>
<event>
 6    1  0.2569591E-005  0.1040204E+04  0.7818608E-02  0.9567147E-01
          4   -1    0    0  502    0 -0.00000000000E+00  0.00000000000E+00  0.14086143316E+04  0.14086143316E+04  0.00000000000E+00 0.  1.
         21   -1    0    0  501  502  0.00000000000E+00 -0.00000000000E+00 -0.21230346111E+03  0.21230346111E+03  0.00000000000E+00 0.  1.
    9000010    2    1    2  501    0 -0.34618915112E+02 -0.20480331744E+02  0.10873860455E+04  0.15048034442E+04  0.10394263227E+04 0.  0.
        -13    1    3    3    0    0  0.37397960892E+03  0.29309042291E+03  0.75414835147E+03  0.89134869220E+03  0.10566000000E+00 0.  1.
         13    1    1    2    0    0  0.34618915112E+02  0.20480331744E+02  0.10892482494E+03  0.11611434849E+03  0.10566000000E+00 0. -1.
          4    1    3    3  501    0 -0.40859852403E+03 -0.31357075466E+03  0.33323769406E+03  0.61345475201E+03  0.00000000000E+00 0.  1.
</event>
<event>
 6    1  0.2569591E-005  0.1277844E+04  0.7818608E-02  0.8668170E-01
          4   -1    0    0  502    0 -0.00000000000E+00  0.00000000000E+00  0.60586989141E+03  0.60586989141E+03  0.00000000000E+00 0.  1.
         21   -1    0    0  501  502  0.00000000000E+00 -0.00000000000E+00 -0.21010833856E+04  0.21010833856E+04  0.00000000000E+00 0. -1.
    9000010    2    1    2  501    0 -0.67563530427E+03 -0.34378336861E+03 -0.14709691670E+04  0.19484957188E+04  0.10286958769E+04 0.  0.
        -13    1    3    3    0    0 -0.17395567297E+03 -0.50102043898E+03 -0.12861558259E+04  0.13912148922E+04  0.10566000000E+00 0.  1.
         13    1    1    2    0    0  0.67563530427E+03  0.34378336861E+03 -0.24244327162E+02  0.75845755812E+03  0.10566000000E+00 0. -1.
          4    1    3    3  501    0 -0.50167963130E+03  0.15723707037E+03 -0.18481334108E+03  0.55728082670E+03  0.00000000000E+00 0.  1.
</event>
<event>
 6    1  0.2569591E-005  0.1018178E+04  0.7818608E-02  0.9138773E-01
          4   -1    0    0  502    0 -0.00000000000E+00  0.00000000000E+00  0.10953478357E+04  0.10953478357E+04  0.00000000000E+00 0.  1.
         21   -1    0    0  501  502  0.00000000000E+00 -0.00000000000E+00 -0.34644749804E+03  0.34644749804E+03  0.00000000000E+00 0.  1.
    9000010    2    1    2  501    0 -0.48456220033E+02  0.20820463692E+03  0.62560455572E+03  0.11950180311E+04  0.99548473541E+03 0.  0.
        -13    1    3    3    0    0  0.26346852158E+02  0.28275038681E+03 -0.20973418340E+03  0.35303027733E+03  0.10566000000E+00 0.  1.
         13    1    1    2    0    0  0.48456220033E+02 -0.20820463692E+03  0.12329578197E+03  0.24677730267E+03  0.10566000000E+00 0. -1.
          4    1    3    3  501    0 -0.74803072191E+02 -0.74545749886E+02  0.83533873913E+03  0.84198775378E+03  0.00000000000E+00 0.  1.
</event>
<event>
 6    1  0.2569591E-005  0.1074511E+04  0.7818608E-02  0.8949241E-01
         21   -1    0    0  501  502  0.00000000000E+00  0.00000000000E+00  0.31454686703E+03  0.31454686703E+03  0.00000000000E+00 0. -1.
         -4   -1    0    0    0  501 -0.00000000000E+00 -0.00000000000E+00 -0.17172993035E+04  0.17172993035E+04  0.00000000000E+00 0. -1.
   -9000010    2    1    2    0  502  0.97506686730E+02  0.37632116097E+03 -0.94161257926E+03  0.14287084174E+04  0.10017226774E+04 0.  0.
        -13    1    1    2    0    0 -0.97506686730E+02 -0.37632116097E+03 -0.46113985722E+03  0.60313775311E+03  0.10566000000E+00 0.  1.
         13    1    3    3    0    0 -0.15686922640E+03 -0.53935158387E+02  0.15281736818E+03  0.22554404156E+03  0.10566000000E+00 0. -1.
         -4    1    3    3    0  502  0.25437591313E+03  0.43025631936E+03 -0.10944299474E+04  0.12031643759E+04  0.00000000000E+00 0. -1.
</event>
<event>
 6    1  0.2569591E-005  0.1711443E+04  0.7818608E-02  0.8344224E-01
         21   -1    0    0  501  502  0.00000000000E+00  0.00000000000E+00  0.12997234639E+04  0.12997234639E+04  0.00000000000E+00 0.  1.
         -4   -1    0    0    0  501 -0.00000000000E+00 -0.00000000000E+00 -0.18710598584E+04  0.18710598584E+04  0.00000000000E+00 0. -1.
   -9000010    2    1    2    0  502 -0.13339800839E+04  0.31173770266E+03 -0.72872589762E+02  0.17129940937E+04  0.10258435998E+04 0.  0.
        -13    1    1    2    0    0  0.13339800839E+04 -0.31173770266E+03 -0.49846380473E+03  0.14577892287E+04  0.10566000000E+00 0.  1.
         13    1    3    3    0    0 -0.78672309722E+03 -0.26363213123E+03 -0.30769340352E+03  0.88493523721E+03  0.10566000000E+00 0. -1.
         -4    1    3    3    0  502 -0.54725698666E+03  0.57536983389E+03  0.23482081376E+03  0.82805885647E+03  0.00000000000E+00 0. -1.
</event>
<event>
 6    1  0.2569591E-005  0.1009873E+04  0.7818608E-02  0.9302749E-01
          4   -1    0    0  502    0 -0.00000000000E+00  0.00000000000E+00  0.27705438169E+04  0.27705438169E+04  0.00000000000E+00 0.  1.
         21   -1    0    0  501  502  0.00000000000E+00 -0.00000000000E+00 -0.12673233031E+03  0.12673233031E+03  0.00000000000E+00 0.  1.
    9000010    2    1    2  501    0 -0.96086651992E+02  0.65705801984E+02  0.19729219756E+04  0.22163630512E+04  0.10031421415E+04 0.  0.
        -13    1    3    3    0    0  0.15860642760E+03  0.36262575895E+03  0.29551762312E+03  0.49394748372E+03  0.10566000000E+00 0.  1.
         13    1    1    2    0    0  0.96086651992E+02 -0.65705801984E+02  0.67088951101E+03  0.68091309596E+03  0.10566000000E+00 0. -1.
          4    1    3    3  501    0 -0.25469307959E+03 -0.29691995697E+03  0.16774043525E+04  0.17224155675E+04  0.00000000000E+00 0.  1.
</event>
<event>
 6    1  0.2569591E-005  0.1724786E+04  0.7818608E-02  0.8335476E-01
          4   -1    0    0  502    0 -0.00000000000E+00  0.00000000000E+00  0.28621099539E+04  0.28621099539E+04  0.00000000000E+00 0.  1.
         21   -1    0    0  501  502  0.00000000000E+00 -0.00000000000E+00 -0.92100141058E+03  0.92100141058E+03  0.00000000000E+00 0. -1.
    9000010    2    1    2  501    0 -0.11339146743E+04 -0.81207745898E+03  0.15877703986E+04  0.23443340559E+04  0.10147191921E+04 0.  0.
        -13    1    3    3    0    0  0.56633073247E+02 -0.48728149857E+03  0.43694862533E+03  0.65694343453E+03  0.10566000000E+00 0.  1.
         13    1    1    2    0    0  0.11339146743E+04  0.81207745898E+03  0.35333814474E+03  0.14387773086E+04  0.10566000000E+00 0. -1.
          4    1    3    3  501    0 -0.11905477476E+04 -0.32479596041E+03  0.11508217733E+04  0.16873906214E+04  0.00000000000E+00 0.  1.
</event>
<event>
 6    1  0.2569591E-005  0.1121490E+04  0.7818608E-02  0.8870766E-01
          4   -1    0    0  502    0 -0.00000000000E+00  0.00000000000E+00  0.62838110723E+03  0.62838110723E+03  0.00000000000E+00 0.  1.
         21   -1    0    0  501  502  0.00000000000E+00 -0.00000000000E+00 -0.10253103352E+04  0.10253103352E+04  0.00000000000E+00 0. -1.
    9000010    2    1    2  501    0  0.26215453979E+03 -0.39346751089E+03 -0.36671941771E+03  0.11799253306E+04  0.10169557363E+04 0.  0.
        -13    1    3    3    0    0  0.12374128004E+03 -0.54857328435E+03 -0.62999185119E+03  0.84447279200E+03  0.10566000000E+00 0.  1.
         13    1    1    2    0    0 -0.26215453979E+03  0.39346751089E+03 -0.30209810224E+02  0.47376611176E+03  0.10566000000E+00 0. -1.
          4    1    3    3  501    0  0.13841325975E+03  0.15510577346E+03  0.26327243349E+03  0.33545253862E+03  0.00000000000E+00 0.  1.
</event>
<event>
 6    1  0.2569591E-005  0.9809868E+03  0.7818608E-02  0.9164038E-01
         21   -1    0    0  501  502  0.00000000000E+00  0.00000000000E+00  0.19775971804E+03  0.19775971804E+03  0.00000000000E+00 0.  1.
          4   -1    0    0  502    0 -0.00000000000E+00 -0.00000000000E+00 -0.19791126554E+04  0.19791126554E+04  0.00000000000E+00 0.  1.
    9000010    2    1    2  501    0  0.14878951943E+03 -0.15727743752E+03 -0.16612886729E+04  0.19293042976E+04  0.95679700271E+03 0.  0.
        -13    1    3    3    0    0  0.34822986290E+03 -0.24702984171E+03 -0.23699690393E+03  0.48831887507E+03  0.10566000000E+00 0.  1.
         13    1    1    2    0    0 -0.14878951943E+03  0.15727743752E+03 -0.12006426450E+03  0.24756807593E+03  0.10566000000E+00 0. -1.
          4    1    3    3  501    0 -0.19944034347E+03  0.89752404188E+02 -0.14242917690E+04  0.14409854225E+04  0.00000000000E+00 0.  1.
</event>
<event>
 6    1  0.2569591E-005  0.1082061E+04  0.7818608E-02  0.8935789E-01
         21   -1    0    0  501  502  0.00000000000E+00  0.00000000000E+00  0.20326030137E+04  0.20326030137E+04  0.00000000000E+00 0.  1.
          4   -1    0    0  502    0 -0.00000000000E+00 -0.00000000000E+00 -0.29380100570E+03  0.29380100570E+03  0.00000000000E+00 0.  1.
    9000010    2    1    2  501    0 -0.35319331952E+03 -0.19251013192E+03  0.94551457914E+03  0.14369600202E+04  0.10045151111E+04 0.  0.
        -13    1    3    3    0    0 -0.48712115355E+02 -0.56160582882E+03  0.70126037380E+03  0.89974446381E+03  0.10566000000E+00 0.  1.
         13    1    1    2    0    0  0.35319331952E+03  0.19251013192E+03  0.79328742888E+03  0.88944399927E+03  0.10566000000E+00 0. -1.
          4    1    3    3  501    0 -0.30448120416E+03  0.36909569690E+03  0.24425420534E+03  0.53721555635E+03  0.00000000000E+00 0.  1.
</event>
<event>
 6    1  0.2569591E-005  0.1261805E+04  0.7818608E-02  0.8680836E-01
         -4   -1    0    0    0  501 -0.00000000000E+00  0.00000000000E+00  0.19805798937E+04  0.19805798937E+04  0.00000000000E+00 0. -1.
         21   -1    0    0  501  502  0.00000000000E+00 -0.00000000000E+00 -0.55119216967E+03  0.55119216967E+03  0.00000000000E+00 0. -1.
   -9000010    2    1    2    0  502  0.31350993455E+03 -0.67591337401E+03  0.54259878468E+03  0.13735225210E+04  0.10183335929E+04 0.  0.
        -13    1    1    2    0    0 -0.31350993455E+03  0.67591337401E+03  0.88678893934E+03  0.11582495423E+04  0.10566000000E+00 0.  1.
         13    1    3    3    0    0 -0.36554618704E+03 -0.27915709909E+03  0.98667819829E+02  0.47041263872E+03  0.10566000000E+00 0. -1.
         -4    1    3    3    0  502  0.67905612159E+03 -0.39675627492E+03  0.44393096485E+03  0.90310988230E+03  0.00000000000E+00 0. -1.
</event>
<event>
 6    1  0.2569591E-005  0.1105717E+04  0.7818608E-02  0.8879174E-01
         21   -1    0    0  501  502  0.00000000000E+00  0.00000000000E+00  0.15260193943E+04  0.15260193943E+04  0.00000000000E+00 0.  1.
          4   -1    0    0  502    0 -0.00000000000E+00 -0.00000000000E+00 -0.46057400209E+03  0.46057400209E+03  0.00000000000E+00 0.  1.
    9000010    2    1    2  501    0  0.42050538846E+03 -0.22380934867E+03  0.41645237265E+03  0.11815422447E+04  0.99784472288E+03 0.  0.
        -13    1    3    3    0    0  0.55581261607E+03 -0.81999501551E+02  0.66140810108E+03  0.86782041332E+03  0.10566000000E+00 0.  1.
         13    1    1    2    0    0 -0.42050538846E+03  0.22380934867E+03  0.64899301955E+03  0.80505115170E+03  0.10566000000E+00 0. -1.
          4    1    3    3  501    0 -0.13530722761E+03 -0.14180984712E+03 -0.24495572842E+03  0.31372183136E+03  0.00000000000E+00 0.  1.
</event>
<event>
 5    1  0.2569591E-005  0.2039947E+03  0.7818608E-02  0.1109657E+00
          4   -1    0    0  502    0 -0.00000000000E+00  0.00000000000E+00  0.47788886067E+03  0.47788886067E+03  0.00000000000E+00 0.  1.
         21   -1    0    0  501  502  0.00000000000E+00 -0.00000000000E+00 -0.85647339844E+02  0.85647339844E+02  0.00000000000E+00 0. -1.
        -13    1    1    2    0    0  0.74810306882E+02 -0.77850790961E+02  0.35198360893E+03  0.36817088395E+03  0.10566000000E+00 0.  1.
         13    1    1    2    0    0 -0.26385891728E+01  0.47344163245E+02 -0.54609855111E+02  0.72323435935E+02  0.10566000000E+00 0. -1.
          4    1    1    2  501    0 -0.72171717709E+02  0.30506627715E+02  0.94867767006E+02  0.12304188063E+03  0.00000000000E+00 0.  1.
</event>
<event>
 6    1  0.2569591E-005  0.8676938E+03  0.7818608E-02  0.9044034E-01
         21   -1    0    0  501  502  0.00000000000E+00  0.00000000000E+00  0.60305301785E+03  0.60305301785E+03  0.00000000000E+00 0.  1.
         -4   -1    0    0    0  501 -0.00000000000E+00 -0.00000000000E+00 -0.15918042101E+04  0.15918042101E+04  0.00000000000E+00 0. -1.
   -9000010    2    1    2    0  502 -0.43470696224E+03 -0.25288108778E+03 -0.13293450344E+04  0.15874667736E+04  0.70708807727E+03 0.  0.
        -13    1    1    2    0    0  0.43470696224E+03  0.25288108778E+03  0.34059384218E+03  0.60739045438E+03  0.10566000000E+00 0.  1.
         13    1    3    3    0    0 -0.61589983461E+03 -0.23634856119E+03 -0.85849040572E+03  0.10826814104E+04  0.10566000000E+00 0. -1.
         -4    1    3    3    0  502  0.18119287237E+03 -0.16532526584E+02 -0.47085462871E+03  0.50478536312E+03  0.00000000000E+00 0. -1.
</event>
<event>
 6    1  0.2569591E-005  0.1289843E+04  0.7818608E-02  0.8646871E-01
          4   -1    0    0  502    0 -0.00000000000E+00  0.00000000000E+00  0.15492743862E+04  0.15492743862E+04  0.00000000000E+00 0.  1.
         21   -1    0    0  501  502  0.00000000000E+00 -0.00000000000E+00 -0.71089939124E+03  0.71089939124E+03  0.00000000000E+00 0. -1.
    9000010    2    1    2  501    0 -0.49658923965E+03  0.63875130039E+03  0.51900628195E+03  0.13903459308E+04  0.10045348127E+04 0.  0.
        -13    1    3    3    0    0 -0.44048496745E+02  0.33217735505E+03 -0.27011608452E+03  0.43040071510E+03  0.10566000000E+00 0.  1.
         13    1    1    2    0    0  0.49658923965E+03 -0.63875130039E+03  0.31936871298E+03  0.86982784658E+03  0.10566000000E+00 0. -1.
          4    1    3    3  501    0 -0.45254074291E+03  0.30657394534E+03  0.78912236647E+03  0.95994521573E+03  0.00000000000E+00 0.  1.
</event>
<event>
 6    1  0.2569591E-005  0.1001979E+04  0.7818608E-02  0.9180712E-01
         21   -1    0    0  501  502  0.00000000000E+00  0.00000000000E+00  0.45788033655E+03  0.45788033655E+03  0.00000000000E+00 0. -1.
         -4   -1    0    0    0  501 -0.00000000000E+00 -0.00000000000E+00 -0.78652866639E+03  0.78652866639E+03  0.00000000000E+00 0. -1.
   -9000010    2    1    2    0  502 -0.99721169752E+02 -0.16219253959E+03 -0.32705935469E+03  0.10540060943E+04  0.98372267120E+03 0.  0.
        -13    1    1    2    0    0  0.99721169752E+02  0.16219253959E+03 -0.15889751605E+01  0.19040290859E+03  0.10566000000E+00 0.  1.
         13    1    3    3    0    0 -0.49107092035E+03 -0.13512424082E+03  0.47612458197E+02  0.51154292743E+03  0.10566000000E+00 0. -1.
         -4    1    3    3    0  502  0.39134975059E+03 -0.27068298768E+02 -0.37467181288E+03  0.54246316691E+03  0.00000000000E+00 0. -1.
</event>
<event>
 6    1  0.2569591E-005  0.1105646E+04  0.7818608E-02  0.8925754E-01
         21   -1    0    0  501  502  0.00000000000E+00  0.00000000000E+00  0.97032871674E+03  0.97032871674E+03  0.00000000000E+00 0. -1.
          4   -1    0    0  502    0 -0.00000000000E+00 -0.00000000000E+00 -0.58118006961E+03  0.58118006961E+03  0.00000000000E+00 0.  1.
    9000010    2    1    2  501    0 -0.32852551537E+03  0.21556335904E+03  0.33217356451E+03  0.11544662858E+04  0.10334682154E+04 0.  0.
        -13    1    3    3    0    0  0.20658642955E+03 -0.12794650002E+03  0.44654663676E+03  0.50838191323E+03  0.10566000000E+00 0.  1.
         13    1    1    2    0    0  0.32852551537E+03 -0.21556335904E+03  0.56975082616E+02  0.39704250051E+03  0.10566000000E+00 0. -1.
          4    1    3    3  501    0 -0.53511194492E+03  0.34350985906E+03 -0.11437307225E+03  0.64608437260E+03  0.00000000000E+00 0.  1.
</event>
<event>
 6    1  0.2569591E-005  0.8134404E+03  0.7818608E-02  0.9199405E-01
          4   -1    0    0  502    0 -0.00000000000E+00  0.00000000000E+00  0.52927441726E+03  0.52927441726E+03  0.00000000000E+00 0.  1.
         21   -1    0    0  501  502  0.00000000000E+00 -0.00000000000E+00 -0.12388733132E+04  0.12388733132E+04  0.00000000000E+00 0.  1.
    9000010    2    1    2  501    0  0.32959823939E+03 -0.29669353352E+02 -0.10266530877E+04  0.13098480015E+04  0.74308139155E+03 0.  0.
        -13    1    3    3    0    0  0.35082820535E+03 -0.22228913316E+03 -0.10356795357E+04  0.11158516928E+04  0.10566000000E+00 0.  1.
         13    1    1    2    0    0 -0.32959823939E+03  0.29669353352E+02  0.31705419176E+03  0.45829972901E+03  0.10566000000E+00 0. -1.
          4    1    3    3  501    0 -0.21229965955E+02  0.19261977981E+03  0.90264479902E+01  0.19399630870E+03  0.00000000000E+00 0.  1.
</event>
<event>
 6    1  0.2569591E-005  0.1391552E+04  0.7818608E-02  0.8585473E-01
          4   -1    0    0  502    0 -0.00000000000E+00  0.00000000000E+00  0.44918960903E+04  0.44918960903E+04  0.00000000000E+00 0.  1.
         21   -1    0    0  501  502  0.00000000000E+00 -0.00000000000E+00 -0.29080108149E+03  0.29080108149E+03  0.00000000000E+00 0. -1.
    9000010    2    1    2  501    0 -0.24018224308E+02  0.84468374508E+03  0.30713509472E+04  0.33718856464E+04  0.11055987822E+04 0.  0.
        -13    1    3    3    0    0 -0.22270355466E+03  0.10064269120E+04  0.17935139014E+04  0.20686188939E+04  0.10566000000E+00 0.  1.
         13    1    1    2    0    0  0.24018224308E+02 -0.84468374508E+03  0.11297440616E+04  0.14108115254E+04  0.10566000000E+00 0. -1.
          4    1    3    3  501    0  0.19868533035E+03 -0.16174316694E+03  0.12778370457E+04  0.13032667524E+04  0.00000000000E+00 0.  1.
</event>
<event>
 6    1  0.2569591E-005  0.1021288E+04  0.7818608E-02  0.9190870E-01
         21   -1    0    0  501  502  0.00000000000E+00  0.00000000000E+00  0.42644138955E+03  0.42644138955E+03  0.00000000000E+00 0.  1.
          4   -1    0    0  502    0 -0.00000000000E+00 -0.00000000000E+00 -0.10141608349E+04  0.10141608349E+04  0.00000000000E+00 0.  1.
    9000010    2    1    2  501    0 -0.44607846187E+01  0.17278277025E+03 -0.23524505916E+03  0.10480312266E+04  0.10065562228E+04 0.  0.
        -13    1    3    3    0    0 -0.14070326777E+03 -0.39466652748E+03 -0.46407519761E+00  0.41899797614E+03  0.10566000000E+00 0.  1.
         13    1    1    2    0    0  0.44607846187E+01 -0.17278277025E+03 -0.35247438622E+03  0.39257099791E+03  0.10566000000E+00 0. -1.
          4    1    3    3  501    0  0.13624248315E+03  0.56744929774E+03 -0.23478098396E+03  0.62903325043E+03  0.00000000000E+00 0.  1.
</event>
<event>
 6    1  0.2569591E-005  0.1042185E+04  0.7818608E-02  0.9070538E-01
          4   -1    0    0  502    0 -0.00000000000E+00  0.00000000000E+00  0.49708790624E+04  0.49708790624E+04  0.00000000000E+00 0.  1.
         21   -1    0    0  501  502  0.00000000000E+00 -0.00000000000E+00 -0.92231718102E+02  0.92231718102E+02  0.00000000000E+00 0. -1.
    9000010    2    1    2  501    0 -0.21420676098E+03  0.14926162009E+03  0.43552757895E+04  0.44782335599E+04  0.10089524500E+04 0.  0.
        -13    1    3    3    0    0  0.99547665615E+02 -0.36096905298E+02 -0.18387597274E+01  0.10590616839E+03  0.10566000000E+00 0.  1.
         13    1    1    2    0    0  0.21420676098E+03 -0.14926162009E+03  0.52337155477E+03  0.58487722061E+03  0.10566000000E+00 0. -1.
          4    1    3    3  501    0 -0.31375442660E+03  0.18535852539E+03  0.43571145492E+04  0.43723273915E+04  0.00000000000E+00 0.  1.
</event>
<event>
 6    1  0.2569591E-005  0.1033735E+04  0.7818608E-02  0.9040720E-01
          4   -1    0    0  502    0 -0.00000000000E+00  0.00000000000E+00  0.24177482657E+04  0.24177482657E+04  0.00000000000E+00 0.  1.
         21   -1    0    0  501  502  0.00000000000E+00 -0.00000000000E+00 -0.19522411753E+03  0.19522411753E+03  0.00000000000E+00 0.  1.
    9000010    2    1    2  501    0  0.29456852559E+03 -0.63765464159E+02  0.14255142276E+04  0.17608799731E+04  0.98882294474E+03 0.  0.
        -13    1    3    3    0    0 -0.23302170568E+03 -0.35568234333E+01 -0.69571008554E+01  0.23315269402E+03  0.10566000000E+00 0.  1.
         13    1    1    2    0    0 -0.29456852559E+03  0.63765464159E+02  0.79700992059E+03  0.85209241011E+03  0.10566000000E+00 0. -1.
          4    1    3    3  501    0  0.52759023127E+03 -0.60208640726E+02  0.14324713284E+04  0.15277272791E+04  0.00000000000E+00 0.  1.
</event>
<event>
 6    1  0.2569591E-005  0.1136764E+04  0.7818608E-02  0.8831333E-01
         21   -1    0    0  501  502  0.00000000000E+00  0.00000000000E+00  0.20923520746E+03  0.20923520746E+03  0.00000000000E+00 0.  1.
          4   -1    0    0  502    0 -0.00000000000E+00 -0.00000000000E+00 -0.35615453270E+04  0.35615453270E+04  0.00000000000E+00 0.  1.
    9000010    2    1    2  501    0  0.46126949083E+02 -0.53347794605E+03 -0.18019375576E+04  0.21305422877E+04  0.10027487540E+04 0.  0.
        -13    1    3    3    0    0 -0.33834237026E+03  0.13069458656E+03 -0.47470766723E+03  0.59741444154E+03  0.10566000000E+00 0.  1.
         13    1    1    2    0    0 -0.46126949083E+02  0.53347794605E+03 -0.15503725619E+04  0.16402382468E+04  0.10566000000E+00 0. -1.
          4    1    3    3  501    0  0.38446931934E+03 -0.66417253261E+03 -0.13272298904E+04  0.15331278461E+04  0.00000000000E+00 0.  1.
</event>
<event>
 5    1  0.2569591E-005  0.2144795E+03  0.7818608E-02  0.1057869E+00
         -4   -1    0    0    0  501 -0.00000000000E+00  0.00000000000E+00  0.28611102174E+02  0.28611102174E+02  0.00000000000E+00 0. -1.
         21   -1    0    0  501  502  0.00000000000E+00 -0.00000000000E+00 -0.13235734782E+04  0.13235734782E+04  0.00000000000E+00 0.  1.
        -13    1    1    2    0    0  0.53684779769E+02  0.16475143712E+03 -0.63700034833E+03  0.66014736730E+03  0.10566000000E+00 0.  1.
         13    1    1    2    0    0 -0.82089089036E+02 -0.15096520753E+03 -0.45003529633E+03  0.48172698859E+03  0.10566000000E+00 0. -1.
         -4    1    1    2    0  502  0.28404309267E+02 -0.13786229591E+02 -0.20792673139E+03  0.21031022452E+03  0.00000000000E+00 0. -1.
</event>
<event>
 6    1  0.2569591E-005  0.1052905E+04  0.7818608E-02  0.9001583E-01
          4   -1    0    0  502    0 -0.00000000000E+00  0.00000000000E+00  0.46160017374E+03  0.46160017374E+03  0.00000000000E+00 0.  1.
         21   -1    0    0  501  502  0.00000000000E+00 -0.00000000000E+00 -0.10432463748E+04  0.10432463748E+04  0.00000000000E+00 0.  1.
    9000010    2    1    2  501    0 -0.31278187802E+03  0.11689649799E+03 -0.46671519735E+03  0.11517085568E+04  0.99855507103E+03 0.  0.
        -13    1    3    3    0    0  0.33405728436E+03  0.21369142570E+03 -0.21334906129E+03  0.45030670412E+03  0.10566000000E+00 0.  1.
         13    1    1    2    0    0  0.31278187802E+03 -0.11689649799E+03 -0.11493100375E+03  0.35313799179E+03  0.10566000000E+00 0. -1.
          4    1    3    3  501    0 -0.64683916238E+03 -0.96794927717E+02 -0.25336613606E+03  0.70140185267E+03  0.00000000000E+00 0.  1.
</event>
<event>
 6    1  0.2569591E-005  0.1225884E+04  0.7818608E-02  0.8714592E-01
         -4   -1    0    0    0  501 -0.00000000000E+00  0.00000000000E+00  0.31350341717E+04  0.31350341717E+04  0.00000000000E+00 0. -1.
         21   -1    0    0  501  502  0.00000000000E+00 -0.00000000000E+00 -0.31324628666E+03  0.31324628666E+03  0.00000000000E+00 0.  1.
   -9000010    2    1    2    0  502  0.70102226177E+03  0.36617676922E+02  0.21595044798E+04  0.24831937339E+04  0.10049967443E+04 0.  0.
        -13    1    1    2    0    0 -0.70102226177E+03 -0.36617676922E+02  0.66228340526E+03  0.96508672450E+03  0.10566000000E+00 0.  1.
         13    1    3    3    0    0 -0.12928139046E+03  0.22948997409E+03  0.10585010489E+04  0.10907812832E+04  0.10566000000E+00 0. -1.
         -4    1    3    3    0  502  0.83030365223E+03 -0.19287229716E+03  0.11010034309E+04  0.13924124506E+04  0.00000000000E+00 0. -1.
</event>
<event>
 6    1  0.2569591E-005  0.1116638E+04  0.7818608E-02  0.8883646E-01
         21   -1    0    0  501  502  0.00000000000E+00  0.00000000000E+00  0.49099858925E+03  0.49099858925E+03  0.00000000000E+00 0. -1.
         -4   -1    0    0    0  501 -0.00000000000E+00 -0.00000000000E+00 -0.12859492642E+04  0.12859492642E+04  0.00000000000E+00 0. -1.
   -9000010    2    1    2    0  502  0.20131296494E+03  0.40692279710E+03 -0.43815002946E+03  0.11995227202E+04  0.10201795114E+04 0.  0.
        -13    1    1    2    0    0 -0.20131296494E+03 -0.40692279710E+03 -0.35680064545E+03  0.57742513317E+03  0.10566000000E+00 0.  1.
         13    1    3    3    0    0  0.71437106831E+02  0.70687529890E+03 -0.80519247777E+02  0.71502399180E+03  0.10566000000E+00 0. -1.
         -4    1    3    3    0  502  0.12987585811E+03 -0.29995250179E+03 -0.35763078168E+03  0.48449872844E+03  0.00000000000E+00 0. -1.
</event>
<event>
 5    1  0.2569591E-005  0.3785429E+02  0.7818608E-02  0.1387318E+00
         21   -1    0    0  501  502  0.00000000000E+00  0.00000000000E+00  0.38683315713E+03  0.38683315713E+03  0.00000000000E+00 0. -1.
          4   -1    0    0  502    0 -0.00000000000E+00 -0.00000000000E+00 -0.21936639335E+01  0.21936639335E+01  0.00000000000E+00 0.  1.
        -13    1    1    2    0    0 -0.85090914519E+01 -0.16274307080E+02  0.74387726053E+02  0.76621163262E+02  0.10566000000E+00 0.  1.
         13    1    1    2    0    0 -0.35754494892E+01  0.19752262238E+02  0.11418334456E+03  0.11593439111E+03  0.10566000000E+00 0. -1.
          4    1    1    2  501    0  0.12084540941E+02 -0.34779551586E+01  0.19606842259E+03  0.19647126670E+03  0.00000000000E+00 0.  1.
</event>
<event>
 5    1  0.2569591E-005  0.1019319E+03  0.7818608E-02  0.1171279E+00
          4   -1    0    0  502    0 -0.00000000000E+00  0.00000000000E+00  0.28511955724E+02  0.28511955724E+02  0.00000000000E+00 0.  1.
         21   -1    0    0  501  502  0.00000000000E+00 -0.00000000000E+00 -0.34339026658E+03  0.34339026658E+03  0.00000000000E+00 0. -1.
        -13    1    1    2    0    0  0.42501017245E+02  0.60304866376E+02 -0.87421977310E+02  0.11439242395E+03  0.10566000000E+00 0.  1.
         13    1    1    2    0    0 -0.64854085223E+02 -0.47399765754E+02 -0.21361993647E+03  0.22822418492E+03  0.10566000000E+00 0. -1.
          4    1    1    2  501    0  0.22353067978E+02 -0.12905100622E+02 -0.13836397080E+02  0.29285613435E+02  0.00000000000E+00 0.  1.
</event>
<event>
 5    1  0.2569591E-005  0.3122775E+03  0.7818608E-02  0.1005140E+00
         21   -1    0    0  501  502  0.00000000000E+00  0.00000000000E+00  0.76228219869E+02  0.76228219869E+02  0.00000000000E+00 0. -1.
          4   -1    0    0  502    0 -0.00000000000E+00 -0.00000000000E+00 -0.12277121964E+04  0.12277121964E+04  0.00000000000E+00 0.  1.
        -13    1    1    2    0    0 -0.73302101131E+02  0.21108926593E+03 -0.68052101429E+03  0.71626862159E+03  0.10566000000E+00 0.  1.
         13    1    1    2    0    0  0.10880364557E+03 -0.26373705776E+03 -0.41113793808E+03  0.50042969958E+03  0.10566000000E+00 0. -1.
          4    1    1    2  501    0 -0.35501544438E+02  0.52647791831E+02 -0.59825024168E+02  0.87242095108E+02  0.00000000000E+00 0.  1.
</event>
<event>
 6    1  0.2569591E-005  0.1439903E+04  0.7818608E-02  0.8514600E-01
         -4   -1    0    0    0  501 -0.00000000000E+00  0.00000000000E+00  0.23246613726E+04  0.23246613726E+04  0.00000000000E+00 0. -1.
         21   -1    0    0  501  502  0.00000000000E+00 -0.00000000000E+00 -0.73874076048E+03  0.73874076048E+03  0.00000000000E+00 0. -1.
   -9000010    2    1    2    0  502  0.88929159213E+03 -0.55481913717E+03  0.42939643529E+03  0.15025651802E+04  0.98724718849E+03 0.  0.
        -13    1    1    2    0    0 -0.88929159213E+03  0.55481913717E+03  0.11565241768E+04  0.15608369529E+04  0.10566000000E+00 0.  1.
         13    1    3    3    0    0 -0.19972132645E+03 -0.56461104862E+02  0.18971359677E+03  0.28118983724E+03  0.10566000000E+00 0. -1.
         -4    1    3    3    0  502  0.10890129186E+04 -0.49835803231E+03  0.23968283852E+03  0.12213753429E+04  0.00000000000E+00 0. -1.
</event>
<event>
 6    1  0.2569591E-005  0.1092750E+04  0.7818608E-02  0.8912474E-01
         -4   -1    0    0    0  501 -0.00000000000E+00  0.00000000000E+00  0.14848707038E+04  0.14848707038E+04  0.00000000000E+00 0. -1.
         21   -1    0    0  501  502  0.00000000000E+00 -0.00000000000E+00 -0.43670597057E+03  0.43670597057E+03  0.00000000000E+00 0. -1.
   -9000010    2    1    2    0  502 -0.25630120240E+03  0.34515567635E+03  0.44272761202E+03  0.11790291229E+04  0.10046288802E+04 0.  0.
        -13    1    1    2    0    0  0.25630120240E+03 -0.34515567635E+03  0.60543712121E+03  0.74254755146E+03  0.10566000000E+00 0.  1.
         13    1    3    3    0    0 -0.31016399315E+03 -0.26621450092E+03 -0.21783721187E+02  0.40932432718E+03  0.10566000000E+00 0. -1.
         -4    1    3    3    0  502  0.53862790751E+02  0.61137017727E+03  0.46451133320E+03  0.76970479572E+03  0.00000000000E+00 0. -1.
</event>
<event>
 6    1  0.2569591E-005  0.1334328E+04  0.7818608E-02  0.8601165E-01
         21   -1    0    0  501  502  0.00000000000E+00  0.00000000000E+00  0.53349121012E+03  0.53349121012E+03  0.00000000000E+00 0.  1.
         -4   -1    0    0    0  501 -0.00000000000E+00 -0.00000000000E+00 -0.26412641868E+04  0.26412641868E+04  0.00000000000E+00 0. -1.
   -9000010    2    1    2    0  502  0.20374230975E+03 -0.87043555493E+03 -0.69913334274E+03  0.15063925427E+04  0.99058673399E+03 0.  0.
        -13    1    1    2    0    0 -0.20374230975E+03  0.87043555493E+03 -0.14086396340E+04  0.16683628543E+04  0.10566000000E+00 0.  1.
         13    1    3    3    0    0  0.81356849145E+02 -0.41379208590E+03  0.21789082995E+03  0.47467805110E+03  0.10566000000E+00 0. -1.
         -4    1    3    3    0  502  0.12238546060E+03 -0.45664346903E+03 -0.91702417269E+03  0.10317144915E+04  0.00000000000E+00 0. -1.
</event>
<event>
 6    1  0.2569591E-005  0.9620147E+03  0.7818608E-02  0.9329956E-01
         -4   -1    0    0    0  501 -0.00000000000E+00  0.00000000000E+00  0.51267920755E+03  0.51267920755E+03  0.00000000000E+00 0. -1.
         21   -1    0    0  501  502  0.00000000000E+00 -0.00000000000E+00 -0.70080847661E+03  0.70080847661E+03  0.00000000000E+00 0. -1.
   -9000010    2    1    2    0  502  0.11952327819E+03  0.21870003039E+02 -0.33879697349E+03  0.10199292191E+04  0.95431028063E+03 0.  0.
        -13    1    1    2    0    0 -0.11952327819E+03 -0.21870003039E+02  0.15066770443E+03  0.19355846503E+03  0.10566000000E+00 0.  1.
         13    1    3    3    0    0  0.14815509869E+03  0.24461298165E+03 -0.60647577015E+03  0.67052092809E+03  0.10566000000E+00 0. -1.
         -4    1    3    3    0  502 -0.28631820499E+02 -0.22274297861E+03  0.26767879666E+03  0.34940829104E+03  0.00000000000E+00 0. -1.
</event>
<event>
 5    1  0.2569591E-005  0.8785744E+02  0.7818608E-02  0.1215259E+00
          4   -1    0    0  502    0 -0.00000000000E+00  0.00000000000E+00  0.61292339989E+03  0.61292339989E+03  0.00000000000E+00 0.  1.
         21   -1    0    0  501  502  0.00000000000E+00 -0.00000000000E+00 -0.72673549454E+01  0.72673549454E+01  0.00000000000E+00 0.  1.
        -13    1    1    2    0    0 -0.45495362594E+02  0.12198869173E+02  0.14521997337E+03  0.15266791496E+03  0.10566000000E+00 0.  1.
         13    1    1    2    0    0  0.41303047764E+02  0.19227370329E+02  0.19774430335E+03  0.20292475008E+03  0.10566000000E+00 0. -1.
          4    1    1    2  501    0  0.41923148304E+01 -0.31426239502E+02  0.26269176822E+03  0.26459808980E+03  0.00000000000E+00 0.  1.
</event>
<event>
 6    1  0.2569591E-005  0.9403585E+03  0.7818608E-02  0.9219115E-01
         21   -1    0    0  501  502  0.00000000000E+00  0.00000000000E+00  0.18417932661E+03  0.18417932661E+03  0.00000000000E+00 0. -1.
         -4   -1    0    0    0  501 -0.00000000000E+00 -0.00000000000E+00 -0.17851303654E+04  0.17851303654E+04  0.00000000000E+00 0. -1.
   -9000010    2    1    2    0  502 -0.61983447727E+02  0.18856413915E+03 -0.14029543198E+04  0.16889508251E+04  0.91917119392E+03 0.  0.
        -13    1    1    2    0    0  0.61983447727E+02 -0.18856413915E+03 -0.19799671894E+03  0.28035886689E+03  0.10566000000E+00 0.  1.
         13    1    3    3    0    0  0.73303498510E+02  0.11770209854E+03  0.10459382572E+03  0.17368669045E+03  0.10566000000E+00 0. -1.
         -4    1    3    3    0  502 -0.13528694624E+03  0.70862040610E+02 -0.15075481456E+04  0.15152641347E+04  0.00000000000E+00 0. -1.
</event>
<event>
 6    1  0.2569591E-005  0.1157518E+04  0.7818608E-02  0.8836207E-01
         21   -1    0    0  501  502  0.00000000000E+00  0.00000000000E+00  0.36706989037E+03  0.36706989037E+03  0.00000000000E+00 0.  1.
         -4   -1    0    0    0  501 -0.00000000000E+00 -0.00000000000E+00 -0.19701902649E+04  0.19701902649E+04  0.00000000000E+00 0. -1.
   -9000010    2    1    2    0  502  0.47294155710E+03 -0.15243109231E+03 -0.13542306234E+04  0.17815128442E+04  0.10454369797E+04 0.  0.
        -13    1    1    2    0    0 -0.47294155710E+03  0.15243109231E+03 -0.24888975115E+03  0.55574731103E+03  0.10566000000E+00 0.  1.
         13    1    3    3    0    0 -0.19964917766E+03 -0.37706948461E+03 -0.68163529655E+03  0.80415662593E+03  0.10566000000E+00 0. -1.
         -4    1    3    3    0  502  0.67259073476E+03  0.22463839230E+03 -0.67259532685E+03  0.97735621831E+03  0.00000000000E+00 0. -1.
</event>
<event>
 6    1  0.2569591E-005  0.1511560E+04  0.7818608E-02  0.8463636E-01
          4   -1    0    0  502    0 -0.00000000000E+00  0.00000000000E+00  0.39542464832E+04  0.39542464832E+04  0.00000000000E+00 0.  1.
         21   -1    0    0  501  502  0.00000000000E+00 -0.00000000000E+00 -0.46869019000E+03  0.46869019000E+03  0.00000000000E+00 0. -1.
    9000010    2    1    2  501    0  0.11421887773E+04 -0.24836026167E+02  0.24622040801E+04  0.28891629629E+04  0.98974828265E+03 0.  0.
        -13    1    3    3    0    0  0.44266605190E+03  0.34294178247E+03  0.42181599581E+03  0.70106422327E+03  0.10566000000E+00 0.  1.
         13    1    1    2    0    0 -0.11421887773E+04  0.24836026167E+02  0.10233522131E+04  0.15337737103E+04  0.10566000000E+00 0. -1.
          4    1    3    3  501    0  0.69952272538E+03 -0.36777780864E+03  0.20403880843E+04  0.21880987396E+04  0.00000000000E+00 0.  1.
</event>
<event>
 6    1  0.2569591E-005  0.1094323E+04  0.7818608E-02  0.8904994E-01
          4   -1    0    0  502    0 -0.00000000000E+00  0.00000000000E+00  0.30583576678E+04  0.30583576678E+04  0.00000000000E+00 0.  1.
         21   -1    0    0  501  502  0.00000000000E+00 -0.00000000000E+00 -0.21345181087E+03  0.21345181087E+03  0.00000000000E+00 0. -1.
    9000010    2    1    2  501    0 -0.31547027825E+03  0.30885931090E+03  0.24339833844E+04  0.26686736234E+04  0.10013132487E+04 0.  0.
        -13    1    3    3    0    0 -0.42964290396E+01 -0.34902327055E+03  0.57950834493E+03  0.67650989328E+03  0.10566000000E+00 0.  1.
         13    1    1    2    0    0  0.31547027825E+03 -0.30885931090E+03  0.41092247252E+03  0.60313585532E+03  0.10566000000E+00 0. -1.
          4    1    3    3  501    0 -0.31117384922E+03  0.65788258145E+03  0.18544750395E+04  0.19921637301E+04  0.00000000000E+00 0.  1.
</event>
<event>
 6    1  0.2569591E-005  0.1073929E+04  0.7818608E-02  0.9129625E-01
         21   -1    0    0  501  502  0.00000000000E+00  0.00000000000E+00  0.70567241339E+03  0.70567241339E+03  0.00000000000E+00 0. -1.
         -4   -1    0    0    0  501 -0.00000000000E+00 -0.00000000000E+00 -0.13735347018E+04  0.13735347018E+04  0.00000000000E+00 0. -1.
   -9000010    2    1    2    0  502 -0.18266499502E+03  0.47908339357E+02  0.28233815260E+03  0.11104230326E+04  0.10571957102E+04 0.  0.
        -13    1    1    2    0    0  0.18266499502E+03 -0.47908339357E+02 -0.95020044100E+03  0.96878408257E+03  0.10566000000E+00 0.  1.
         13    1    3    3    0    0 -0.24432220713E+03 -0.46864612460E+03  0.22669903878E+02  0.52899571521E+03  0.10566000000E+00 0. -1.
         -4    1    3    3    0  502  0.61657212112E+02  0.51655446396E+03  0.25966824872E+03  0.58142731741E+03  0.00000000000E+00 0. -1.
</event>
<event>
 5    1  0.2569591E-005  0.6213065E+02  0.7818608E-02  0.1266307E+00
         21   -1    0    0  501  502  0.00000000000E+00  0.00000000000E+00  0.20235929642E+02  0.20235929642E+02  0.00000000000E+00 0.  1.
         -4   -1    0    0    0  501 -0.00000000000E+00 -0.00000000000E+00 -0.18712831491E+03  0.18712831491E+03  0.00000000000E+00 0. -1.
        -13    1    1    2    0    0 -0.30878461051E+02 -0.30530035742E+02 -0.19871173554E+02  0.47753922789E+02  0.10566000000E+00 0.  1.
         13    1    1    2    0    0  0.83951154706E+01  0.33070873004E+02 -0.11786640310E+03  0.12270558565E+03  0.10566000000E+00 0. -1.
         -4    1    1    2    0  502  0.22483345580E+02 -0.25408372620E+01 -0.29154808605E+02  0.36904736109E+02  0.00000000000E+00 0. -1.
</event>
<event>
 6    1  0.2569591E-005  0.9289445E+03  0.7818608E-02  0.9299609E-01
         21   -1    0    0  501  502  0.00000000000E+00  0.00000000000E+00  0.18150384968E+03  0.18150384968E+03  0.00000000000E+00 0.  1.
          4   -1    0    0  502    0 -0.00000000000E+00 -0.00000000000E+00 -0.16074398612E+04  0.16074398612E+04  0.00000000000E+00 0.  1.
    9000010    2    1    2  501    0 -0.65193398867E+01  0.15120410129E+03 -0.12268486711E+04  0.15388617996E+04  0.91653302975E+03 0.  0.
        -13    1    3    3    0    0 -0.90063737926E+02 -0.94199584671E+02  0.11402007113E+03  0.17316358285E+03  0.10566000000E+00 0.  1.
         13    1    1    2    0    0  0.65193398867E+01 -0.15120410129E+03 -0.19908734048E+03  0.25008191126E+03  0.10566000000E+00 0. -1.
          4    1    3    3  501    0  0.83544398040E+02  0.24540368596E+03 -0.13408687422E+04  0.13656982168E+04  0.00000000000E+00 0.  1.
</event>
<event>
 6    1  0.2569591E-005  0.1536461E+04  0.7818608E-02  0.8449058E-01
         21   -1    0    0  501  502  0.00000000000E+00  0.00000000000E+00  0.10027293485E+04  0.10027293485E+04  0.00000000000E+00 0.  1.
         -4   -1    0    0    0  501 -0.00000000000E+00 -0.00000000000E+00 -0.19298022722E+04  0.19298022722E+04  0.00000000000E+00 0. -1.
   -9000010    2    1    2    0  502  0.99973215070E+03  0.59416503810E+03 -0.87555939903E+03  0.17684224678E+04  0.10041002429E+04 0.  0.
        -13    1    1    2    0    0 -0.99973215070E+03 -0.59416503810E+03 -0.51513524658E+02  0.11641091530E+04  0.10566000000E+00 0.  1.
         13    1    3    3    0    0  0.97027483080E+02  0.89094060494E+02 -0.70847882650E+03  0.72062080379E+03  0.10566000000E+00 0. -1.
         -4    1    3    3    0  502  0.90270466762E+03  0.50507097761E+03 -0.16708057253E+03  0.10478016640E+04  0.00000000000E+00 0. -1.
</event>
<event>
 6    1  0.2569591E-005  0.1304191E+04  0.7818608E-02  0.8629258E-01
          4   -1    0    0  502    0 -0.00000000000E+00  0.00000000000E+00  0.25986956666E+04  0.25986956666E+04  0.00000000000E+00 0.  1.
         21   -1    0    0  501  502  0.00000000000E+00 -0.00000000000E+00 -0.45605106787E+03  0.45605106787E+03  0.00000000000E+00 0.  1.
    9000010    2    1    2  501    0  0.23002387611E+03  0.81375513684E+03  0.15304479319E+04  0.20107672441E+04  0.99287745026E+03 0.  0.
        -13    1    3    3    0    0  0.22606141275E+03 -0.15733348698E+03  0.62518332506E+03  0.68316307684E+03  0.10566000000E+00 0.  1.
         13    1    1    2    0    0 -0.23002387611E+03 -0.81375513684E+03  0.61219666683E+03  0.10439794904E+04  0.10566000000E+00 0. -1.
          4    1    3    3  501    0  0.39624633560E+01  0.97108862382E+03  0.90526460683E+03  0.13276041672E+04  0.00000000000E+00 0.  1.
</event>
<event>
 6    1  0.2569591E-005  0.1055095E+04  0.7818608E-02  0.8985992E-01
         21   -1    0    0  501  502  0.00000000000E+00  0.00000000000E+00  0.74393524032E+03  0.74393524032E+03  0.00000000000E+00 0. -1.
          4   -1    0    0  502    0 -0.00000000000E+00 -0.00000000000E+00 -0.23588605147E+04  0.23588605147E+04  0.00000000000E+00 0.  1.
    9000010    2    1    2  501    0  0.35255620557E+03  0.25510788462E+02 -0.21882087856E+04  0.24292969252E+04  0.99412231797E+03 0.  0.
        -13    1    3    3    0    0  0.37546313257E+03 -0.43943151448E+03 -0.10308790860E+04  0.11818563030E+04  0.10566000000E+00 0.  1.
         13    1    1    2    0    0 -0.35255620557E+03 -0.25510788462E+02  0.57328351119E+03  0.67349882983E+03  0.10566000000E+00 0. -1.
          4    1    3    3  501    0 -0.22906927005E+02  0.46494230294E+03 -0.11573296995E+04  0.12474406222E+04  0.00000000000E+00 0.  1.
</event>
<event>
 6    1  0.2569591E-005  0.1024007E+04  0.7818608E-02  0.9154849E-01
         21   -1    0    0  501  502  0.00000000000E+00  0.00000000000E+00  0.87924796896E+03  0.87924796896E+03  0.00000000000E+00 0. -1.
         -4   -1    0    0    0  501 -0.00000000000E+00 -0.00000000000E+00 -0.65694884897E+03  0.65694884897E+03  0.00000000000E+00 0. -1.
   -9000010    2    1    2    0  502 -0.19037585807E+03 -0.51843405542E+02  0.54344838742E+03  0.11592783000E+04  0.10048180537E+04 0.  0.
        -13    1    1    2    0    0  0.19037585807E+03  0.51843405542E+02 -0.32114926743E+03  0.37691851795E+03  0.10566000000E+00 0.  1.
         13    1    3    3    0    0  0.13199382867E+03 -0.66417453425E+02  0.75767199195E+03  0.77194592264E+03  0.10566000000E+00 0. -1.
         -4    1    3    3    0  502 -0.32236968675E+03  0.14574047882E+02 -0.21422360453E+03  0.38733237735E+03  0.00000000000E+00 0. -1.
</event>
<event>
 6    1  0.2569591E-005  0.1015935E+04  0.7818608E-02  0.9278154E-01
          4   -1    0    0  502    0 -0.00000000000E+00  0.00000000000E+00  0.16794079546E+04  0.16794079546E+04  0.00000000000E+00 0.  1.
         21   -1    0    0  501  502  0.00000000000E+00 -0.00000000000E+00 -0.19631578452E+03  0.19631578452E+03  0.00000000000E+00 0.  1.
    9000010    2    1    2  501    0 -0.35395986448E+02  0.12043414571E+03  0.12481365311E+04  0.16093378860E+04  0.10081499748E+04 0.  0.
        -13    1    3    3    0    0 -0.21745617478E+03  0.37522007539E+02 -0.10296277424E+03  0.24350858926E+03  0.10566000000E+00 0.  1.
         13    1    1    2    0    0  0.35395986448E+02 -0.12043414571E+03  0.23495563900E+03  0.26638585318E+03  0.10566000000E+00 0. -1.
          4    1    3    3  501    0  0.18206018833E+03  0.82912138175E+02  0.13510993054E+04  0.13658292967E+04  0.00000000000E+00 0.  1.
</event>
<event>
 6    1  0.2569591E-005  0.1038086E+04  0.7818608E-02  0.8968585E-01
         21   -1    0    0  501  502  0.00000000000E+00  0.00000000000E+00  0.33357291653E+03  0.33357291653E+03  0.00000000000E+00 0. -1.
          4   -1    0    0  502    0 -0.00000000000E+00 -0.00000000000E+00 -0.15464533425E+04  0.15464533425E+04  0.00000000000E+00 0.  1.
    9000010    2    1    2  501    0 -0.38990426524E+03 -0.81688255989E+02 -0.87882535356E+03  0.13601309717E+04  0.95860521118E+03 0.  0.
        -13    1    3    3    0    0 -0.96602615115E+02  0.25796125716E+03  0.92154820127E+02  0.29046272994E+03  0.10566000000E+00 0.  1.
         13    1    1    2    0    0  0.38990426524E+03  0.81688255989E+02 -0.33405507244E+03  0.51989528735E+03  0.10566000000E+00 0. -1.
          4    1    3    3  501    0 -0.29330165013E+03 -0.33964951315E+03 -0.97098017369E+03  0.10696682418E+04  0.00000000000E+00 0.  1.
</event>
<event>
 5    1  0.2569591E-005  0.1020846E+03  0.7818608E-02  0.1179703E+00
         -4   -1    0    0    0  501 -0.00000000000E+00  0.00000000000E+00  0.65086846157E+03  0.65086846157E+03  0.00000000000E+00 0. -1.
         21   -1    0    0  501  502  0.00000000000E+00 -0.00000000000E+00 -0.12059775256E+02  0.12059775256E+02  0.00000000000E+00 0.  1.
        -13    1    1    2    0    0  0.56113851646E+02 -0.33748440800E+02  0.36245518237E+03  0.36832253799E+03  0.10566000000E+00 0.  1.
         13    1    1    2    0    0 -0.90341375113E+01  0.41750443478E+02  0.63982588992E+02  0.76931775161E+02  0.10566000000E+00 0. -1.
         -4    1    1    2    0  502 -0.47079714134E+02 -0.80020026782E+01  0.21237091496E+03  0.21767392368E+03  0.00000000000E+00 0. -1.
</event>
<event>
 6    1  0.2569591E-005  0.1103928E+04  0.7818608E-02  0.8831916E-01
         21   -1    0    0  501  502  0.00000000000E+00  0.00000000000E+00  0.18158227629E+03  0.18158227629E+03  0.00000000000E+00 0. -1.
          4   -1    0    0  502    0 -0.00000000000E+00 -0.00000000000E+00 -0.40681730511E+04  0.40681730511E+04  0.00000000000E+00 0.  1.
    9000010    2    1    2  501    0 -0.73372619646E+02 -0.57862253692E+03 -0.21334452037E+04  0.24021333460E+04  0.93726655391E+03 0.  0.
        -13    1    3    3    0    0 -0.71216836666E+02  0.24193112024E+03 -0.29005596292E+03  0.38436308038E+03  0.10566000000E+00 0.  1.
         13    1    1    2    0    0  0.73372619646E+02  0.57862253692E+03 -0.17531455711E+04  0.18476219814E+04  0.10566000000E+00 0. -1.
          4    1    3    3  501    0 -0.21557829799E+01 -0.82055365716E+03 -0.18433892408E+04  0.20177702656E+04  0.00000000000E+00 0.  1.
</event>
<event>
 5    1  0.2569591E-005  0.5167335E+02  0.7818608E-02  0.1349816E+00
         21   -1    0    0  501  502  0.00000000000E+00  0.00000000000E+00  0.60239730771E+02  0.60239730771E+02  0.00000000000E+00 0.  1.
         -4   -1    0    0    0  501 -0.00000000000E+00 -0.00000000000E+00 -0.19419860105E+02  0.19419860105E+02  0.00000000000E+00 0. -1.
        -13    1    1    2    0    0 -0.12609062120E+02  0.85146518273E+01  0.16832918310E+02  0.22690219174E+02  0.10566000000E+00 0.  1.
         13    1    1    2    0    0  0.42981995990E+01 -0.28919456226E+02  0.10134022686E+02  0.30943804680E+02  0.10566000000E+00 0. -1.
         -4    1    1    2    0  502  0.83108625214E+01  0.20404804399E+02  0.13852929670E+02  0.26025567022E+02  0.00000000000E+00 0. -1.
</event>
<event>
 5    1  0.2569591E-005  0.2387215E+03  0.7818608E-02  0.1052093E+00
         -4   -1    0    0    0  501 -0.00000000000E+00  0.00000000000E+00  0.55307620319E+03  0.55307620319E+03  0.00000000000E+00 0. -1.
         21   -1    0    0  501  502  0.00000000000E+00 -0.00000000000E+00 -0.13696897092E+03  0.13696897092E+03  0.00000000000E+00 0. -1.
        -13    1    1    2    0    0 -0.13320288928E+03 -0.66730223016E+02 -0.57485356460E+02  0.15968879030E+03  0.10566000000E+00 0.  1.
         13    1    1    2    0    0  0.34392586588E+02  0.95875971516E+02  0.37191431964E+03  0.38561032694E+03  0.10566000000E+00 0. -1.
         -4    1    1    2    0  502  0.98810302696E+02 -0.29145748499E+02  0.10167826909E+03  0.14474605687E+03  0.00000000000E+00 0. -1.
</event>
<event>
 6    1  0.2569591E-005  0.1106848E+04  0.7818608E-02  0.8865224E-01
         21   -1    0    0  501  502  0.00000000000E+00  0.00000000000E+00  0.34457900089E+03  0.34457900089E+03  0.00000000000E+00 0. -1.
         -4   -1    0    0    0  501 -0.00000000000E+00 -0.00000000000E+00 -0.21316601771E+04  0.21316601771E+04  0.00000000000E+00 0. -1.
   -9000010    2    1    2    0  502  0.37198483920E+03 -0.33904328262E+03 -0.15864593967E+04  0.19344161647E+04  0.98579379840E+03 0.  0.
        -13    1    1    2    0    0 -0.37198483920E+03  0.33904328262E+03 -0.20062177950E+03  0.54182301322E+03  0.10566000000E+00 0.  1.
         13    1    3    3    0    0  0.33832450543E+02  0.24531469467E+03 -0.10304606074E+04  0.10597985698E+04  0.10566000000E+00 0. -1.
         -4    1    3    3    0  502  0.33815238866E+03 -0.58435797729E+03 -0.55599878932E+03  0.87461759490E+03  0.00000000000E+00 0. -1.
</event>
<event>
 5    1  0.2569591E-005  0.2712370E+02  0.7818608E-02  0.1441285E+00
         -4   -1    0    0    0  501 -0.00000000000E+00  0.00000000000E+00  0.81027675506E+01  0.81027675506E+01  0.00000000000E+00 0. -1.
         21   -1    0    0  501  502  0.00000000000E+00 -0.00000000000E+00 -0.76428193698E+02  0.76428193698E+02  0.00000000000E+00 0.  1.
        -13    1    1    2    0    0 -0.22010441096E+02  0.47856724652E+01 -0.33958922041E+02  0.40750235931E+02  0.10566000000E+00 0.  1.
         13    1    1    2    0    0  0.11527750832E+02 -0.40746080111E+01 -0.30012348783E+02  0.32407463850E+02  0.10566000000E+00 0. -1.
         -4    1    1    2    0  502  0.10482690264E+02 -0.71106445413E+00 -0.43541553234E+01  0.11373261468E+02  0.00000000000E+00 0. -1.
</event>
<event>
 6    1  0.2569591E-005  0.1063740E+04  0.7818608E-02  0.8970362E-01
         21   -1    0    0  501  502  0.00000000000E+00  0.00000000000E+00  0.31519151271E+03  0.31519151271E+03  0.00000000000E+00 0. -1.
          4   -1    0    0  502    0 -0.00000000000E+00 -0.00000000000E+00 -0.17944545665E+04  0.17944545665E+04  0.00000000000E+00 0.  1.
    9000010    2    1    2  501    0  0.72458603374E+02 -0.36035298443E+03 -0.13528007563E+04  0.17209337866E+04  0.99821775633E+03 0.  0.
        -13    1    3    3    0    0  0.80158129816E+02  0.34688380098E+03 -0.47640918801E+03  0.59474315696E+03  0.10566000000E+00 0.  1.
         13    1    1    2    0    0 -0.72458603374E+02  0.36035298443E+03 -0.12646229753E+03  0.38871229264E+03  0.10566000000E+00 0. -1.
          4    1    3    3  501    0 -0.76995264423E+01 -0.70723678541E+03 -0.87639156829E+03  0.11261906297E+04  0.00000000000E+00 0.  1.
</event>
<event>
 6    1  0.2569591E-005  0.1219739E+04  0.7818608E-02  0.8724793E-01
          4   -1    0    0  502    0 -0.00000000000E+00  0.00000000000E+00  0.12177098880E+04  0.12177098880E+04  0.00000000000E+00 0.  1.
         21   -1    0    0  501  502  0.00000000000E+00 -0.00000000000E+00 -0.83723073081E+03  0.83723073081E+03  0.00000000000E+00 0. -1.
    9000010    2    1    2  501    0  0.64268832546E+03  0.22816757395E+03 -0.95199332802E+02  0.12234487292E+04  0.10112641369E+04 0.  0.
        -13    1    3    3    0    0  0.47686025410E+03 -0.98786934322E+02 -0.48572484839E+03  0.68781043889E+03  0.10566000000E+00 0.  1.
         13    1    1    2    0    0 -0.64268832546E+03 -0.22816757395E+03  0.47567849001E+03  0.83149188963E+03  0.10566000000E+00 0. -1.
          4    1    3    3  501    0  0.16582807136E+03  0.32695450827E+03  0.39052551559E+03  0.53563829032E+03  0.00000000000E+00 0.  1.
</event>
<event>
 6    1  0.2569591E-005  0.1032101E+04  0.7818608E-02  0.9024194E-01
         21   -1    0    0  501  502  0.00000000000E+00  0.00000000000E+00  0.40209615854E+03  0.40209615854E+03  0.00000000000E+00 0.  1.
          4   -1    0    0  502    0 -0.00000000000E+00 -0.00000000000E+00 -0.11507319896E+04  0.11507319896E+04  0.00000000000E+00 0.  1.
    9000010    2    1    2  501    0 -0.28154885871E+03 -0.15953338402E+03 -0.62386751609E+03  0.12060028260E+04  0.98005687504E+03 0.  0.
        -13    1    3    3    0    0  0.23842576745E+03 -0.18918697735E+03  0.94501982356E+02  0.31869922312E+03  0.10566000000E+00 0.  1.
         13    1    1    2    0    0  0.28154885871E+03  0.15953338402E+03 -0.12476831495E+03  0.34682532208E+03  0.10566000000E+00 0. -1.
          4    1    3    3  501    0 -0.51997462616E+03  0.29653593336E+02 -0.71836949844E+03  0.88730360291E+03  0.00000000000E+00 0.  1.
</event>
<event>
 6    1  0.2569591E-005  0.1031223E+04  0.7818608E-02  0.9079240E-01
          4   -1    0    0  502    0 -0.00000000000E+00  0.00000000000E+00  0.11155829383E+04  0.11155829383E+04  0.00000000000E+00 0.  1.
         21   -1    0    0  501  502  0.00000000000E+00 -0.00000000000E+00 -0.37708839270E+03  0.37708839270E+03  0.00000000000E+00 0. -1.
    9000010    2    1    2  501    0  0.18539556423E+03  0.18274685169E+03  0.53181291216E+03  0.11602781364E+04  0.99782385885E+03 0.  0.
        -13    1    3    3    0    0 -0.10737721939E+02  0.34802322866E+03 -0.18830581236E+03  0.39584663254E+03  0.10566000000E+00 0.  1.
         13    1    1    2    0    0 -0.18539556423E+03 -0.18274685169E+03  0.20668163345E+03  0.33239319458E+03  0.10566000000E+00 0. -1.
          4    1    3    3  501    0  0.19613328617E+03 -0.16527637697E+03  0.72011872452E+03  0.76443150389E+03  0.00000000000E+00 0.  1.
</event>
<event>
 5    1  0.2569591E-005  0.6875821E+03  0.7818608E-02  0.9881863E-01
         -4   -1    0    0    0  501 -0.00000000000E+00  0.00000000000E+00  0.69047348035E+03  0.69047348035E+03  0.00000000000E+00 0. -1.
         21   -1    0    0  501  502  0.00000000000E+00 -0.00000000000E+00 -0.19891786321E+03  0.19891786321E+03  0.00000000000E+00 0. -1.
        -13    1    1    2    0    0  0.43336063639E+02  0.17581950348E+02  0.65588761126E+02  0.80554553812E+02  0.10566000000E+00 0.  1.
         13    1    1    2    0    0 -0.18531616978E+03 -0.91084049841E+02 -0.12076217588E+03  0.23921099724E+03  0.10566000000E+00 0. -1.
         -4    1    1    2    0  502  0.14198010614E+03  0.73502099493E+02  0.54672903190E+03  0.56962579251E+03  0.00000000000E+00 0. -1.
</event>
<event>
 6    1  0.2569591E-005  0.1729530E+04  0.7818608E-02  0.8329920E-01
         21   -1    0    0  501  502  0.00000000000E+00  0.00000000000E+00  0.10205885175E+04  0.10205885175E+04  0.00000000000E+00 0. -1.
          4   -1    0    0  502    0 -0.00000000000E+00 -0.00000000000E+00 -0.24367078482E+04  0.24367078482E+04  0.00000000000E+00 0.  1.
    9000010    2    1    2  501    0  0.80119339510E+03  0.11724349901E+04 -0.68664894027E+03  0.18608497728E+04  0.98729957322E+03 0.  0.
        -13    1    3    3    0    0  0.92700023550E+02  0.21046298880E+03 -0.62339049662E+03  0.66445743766E+03  0.10566000000E+00 0.  1.
         13    1    1    2    0    0 -0.80119339510E+03 -0.11724349901E+04 -0.72947039043E+03  0.15964465929E+04  0.10566000000E+00 0. -1.
          4    1    3    3  501    0  0.70849337155E+03  0.96197200131E+03 -0.63258443650E+02  0.11963923351E+04  0.00000000000E+00 0.  1.
</event>
<event>
 6    1  0.2569591E-005  0.1343581E+04  0.7818608E-02  0.8598008E-01
         -4   -1    0    0    0  501 -0.00000000000E+00  0.00000000000E+00  0.25297172685E+04  0.25297172685E+04  0.00000000000E+00 0. -1.
         21   -1    0    0  501  502  0.00000000000E+00 -0.00000000000E+00 -0.49923730522E+03  0.49923730522E+03  0.00000000000E+00 0.  1.
   -9000010    2    1    2    0  502  0.22208403398E+03  0.85974042202E+03  0.13965436290E+04  0.19379228608E+04  0.10083332760E+04 0.  0.
        -13    1    1    2    0    0 -0.22208403398E+03 -0.85974042202E+03  0.63393633430E+03  0.10910317129E+04  0.10566000000E+00 0.  1.
         13    1    3    3    0    0  0.51303867712E+03  0.40235025664E+03  0.30632162040E+03  0.72036612880E+03  0.10566000000E+00 0. -1.
         -4    1    3    3    0  502 -0.29095464314E+03  0.45739016538E+03  0.10902220086E+04  0.12175567320E+04  0.00000000000E+00 0. -1.
</event>
<event>
 5    1  0.2569591E-005  0.3519041E+03  0.7818608E-02  0.1016074E+00
         21   -1    0    0  501  502  0.00000000000E+00  0.00000000000E+00  0.93594721317E+02  0.93594721317E+02  0.00000000000E+00 0.  1.
          4   -1    0    0  502    0 -0.00000000000E+00 -0.00000000000E+00 -0.82733846314E+03  0.82733846314E+03  0.00000000000E+00 0.  1.
        -13    1    1    2    0    0 -0.18063053620E+03  0.45707460046E+02 -0.16873809515E+03  0.25137445859E+03  0.10566000000E+00 0.  1.
         13    1    1    2    0    0  0.13674308741E+03 -0.31643058843E+02 -0.44825041884E+02  0.14734059411E+03  0.10566000000E+00 0. -1.
          4    1    1    2  501    0  0.43887448787E+02 -0.14064401202E+02 -0.52018060479E+03  0.52221813176E+03  0.00000000000E+00 0.  1.
</event>
<event>
 6    1  0.2569591E-005  0.9601123E+03  0.7818608E-02  0.9209205E-01
         21   -1    0    0  501  502  0.00000000000E+00  0.00000000000E+00  0.16622322250E+03  0.16622322250E+03  0.00000000000E+00 0. -1.
         -4   -1    0    0    0  501 -0.00000000000E+00 -0.00000000000E+00 -0.20037761223E+04  0.20037761223E+04  0.00000000000E+00 0. -1.
   -9000010    2    1    2    0  502 -0.99501636510E+02  0.16626612938E+03 -0.15079371273E+04  0.17876492826E+04  0.94035662181E+03 0.  0.
        -13    1    1    2    0    0  0.99501636510E+02 -0.16626612938E+03 -0.32961577250E+03  0.38235006223E+03  0.10566000000E+00 0.  1.
         13    1    3    3    0    0 -0.21981533091E+03  0.13811125243E+03  0.14688822038E+02  0.26001782710E+03  0.10566000000E+00 0. -1.
         -4    1    3    3    0  502  0.12031369440E+03  0.28154876946E+02 -0.15226259494E+04  0.15276314555E+04  0.00000000000E+00 0. -1.
</event>
<event>
 6    1  0.2569591E-005  0.1055198E+04  0.7818608E-02  0.9019105E-01
          4   -1    0    0  502    0 -0.00000000000E+00  0.00000000000E+00  0.21194029541E+04  0.21194029541E+04  0.00000000000E+00 0.  1.
         21   -1    0    0  501  502  0.00000000000E+00 -0.00000000000E+00 -0.22182622247E+03  0.22182622247E+03  0.00000000000E+00 0. -1.
    9000010    2    1    2  501    0 -0.22027226418E+03  0.21682658804E+03  0.15618168587E+04  0.18848649108E+04  0.10089153543E+04 0.  0.
        -13    1    3    3    0    0  0.37128180056E+03  0.63850838981E+02  0.29533893182E+03  0.47869844461E+03  0.10566000000E+00 0.  1.
         13    1    1    2    0    0  0.22027226418E+03 -0.21682658804E+03  0.33575987293E+03  0.45636426578E+03  0.10566000000E+00 0. -1.
          4    1    3    3  501    0 -0.59155406474E+03  0.15297574906E+03  0.12664779269E+04  0.14061664662E+04  0.00000000000E+00 0.  1.
</event>
<event>
 5    1  0.2569591E-005  0.3956366E+03  0.7818608E-02  0.9756519E-01
         21   -1    0    0  501  502  0.00000000000E+00  0.00000000000E+00  0.85156965696E+02  0.85156965696E+02  0.00000000000E+00 0.  1.
         -4   -1    0    0    0  501 -0.00000000000E+00 -0.00000000000E+00 -0.27630653500E+04  0.27630653500E+04  0.00000000000E+00 0. -1.
        -13    1    1    2    0    0  0.13363751993E+03  0.35141329307E+03 -0.45431194322E+03  0.58970301186E+03  0.10566000000E+00 0.  1.
         13    1    1    2    0    0 -0.11561311220E+03 -0.35816793289E+03 -0.21205344467E+04  0.21536752334E+04  0.10566000000E+00 0. -1.
         -4    1    1    2    0  502 -0.18024407731E+02  0.67546398215E+01 -0.10306199436E+03  0.10484407048E+03  0.00000000000E+00 0. -1.
</event>
<event>
 5    1  0.2569591E-005  0.6463657E+02  0.7818608E-02  0.1277003E+00
         21   -1    0    0  501  502  0.00000000000E+00  0.00000000000E+00  0.24325090486E+02  0.24325090486E+02  0.00000000000E+00 0.  1.
         -4   -1    0    0    0  501 -0.00000000000E+00 -0.00000000000E+00 -0.13181254417E+03  0.13181254417E+03  0.00000000000E+00 0. -1.
        -13    1    1    2    0    0 -0.20324263558E+02  0.23473817268E+02 -0.39694050967E+00  0.31052608782E+02  0.10566000000E+00 0.  1.
         13    1    1    2    0    0  0.28086880214E+02 -0.38528745029E+02 -0.80321585586E+02  0.93407201590E+02  0.10566000000E+00 0. -1.
         -4    1    1    2    0  502 -0.77626166558E+01  0.15054927761E+02 -0.26768927585E+02  0.31677824283E+02  0.00000000000E+00 0. -1.
</event>
<event>
 5    1  0.2569591E-005  0.3147252E+03  0.7818608E-02  0.1050740E+00
          4   -1    0    0  502    0 -0.00000000000E+00  0.00000000000E+00  0.27557204286E+03  0.27557204286E+03  0.00000000000E+00 0.  1.
         21   -1    0    0  501  502  0.00000000000E+00 -0.00000000000E+00 -0.15639505333E+03  0.15639505333E+03  0.00000000000E+00 0.  1.
        -13    1    1    2    0    0  0.14301682800E+02  0.15770484659E+03  0.13788245576E+03  0.20996890136E+03  0.10566000000E+00 0.  1.
         13    1    1    2    0    0 -0.62894268013E+02 -0.24989243502E+02 -0.40689159749E+02  0.78966892587E+02  0.10566000000E+00 0. -1.
          4    1    1    2  501    0  0.48592585214E+02 -0.13271560309E+03  0.21983693512E+02  0.14303130224E+03  0.00000000000E+00 0.  1.
</event>
<event>
 5    1  0.2569591E-005  0.3873190E+02  0.7818608E-02  0.1347300E+00
         21   -1    0    0  501  502  0.00000000000E+00  0.00000000000E+00  0.39105578438E+02  0.39105578438E+02  0.00000000000E+00 0. -1.
          4   -1    0    0  502    0 -0.00000000000E+00 -0.00000000000E+00 -0.83414473115E+02  0.83414473115E+02  0.00000000000E+00 0.  1.
        -13    1    1    2    0    0 -0.12155633404E+02  0.50748080034E+01 -0.28595825322E+02  0.31484051353E+02  0.10566000000E+00 0.  1.
         13    1    1    2    0    0  0.30521705605E+02 -0.22310698904E+02  0.23438263860E+02  0.44482639034E+02  0.10566000000E+00 0. -1.
          4    1    1    2  501    0 -0.18366072201E+02  0.17235890901E+02 -0.39151333215E+02  0.46553361165E+02  0.00000000000E+00 0.  1.
</event>
<event>
 6    1  0.2569591E-005  0.1170575E+04  0.7818608E-02  0.8772980E-01
         -4   -1    0    0    0  501 -0.00000000000E+00  0.00000000000E+00  0.26222801615E+04  0.26222801615E+04  0.00000000000E+00 0. -1.
         21   -1    0    0  501  502  0.00000000000E+00 -0.00000000000E+00 -0.32137854249E+03  0.32137854249E+03  0.00000000000E+00 0.  1.
   -9000010    2    1    2    0  502  0.53917100062E+03 -0.32149132258E+03  0.12001229208E+04  0.16764666144E+04  0.98801986097E+03 0.  0.
        -13    1    1    2    0    0 -0.53917100062E+03  0.32149132258E+03  0.11007786982E+04  0.12671920896E+04  0.10566000000E+00 0.  1.
         13    1    3    3    0    0  0.83064366525E+03 -0.21881622187E+03  0.83240427267E+03  0.11961380865E+04  0.10566000000E+00 0. -1.
         -4    1    3    3    0  502 -0.29147266464E+03 -0.10267510071E+03  0.36771864813E+03  0.48032852790E+03  0.00000000000E+00 0. -1.
</event>
<event>
 6    1  0.2569591E-005  0.1071941E+04  0.7818608E-02  0.8964798E-01
         21   -1    0    0  501  502  0.00000000000E+00  0.00000000000E+00  0.63428593533E+03  0.63428593533E+03  0.00000000000E+00 0. -1.
          4   -1    0    0  502    0 -0.00000000000E+00 -0.00000000000E+00 -0.10454384623E+04  0.10454384623E+04  0.00000000000E+00 0.  1.
    9000010    2    1    2  501    0 -0.62273987796E+02  0.36211733177E+03 -0.63845128834E+03  0.12476691355E+04  0.10070010985E+04 0.  0.
        -13    1    3    3    0    0 -0.17356366423E+03 -0.11504173928E+03  0.19213966942E+03  0.28333127439E+03  0.10566000000E+00 0.  1.
         13    1    1    2    0    0  0.62273987796E+02 -0.36211733177E+03  0.22729876135E+03  0.43205526221E+03  0.10566000000E+00 0. -1.
          4    1    3    3  501    0  0.11128967643E+03  0.47715907105E+03 -0.83059095776E+03  0.96433786106E+03  0.00000000000E+00 0.  1.
</event>
<event>
 6    1  0.2569591E-005  0.1168379E+04  0.7818608E-02  0.8780922E-01
         21   -1    0    0  501  502  0.00000000000E+00  0.00000000000E+00  0.11381909493E+04  0.11381909493E+04  0.00000000000E+00 0. -1.
          4   -1    0    0  502    0 -0.00000000000E+00 -0.00000000000E+00 -0.15494256927E+04  0.15494256927E+04  0.00000000000E+00 0.  1.
    9000010    2    1    2  501    0  0.53703716041E+03  0.28994982883E+03 -0.12102323921E+04  0.16821928166E+04  0.99630839324E+03 0.  0.
        -13    1    3    3    0    0  0.10206582744E+03 -0.36666668349E+03 -0.38162985093E+03  0.53898352869E+03  0.10566000000E+00 0.  1.
         13    1    1    2    0    0 -0.53703716041E+03 -0.28994982883E+03  0.79899764868E+03  0.10054238254E+04  0.10566000000E+00 0. -1.
          4    1    3    3  501    0  0.43497133298E+03  0.65661651231E+03 -0.82860254119E+03  0.11432092879E+04  0.00000000000E+00 0.  1.
</event>
<event>
 6    1  0.2569591E-005  0.1191958E+04  0.7818608E-02  0.8775871E-01
         -4   -1    0    0    0  501 -0.00000000000E+00  0.00000000000E+00  0.18056469303E+04  0.18056469303E+04  0.00000000000E+00 0. -1.
         21   -1    0    0  501  502  0.00000000000E+00 -0.00000000000E+00 -0.50486547756E+03  0.50486547756E+03  0.00000000000E+00 0.  1.
   -9000010    2    1    2    0  502 -0.52358516689E+03  0.26601781144E+03  0.44440975550E+03  0.12721100783E+04  0.10372353241E+04 0.  0.
        -13    1    1    2    0    0  0.52358516689E+03 -0.26601781144E+03  0.85637169722E+03  0.10384023295E+04  0.10566000000E+00 0.  1.
         13    1    3    3    0    0  0.16709714651E+03  0.43838023137E+03  0.26157647775E+03  0.53714146042E+03  0.10566000000E+00 0. -1.
         -4    1    3    3    0  502 -0.69068231340E+03 -0.17236241994E+03  0.18283327775E+03  0.73496861790E+03  0.00000000000E+00 0. -1.
</event>
<event>
 6    1  0.2569591E-005  0.1170674E+04  0.7818608E-02  0.8781100E-01
          4   -1    0    0  502    0 -0.00000000000E+00  0.00000000000E+00  0.18991078235E+04  0.18991078235E+04  0.00000000000E+00 0.  1.
         21   -1    0    0  501  502  0.00000000000E+00 -0.00000000000E+00 -0.43134144107E+03  0.43134144107E+03  0.00000000000E+00 0.  1.
    9000010    2    1    2  501    0  0.60542581687E+03 -0.32011976399E+02  0.74741232667E+03  0.13889211645E+04  0.10014547563E+04 0.  0.
        -13    1    3    3    0    0  0.47034214018E+02  0.43464715091E+03  0.21469620003E+03  0.48705731958E+03  0.10566000000E+00 0.  1.
         13    1    1    2    0    0 -0.60542581687E+03  0.32011976399E+02  0.72035405576E+03  0.94152810005E+03  0.10566000000E+00 0. -1.
          4    1    3    3  501    0  0.55839160285E+03 -0.46665912731E+03  0.53271612664E+03  0.90186384494E+03  0.00000000000E+00 0.  1.
</event>
<event>
 5    1  0.2569591E-005  0.6354826E+03  0.7818608E-02  0.9335196E-01
          4   -1    0    0  502    0 -0.00000000000E+00  0.00000000000E+00  0.15048119472E+04  0.15048119472E+04  0.00000000000E+00 0.  1.
         21   -1    0    0  501  502  0.00000000000E+00 -0.00000000000E+00 -0.20318310815E+03  0.20318310815E+03  0.00000000000E+00 0. -1.
        -13    1    1    2    0    0 -0.18444569163E+03 -0.31014226084E+03  0.86673545606E+03  0.93884972018E+03  0.10566000000E+00 0.  1.
         13    1    1    2    0    0  0.36775196100E+03  0.18863523808E+03  0.26146344526E+03  0.48906840241E+03  0.10566000000E+00 0. -1.
          4    1    1    2  501    0 -0.18330626936E+03  0.12150702275E+03  0.17342993770E+03  0.28007693275E+03  0.00000000000E+00 0.  1.
</event>
<event>
 6    1  0.2569591E-005  0.1017104E+04  0.7818608E-02  0.9145141E-01
         21   -1    0    0  501  502  0.00000000000E+00  0.00000000000E+00  0.30709632237E+03  0.30709632237E+03  0.00000000000E+00 0.  1.
          4   -1    0    0  502    0 -0.00000000000E+00 -0.00000000000E+00 -0.19312479853E+04  0.19312479853E+04  0.00000000000E+00 0.  1.
    9000010    2    1    2  501    0 -0.12340549854E+03  0.16887068150E+03 -0.57466869292E+03  0.11682224736E+04  0.99536597148E+03 0.  0.
        -13    1    3    3    0    0 -0.68363582051E+02 -0.41519067263E+03 -0.16163118897E+03  0.45075661548E+03  0.10566000000E+00 0.  1.
         13    1    1    2    0    0  0.12340549854E+03 -0.16887068150E+03 -0.10494829700E+04  0.10701218341E+04  0.10566000000E+00 0. -1.
          4    1    3    3  501    0 -0.55041916490E+02  0.58406135413E+03 -0.41303750395E+03  0.71746585816E+03  0.00000000000E+00 0.  1.
</event>
<event>
 6    1  0.2569591E-005  0.1258040E+04  0.7818608E-02  0.8675820E-01
         21   -1    0    0  501  502  0.00000000000E+00  0.00000000000E+00  0.11689620477E+04  0.11689620477E+04  0.00000000000E+00 0. -1.
         -4   -1    0    0    0  501 -0.00000000000E+00 -0.00000000000E+00 -0.10887806141E+04  0.10887806141E+04  0.00000000000E+00 0. -1.
   -9000010    2    1    2    0  502 -0.76725810191E+03 -0.41560977297E+02  0.53251696873E+03  0.13661038575E+04  0.99611902792E+03 0.  0.
        -13    1    1    2    0    0  0.76725810191E+03  0.41560977297E+02 -0.45233553510E+03  0.89163880426E+03  0.10566000000E+00 0.  1.
         13    1    3    3    0    0 -0.13442788320E+03 -0.20834423262E+03  0.65494829424E+03  0.70031096974E+03  0.10566000000E+00 0. -1.
         -4    1    3    3    0  502 -0.63283021871E+03  0.16678325532E+03 -0.12243132551E+03  0.66579288779E+03  0.00000000000E+00 0. -1.
</event>
<event>
 6    1  0.2569591E-005  0.1013742E+04  0.7818608E-02  0.9236250E-01
          4   -1    0    0  502    0 -0.00000000000E+00  0.00000000000E+00  0.19556828849E+04  0.19556828849E+04  0.00000000000E+00 0.  1.
         21   -1    0    0  501  502  0.00000000000E+00 -0.00000000000E+00 -0.19364841933E+03  0.19364841933E+03  0.00000000000E+00 0.  1.
    9000010    2    1    2  501    0  0.83676282766E+01  0.14807775477E+03  0.12141053092E+04  0.15816840456E+04  0.10028338245E+04 0.  0.
        -13    1    3    3    0    0 -0.74554307263E+02 -0.22530242761E+03 -0.65458498122E+02  0.24617951734E+03  0.10566000000E+00 0.  1.
         13    1    1    2    0    0 -0.83676282766E+01 -0.14807775477E+03  0.54792915635E+03  0.56764725861E+03  0.10566000000E+00 0. -1.
          4    1    3    3  501    0  0.82921935539E+02  0.37338018238E+03  0.12795638073E+04  0.13355045283E+04  0.00000000000E+00 0.  1.
</event>
<event>
 6    1  0.2569591E-005  0.1036184E+04  0.7818608E-02  0.9170942E-01
         21   -1    0    0  501  502  0.00000000000E+00  0.00000000000E+00  0.89938333319E+03  0.89938333319E+03  0.00000000000E+00 0.  1.
          4   -1    0    0  502    0 -0.00000000000E+00 -0.00000000000E+00 -0.43251643148E+03  0.43251643148E+03  0.00000000000E+00 0.  1.
    9000010    2    1    2  501    0 -0.88497465630E+02  0.15540118978E+03  0.49920387645E+03  0.11501663822E+04  0.10206355203E+04 0.  0.
        -13    1    3    3    0    0  0.22872890162E+03 -0.20165119064E+03  0.58986610318E+03  0.66401968643E+03  0.10566000000E+00 0.  1.
         13    1    1    2    0    0  0.88497465630E+02 -0.15540118978E+03 -0.32336974744E+02  0.18173338248E+03  0.10566000000E+00 0. -1.
          4    1    3    3  501    0 -0.31722636725E+03  0.35705238042E+03 -0.90662226729E+02  0.48614669576E+03  0.00000000000E+00 0.  1.
</event>
<event>
 5    1  0.4175988E-005  0.1845063E+03  0.7818608E-02  0.1073796E+00
         21   -1    0    0  501  502  0.00000000000E+00  0.00000000000E+00  0.17448887664E+03  0.17448887664E+03  0.00000000000E+00 0. -1.
          4   -1    0    0  502    0 -0.00000000000E+00 -0.00000000000E+00 -0.19271315364E+03  0.19271315364E+03  0.00000000000E+00 0.  1.
        -13    1    1    2    0    0 -0.11720703843E+03 -0.94155508309E+02 -0.68352590239E+02  0.16515095325E+03  0.10566000000E+00 0.  1.
         13    1    1    2    0    0  0.13239833443E+03  0.10962248264E+03  0.34482190379E+02  0.17531525968E+03  0.10566000000E+00 0. -1.
          4    1    1    2  501    0 -0.15191296005E+02 -0.15466974329E+02  0.15646122857E+02  0.26735817356E+02  0.00000000000E+00 0.  1.
</event>
<event>
 6    1  0.2569591E-005  0.1195245E+04  0.7818608E-02  0.8762785E-01
         21   -1    0    0  501  502  0.00000000000E+00  0.00000000000E+00  0.22048129681E+04  0.22048129681E+04  0.00000000000E+00 0.  1.
          4   -1    0    0  502    0 -0.00000000000E+00 -0.00000000000E+00 -0.40410305357E+03  0.40410305357E+03  0.00000000000E+00 0.  1.
    9000010    2    1    2  501    0  0.59072798276E+03  0.17415855442E+03  0.15157673937E+04  0.19303270422E+04  0.10243636788E+04 0.  0.
        -13    1    3    3    0    0 -0.41999961130E+02  0.46198871461E+03  0.84709756850E+03  0.96580115494E+03  0.10566000000E+00 0.  1.
         13    1    1    2    0    0 -0.59072798276E+03 -0.17415855442E+03  0.28494252086E+03  0.67858897947E+03  0.10566000000E+00 0. -1.
          4    1    3    3  501    0  0.63272794389E+03 -0.28783016019E+03  0.66866982515E+03  0.96452588725E+03  0.00000000000E+00 0.  1.
</event>
<event>
 5    1  0.2569591E-005  0.1562322E+03  0.7818608E-02  0.1107486E+00
          4   -1    0    0  502    0 -0.00000000000E+00  0.00000000000E+00  0.56077073157E+03  0.56077073157E+03  0.00000000000E+00 0.  1.
         21   -1    0    0  501  502  0.00000000000E+00 -0.00000000000E+00 -0.32041885753E+02  0.32041885753E+02  0.00000000000E+00 0. -1.
        -13    1    1    2    0    0 -0.89321089745E+02 -0.25017168931E+02  0.10213210054E+03  0.13796772427E+03  0.10566000000E+00 0.  1.
         13    1    1    2    0    0  0.10033202710E+03  0.49437112288E+02  0.22284743954E+03  0.24934220703E+03  0.10566000000E+00 0. -1.
          4    1    1    2  501    0 -0.11010937354E+02 -0.24419943357E+02  0.20374930574E+03  0.20550268603E+03  0.00000000000E+00 0.  1.
</event>
<event>
 6    1  0.2569591E-005  0.1111706E+04  0.7818608E-02  0.8853718E-01
         -4   -1    0    0    0  501 -0.00000000000E+00  0.00000000000E+00  0.18177693287E+04  0.18177693287E+04  0.00000000000E+00 0. -1.
         21   -1    0    0  501  502  0.00000000000E+00 -0.00000000000E+00 -0.36788003602E+03  0.36788003602E+03  0.00000000000E+00 0. -1.
   -9000010    2    1    2    0  502  0.49318782880E+03 -0.16857591904E+03  0.92884617350E+03  0.14486703839E+04  0.98195651237E+03 0.  0.
        -13    1    1    2    0    0 -0.49318782880E+03  0.16857591904E+03  0.52104311916E+03  0.73697898080E+03  0.10566000000E+00 0.  1.
         13    1    3    3    0    0 -0.59013023356E+02 -0.28868001829E+03 -0.68356182958E+02  0.30247523667E+03  0.10566000000E+00 0. -1.
         -4    1    3    3    0  502  0.55220085216E+03  0.12010409926E+03  0.99720235646E+03  0.11461951472E+04  0.00000000000E+00 0. -1.
</event>
<event>
 6    1  0.2569591E-005  0.1040824E+04  0.7818608E-02  0.9055826E-01
         21   -1    0    0  501  502  0.00000000000E+00  0.00000000000E+00  0.23864722732E+03  0.23864722732E+03  0.00000000000E+00 0. -1.
         -4   -1    0    0    0  501 -0.00000000000E+00 -0.00000000000E+00 -0.22560240797E+04  0.22560240797E+04  0.00000000000E+00 0. -1.
   -9000010    2    1    2    0  502  0.68968629885E+02  0.26925897680E+03 -0.10124838438E+04  0.14520462362E+04  0.10030242617E+04 0.  0.
        -13    1    1    2    0    0 -0.68968629885E+02 -0.26925897680E+03 -0.10048930085E+04  0.10426250708E+04  0.10566000000E+00 0.  1.
         13    1    3    3    0    0  0.37391515258E+03 -0.11817541009E+03 -0.84401525756E+02  0.40112541380E+03  0.10566000000E+00 0. -1.
         -4    1    3    3    0  502 -0.30494652270E+03  0.38743438690E+03 -0.92808231808E+03  0.10509208224E+04  0.00000000000E+00 0. -1.
</event>
<event>
 6    1  0.2569591E-005  0.1083419E+04  0.7818608E-02  0.8956437E-01
         21   -1    0    0  501  502  0.00000000000E+00  0.00000000000E+00  0.32516800091E+03  0.32516800091E+03  0.00000000000E+00 0. -1.
         -4   -1    0    0    0  501 -0.00000000000E+00 -0.00000000000E+00 -0.16809851442E+04  0.16809851442E+04  0.00000000000E+00 0. -1.
   -9000010    2    1    2    0  502  0.57012196931E+01  0.36819351300E+03 -0.11667989716E+04  0.15922366712E+04  0.10189204141E+04 0.  0.
        -13    1    1    2    0    0 -0.57012196931E+01 -0.36819351300E+03 -0.18901817175E+03  0.41391647387E+03  0.10566000000E+00 0.  1.
         13    1    3    3    0    0  0.30289950539E+03 -0.25033137188E+03 -0.35834124460E+03  0.53181045952E+03  0.10566000000E+00 0. -1.
         -4    1    3    3    0  502 -0.29719828569E+03  0.61852488488E+03 -0.80845772695E+03  0.10604262117E+04  0.00000000000E+00 0. -1.
</event>
<event>
 6    1  0.2569591E-005  0.1137094E+04  0.7818608E-02  0.8820311E-01
         21   -1    0    0  501  502  0.00000000000E+00  0.00000000000E+00  0.58979299541E+03  0.58979299541E+03  0.00000000000E+00 0. -1.
          4   -1    0    0  502    0 -0.00000000000E+00 -0.00000000000E+00 -0.12268397442E+04  0.12268397442E+04  0.00000000000E+00 0.  1.
    9000010    2    1    2  501    0  0.34737200009E+03 -0.43976192213E+03 -0.48310883884E+03  0.12354660287E+04  0.98940603560E+03 0.  0.
        -13    1    3    3    0    0 -0.10116953438E+03  0.16301133921E+03 -0.44333265627E+03  0.48306503359E+03  0.10566000000E+00 0.  1.
         13    1    1    2    0    0 -0.34737200009E+03  0.43976192213E+03 -0.15393790995E+03  0.58116671092E+03  0.10566000000E+00 0. -1.
          4    1    3    3  501    0  0.44854153447E+03 -0.60277326134E+03 -0.39776182570E+02  0.75240099510E+03  0.00000000000E+00 0.  1.
</event>
<event>
 5    1  0.2569591E-005  0.3418992E+03  0.7818608E-02  0.1049311E+00
         21   -1    0    0  501  502  0.00000000000E+00  0.00000000000E+00  0.68465868911E+02  0.68465868911E+02  0.00000000000E+00 0. -1.
         -4   -1    0    0    0  501 -0.00000000000E+00 -0.00000000000E+00 -0.77386379392E+03  0.77386379392E+03  0.00000000000E+00 0. -1.
        -13    1    1    2    0    0  0.52069269841E+02 -0.17960213725E+02 -0.33002488105E+03  0.33458961641E+03  0.10566000000E+00 0.  1.
         13    1    1    2    0    0  0.10725075581E+03  0.41168095078E+02 -0.18673310771E+02  0.11638831717E+03  0.10566000000E+00 0. -1.
         -4    1    1    2    0  502 -0.15932002565E+03 -0.23207881352E+02 -0.35669973319E+03  0.39135172925E+03  0.00000000000E+00 0. -1.
</event>
<event>
 5    1  0.2569591E-005  0.6324085E+03  0.7818608E-02  0.9344079E-01
         -4   -1    0    0    0  501 -0.00000000000E+00  0.00000000000E+00  0.31892626142E+04  0.31892626142E+04  0.00000000000E+00 0. -1.
         21   -1    0    0  501  502  0.00000000000E+00 -0.00000000000E+00 -0.97457323676E+02  0.97457323676E+02  0.00000000000E+00 0.  1.
        -13    1    1    2    0    0  0.39059477136E+03 -0.10930721934E+03  0.66558047089E+03  0.77942909748E+03  0.10566000000E+00 0.  1.
         13    1    1    2    0    0 -0.20657573114E+02  0.74899454300E+02  0.31373478528E+02  0.83791228064E+02  0.10566000000E+00 0. -1.
         -4    1    1    2    0  502 -0.36993719825E+03  0.34407765038E+02  0.23948513411E+04  0.24234996123E+04  0.00000000000E+00 0. -1.
</event>
<event>
 5    1  0.2569591E-005  0.3489563E+03  0.7818608E-02  0.1012507E+00
         21   -1    0    0  501  502  0.00000000000E+00  0.00000000000E+00  0.37563929070E+03  0.37563929070E+03  0.00000000000E+00 0.  1.
         -4   -1    0    0    0  501 -0.00000000000E+00 -0.00000000000E+00 -0.17367360659E+03  0.17367360659E+03  0.00000000000E+00 0. -1.
        -13    1    1    2    0    0 -0.31321368580E+02 -0.15820481542E+03  0.76356898925E+02  0.17843816556E+03  0.10566000000E+00 0.  1.
         13    1    1    2    0    0  0.16671579475E+03  0.57549640453E+02  0.91725841800E+02  0.19879577096E+03  0.10566000000E+00 0. -1.
         -4    1    1    2    0  502 -0.13539442617E+03  0.10065517497E+03  0.33882943392E+02  0.17207896077E+03  0.00000000000E+00 0. -1.
</event>
<event>
 5    1  0.2569591E-005  0.4454696E+03  0.7818608E-02  0.1014061E+00
         21   -1    0    0  501  502  0.00000000000E+00  0.00000000000E+00  0.39430668399E+03  0.39430668399E+03  0.00000000000E+00 0. -1.
         -4   -1    0    0    0  501 -0.00000000000E+00 -0.00000000000E+00 -0.17698226538E+03  0.17698226538E+03  0.00000000000E+00 0. -1.
        -13    1    1    2    0    0  0.55682656340E+02 -0.48387554710E+02 -0.39802998950E+01  0.73876705525E+02  0.10566000000E+00 0.  1.
         13    1    1    2    0    0 -0.16666778489E+03 -0.46933868043E+02  0.28845804433E+03  0.33643571896E+03  0.10566000000E+00 0. -1.
         -4    1    1    2    0  502  0.11098512855E+03  0.95321422753E+02 -0.67153325823E+02  0.16097652489E+03  0.00000000000E+00 0. -1.
</event>
<event>
 5    1  0.2569591E-005  0.7015738E+03  0.7818608E-02  0.9191141E-01
          4   -1    0    0  502    0 -0.00000000000E+00  0.00000000000E+00  0.11187214669E+04  0.11187214669E+04  0.00000000000E+00 0.  1.
         21   -1    0    0  501  502  0.00000000000E+00 -0.00000000000E+00 -0.56147417657E+03  0.56147417657E+03  0.00000000000E+00 0. -1.
        -13    1    1    2    0    0 -0.22083731359E+03 -0.10723255613E+03  0.72246510405E+03  0.76303589556E+03  0.10566000000E+00 0.  1.
         13    1    1    2    0    0  0.52407246187E+03  0.95006395218E+02 -0.26865523870E+03  0.59653483458E+03  0.10566000000E+00 0. -1.
          4    1    1    2  501    0 -0.30323514828E+03  0.12226160914E+02  0.10343742498E+03  0.32062491333E+03  0.00000000000E+00 0.  1.
</event>
<event>
 6    1  0.2569591E-005  0.1019609E+04  0.7818608E-02  0.9154015E-01
         21   -1    0    0  501  502  0.00000000000E+00  0.00000000000E+00  0.77545270010E+03  0.77545270010E+03  0.00000000000E+00 0. -1.
          4   -1    0    0  502    0 -0.00000000000E+00 -0.00000000000E+00 -0.83535514470E+03  0.83535514470E+03  0.00000000000E+00 0.  1.
    9000010    2    1    2  501    0  0.20018574505E+03  0.11678094234E+02  0.41073651512E+03  0.10992301362E+04  0.99969580222E+03 0.  0.
        -13    1    3    3    0    0  0.35850144981E+03 -0.27725548746E+03  0.57415022914E+03  0.73146591966E+03  0.10566000000E+00 0.  1.
         13    1    1    2    0    0 -0.20018574505E+03 -0.11678094234E+02 -0.47063895972E+03  0.51157770864E+03  0.10566000000E+00 0. -1.
          4    1    3    3  501    0 -0.15831570476E+03  0.28893358170E+03 -0.16341371402E+03  0.36776421650E+03  0.00000000000E+00 0.  1.
</event>
<event>
 6    1  0.2569591E-005  0.1211430E+04  0.7818608E-02  0.8727746E-01
          4   -1    0    0  502    0 -0.00000000000E+00  0.00000000000E+00  0.30711081286E+04  0.30711081286E+04  0.00000000000E+00 0.  1.
         21   -1    0    0  501  502  0.00000000000E+00 -0.00000000000E+00 -0.33104515033E+03  0.33104515033E+03  0.00000000000E+00 0. -1.
    9000010    2    1    2  501    0  0.18422988801E+03  0.66218007268E+03  0.22585845645E+04  0.25629604677E+04  0.99756655100E+03 0.  0.
        -13    1    3    3    0    0 -0.39001130003E+02  0.31032872583E+03  0.51617330958E+02  0.31700057766E+03  0.10566000000E+00 0.  1.
         13    1    1    2    0    0 -0.18422988801E+03 -0.66218007268E+03  0.48147841369E+03  0.83919281116E+03  0.10566000000E+00 0. -1.
          4    1    3    3  501    0  0.22323101801E+03  0.35185134684E+03  0.22069672336E+04  0.22459598901E+04  0.00000000000E+00 0.  1.
</event>
<event>
 6    1  0.2569591E-005  0.1238964E+04  0.7818608E-02  0.8688549E-01
         21   -1    0    0  501  502  0.00000000000E+00  0.00000000000E+00  0.30667006379E+03  0.30667006379E+03  0.00000000000E+00 0.  1.
         -4   -1    0    0    0  501 -0.00000000000E+00 -0.00000000000E+00 -0.32996833016E+04  0.32996833016E+04  0.00000000000E+00 0. -1.
   -9000010    2    1    2    0  502  0.20459318316E+03 -0.73309906847E+03 -0.20393105963E+04  0.23861724958E+04  0.97761897334E+03 0.  0.
        -13    1    1    2    0    0 -0.20459318316E+03  0.73309906847E+03 -0.95370264155E+03  0.12201808696E+04  0.10566000000E+00 0.  1.
         13    1    3    3    0    0 -0.34351639931E+03 -0.32291306403E+03 -0.43328610764E+03  0.64032275124E+03  0.10566000000E+00 0. -1.
         -4    1    3    3    0  502  0.54810958247E+03 -0.41018600444E+03 -0.16060244886E+04  0.17458497446E+04  0.00000000000E+00 0. -1.
</event>
<event>
 6    1  0.2569591E-005  0.1003861E+04  0.7818608E-02  0.9193211E-01
          4   -1    0    0  502    0 -0.00000000000E+00  0.00000000000E+00  0.21610269006E+04  0.21610269006E+04  0.00000000000E+00 0.  1.
         21   -1    0    0  501  502  0.00000000000E+00 -0.00000000000E+00 -0.17271997447E+03  0.17271997447E+03  0.00000000000E+00 0.  1.
    9000010    2    1    2  501    0 -0.13322996615E+03  0.12156094470E+03  0.14311094804E+04  0.17480880222E+04  0.98752726624E+03 0.  0.
        -13    1    3    3    0    0 -0.25074816619E+03 -0.22251850915E+03  0.74265688901E+02  0.34337229573E+03  0.10566000000E+00 0.  1.
         13    1    1    2    0    0  0.13322996615E+03 -0.12156094470E+03  0.55719744574E+03  0.58565885280E+03  0.10566000000E+00 0. -1.
          4    1    3    3  501    0  0.11751820004E+03  0.34407945385E+03  0.13568437914E+04  0.14047157265E+04  0.00000000000E+00 0.  1.
</event>
<event>
 6    1  0.2569591E-005  0.9130055E+03  0.7818608E-02  0.9047653E-01
         -4   -1    0    0    0  501 -0.00000000000E+00  0.00000000000E+00  0.25753327805E+04  0.25753327805E+04  0.00000000000E+00 0. -1.
         21   -1    0    0  501  502  0.00000000000E+00 -0.00000000000E+00 -0.20066385626E+03  0.20066385626E+03  0.00000000000E+00 0. -1.
   -9000010    2    1    2    0  502  0.17854856771E+03 -0.38620194543E+03  0.10853978062E+04  0.14183326280E+04  0.80780412990E+03 0.  0.
        -13    1    1    2    0    0 -0.17854856771E+03  0.38620194543E+03  0.12892711180E+04  0.13576640087E+04  0.10566000000E+00 0.  1.
         13    1    3    3    0    0  0.48088726884E+03 -0.37518135482E+03  0.70241127603E+03  0.93026621254E+03  0.10566000000E+00 0. -1.
         -4    1    3    3    0  502 -0.30233870113E+03 -0.11020590608E+02  0.38298653020E+03  0.48806641549E+03  0.00000000000E+00 0. -1.
</event>
<event>
 6    1  0.2569591E-005  0.1203128E+04  0.7818608E-02  0.8769239E-01
         21   -1    0    0  501  502  0.00000000000E+00  0.00000000000E+00  0.37071310688E+03  0.37071310688E+03  0.00000000000E+00 0.  1.
          4   -1    0    0  502    0 -0.00000000000E+00 -0.00000000000E+00 -0.25634231675E+04  0.25634231675E+04  0.00000000000E+00 0.  1.
    9000010    2    1    2  501    0 -0.54883486626E+03  0.20945102879E+03 -0.86357900237E+03  0.14809746092E+04  0.10499655499E+04 0.  0.
        -13    1    3    3    0    0  0.21791300319E+03 -0.17778034026E+03 -0.44257028362E+03  0.52436665936E+03  0.10566000000E+00 0.  1.
         13    1    1    2    0    0  0.54883486626E+03 -0.20945102879E+03 -0.13291310583E+04  0.14531616652E+04  0.10566000000E+00 0. -1.
          4    1    3    3  501    0 -0.76674786945E+03  0.38723136905E+03 -0.42100871875E+03  0.95660794987E+03  0.00000000000E+00 0.  1.
</event>
<event>
 5    1  0.2569591E-005  0.3440969E+03  0.7818608E-02  0.1024174E+00
         -4   -1    0    0    0  501 -0.00000000000E+00  0.00000000000E+00  0.12356857468E+04  0.12356857468E+04  0.00000000000E+00 0. -1.
         21   -1    0    0  501  502  0.00000000000E+00 -0.00000000000E+00 -0.43445162429E+02  0.43445162429E+02  0.00000000000E+00 0. -1.
        -13    1    1    2    0    0  0.50599318510E+02  0.10472806092E+03  0.36816026977E+03  0.38609617089E+03  0.10566000000E+00 0.  1.
         13    1    1    2    0    0 -0.15834955596E+03  0.36341325449E+02  0.46304761357E+03  0.49072230172E+03  0.10566000000E+00 0. -1.
         -4    1    1    2    0  502  0.10775023745E+03 -0.14106938637E+03  0.36103270102E+03  0.40231243660E+03  0.00000000000E+00 0. -1.
</event>
<event>
 6    1  0.2569591E-005  0.1019614E+04  0.7818608E-02  0.9162321E-01
         -4   -1    0    0    0  501 -0.00000000000E+00  0.00000000000E+00  0.52703840634E+03  0.52703840634E+03  0.00000000000E+00 0. -1.
         21   -1    0    0  501  502  0.00000000000E+00 -0.00000000000E+00 -0.89579664999E+03  0.89579664999E+03  0.00000000000E+00 0. -1.
   -9000010    2    1    2    0  502  0.80029951571E+02  0.17685141044E+03 -0.54893135542E+03  0.11579887313E+04  0.10009650615E+04 0.  0.
        -13    1    1    2    0    0 -0.80029951571E+02 -0.17685141044E+03  0.18017311177E+03  0.26484632505E+03  0.10566000000E+00 0.  1.
         13    1    3    3    0    0  0.26068652694E+03 -0.11378696310E+03 -0.72091057890E+03  0.77499484659E+03  0.10566000000E+00 0. -1.
         -4    1    3    3    0  502 -0.18065657537E+03  0.29063837354E+03  0.17197922348E+03  0.38299388469E+03  0.00000000000E+00 0. -1.
</event>
<event>
 5    1  0.2569591E-005  0.4681293E+02  0.7818608E-02  0.1309816E+00
         21   -1    0    0  501  502  0.00000000000E+00  0.00000000000E+00  0.22625942275E+03  0.22625942275E+03  0.00000000000E+00 0. -1.
          4   -1    0    0  502    0 -0.00000000000E+00 -0.00000000000E+00 -0.11286456799E+02  0.11286456799E+02  0.00000000000E+00 0.  1.
        -13    1    1    2    0    0 -0.26567717336E+02 -0.18517782507E+02  0.53303814596E+02  0.62370343016E+02  0.10566000000E+00 0.  1.
         13    1    1    2    0    0  0.35023274759E+02  0.24881585981E+02  0.15836492692E+03  0.16408895252E+03  0.10566000000E+00 0. -1.
          4    1    1    2  501    0 -0.84555574227E+01 -0.63638034741E+01  0.33042244338E+01  0.11086584014E+02  0.00000000000E+00 0.  1.
</event>
<event>
 6    1  0.2569591E-005  0.1080411E+04  0.7818608E-02  0.8883072E-01
         -4   -1    0    0    0  501 -0.00000000000E+00  0.00000000000E+00  0.13027570002E+04  0.13027570002E+04  0.00000000000E+00 0. -1.
         21   -1    0    0  501  502  0.00000000000E+00 -0.00000000000E+00 -0.56209177477E+03  0.56209177477E+03  0.00000000000E+00 0. -1.
   -9000010    2    1    2    0  502 -0.44983045628E+03 -0.22376028163E+03  0.81981857619E+03  0.13562414931E+04  0.95648961663E+03 0.  0.
        -13    1    1    2    0    0  0.44983045628E+03  0.22376028163E+03 -0.79153350787E+02  0.50860728184E+03  0.10566000000E+00 0.  1.
         13    1    3    3    0    0 -0.40282673465E+03 -0.51600773470E+03  0.22565111481E+03  0.69242457871E+03  0.10566000000E+00 0. -1.
         -4    1    3    3    0  502 -0.47003721630E+02  0.29224745307E+03  0.59416746138E+03  0.66381691440E+03  0.00000000000E+00 0. -1.
</event>
<event>
 6    1  0.2569591E-005  0.1284739E+04  0.7818608E-02  0.8657739E-01
         21   -1    0    0  501  502  0.00000000000E+00  0.00000000000E+00  0.81887581027E+03  0.81887581027E+03  0.00000000000E+00 0. -1.
          4   -1    0    0  502    0 -0.00000000000E+00 -0.00000000000E+00 -0.13796388999E+04  0.13796388999E+04  0.00000000000E+00 0.  1.
    9000010    2    1    2  501    0  0.23912730780E+03  0.74318075180E+03 -0.92314724510E+02  0.12880514319E+04  0.10203210199E+04 0.  0.
        -13    1    3    3    0    0 -0.67229484299E+02 -0.10557739428E+02  0.35370969325E+03  0.36019692903E+03  0.10566000000E+00 0.  1.
         13    1    1    2    0    0 -0.23912730780E+03 -0.74318075180E+03 -0.46844836517E+03  0.91046327832E+03  0.10566000000E+00 0. -1.
          4    1    3    3  501    0  0.30635679210E+03  0.75373849123E+03 -0.44602441776E+03  0.92785450285E+03  0.00000000000E+00 0.  1.
</event>
<event>
 6    1  0.2569591E-005  0.9969532E+03  0.7818608E-02  0.9299701E-01
         21   -1    0    0  501  502  0.00000000000E+00  0.00000000000E+00  0.22134350472E+03  0.22134350472E+03  0.00000000000E+00 0. -1.
         -4   -1    0    0    0  501 -0.00000000000E+00 -0.00000000000E+00 -0.14151978310E+04  0.14151978310E+04  0.00000000000E+00 0. -1.
   -9000010    2    1    2    0  502 -0.11664651615E+03  0.37065675023E+02 -0.10662283634E+04  0.14597118371E+04  0.98941166895E+03 0.  0.
        -13    1    1    2    0    0  0.11664651615E+03 -0.37065675023E+02 -0.12762596292E+03  0.17682949858E+03  0.10566000000E+00 0.  1.
         13    1    3    3    0    0  0.37120131259E+03  0.15717829371E+03 -0.18107124289E+03  0.44190749784E+03  0.10566000000E+00 0. -1.
         -4    1    3    3    0  502 -0.48784782874E+03 -0.12011261869E+03 -0.88515712048E+03  0.10178043393E+04  0.00000000000E+00 0. -1.
</event>
<event>
 5    1  0.2569591E-005  0.1518191E+03  0.7818608E-02  0.1112626E+00
         21   -1    0    0  501  502  0.00000000000E+00  0.00000000000E+00  0.82159764722E+02  0.82159764722E+02  0.00000000000E+00 0. -1.
          4   -1    0    0  502    0 -0.00000000000E+00 -0.00000000000E+00 -0.27665825529E+03  0.27665825529E+03  0.00000000000E+00 0.  1.
        -13    1    1    2    0    0  0.10215311974E+03 -0.74363161296E+01 -0.17205704516E+03  0.20023535308E+03  0.10566000000E+00 0.  1.
         13    1    1    2    0    0 -0.94044902411E+02  0.49586882148E+02  0.69767659764E+01  0.10654571309E+03  0.10566000000E+00 0. -1.
          4    1    1    2  501    0 -0.81082173275E+01 -0.42150566018E+02 -0.29418211386E+02  0.52036953840E+02  0.00000000000E+00 0.  1.
</event>
<event>
 5    1  0.2569591E-005  0.4937395E+03  0.7818608E-02  0.9545471E-01
         -4   -1    0    0    0  501 -0.00000000000E+00  0.00000000000E+00  0.94126239861E+03  0.94126239861E+03  0.00000000000E+00 0. -1.
         21   -1    0    0  501  502  0.00000000000E+00 -0.00000000000E+00 -0.22947267459E+03  0.22947267459E+03  0.00000000000E+00 0. -1.
        -13    1    1    2    0    0 -0.11878283946E+03 -0.38883741816E+03  0.46846758066E+03  0.62029491857E+03  0.10566000000E+00 0.  1.
         13    1    1    2    0    0  0.15363663077E+03  0.41593632675E+03  0.19325710231E+03  0.48368952954E+03  0.10566000000E+00 0. -1.
         -4    1    1    2    0  502 -0.34853791311E+02 -0.27098908595E+02  0.50065041049E+02  0.66750625099E+02  0.00000000000E+00 0. -1.
</event>
<event>
 5    1  0.2569591E-005  0.2908962E+03  0.7818608E-02  0.1040751E+00
         -4   -1    0    0    0  501 -0.00000000000E+00  0.00000000000E+00  0.80437247204E+02  0.80437247204E+02  0.00000000000E+00 0. -1.
         21   -1    0    0  501  502  0.00000000000E+00 -0.00000000000E+00 -0.75037797871E+03  0.75037797871E+03  0.00000000000E+00 0.  1.
        -13    1    1    2    0    0  0.97182002224E+02  0.62651236851E+02 -0.45409811165E+03  0.46858790553E+03  0.10566000000E+00 0.  1.
         13    1    1    2    0    0  0.38028197613E+02  0.17530402248E+02  0.42598235359E+02  0.59733404694E+02  0.10566000000E+00 0. -1.
         -4    1    1    2    0  502 -0.13521019984E+03 -0.80181639100E+02 -0.25844085521E+03  0.30249391569E+03  0.00000000000E+00 0. -1.
</event>
<event>
 5    1  0.2569591E-005  0.2336737E+03  0.7818608E-02  0.1041349E+00
         21   -1    0    0  501  502  0.00000000000E+00  0.00000000000E+00  0.31734807775E+02  0.31734807775E+02  0.00000000000E+00 0.  1.
         -4   -1    0    0    0  501 -0.00000000000E+00 -0.00000000000E+00 -0.16668436873E+04  0.16668436873E+04  0.00000000000E+00 0. -1.
        -13    1    1    2    0    0 -0.67935988818E+02 -0.20827318637E+03 -0.94202658931E+03  0.96716447664E+03  0.10566000000E+00 0.  1.
         13    1    1    2    0    0  0.37027835706E+02  0.17707656220E+03 -0.62277796311E+03  0.64852106520E+03  0.10566000000E+00 0. -1.
         -4    1    1    2    0  502  0.30908153112E+02  0.31196624162E+02 -0.70304327085E+02  0.82892953227E+02  0.00000000000E+00 0. -1.
</event>
<event>
 6    1  0.2569591E-005  0.1207864E+04  0.7818608E-02  0.8732069E-01
          4   -1    0    0  502    0 -0.00000000000E+00  0.00000000000E+00  0.22348926259E+04  0.22348926259E+04  0.00000000000E+00 0.  1.
         21   -1    0    0  501  502  0.00000000000E+00 -0.00000000000E+00 -0.48153916265E+03  0.48153916265E+03  0.00000000000E+00 0. -1.
    9000010    2    1    2  501    0  0.14832231862E+03  0.66431172171E+03  0.16234256733E+04  0.20234737699E+04  0.99781040632E+03 0.  0.
        -13    1    3    3    0    0  0.43128957504E+02  0.60994826406E+03  0.27603351280E+03  0.67088859221E+03  0.10566000000E+00 0.  1.
         13    1    1    2    0    0 -0.14832231862E+03 -0.66431172171E+03  0.12992778992E+03  0.69295801861E+03  0.10566000000E+00 0. -1.
          4    1    3    3  501    0  0.10519336111E+03  0.54363457655E+02  0.13473921605E+04  0.13525851777E+04  0.00000000000E+00 0.  1.
</event>
<event>
 5    1  0.2823169E-005  0.1907799E+03  0.7818608E-02  0.1069478E+00
         21   -1    0    0  501  502  0.00000000000E+00  0.00000000000E+00  0.42094445667E+02  0.42094445667E+02  0.00000000000E+00 0. -1.
          4   -1    0    0  502    0 -0.00000000000E+00 -0.00000000000E+00 -0.99862504029E+03  0.99862504029E+03  0.00000000000E+00 0.  1.
        -13    1    1    2    0    0 -0.14811825239E+01  0.14642506457E+03 -0.68074140435E+03  0.69631269139E+03  0.10566000000E+00 0.  1.
         13    1    1    2    0    0  0.92330419249E+01 -0.17563512725E+03 -0.22989182299E+03  0.28945329231E+03  0.10566000000E+00 0. -1.
          4    1    1    2  501    0 -0.77518594009E+01  0.29210062687E+02 -0.45897367288E+02  0.54953502257E+02  0.00000000000E+00 0.  1.
</event>
<event>
 6    1  0.2569591E-005  0.1026729E+04  0.7818608E-02  0.9144778E-01
         21   -1    0    0  501  502  0.00000000000E+00  0.00000000000E+00  0.34047515355E+03  0.34047515355E+03  0.00000000000E+00 0. -1.
         -4   -1    0    0    0  501 -0.00000000000E+00 -0.00000000000E+00 -0.11428143697E+04  0.11428143697E+04  0.00000000000E+00 0. -1.
   -9000010    2    1    2    0  502 -0.89920952985E+02  0.18268682084E+03 -0.75445309040E+03  0.12741165219E+04  0.10063365210E+04 0.  0.
        -13    1    1    2    0    0  0.89920952985E+02 -0.18268682084E+03 -0.47886125751E+02  0.20917300136E+03  0.10566000000E+00 0.  1.
         13    1    3    3    0    0 -0.78017639686E+02 -0.26197784669E+03  0.11572481864E+03  0.29683562635E+03  0.10566000000E+00 0. -1.
         -4    1    3    3    0  502 -0.11903313299E+02  0.44466466753E+03 -0.87017790904E+03  0.97728089554E+03  0.00000000000E+00 0. -1.
</event>
<event>
 6    1  0.2569591E-005  0.1027937E+04  0.7818608E-02  0.9089269E-01
          4   -1    0    0  502    0 -0.00000000000E+00  0.00000000000E+00  0.50743685923E+03  0.50743685923E+03  0.00000000000E+00 0.  1.
         21   -1    0    0  501  502  0.00000000000E+00 -0.00000000000E+00 -0.89766140909E+03  0.89766140909E+03  0.00000000000E+00 0.  1.
    9000010    2    1    2  501    0  0.20981361087E+03 -0.14059306235E+03 -0.48335984326E+03  0.11359099429E+04  0.99642686629E+03 0.  0.
        -13    1    3    3    0    0  0.58338446775E+03 -0.22105467347E+03 -0.41073863201E+03  0.74693295608E+03  0.10566000000E+00 0.  1.
         13    1    1    2    0    0 -0.20981361087E+03  0.14059306235E+03  0.93135293406E+02  0.26918832540E+03  0.10566000000E+00 0. -1.
          4    1    3    3  501    0 -0.37357085688E+03  0.80461611114E+02 -0.72621211244E+02  0.38897698685E+03  0.00000000000E+00 0.  1.
</event>
<event>
 6    1  0.2569591E-005  0.1303565E+04  0.7818608E-02  0.8632901E-01
          4   -1    0    0  502    0 -0.00000000000E+00  0.00000000000E+00  0.11512631143E+04  0.11512631143E+04  0.00000000000E+00 0.  1.
         21   -1    0    0  501  502  0.00000000000E+00 -0.00000000000E+00 -0.99250114384E+03  0.99250114384E+03  0.00000000000E+00 0. -1.
    9000010    2    1    2  501    0 -0.77539736885E+03  0.30544355209E+03  0.66102460284E+02  0.13052401743E+04  0.10023699588E+04 0.  0.
        -13    1    3    3    0    0 -0.35001029024E+03  0.21892433711E+03 -0.46334530788E+03  0.62058355936E+03  0.10566000000E+00 0.  1.
         13    1    1    2    0    0  0.77539736885E+03 -0.30544355209E+03  0.92659510174E+02  0.83852408381E+03  0.10566000000E+00 0. -1.
          4    1    3    3  501    0 -0.42538707862E+03  0.86519214975E+02  0.52944776816E+03  0.68465661497E+03  0.00000000000E+00 0.  1.
</event>
<event>
 6    1  0.2569591E-005  0.1106770E+04  0.7818608E-02  0.8882032E-01
         -4   -1    0    0    0  501 -0.00000000000E+00  0.00000000000E+00  0.29341935970E+04  0.29341935970E+04  0.00000000000E+00 0. -1.
         21   -1    0    0  501  502  0.00000000000E+00 -0.00000000000E+00 -0.52035156807E+03  0.52035156807E+03  0.00000000000E+00 0.  1.
   -9000010    2    1    2    0  502 -0.37786478368E+02 -0.46786286679E+03  0.26908103972E+04  0.29095360200E+04  0.10023052319E+04 0.  0.
        -13    1    1    2    0    0  0.37786478368E+02  0.46786286679E+03 -0.27696836825E+03  0.54500914510E+03  0.10566000000E+00 0.  1.
         13    1    3    3    0    0 -0.11839402162E+03 -0.74353349941E+03  0.23284806090E+04  0.24471782049E+04  0.10566000000E+00 0. -1.
         -4    1    3    3    0  502  0.80607543248E+02  0.27567063262E+03  0.36232978822E+03  0.46235781506E+03  0.00000000000E+00 0. -1.
</event>
<event>
 6    1  0.2569591E-005  0.1241935E+04  0.7818608E-02  0.8682456E-01
         21   -1    0    0  501  502  0.00000000000E+00  0.00000000000E+00  0.12853176090E+04  0.12853176090E+04  0.00000000000E+00 0. -1.
         -4   -1    0    0    0  501 -0.00000000000E+00 -0.00000000000E+00 -0.83132276925E+03  0.83132276925E+03  0.00000000000E+00 0. -1.
   -9000010    2    1    2    0  502 -0.63510811695E+03 -0.44576852523E+03  0.50124136043E+03  0.13392703613E+04  0.96970629629E+03 0.  0.
        -13    1    1    2    0    0  0.63510811695E+03  0.44576852523E+03 -0.47246520676E+02  0.77737001691E+03  0.10566000000E+00 0.  1.
         13    1    3    3    0    0  0.24152374559E+03 -0.20919763548E+03  0.43659242039E+02  0.32249575339E+03  0.10566000000E+00 0. -1.
         -4    1    3    3    0  502 -0.87663186254E+03 -0.23657088975E+03  0.45758211839E+03  0.10167746080E+04  0.00000000000E+00 0. -1.
</event>
<event>
 5    1  0.2569591E-005  0.9851607E+02  0.7818608E-02  0.1177972E+00
         21   -1    0    0  501  502  0.00000000000E+00  0.00000000000E+00  0.62250882427E+02  0.62250882427E+02  0.00000000000E+00 0.  1.
         -4   -1    0    0    0  501 -0.00000000000E+00 -0.00000000000E+00 -0.17307079548E+03  0.17307079548E+03  0.00000000000E+00 0. -1.
        -13    1    1    2    0    0  0.10784793484E+02 -0.75125033457E+02  0.13095471892E+02  0.77016783694E+02  0.10566000000E+00 0.  1.
         13    1    1    2    0    0 -0.19426498745E+02  0.36655366833E+02 -0.10816388563E+03  0.11584663176E+03  0.10566000000E+00 0. -1.
         -4    1    1    2    0  502  0.86417052618E+01  0.38469666624E+02 -0.15751499314E+02  0.42458262455E+02  0.00000000000E+00 0. -1.
</event>
<event>
 6    1  0.2569591E-005  0.1065268E+04  0.7818608E-02  0.8964103E-01
         21   -1    0    0  501  502  0.00000000000E+00  0.00000000000E+00  0.36787287469E+03  0.36787287469E+03  0.00000000000E+00 0. -1.
          4   -1    0    0  502    0 -0.00000000000E+00 -0.00000000000E+00 -0.20081848520E+04  0.20081848520E+04  0.00000000000E+00 0.  1.
    9000010    2    1    2  501    0 -0.32314079867E+03 -0.19115120106E+03 -0.50237542601E+03  0.11777846512E+04  0.99691366657E+03 0.  0.
        -13    1    3    3    0    0  0.11079905564E+03  0.23553434010E+03  0.13778504338E+03  0.29451245380E+03  0.10566000000E+00 0.  1.
         13    1    1    2    0    0  0.32314079867E+03  0.19115120106E+03 -0.11379365513E+04  0.11982730755E+04  0.10566000000E+00 0. -1.
          4    1    3    3  501    0 -0.43393985431E+03 -0.42668554115E+03 -0.64016046939E+03  0.88327219744E+03  0.00000000000E+00 0.  1.
</event>
<event>
 6    1  0.2569591E-005  0.1012272E+04  0.7818608E-02  0.9169902E-01
         21   -1    0    0  501  502  0.00000000000E+00  0.00000000000E+00  0.13535490209E+03  0.13535490209E+03  0.00000000000E+00 0. -1.
         -4   -1    0    0    0  501 -0.00000000000E+00 -0.00000000000E+00 -0.26901426239E+04  0.26901426239E+04  0.00000000000E+00 0. -1.
   -9000010    2    1    2    0  502  0.18045957999E+03  0.67262745243E+02 -0.20839666957E+04  0.23168106019E+04  0.99378279294E+03 0.  0.
        -13    1    1    2    0    0 -0.18045957999E+03 -0.67262745243E+02 -0.47082102608E+03  0.50868692402E+03  0.10566000000E+00 0.  1.
         13    1    3    3    0    0  0.52271096304E+03  0.50013395796E+02 -0.61627577652E+03  0.80964432594E+03  0.10566000000E+00 0. -1.
         -4    1    3    3    0  502 -0.34225138305E+03  0.17249349447E+02 -0.14676909192E+04  0.15071662760E+04  0.00000000000E+00 0. -1.
</event>
<event>
 5    1  0.2569591E-005  0.7401943E+03  0.7818608E-02  0.9070688E-01
         21   -1    0    0  501  502  0.00000000000E+00  0.00000000000E+00  0.20101268146E+03  0.20101268146E+03  0.00000000000E+00 0.  1.
         -4   -1    0    0    0  501 -0.00000000000E+00 -0.00000000000E+00 -0.29458728706E+04  0.29458728706E+04  0.00000000000E+00 0. -1.
        -13    1    1    2    0    0  0.72411200683E+03  0.78044407173E+02 -0.18331826190E+04  0.19725586566E+04  0.10566000000E+00 0.  1.
         13    1    1    2    0    0 -0.63552496736E+03 -0.45003110834E+02 -0.84658065023E+03  0.10595357817E+04  0.10566000000E+00 0. -1.
         -4    1    1    2    0  502 -0.88587039466E+02 -0.33041296339E+02 -0.65096919927E+02  0.11479111381E+03  0.00000000000E+00 0. -1.
</event>
<event>
 6    1  0.2569591E-005  0.1096029E+04  0.7818608E-02  0.8901133E-01
         -4   -1    0    0    0  501 -0.00000000000E+00  0.00000000000E+00  0.31875091505E+04  0.31875091505E+04  0.00000000000E+00 0. -1.
         21   -1    0    0  501  502  0.00000000000E+00 -0.00000000000E+00 -0.20383273489E+03  0.20383273489E+03  0.00000000000E+00 0. -1.
   -9000010    2    1    2    0  502 -0.42961116691E+03 -0.12167822463E+03  0.16159917175E+04  0.19526157858E+04  0.10009534608E+04 0.  0.
        -13    1    1    2    0    0  0.42961116691E+03  0.12167822463E+03  0.13676846981E+04  0.14387260996E+04  0.10566000000E+00 0.  1.
         13    1    3    3    0    0  0.17183578576E+03 -0.39483975001E+03  0.54955690012E+03  0.69816814815E+03  0.10566000000E+00 0. -1.
         -4    1    3    3    0  502 -0.60144695267E+03  0.27316152538E+03  0.10664348174E+04  0.12544476376E+04  0.00000000000E+00 0. -1.
</event>
<event>
 6    1  0.2569591E-005  0.1332596E+04  0.7818608E-02  0.8604907E-01
          4   -1    0    0  502    0 -0.00000000000E+00  0.00000000000E+00  0.18595560721E+04  0.18595560721E+04  0.00000000000E+00 0.  1.
         21   -1    0    0  501  502  0.00000000000E+00 -0.00000000000E+00 -0.89403304527E+03  0.89403304527E+03  0.00000000000E+00 0.  1.
    9000010    2    1    2  501    0  0.87664545825E+03  0.10321029247E+03 -0.13883851515E+03  0.13398090600E+04  0.99832487705E+03 0.  0.
        -13    1    3    3    0    0  0.26810004802E+03 -0.37740867902E+02 -0.53536070857E+03  0.59992758589E+03  0.10566000000E+00 0.  1.
         13    1    1    2    0    0 -0.87664545825E+03 -0.10321029247E+03  0.11043615420E+04  0.14137800574E+04  0.10566000000E+00 0. -1.
          4    1    3    3  501    0  0.60854541023E+03  0.14095116037E+03  0.39652219342E+03  0.73988147416E+03  0.00000000000E+00 0.  1.
</event>
<event>
 6    1  0.2569591E-005  0.1057861E+04  0.7818608E-02  0.9018827E-01
         -4   -1    0    0    0  501 -0.00000000000E+00  0.00000000000E+00  0.15149726858E+04  0.15149726858E+04  0.00000000000E+00 0. -1.
         21   -1    0    0  501  502  0.00000000000E+00 -0.00000000000E+00 -0.53213811148E+03  0.53213811148E+03  0.00000000000E+00 0. -1.
   -9000010    2    1    2    0  502 -0.28382410049E+03 -0.11728579822E+03  0.43396178820E+02  0.10587502413E+04  0.10123027051E+04 0.  0.
        -13    1    1    2    0    0  0.28382410049E+03  0.11728579822E+03  0.93943839548E+03  0.98836055594E+03  0.10566000000E+00 0.  1.
         13    1    3    3    0    0 -0.30568398310E+02  0.13704873944E+03 -0.43704236766E+03  0.45904556011E+03  0.10566000000E+00 0. -1.
         -4    1    3    3    0  502 -0.25325570217E+03 -0.25433453766E+03  0.48043854648E+03  0.59970468122E+03  0.00000000000E+00 0. -1.
</event>
<event>
 6    1  0.2569591E-005  0.1051293E+04  0.7818608E-02  0.9017293E-01
         21   -1    0    0  501  502  0.00000000000E+00  0.00000000000E+00  0.20243598522E+03  0.20243598522E+03  0.00000000000E+00 0.  1.
          4   -1    0    0  502    0 -0.00000000000E+00 -0.00000000000E+00 -0.23069029247E+04  0.23069029247E+04  0.00000000000E+00 0.  1.
    9000010    2    1    2  501    0 -0.25098358093E+03  0.19007177727E+03 -0.15870874656E+04  0.19036974569E+04  0.10030440398E+04 0.  0.
        -13    1    3    3    0    0 -0.25089276576E+03  0.38706442916E+03 -0.20011310263E+03  0.50280345786E+03  0.10566000000E+00 0.  1.
         13    1    1    2    0    0  0.25098358093E+03 -0.19007177727E+03 -0.51737947393E+03  0.60564145303E+03  0.10566000000E+00 0. -1.
          4    1    3    3  501    0 -0.90815178921E-01 -0.19699265190E+03 -0.13869743630E+04  0.14008939991E+04  0.00000000000E+00 0.  1.
</event>
<event>
 6    1  0.2569591E-005  0.1073768E+04  0.7818608E-02  0.8959117E-01
          4   -1    0    0  502    0 -0.00000000000E+00  0.00000000000E+00  0.95977311885E+03  0.95977311885E+03  0.00000000000E+00 0.  1.
         21   -1    0    0  501  502  0.00000000000E+00 -0.00000000000E+00 -0.86139789691E+03  0.86139789691E+03  0.00000000000E+00 0. -1.
    9000010    2    1    2  501    0 -0.36471696020E+03 -0.83423285024E+02  0.57278109854E+03  0.12169865634E+04  0.10064791121E+04 0.  0.
        -13    1    3    3    0    0 -0.14719961605E+03 -0.51965862607E+03  0.12346039772E+03  0.55403546419E+03  0.10566000000E+00 0.  1.
         13    1    1    2    0    0  0.36471696020E+03  0.83423285024E+02 -0.47440587660E+03  0.60418445234E+03  0.10566000000E+00 0. -1.
          4    1    3    3  501    0 -0.21751734415E+03  0.43623534104E+03  0.44932070082E+03  0.66295109923E+03  0.00000000000E+00 0.  1.
</event>
<event>
 6    1  0.2569591E-005  0.1079064E+04  0.7818608E-02  0.8907721E-01
         21   -1    0    0  501  502  0.00000000000E+00  0.00000000000E+00  0.30158516617E+03  0.30158516617E+03  0.00000000000E+00 0. -1.
         -4   -1    0    0    0  501 -0.00000000000E+00 -0.00000000000E+00 -0.22430043326E+04  0.22430043326E+04  0.00000000000E+00 0. -1.
   -9000010    2    1    2    0  502 -0.20530375440E+03 -0.40641414967E+03 -0.88974985943E+03  0.13985832008E+04  0.97829344498E+03 0.  0.
        -13    1    1    2    0    0  0.20530375440E+03  0.40641414967E+03 -0.10516693070E+04  0.11460062980E+04  0.10566000000E+00 0.  1.
         13    1    3    3    0    0  0.99093912371E+02 -0.17115653325E+03  0.17648376152E+03  0.26506733406E+03  0.10566000000E+00 0. -1.
         -4    1    3    3    0  502 -0.30439766677E+03 -0.23525761642E+03 -0.10662336209E+04  0.11335158667E+04  0.00000000000E+00 0. -1.
</event>
<event>
 5    1  0.2569591E-005  0.1572602E+03  0.7818608E-02  0.1098554E+00
         21   -1    0    0  501  502  0.00000000000E+00  0.00000000000E+00  0.20790235222E+03  0.20790235222E+03  0.00000000000E+00 0.  1.
         -4   -1    0    0    0  501 -0.00000000000E+00 -0.00000000000E+00 -0.10659388426E+03  0.10659388426E+03  0.00000000000E+00 0. -1.
        -13    1    1    2    0    0  0.95175746508E+02 -0.10200641567E+03  0.60236231117E+02  0.15196100245E+03  0.10566000000E+00 0.  1.
         13    1    1    2    0    0 -0.90749319957E+02  0.79440682549E+02  0.58147376714E+02  0.13389320259E+03  0.10566000000E+00 0. -1.
         -4    1    1    2    0  502 -0.44264265503E+01  0.22565733123E+02 -0.17075139879E+02  0.28642031444E+02  0.00000000000E+00 0. -1.
</event>
<event>
 6    1  0.2569591E-005  0.1065810E+04  0.7818608E-02  0.8983105E-01
         21   -1    0    0  501  502  0.00000000000E+00  0.00000000000E+00  0.79622864788E+03  0.79622864788E+03  0.00000000000E+00 0.  1.
         -4   -1    0    0    0  501 -0.00000000000E+00 -0.00000000000E+00 -0.83461745815E+03  0.83461745815E+03  0.00000000000E+00 0. -1.
   -9000010    2    1    2    0  502 -0.11007642463E+03  0.32904300664E+03  0.33878193820E+03  0.11183581509E+04  0.10077527636E+04 0.  0.
        -13    1    1    2    0    0  0.11007642463E+03 -0.32904300664E+03 -0.37717074848E+03  0.51248795513E+03  0.10566000000E+00 0.  1.
         13    1    3    3    0    0 -0.51399865046E+03  0.27323147155E+03  0.39962938908E+03  0.70608335875E+03  0.10566000000E+00 0. -1.
         -4    1    3    3    0  502  0.40392222583E+03  0.55811535090E+02 -0.60847450885E+02  0.41227479215E+03  0.00000000000E+00 0. -1.
</event>
<event>
 6    1  0.2569591E-005  0.1018221E+04  0.7818608E-02  0.9067360E-01
          4   -1    0    0  502    0 -0.00000000000E+00  0.00000000000E+00  0.90301029597E+03  0.90301029597E+03  0.00000000000E+00 0.  1.
         21   -1    0    0  501  502  0.00000000000E+00 -0.00000000000E+00 -0.61427161012E+03  0.61427161012E+03  0.00000000000E+00 0. -1.
    9000010    2    1    2  501    0  0.28311847038E+03  0.15081555043E+02  0.52738437686E+03  0.11466941316E+04  0.97795175188E+03 0.  0.
        -13    1    3    3    0    0 -0.14456087562E+03 -0.34360303573E+03 -0.85588352832E+01  0.37287284394E+03  0.10566000000E+00 0.  1.
         13    1    1    2    0    0 -0.28311847038E+03 -0.15081555043E+02 -0.23864569101E+03  0.37058777445E+03  0.10566000000E+00 0. -1.
          4    1    3    3  501    0  0.42767934600E+03  0.35868459077E+03  0.53594321215E+03  0.77382128770E+03  0.00000000000E+00 0.  1.
</event>
<event>
 6    1  0.2569591E-005  0.1013425E+04  0.7818608E-02  0.9170295E-01
          4   -1    0    0  502    0 -0.00000000000E+00  0.00000000000E+00  0.21133727356E+04  0.21133727356E+04  0.00000000000E+00 0.  1.
         21   -1    0    0  501  502  0.00000000000E+00 -0.00000000000E+00 -0.17509366145E+03  0.17509366145E+03  0.00000000000E+00 0.  1.
    9000010    2    1    2  501    0  0.12471815047E+03 -0.14549923472E+03  0.17335513490E+04  0.20080415462E+04  0.99514115946E+03 0.  0.
        -13    1    3    3    0    0  0.43611351385E+03 -0.41608771933E+02  0.28471823388E+03  0.52248518709E+03  0.10566000000E+00 0.  1.
         13    1    1    2    0    0 -0.12471815047E+03  0.14549923472E+03  0.20472772511E+03  0.28042485081E+03  0.10566000000E+00 0. -1.
          4    1    3    3  501    0 -0.31139536338E+03 -0.10389046279E+03  0.14488331151E+04  0.14855563591E+04  0.00000000000E+00 0.  1.
</event>
<event>
 5    1  0.2569591E-005  0.2455299E+03  0.7818608E-02  0.1033433E+00
         21   -1    0    0  501  502  0.00000000000E+00  0.00000000000E+00  0.54537060861E+02  0.54537060861E+02  0.00000000000E+00 0. -1.
          4   -1    0    0  502    0 -0.00000000000E+00 -0.00000000000E+00 -0.12413690552E+04  0.12413690552E+04  0.00000000000E+00 0.  1.
        -13    1    1    2    0    0  0.32397070055E+02 -0.16320840842E+03 -0.23194677776E+03  0.28545730610E+03  0.10566000000E+00 0.  1.
         13    1    1    2    0    0 -0.76715936382E+02  0.22774921925E+03 -0.81996971788E+03  0.85446204783E+03  0.10566000000E+00 0. -1.
          4    1    1    2  501    0  0.44318866327E+02 -0.64540810831E+02 -0.13491549872E+03  0.15598676216E+03  0.00000000000E+00 0.  1.
</event>
<event>
 6    1  0.2569591E-005  0.1045872E+04  0.7818608E-02  0.9030052E-01
          4   -1    0    0  502    0 -0.00000000000E+00  0.00000000000E+00  0.24212433682E+04  0.24212433682E+04  0.00000000000E+00 0.  1.
         21   -1    0    0  501  502  0.00000000000E+00 -0.00000000000E+00 -0.29993740096E+03  0.29993740096E+03  0.00000000000E+00 0.  1.
    9000010    2    1    2  501    0  0.26139571671E+03 -0.15471481895E+03  0.67834504167E+03  0.12465958649E+04  0.10007921158E+04 0.  0.
        -13    1    3    3    0    0  0.16934608679E+03 -0.55067743982E+03  0.18025104715E+03  0.60366728501E+03  0.10566000000E+00 0.  1.
         13    1    1    2    0    0 -0.26139571671E+03  0.15471481895E+03  0.14429609256E+04  0.14745849042E+04  0.10566000000E+00 0. -1.
          4    1    3    3  501    0  0.92049629920E+02  0.39596262087E+03  0.49809399452E+03  0.64292857992E+03  0.00000000000E+00 0.  1.
</event>
<event>
 5    1  0.2569591E-005  0.7289967E+02  0.7818608E-02  0.1226476E+00
         21   -1    0    0  501  502  0.00000000000E+00  0.00000000000E+00  0.38092635495E+02  0.38092635495E+02  0.00000000000E+00 0.  1.
         -4   -1    0    0    0  501 -0.00000000000E+00 -0.00000000000E+00 -0.13793958647E+03  0.13793958647E+03  0.00000000000E+00 0. -1.
        -13    1    1    2    0    0 -0.19101268322E+02 -0.59314637863E+02 -0.14858055291E+02  0.64061358769E+02  0.10566000000E+00 0.  1.
         13    1    1    2    0    0  0.27372461416E+02  0.34012134817E+02 -0.66534139452E+02  0.79579393284E+02  0.10566000000E+00 0. -1.
         -4    1    1    2    0  502 -0.82711930940E+01  0.25302503046E+02 -0.18454756234E+02  0.32391469915E+02  0.00000000000E+00 0. -1.
</event>
<event>
 6    1  0.2569591E-005  0.1110747E+04  0.7818608E-02  0.8866596E-01
          4   -1    0    0  502    0 -0.00000000000E+00  0.00000000000E+00  0.91541654013E+03  0.91541654013E+03  0.00000000000E+00 0.  1.
         21   -1    0    0  501  502  0.00000000000E+00 -0.00000000000E+00 -0.71318639010E+03  0.71318639010E+03  0.00000000000E+00 0. -1.
    9000010    2    1    2  501    0  0.53484866779E+02 -0.49229057620E+03  0.55494399141E+02  0.11121321816E+04  0.99425737047E+03 0.  0.
        -13    1    3    3    0    0  0.51946038471E+03 -0.18342725429E+03  0.48759137364E+02  0.55304802100E+03  0.10566000000E+00 0.  1.
         13    1    1    2    0    0 -0.53484866779E+02  0.49229057620E+03  0.14673575089E+03  0.51647074858E+03  0.10566000000E+00 0. -1.
          4    1    3    3  501    0 -0.46597551793E+03 -0.30886332191E+03  0.67352617766E+01  0.55908416064E+03  0.00000000000E+00 0.  1.
</event>
<event>
 6    1  0.2569591E-005  0.9997687E+03  0.7818608E-02  0.9505135E-01
          4   -1    0    0  502    0 -0.00000000000E+00  0.00000000000E+00  0.17448107316E+04  0.17448107316E+04  0.00000000000E+00 0.  1.
         21   -1    0    0  501  502  0.00000000000E+00 -0.00000000000E+00 -0.16057716635E+03  0.16057716635E+03  0.00000000000E+00 0.  1.
    9000010    2    1    2  501    0  0.37562646209E+02  0.42413692788E+02  0.15242699128E+04  0.18228922950E+04  0.99816215032E+03 0.  0.
        -13    1    3    3    0    0  0.43326786063E+02  0.24461575835E+03 -0.34716367003E+02  0.25083723194E+03  0.10566000000E+00 0.  1.
         13    1    1    2    0    0 -0.37562646209E+02 -0.42413692788E+02  0.59963652396E+02  0.82495602906E+02  0.10566000000E+00 0. -1.
          4    1    3    3  501    0 -0.57641398538E+01 -0.20220206556E+03  0.15589862798E+04  0.15720550631E+04  0.00000000000E+00 0.  1.
</event>
<event>
 5    1  0.2569591E-005  0.4567423E+03  0.7818608E-02  0.9890676E-01
         -4   -1    0    0    0  501 -0.00000000000E+00  0.00000000000E+00  0.38189286484E+03  0.38189286484E+03  0.00000000000E+00 0. -1.
         21   -1    0    0  501  502  0.00000000000E+00 -0.00000000000E+00 -0.25966620565E+03  0.25966620565E+03  0.00000000000E+00 0. -1.
        -13    1    1    2    0    0  0.10478584092E+03  0.11408226056E+03  0.99796029006E+02  0.18426636481E+03  0.10566000000E+00 0.  1.
         13    1    1    2    0    0  0.10213861794E+03 -0.85033822942E+02 -0.13969785162E+03  0.19281739867E+03  0.10566000000E+00 0. -1.
         -4    1    1    2    0  502 -0.20692445886E+03 -0.29048437622E+02  0.16212848180E+03  0.26447530700E+03  0.00000000000E+00 0. -1.
</event>
<event>
 6    1  0.2569591E-005  0.1021098E+04  0.7818608E-02  0.9144476E-01
          4   -1    0    0  502    0 -0.00000000000E+00  0.00000000000E+00  0.27809648877E+04  0.27809648877E+04  0.00000000000E+00 0.  1.
         21   -1    0    0  501  502  0.00000000000E+00 -0.00000000000E+00 -0.13564104213E+03  0.13564104213E+03  0.00000000000E+00 0.  1.
    9000010    2    1    2  501    0 -0.63275571597E+02 -0.19735562786E+03  0.21960631271E+04  0.24218451330E+04  0.99984376179E+03 0.  0.
        -13    1    3    3    0    0  0.42681793924E+03 -0.21007827863E+03  0.14756805059E+04  0.15504642540E+04  0.10566000000E+00 0.  1.
         13    1    1    2    0    0  0.63275571597E+02  0.19735562786E+03  0.44926071847E+03  0.49476079688E+03  0.10566000000E+00 0. -1.
          4    1    3    3  501    0 -0.49009351084E+03  0.12722650767E+02  0.72038262127E+03  0.87138087897E+03  0.00000000000E+00 0.  1.
</event>
<event>
 5    1  0.2569591E-005  0.2732096E+03  0.7818608E-02  0.1036899E+00
         21   -1    0    0  501  502  0.00000000000E+00  0.00000000000E+00  0.39722023155E+03  0.39722023155E+03  0.00000000000E+00 0.  1.
         -4   -1    0    0    0  501 -0.00000000000E+00 -0.00000000000E+00 -0.14102501841E+03  0.14102501841E+03  0.00000000000E+00 0. -1.
        -13    1    1    2    0    0 -0.12839459163E+03  0.90154781237E+02  0.20845554833E+03  0.26089611445E+03  0.10566000000E+00 0.  1.
         13    1    1    2    0    0  0.61353304933E+02 -0.15867174878E+03  0.60682902322E+02  0.18061942777E+03  0.10566000000E+00 0. -1.
         -4    1    1    2    0  502  0.67041286701E+02  0.68516967545E+02 -0.12943237507E+02  0.96729707750E+02  0.00000000000E+00 0. -1.
</event>
<event>
 5    1  0.2569591E-005  0.5239186E+03  0.7818608E-02  0.9451608E-01
         21   -1    0    0  501  502  0.00000000000E+00  0.00000000000E+00  0.17939840121E+03  0.17939840121E+03  0.00000000000E+00 0.  1.
         -4   -1    0    0    0  501 -0.00000000000E+00 -0.00000000000E+00 -0.24033436105E+04  0.24033436105E+04  0.00000000000E+00 0. -1.
        -13    1    1    2    0    0 -0.28727378767E+03 -0.38282537389E+03 -0.24907056546E+03  0.53955319823E+03  0.10566000000E+00 0.  1.
         13    1    1    2    0    0  0.24045055884E+03  0.36259070075E+03 -0.19182804400E+04  0.19669998335E+04  0.10566000000E+00 0. -1.
         -4    1    1    2    0  502  0.46823228833E+02  0.20234673141E+02 -0.56594203825E+02  0.76188979925E+02  0.00000000000E+00 0. -1.
</event>
<event>
 5    1  0.2569591E-005  0.1071115E+03  0.7818608E-02  0.1154462E+00
         21   -1    0    0  501  502  0.00000000000E+00  0.00000000000E+00  0.21943164422E+02  0.21943164422E+02  0.00000000000E+00 0. -1.
          4   -1    0    0  502    0 -0.00000000000E+00 -0.00000000000E+00 -0.52380907682E+03  0.52380907682E+03  0.00000000000E+00 0.  1.
        -13    1    1    2    0    0 -0.29531463877E+02 -0.43877392895E+02 -0.18615661037E+03  0.19352423031E+03  0.10566000000E+00 0.  1.
         13    1    1    2    0    0  0.66929989817E+02  0.79710978913E+02 -0.20029898187E+03  0.22572805983E+03  0.10566000000E+00 0. -1.
          4    1    1    2  501    0 -0.37398525940E+02 -0.35833586018E+02 -0.11541032016E+03  0.12649995111E+03  0.00000000000E+00 0.  1.
</event>
<event>
 5    1  0.2569591E-005  0.4992516E+02  0.7818608E-02  0.1346317E+00
          4   -1    0    0  502    0 -0.00000000000E+00  0.00000000000E+00  0.19619024790E+03  0.19619024790E+03  0.00000000000E+00 0.  1.
         21   -1    0    0  501  502  0.00000000000E+00 -0.00000000000E+00 -0.14012135989E+02  0.14012135989E+02  0.00000000000E+00 0. -1.
        -13    1    1    2    0    0  0.57455567912E+01  0.32168250736E+02  0.97220997140E+02  0.10256578975E+03  0.10566000000E+00 0.  1.
         13    1    1    2    0    0 -0.51447477728E+01 -0.17216731729E+02 -0.31711804622E+01  0.18246967710E+02  0.10566000000E+00 0. -1.
          4    1    1    2  501    0 -0.60080901839E+00 -0.14951519008E+02  0.88128295232E+02  0.89389626426E+02  0.00000000000E+00 0.  1.
</event>
<event>
 5    1  0.2569591E-005  0.1071379E+03  0.7818608E-02  0.1155122E+00
         -4   -1    0    0    0  501 -0.00000000000E+00  0.00000000000E+00  0.49007414734E+02  0.49007414734E+02  0.00000000000E+00 0. -1.
         21   -1    0    0  501  502  0.00000000000E+00 -0.00000000000E+00 -0.22385057219E+03  0.22385057219E+03  0.00000000000E+00 0.  1.
        -13    1    1    2    0    0 -0.88816184190E+02  0.50828600784E+02 -0.86657077544E+02  0.13409444986E+03  0.10566000000E+00 0.  1.
         13    1    1    2    0    0  0.84574061646E+02 -0.36818090217E+02 -0.72632226032E+02  0.11740440832E+03  0.10566000000E+00 0. -1.
         -4    1    1    2    0  502  0.42421225431E+01 -0.14010510566E+02 -0.15553853878E+02  0.21359128738E+02  0.00000000000E+00 0. -1.
</event>
<event>
 6    1  0.2569591E-005  0.1017564E+04  0.7818608E-02  0.9059927E-01
         21   -1    0    0  501  502  0.00000000000E+00  0.00000000000E+00  0.73521215033E+03  0.73521215033E+03  0.00000000000E+00 0. -1.
         -4   -1    0    0    0  501 -0.00000000000E+00 -0.00000000000E+00 -0.59891947589E+03  0.59891947589E+03  0.00000000000E+00 0. -1.
   -9000010    2    1    2    0  502  0.29037297219E+03 -0.36181344366E+02  0.19396119640E+03  0.10358847113E+04  0.97458228836E+03 0.  0.
        -13    1    1    2    0    0 -0.29037297219E+03  0.36181344366E+02 -0.57668521964E+02  0.29824691490E+03  0.10566000000E+00 0.  1.
         13    1    3    3    0    0 -0.17787359783E+03  0.24080404366E+03  0.35892350757E+03  0.46738816812E+03  0.10566000000E+00 0. -1.
         -4    1    3    3    0  502  0.46824657003E+03 -0.27698538803E+03 -0.16496231117E+03  0.56849654320E+03  0.00000000000E+00 0. -1.
</event>
<event>
 6    1  0.2569591E-005  0.1011082E+04  0.7818608E-02  0.8982035E-01
         21   -1    0    0  501  502  0.00000000000E+00  0.00000000000E+00  0.35261867675E+03  0.35261867675E+03  0.00000000000E+00 0. -1.
         -4   -1    0    0    0  501 -0.00000000000E+00 -0.00000000000E+00 -0.14302684711E+04  0.14302684711E+04  0.00000000000E+00 0. -1.
   -9000010    2    1    2    0  502  0.66838235567E+02 -0.40267638611E+03 -0.73605180165E+03  0.12506232834E+04  0.92502471348E+03 0.  0.
        -13    1    1    2    0    0 -0.66838235567E+02  0.40267638611E+03 -0.34159799273E+03  0.53226386452E+03  0.10566000000E+00 0.  1.
         13    1    3    3    0    0 -0.26608070938E+03  0.19274488160E+03 -0.25478933321E+03  0.41577295339E+03  0.10566000000E+00 0. -1.
         -4    1    3    3    0  502  0.33291894495E+03 -0.59542126772E+03 -0.48126246844E+03  0.83485032999E+03  0.00000000000E+00 0. -1.
</event>
<event>
 6    1  0.2569591E-005  0.1057031E+04  0.7818608E-02  0.8972060E-01
         21   -1    0    0  501  502  0.00000000000E+00  0.00000000000E+00  0.73676180775E+03  0.73676180775E+03  0.00000000000E+00 0. -1.
          4   -1    0    0  502    0 -0.00000000000E+00 -0.00000000000E+00 -0.73171423291E+03  0.73171423291E+03  0.00000000000E+00 0.  1.
    9000010    2    1    2  501    0 -0.37202633920E+03  0.95155088789E+00 -0.14578129864E+03  0.10670363033E+04  0.98939869769E+03 0.  0.
        -13    1    3    3    0    0  0.64788885135E+02 -0.30516394854E+03 -0.37385805888E+03  0.48692144590E+03  0.10566000000E+00 0.  1.
         13    1    1    2    0    0  0.37202633920E+03 -0.95155088789E+00  0.15082887349E+03  0.40143973738E+03  0.10566000000E+00 0. -1.
          4    1    3    3  501    0 -0.43681522433E+03  0.30611549943E+03  0.22807676024E+03  0.58011485738E+03  0.00000000000E+00 0.  1.
</event>
<event>
 6    1  0.2569591E-005  0.7076457E+03  0.7818608E-02  0.9701694E-01
         21   -1    0    0  501  502  0.00000000000E+00  0.00000000000E+00  0.53952707730E+03  0.53952707730E+03  0.00000000000E+00 0.  1.
          4   -1    0    0  502    0 -0.00000000000E+00 -0.00000000000E+00 -0.69315265637E+03  0.69315265637E+03  0.00000000000E+00 0.  1.
    9000010    2    1    2  501    0 -0.54276105690E+02  0.58006038734E+02  0.30257132535E+03  0.76961794196E+03  0.70317264842E+03 0.  0.
        -13    1    3    3    0    0  0.30524268004E+02  0.37264365811E+03  0.21860594124E+03  0.43310921899E+03  0.10566000000E+00 0.  1.
         13    1    1    2    0    0  0.54276105690E+02 -0.58006038734E+02 -0.45619690442E+03  0.46306179171E+03  0.10566000000E+00 0. -1.
          4    1    3    3  501    0 -0.84800373694E+02 -0.31463761938E+03  0.83965384115E+02  0.33650872297E+03  0.00000000000E+00 0.  1.
</event>
<event>
 6    1  0.2569591E-005  0.1047981E+04  0.7818608E-02  0.9708719E-01
         21   -1    0    0  501  502  0.00000000000E+00  0.00000000000E+00  0.79363464487E+03  0.79363464487E+03  0.00000000000E+00 0. -1.
         -4   -1    0    0    0  501 -0.00000000000E+00 -0.00000000000E+00 -0.42341270963E+03  0.42341270963E+03  0.00000000000E+00 0. -1.
   -9000010    2    1    2    0  502 -0.11920779566E+02 -0.20677196777E+02  0.44500447385E+03  0.11385483692E+04  0.10477088125E+04 0.  0.
        -13    1    1    2    0    0  0.11920779566E+02  0.20677196777E+02 -0.74782538616E+02  0.78498985331E+02  0.10566000000E+00 0.  1.
         13    1    3    3    0    0  0.39536955791E+03 -0.49310492210E+01  0.58628967578E+03  0.70716122466E+03  0.10566000000E+00 0. -1.
         -4    1    3    3    0  502 -0.40729033748E+03 -0.15746147556E+02 -0.14128520193E+03  0.43138714451E+03  0.00000000000E+00 0. -1.
</event>
<event>
 6    1  0.2569591E-005  0.1013449E+04  0.7818608E-02  0.9206319E-01
         21   -1    0    0  501  502  0.00000000000E+00  0.00000000000E+00  0.19923814891E+03  0.19923814891E+03  0.00000000000E+00 0.  1.
          4   -1    0    0  502    0 -0.00000000000E+00 -0.00000000000E+00 -0.17529557422E+04  0.17529557422E+04  0.00000000000E+00 0.  1.
    9000010    2    1    2  501    0 -0.16633806898E+03 -0.93963165866E+01 -0.12939226442E+04  0.16435677893E+04  0.99966125513E+03 0.  0.
        -13    1    3    3    0    0 -0.49637399163E+03 -0.12180206594E+03 -0.30547102421E+03  0.59542878720E+03  0.10566000000E+00 0.  1.
         13    1    1    2    0    0  0.16633806898E+03  0.93963165866E+01 -0.25979494911E+03  0.30862610179E+03  0.10566000000E+00 0. -1.
          4    1    3    3  501    0  0.33003592265E+03  0.11240574935E+03 -0.98845162000E+03  0.10481390021E+04  0.00000000000E+00 0.  1.
</event>
<event>
 6    1  0.2569591E-005  0.1030194E+04  0.7818608E-02  0.9076746E-01
         21   -1    0    0  501  502  0.00000000000E+00  0.00000000000E+00  0.10332123475E+03  0.10332123475E+03  0.00000000000E+00 0. -1.
         -4   -1    0    0    0  501 -0.00000000000E+00 -0.00000000000E+00 -0.41295763955E+04  0.41295763955E+04  0.00000000000E+00 0. -1.
   -9000010    2    1    2    0  502  0.18163381373E+03  0.19118061690E+03 -0.29463923681E+04  0.31213021406E+04  0.99587057160E+03 0.  0.
        -13    1    1    2    0    0 -0.18163381373E+03 -0.19118061690E+03 -0.10798627926E+04  0.11115954897E+04  0.10566000000E+00 0.  1.
         13    1    3    3    0    0  0.28479850824E+02  0.59503905050E+03 -0.18151953617E+04  0.19104493675E+04  0.10566000000E+00 0. -1.
         -4    1    3    3    0  502  0.15315396291E+03 -0.40385843360E+03 -0.11311970065E+04  0.12108527732E+04  0.00000000000E+00 0. -1.
</event>
<event>
 6    1  0.2569591E-005  0.8564712E+03  0.7818608E-02  0.9411595E-01
         21   -1    0    0  501  502  0.00000000000E+00  0.00000000000E+00  0.10994413168E+03  0.10994413168E+03  0.00000000000E+00 0. -1.
         -4   -1    0    0    0  501 -0.00000000000E+00 -0.00000000000E+00 -0.22183612012E+04  0.22183612012E+04  0.00000000000E+00 0. -1.
   -9000010    2    1    2    0  502 -0.54653389685E+02 -0.11460156376E+03 -0.19024199745E+04  0.20863232556E+04  0.84700794324E+03 0.  0.
        -13    1    1    2    0    0  0.54653389685E+02  0.11460156376E+03 -0.20599709499E+03  0.24198207729E+03  0.10566000000E+00 0.  1.
         13    1    3    3    0    0 -0.32660279260E+03 -0.28285723276E+03 -0.56537261600E+03  0.71156433605E+03  0.10566000000E+00 0. -1.
         -4    1    3    3    0  502  0.27194940292E+03  0.16825566900E+03 -0.13370473585E+04  0.13747589195E+04  0.00000000000E+00 0. -1.
</event>
<event>
 5    1  0.2569591E-005  0.4073682E+03  0.7818608E-02  0.9905448E-01
         21   -1    0    0  501  502  0.00000000000E+00  0.00000000000E+00  0.99818310037E+02  0.99818310037E+02  0.00000000000E+00 0.  1.
         -4   -1    0    0    0  501 -0.00000000000E+00 -0.00000000000E+00 -0.13809460768E+04  0.13809460768E+04  0.00000000000E+00 0. -1.
        -13    1    1    2    0    0 -0.15234835808E+03 -0.14131414720E+03 -0.98536870999E+02  0.22997659994E+03  0.10566000000E+00 0.  1.
         13    1    1    2    0    0 -0.78573171689E+02  0.98150090273E+02 -0.73114280226E+03  0.74187397312E+03  0.10566000000E+00 0. -1.
         -4    1    1    2    0  502  0.23092152977E+03  0.43164056929E+02 -0.45144809348E+03  0.50891381375E+03  0.00000000000E+00 0. -1.
</event>
<event>
 6    1  0.2569591E-005  0.9228353E+03  0.7818608E-02  0.9170565E-01
         21   -1    0    0  501  502  0.00000000000E+00  0.00000000000E+00  0.16557620551E+03  0.16557620551E+03  0.00000000000E+00 0.  1.
          4   -1    0    0  502    0 -0.00000000000E+00 -0.00000000000E+00 -0.23152460457E+04  0.23152460457E+04  0.00000000000E+00 0.  1.
    9000010    2    1    2  501    0  0.11593228001E+03 -0.22546759546E+03 -0.13007901056E+04  0.15948918109E+04  0.88732691802E+03 0.  0.
        -13    1    3    3    0    0  0.29393143203E+03  0.31872224136E+02 -0.42999425881E+02  0.29876493636E+03  0.10566000000E+00 0.  1.
         13    1    1    2    0    0 -0.11593228001E+03  0.22546759546E+03 -0.84887973462E+03  0.88593044036E+03  0.10566000000E+00 0. -1.
          4    1    3    3  501    0 -0.17799915203E+03 -0.25733981959E+03 -0.12577906797E+04  0.12961268745E+04  0.00000000000E+00 0.  1.
</event>
<event>
 5    1  0.2569591E-005  0.1221028E+03  0.7818608E-02  0.1151957E+00
         21   -1    0    0  501  502  0.00000000000E+00  0.00000000000E+00  0.67720915689E+02  0.67720915689E+02  0.00000000000E+00 0. -1.
          4   -1    0    0  502    0 -0.00000000000E+00 -0.00000000000E+00 -0.18558389308E+03  0.18558389308E+03  0.00000000000E+00 0.  1.
        -13    1    1    2    0    0 -0.47126584169E+02  0.32997411466E+02 -0.31195466917E+02  0.65443963962E+02  0.10566000000E+00 0.  1.
         13    1    1    2    0    0  0.73141289452E+02  0.15347097188E+02  0.11276408437E+02  0.75580091070E+02  0.10566000000E+00 0. -1.
          4    1    1    2  501    0 -0.26014705283E+02 -0.48344508654E+02 -0.97943918913E+02  0.11228075374E+03  0.00000000000E+00 0.  1.
</event>
<event>
 6    1  0.2569591E-005  0.9727898E+03  0.7818608E-02  0.9519219E-01
         21   -1    0    0  501  502  0.00000000000E+00  0.00000000000E+00  0.39635668901E+03  0.39635668901E+03  0.00000000000E+00 0.  1.
          4   -1    0    0  502    0 -0.00000000000E+00 -0.00000000000E+00 -0.84747611473E+03  0.84747611473E+03  0.00000000000E+00 0.  1.
    9000010    2    1    2  501    0  0.27655715233E+02 -0.51483486453E+02 -0.20929909444E+03  0.99505082742E+03  0.97103277506E+03 0.  0.
        -13    1    3    3    0    0  0.26844489611E+03 -0.95380809706E+02  0.30996297917E+03  0.42099551152E+03  0.10566000000E+00 0.  1.
         13    1    1    2    0    0 -0.27655715233E+02  0.51483486453E+02 -0.24182033127E+03  0.24878197632E+03  0.10566000000E+00 0. -1.
          4    1    3    3  501    0 -0.24078918087E+03  0.43897323253E+02 -0.51926207361E+03  0.57405531589E+03  0.00000000000E+00 0.  1.
</event>
<event>
 6    1  0.2569591E-005  0.1088780E+04  0.7818608E-02  0.8917622E-01
         -4   -1    0    0    0  501 -0.00000000000E+00  0.00000000000E+00  0.14595007631E+04  0.14595007631E+04  0.00000000000E+00 0. -1.
         21   -1    0    0  501  502  0.00000000000E+00 -0.00000000000E+00 -0.40019541432E+03  0.40019541432E+03  0.00000000000E+00 0. -1.
   -9000010    2    1    2    0  502  0.42245881073E+03  0.50749463356E+02  0.64329173356E+03  0.12646211452E+04  0.10021953061E+04 0.  0.
        -13    1    1    2    0    0 -0.42245881073E+03 -0.50749463356E+02  0.41601361520E+03  0.59507503224E+03  0.10566000000E+00 0.  1.
         13    1    3    3    0    0  0.35214449854E+03 -0.20492700991E+03 -0.14535854987E+03  0.43258518979E+03  0.10566000000E+00 0. -1.
         -4    1    3    3    0  502  0.70314312188E+02  0.25567647326E+03  0.78865028343E+03  0.83203595538E+03  0.00000000000E+00 0. -1.
</event>
<event>
 6    1  0.2569591E-005  0.1062721E+04  0.7818608E-02  0.8976050E-01
         21   -1    0    0  501  502  0.00000000000E+00  0.00000000000E+00  0.54900379114E+03  0.54900379114E+03  0.00000000000E+00 0.  1.
         -4   -1    0    0    0  501 -0.00000000000E+00 -0.00000000000E+00 -0.97152724110E+03  0.97152724110E+03  0.00000000000E+00 0. -1.
   -9000010    2    1    2    0  502 -0.32363930099E+03  0.15808813074E+03 -0.15970808880E+03  0.10746541664E+04  0.99982030866E+03 0.  0.
        -13    1    1    2    0    0  0.32363930099E+03 -0.15808813074E+03 -0.26281536116E+03  0.44587686579E+03  0.10566000000E+00 0.  1.
         13    1    3    3    0    0 -0.45682445300E+03  0.33528444178E+03  0.24174161675E+03  0.61607082238E+03  0.10566000000E+00 0. -1.
         -4    1    3    3    0  502  0.13318515202E+03 -0.17719631104E+03 -0.40144970555E+03  0.45858334406E+03  0.00000000000E+00 0. -1.
</event>
<event>
 6    1  0.2569591E-005  0.1390943E+04  0.7818608E-02  0.8558378E-01
         -4   -1    0    0    0  501 -0.00000000000E+00  0.00000000000E+00  0.20934284491E+04  0.20934284491E+04  0.00000000000E+00 0. -1.
         21   -1    0    0  501  502  0.00000000000E+00 -0.00000000000E+00 -0.74272745152E+03  0.74272745152E+03  0.00000000000E+00 0.  1.
   -9000010    2    1    2    0  502  0.58052113238E+03  0.75816437625E+03  0.12603141706E+04  0.18769959576E+04  0.10113871710E+04 0.  0.
        -13    1    1    2    0    0 -0.58052113238E+03 -0.75816437625E+03  0.90386826938E+02  0.95915994298E+03  0.10566000000E+00 0.  1.
         13    1    3    3    0    0 -0.22582528808E+03  0.46856287143E+03  0.35019919448E+03  0.62704681819E+03  0.10566000000E+00 0. -1.
         -4    1    3    3    0  502  0.80634642047E+03  0.28960150482E+03  0.91011497615E+03  0.12499491394E+04  0.00000000000E+00 0. -1.
</event>
<event>
 6    1  0.2569591E-005  0.1018841E+04  0.7818608E-02  0.9158479E-01
          4   -1    0    0  502    0 -0.00000000000E+00  0.00000000000E+00  0.23099041887E+04  0.23099041887E+04  0.00000000000E+00 0.  1.
         21   -1    0    0  501  502  0.00000000000E+00 -0.00000000000E+00 -0.16031585308E+03  0.16031585308E+03  0.00000000000E+00 0.  1.
    9000010    2    1    2  501    0 -0.27720500775E+02 -0.19554645408E+03  0.18311678331E+04  0.20955222042E+04  0.99951529933E+03 0.  0.
        -13    1    3    3    0    0  0.32802049970E+03  0.11321403965E+03  0.20618263956E+03  0.40364112652E+03  0.10566000000E+00 0.  1.
         13    1    1    2    0    0  0.27720500775E+02  0.19554645408E+03  0.31842050250E+03  0.37469783752E+03  0.10566000000E+00 0. -1.
          4    1    3    3  501    0 -0.35574100048E+03 -0.30876049373E+03  0.16249851935E+04  0.16918810777E+04  0.00000000000E+00 0.  1.
</event>
<event>
 6    1  0.2569591E-005  0.1108232E+04  0.7818608E-02  0.8882365E-01
          4   -1    0    0  502    0 -0.00000000000E+00  0.00000000000E+00  0.22297810441E+04  0.22297810441E+04  0.00000000000E+00 0.  1.
         21   -1    0    0  501  502  0.00000000000E+00 -0.00000000000E+00 -0.50555318239E+03  0.50555318239E+03  0.00000000000E+00 0. -1.
    9000010    2    1    2  501    0 -0.52249936498E+02 -0.46395298487E+03  0.19296559829E+04  0.22252527113E+04  0.10050845679E+04 0.  0.
        -13    1    3    3    0    0 -0.44549905138E+03 -0.38918925260E+03  0.16027500767E+04  0.17084336389E+04  0.10566000000E+00 0.  1.
         13    1    1    2    0    0  0.52249936498E+02  0.46395298487E+03 -0.20542812119E+03  0.51008151522E+03  0.10566000000E+00 0. -1.
          4    1    3    3  501    0  0.39324911488E+03 -0.74763732270E+02  0.32690590621E+03  0.51681907234E+03  0.00000000000E+00 0.  1.
</event>
<event>
 6    1  0.2569591E-005  0.1037272E+04  0.7818608E-02  0.9023599E-01
         -4   -1    0    0    0  501 -0.00000000000E+00  0.00000000000E+00  0.10127421689E+04  0.10127421689E+04  0.00000000000E+00 0. -1.
         21   -1    0    0  501  502  0.00000000000E+00 -0.00000000000E+00 -0.47347593629E+03  0.47347593629E+03  0.00000000000E+00 0. -1.
   -9000010    2    1    2    0  502  0.31883248946E+03 -0.21473588392E+02  0.53391609685E+03  0.11666185018E+04  0.98682169565E+03 0.  0.
        -13    1    1    2    0    0 -0.31883248946E+03  0.21473588392E+02  0.53501357345E+01  0.31959960333E+03  0.10566000000E+00 0.  1.
         13    1    3    3    0    0 -0.17467973322E+03  0.73218875584E+02  0.62750186130E+03  0.65546366035E+03  0.10566000000E+00 0. -1.
         -4    1    3    3    0  502  0.49351222268E+03 -0.94692463976E+02 -0.93585764448E+02  0.51115484149E+03  0.00000000000E+00 0. -1.
</event>
<event>
 6    1  0.2569591E-005  0.1192918E+04  0.7818608E-02  0.8749102E-01
         21   -1    0    0  501  502  0.00000000000E+00  0.00000000000E+00  0.18625035858E+03  0.18625035858E+03  0.00000000000E+00 0. -1.
          4   -1    0    0  502    0 -0.00000000000E+00 -0.00000000000E+00 -0.46804681719E+04  0.46804681719E+04  0.00000000000E+00 0.  1.
    9000010    2    1    2  501    0 -0.22608249798E+03  0.61665560372E+03 -0.32056973420E+04  0.34204604464E+04  0.99582969810E+03 0.  0.
        -13    1    3    3    0    0 -0.42643480617E+03 -0.25669673429E+02 -0.19458732248E+04  0.19922169044E+04  0.10566000000E+00 0.  1.
         13    1    1    2    0    0  0.22608249798E+03 -0.61665560372E+03 -0.12885204713E+04  0.14462580840E+04  0.10566000000E+00 0. -1.
          4    1    3    3  501    0  0.20035230819E+03  0.64232527715E+03 -0.12598241172E+04  0.14282435420E+04  0.00000000000E+00 0.  1.
</event>
<event>
 6    1  0.2569591E-005  0.1013249E+04  0.7818608E-02  0.9115346E-01
          4   -1    0    0  502    0 -0.00000000000E+00  0.00000000000E+00  0.13725525952E+04  0.13725525952E+04  0.00000000000E+00 0.  1.
         21   -1    0    0  501  502  0.00000000000E+00 -0.00000000000E+00 -0.28934178387E+03  0.28934178387E+03  0.00000000000E+00 0.  1.
    9000010    2    1    2  501    0 -0.23692880664E+03  0.20965385910E+02  0.79303917250E+03  0.12866952347E+04  0.98493588165E+03 0.  0.
        -13    1    3    3    0    0  0.99346853809E+02  0.33335859628E+03 -0.24939309937E+02  0.34874020619E+03  0.10566000000E+00 0.  1.
         13    1    1    2    0    0  0.23692880664E+03 -0.20965385910E+02  0.29017163888E+03  0.37519914445E+03  0.10566000000E+00 0. -1.
          4    1    3    3  501    0 -0.33627566045E+03 -0.31239321037E+03  0.81797848244E+03  0.93795502846E+03  0.00000000000E+00 0.  1.
</event>
<event>
 6    1  0.2569591E-005  0.1064302E+04  0.7818608E-02  0.8982586E-01
         -4   -1    0    0    0  501 -0.00000000000E+00  0.00000000000E+00  0.79527575511E+03  0.79527575511E+03  0.00000000000E+00 0. -1.
         21   -1    0    0  501  502  0.00000000000E+00 -0.00000000000E+00 -0.63934579063E+03  0.63934579063E+03  0.00000000000E+00 0. -1.
   -9000010    2    1    2    0  502  0.79359259536E+02 -0.34004210285E+03  0.19916146774E+03  0.10827757019E+04  0.10053911709E+04 0.  0.
        -13    1    1    2    0    0 -0.79359259536E+02  0.34004210285E+03 -0.43231503259E+02  0.35184584384E+03  0.10566000000E+00 0.  1.
         13    1    3    3    0    0 -0.40253023683E+03 -0.12299535973E+03 -0.15281475445E+03  0.44778433472E+03  0.10566000000E+00 0. -1.
         -4    1    3    3    0  502  0.48188949636E+03 -0.21704674312E+03  0.35197622220E+03  0.63499136718E+03  0.00000000000E+00 0. -1.
</event>
<event>
 6    1  0.2569591E-005  0.1251311E+04  0.7818608E-02  0.8686821E-01
         21   -1    0    0  501  502  0.00000000000E+00  0.00000000000E+00  0.53370118590E+03  0.53370118590E+03  0.00000000000E+00 0. -1.
          4   -1    0    0  502    0 -0.00000000000E+00 -0.00000000000E+00 -0.18686932689E+04  0.18686932689E+04  0.00000000000E+00 0.  1.
    9000010    2    1    2  501    0  0.70892374479E+03 -0.22695937026E+03 -0.78965309846E+03  0.14796387716E+04  0.10058307247E+04 0.  0.
        -13    1    3    3    0    0  0.25862389601E+03  0.29018122856E+03  0.54025628076E+02  0.39244139008E+03  0.10566000000E+00 0.  1.
         13    1    1    2    0    0 -0.70892374479E+03  0.22695937026E+03 -0.54533898459E+03  0.92275568324E+03  0.10566000000E+00 0. -1.
          4    1    3    3  501    0  0.45029984879E+03 -0.51714059882E+03 -0.84367872653E+03  0.10871973815E+04  0.00000000000E+00 0.  1.
</event>
<event>
 6    1  0.2569591E-005  0.1141828E+04  0.7818608E-02  0.8883899E-01
         21   -1    0    0  501  502  0.00000000000E+00  0.00000000000E+00  0.17994318647E+03  0.17994318647E+03  0.00000000000E+00 0.  1.
          4   -1    0    0  502    0 -0.00000000000E+00 -0.00000000000E+00 -0.39040478160E+04  0.39040478160E+04  0.00000000000E+00 0.  1.
    9000010    2    1    2  501    0 -0.24245068066E+03  0.34803935153E+03 -0.19483645418E+04  0.22582948084E+04  0.10601213756E+04 0.  0.
        -13    1    3    3    0    0  0.27855349340E+03  0.26958384245E+03 -0.20799447602E+03  0.43991954948E+03  0.10566000000E+00 0.  1.
         13    1    1    2    0    0  0.24245068066E+03 -0.34803935153E+03 -0.17757400877E+04  0.18256961941E+04  0.10566000000E+00 0. -1.
          4    1    3    3  501    0 -0.52100417406E+03  0.78455509085E+02 -0.17403700658E+04  0.18183752589E+04  0.00000000000E+00 0.  1.
</event>
<event>
 6    1  0.2569591E-005  0.1060285E+04  0.7818608E-02  0.8991313E-01
          4   -1    0    0  502    0 -0.00000000000E+00  0.00000000000E+00  0.29829947332E+04  0.29829947332E+04  0.00000000000E+00 0.  1.
         21   -1    0    0  501  502  0.00000000000E+00 -0.00000000000E+00 -0.16772648916E+03  0.16772648916E+03  0.00000000000E+00 0. -1.
    9000010    2    1    2  501    0 -0.20790588360E+03  0.27012960848E+03  0.23036924083E+04  0.25359816769E+04  0.10039967590E+04 0.  0.
        -13    1    3    3    0    0  0.39588682133E+03  0.17612290453E+03  0.74580640291E+03  0.86253861049E+03  0.10566000000E+00 0.  1.
         13    1    1    2    0    0  0.20790588360E+03 -0.27012960848E+03  0.51157583578E+03  0.61473954544E+03  0.10566000000E+00 0. -1.
          4    1    3    3  501    0 -0.60379270493E+03  0.94006703952E+02  0.15578860054E+04  0.16734430665E+04  0.00000000000E+00 0.  1.
</event>
<event>
 6    1  0.2569591E-005  0.1068471E+04  0.7818608E-02  0.8988572E-01
         -4   -1    0    0    0  501 -0.00000000000E+00  0.00000000000E+00  0.15457239649E+04  0.15457239649E+04  0.00000000000E+00 0. -1.
         21   -1    0    0  501  502  0.00000000000E+00 -0.00000000000E+00 -0.31997297491E+03  0.31997297491E+03  0.00000000000E+00 0. -1.
   -9000010    2    1    2    0  502 -0.29890387337E+03 -0.15526132165E+03  0.96494602362E+03  0.14397053376E+04  0.10139926168E+04 0.  0.
        -13    1    1    2    0    0  0.29890387337E+03  0.15526132165E+03  0.26080496633E+03  0.42599160219E+03  0.10566000000E+00 0.  1.
         13    1    3    3    0    0 -0.27074203686E+02  0.18522076089E+03 -0.15178489899E+03  0.24099462544E+03  0.10566000000E+00 0. -1.
         -4    1    3    3    0  502 -0.27182966968E+03 -0.34048208253E+03  0.11167309226E+04  0.11987107121E+04  0.00000000000E+00 0. -1.
</event>
<event>
 5    1  0.5919614E-005  0.2303146E+03  0.7818608E-02  0.1043207E+00
          4   -1    0    0  502    0 -0.00000000000E+00  0.00000000000E+00  0.50186749964E+02  0.50186749964E+02  0.00000000000E+00 0.  1.
         21   -1    0    0  501  502  0.00000000000E+00 -0.00000000000E+00 -0.12396750075E+04  0.12396750075E+04  0.00000000000E+00 0. -1.
        -13    1    1    2    0    0  0.12388279871E+02  0.21734341388E+03 -0.30728902953E+03  0.37658755671E+03  0.10566000000E+00 0.  1.
         13    1    1    2    0    0 -0.24685583348E+02 -0.21491452462E+03 -0.86696038253E+03  0.89354235879E+03  0.10566000000E+00 0. -1.
          4    1    1    2  501    0  0.12297303477E+02 -0.24288892667E+01 -0.15238845499E+02  0.19731841982E+02  0.00000000000E+00 0.  1.
</event>
<event>
 5    1  0.2569591E-005  0.3631142E+02  0.7818608E-02  0.1386703E+00
          4   -1    0    0  502    0 -0.00000000000E+00  0.00000000000E+00  0.80139147307E+02  0.80139147307E+02  0.00000000000E+00 0.  1.
         21   -1    0    0  501  502  0.00000000000E+00 -0.00000000000E+00 -0.11080933482E+02  0.11080933482E+02  0.00000000000E+00 0. -1.
        -13    1    1    2    0    0  0.93773139754E+01  0.19347426586E+02  0.32631599581E+02  0.39077991097E+02  0.10566000000E+00 0.  1.
         13    1    1    2    0    0 -0.19414029600E+02 -0.12298951337E+02  0.31342606726E+02  0.38865652056E+02  0.10566000000E+00 0. -1.
          4    1    1    2  501    0  0.10036715624E+02 -0.70484752496E+01  0.50840075184E+01  0.13276437637E+02  0.00000000000E+00 0.  1.
</event>
<event>
 5    1  0.2569591E-005  0.2079216E+03  0.7818608E-02  0.1123167E+00
         -4   -1    0    0    0  501 -0.00000000000E+00  0.00000000000E+00  0.33790788977E+02  0.33790788977E+02  0.00000000000E+00 0. -1.
         21   -1    0    0  501  502  0.00000000000E+00 -0.00000000000E+00 -0.63288755906E+03  0.63288755906E+03  0.00000000000E+00 0. -1.
        -13    1    1    2    0    0 -0.14794720936E+02 -0.27685342897E+02  0.11789539826E+01  0.31412785222E+02  0.10566000000E+00 0.  1.
         13    1    1    2    0    0  0.92714962202E+02  0.41811533660E+02 -0.48409008022E+03  0.49465895877E+03  0.10566000000E+00 0. -1.
         -4    1    1    2    0  502 -0.77920241266E+02 -0.14126190763E+02 -0.11618564385E+03  0.14060660405E+03  0.00000000000E+00 0. -1.
</event>
<event>
 6    1  0.2569591E-005  0.1466920E+04  0.7818608E-02  0.8499489E-01
         -4   -1    0    0    0  501 -0.00000000000E+00  0.00000000000E+00  0.26578524252E+04  0.26578524252E+04  0.00000000000E+00 0. -1.
         21   -1    0    0  501  502  0.00000000000E+00 -0.00000000000E+00 -0.80226989249E+03  0.80226989249E+03  0.00000000000E+00 0.  1.
   -9000010    2    1    2    0  502 -0.61647720040E+03  0.86420787685E+03  0.18966950310E+04  0.23977713202E+04  0.10124010423E+04 0.  0.
        -13    1    1    2    0    0  0.61647720040E+03 -0.86420787685E+03 -0.41112498348E+02  0.10623509974E+04  0.10566000000E+00 0.  1.
         13    1    3    3    0    0 -0.32754061536E+03 -0.16964991985E+03  0.30877945392E+03  0.48104959448E+03  0.10566000000E+00 0. -1.
         -4    1    3    3    0  502 -0.28893658504E+03  0.10338577967E+04  0.15879155771E+04  0.19167217258E+04  0.00000000000E+00 0. -1.
</event>
<event>
 5    1  0.2569591E-005  0.3876789E+02  0.7818608E-02  0.1382988E+00
          4   -1    0    0  502    0 -0.00000000000E+00  0.00000000000E+00  0.86681907540E+02  0.86681907540E+02  0.00000000000E+00 0.  1.
         21   -1    0    0  501  502  0.00000000000E+00 -0.00000000000E+00 -0.13052877239E+02  0.13052877239E+02  0.00000000000E+00 0. -1.
        -13    1    1    2    0    0 -0.17338013025E+02 -0.13748396317E+02  0.35625152580E+02  0.41937903587E+02  0.10566000000E+00 0.  1.
         13    1    1    2    0    0  0.19967389088E+02 -0.24920227979E+01  0.47196307441E+01  0.20668644925E+02  0.10566000000E+00 0. -1.
          4    1    1    2  501    0 -0.26293760633E+01  0.16240419115E+02  0.33284246976E+02  0.37128236267E+02  0.00000000000E+00 0.  1.
</event>
<event>
 6    1  0.2569591E-005  0.1125133E+04  0.7818608E-02  0.8815008E-01
         21   -1    0    0  501  502  0.00000000000E+00  0.00000000000E+00  0.28701836641E+03  0.28701836641E+03  0.00000000000E+00 0.  1.
         -4   -1    0    0    0  501 -0.00000000000E+00 -0.00000000000E+00 -0.27647172952E+04  0.27647172952E+04  0.00000000000E+00 0. -1.
   -9000010    2    1    2    0  502  0.28548661305E+03 -0.51810495198E+03 -0.12069607023E+04  0.16500541718E+04  0.95707329156E+03 0.  0.
        -13    1    1    2    0    0 -0.28548661305E+03  0.51810495198E+03 -0.12707382265E+04  0.14016814898E+04  0.10566000000E+00 0.  1.
         13    1    3    3    0    0  0.10462933326E+03 -0.14822874984E+03  0.14785940400E+03  0.23405442566E+03  0.10566000000E+00 0. -1.
         -4    1    3    3    0  502  0.18085727979E+03 -0.36987620213E+03 -0.13548201063E+04  0.14159997461E+04  0.00000000000E+00 0. -1.
</event>
<event>
 5    1  0.2569591E-005  0.3608151E+03  0.7818608E-02  0.9944836E-01
         21   -1    0    0  501  502  0.00000000000E+00  0.00000000000E+00  0.35714814440E+03  0.35714814440E+03  0.00000000000E+00 0. -1.
          4   -1    0    0  502    0 -0.00000000000E+00 -0.00000000000E+00 -0.44654593878E+03  0.44654593878E+03  0.00000000000E+00 0.  1.
        -13    1    1    2    0    0  0.14860922620E+02 -0.67845995350E+02 -0.67654339410E+02  0.96958996030E+02  0.10566000000E+00 0.  1.
         13    1    1    2    0    0  0.26124990689E+03 -0.23558682150E+02  0.20906645088E+03  0.33543302968E+03  0.10566000000E+00 0. -1.
          4    1    1    2  501    0 -0.27611082951E+03  0.91404677501E+02 -0.23080990585E+03  0.37130205747E+03  0.00000000000E+00 0.  1.
</event>
<event>
 5    1  0.2569591E-005  0.1716003E+03  0.7818608E-02  0.1084682E+00
         -4   -1    0    0    0  501 -0.00000000000E+00  0.00000000000E+00  0.41255080424E+02  0.41255080424E+02  0.00000000000E+00 0. -1.
         21   -1    0    0  501  502  0.00000000000E+00 -0.00000000000E+00 -0.65554660638E+03  0.65554660638E+03  0.00000000000E+00 0.  1.
        -13    1    1    2    0    0 -0.34534593113E+02 -0.15344860801E+03 -0.29014546124E+03  0.33003562423E+03  0.10566000000E+00 0.  1.
         13    1    1    2    0    0  0.25433099224E+02  0.97116582269E+02 -0.12907433819E+03  0.16351962889E+03  0.10566000000E+00 0. -1.
         -4    1    1    2    0  502  0.91014938890E+01  0.56332025743E+02 -0.19507172652E+03  0.20324643368E+03  0.00000000000E+00 0. -1.
</event>
<event>
 6    1  0.2569591E-005  0.1033782E+04  0.7818608E-02  0.9114026E-01
         -4   -1    0    0    0  501 -0.00000000000E+00  0.00000000000E+00  0.14848124338E+04  0.14848124338E+04  0.00000000000E+00 0. -1.
         21   -1    0    0  501  502  0.00000000000E+00 -0.00000000000E+00 -0.27400738700E+03  0.27400738700E+03  0.00000000000E+00 0. -1.
   -9000010    2    1    2    0  502  0.53730571831E+02 -0.21862478279E+03  0.10940765901E+04  0.15052270099E+04  0.10089702653E+04 0.  0.
        -13    1    1    2    0    0 -0.53730571831E+02  0.21862478279E+03  0.11672845668E+03  0.25359281094E+03  0.10566000000E+00 0.  1.
         13    1    3    3    0    0 -0.45682064677E+03 -0.18607740317E+03  0.71438675497E+03  0.86813498382E+03  0.10566000000E+00 0. -1.
         -4    1    3    3    0  502  0.51055121860E+03 -0.32547379620E+02  0.37968983517E+03  0.63709202606E+03  0.00000000000E+00 0. -1.
</event>
<event>
 6    1  0.2569591E-005  0.1032321E+04  0.7818608E-02  0.9123649E-01
         21   -1    0    0  501  502  0.00000000000E+00  0.00000000000E+00  0.25449574423E+03  0.25449574423E+03  0.00000000000E+00 0. -1.
         -4   -1    0    0    0  501 -0.00000000000E+00 -0.00000000000E+00 -0.15527714555E+04  0.15527714555E+04  0.00000000000E+00 0. -1.
   -9000010    2    1    2    0  502  0.76250463932E+01 -0.21753737869E+03 -0.11412069758E+04  0.15388435583E+04  0.10091112341E+04 0.  0.
        -13    1    1    2    0    0 -0.76250463932E+01  0.21753737869E+03 -0.15706873545E+03  0.26842364143E+03  0.10566000000E+00 0.  1.
         13    1    3    3    0    0 -0.46037007308E+03 -0.11324196349E+03 -0.27310667342E+03  0.54713034344E+03  0.10566000000E+00 0. -1.
         -4    1    3    3    0  502  0.46799511947E+03 -0.10429541520E+03 -0.86810030241E+03  0.99171321486E+03  0.00000000000E+00 0. -1.
</event>
<event>
 6    1  0.2569591E-005  0.9872547E+03  0.7818608E-02  0.9401373E-01
         21   -1    0    0  501  502  0.00000000000E+00  0.00000000000E+00  0.73524167528E+03  0.73524167528E+03  0.00000000000E+00 0. -1.
         -4   -1    0    0    0  501 -0.00000000000E+00 -0.00000000000E+00 -0.84472302717E+03  0.84472302717E+03  0.00000000000E+00 0. -1.
   -9000010    2    1    2    0  502 -0.83108761030E+02 -0.22484480208E+02  0.39856719091E+03  0.10646725998E+04  0.98349342709E+03 0.  0.
        -13    1    1    2    0    0  0.83108761030E+02  0.22484480208E+02 -0.50804854281E+03  0.51529210262E+03  0.10566000000E+00 0.  1.
         13    1    3    3    0    0 -0.21912212621E+03  0.22113826282E+03  0.62963680530E+03  0.70239529841E+03  0.10566000000E+00 0. -1.
         -4    1    3    3    0  502  0.13601336518E+03 -0.24362274303E+03 -0.23106961439E+03  0.36227730142E+03  0.00000000000E+00 0. -1.
</event>
<event>
 6    1  0.2569591E-005  0.1008769E+04  0.7818608E-02  0.9024450E-01
          4   -1    0    0  502    0 -0.00000000000E+00  0.00000000000E+00  0.32780895018E+03  0.32780895018E+03  0.00000000000E+00 0.  1.
         21   -1    0    0  501  502  0.00000000000E+00 -0.00000000000E+00 -0.14057385121E+04  0.14057385121E+04  0.00000000000E+00 0.  1.
    9000010    2    1    2  501    0 -0.31988833111E+03  0.13245461573E+03 -0.75403816424E+03  0.12594394384E+04  0.94749215107E+03 0.  0.
        -13    1    3    3    0    0 -0.50690933382E+03  0.46509116468E+02 -0.88108598168E+03  0.10175621302E+04  0.10566000000E+00 0.  1.
         13    1    1    2    0    0  0.31988833111E+03 -0.13245461573E+03 -0.32389139765E+03  0.47410802382E+03  0.10566000000E+00 0. -1.
          4    1    3    3  501    0  0.18702100272E+03  0.85945499266E+02  0.12704781744E+03  0.24187730819E+03  0.00000000000E+00 0.  1.
</event>
<event>
 6    1  0.2569591E-005  0.1160498E+04  0.7818608E-02  0.8794712E-01
         21   -1    0    0  501  502  0.00000000000E+00  0.00000000000E+00  0.12362860260E+04  0.12362860260E+04  0.00000000000E+00 0.  1.
          4   -1    0    0  502    0 -0.00000000000E+00 -0.00000000000E+00 -0.22219007580E+04  0.22219007580E+04  0.00000000000E+00 0.  1.
    9000010    2    1    2  501    0 -0.22773861511E+03 -0.54147606942E+03  0.90930216717E+03  0.14743089458E+04  0.10008472541E+04 0.  0.
        -13    1    3    3    0    0 -0.23782659284E+03 -0.23549796181E+03  0.10752108929E+04  0.11260991313E+04  0.10566000000E+00 0.  1.
         13    1    1    2    0    0  0.22773861511E+03  0.54147606942E+03 -0.18949168992E+04  0.19838778381E+04  0.10566000000E+00 0. -1.
          4    1    3    3  501    0  0.10087977726E+02 -0.30597810761E+03 -0.16590872571E+03  0.34820981448E+03  0.00000000000E+00 0.  1.
</event>
<event>
 6    1  0.2569591E-005  0.1037589E+04  0.7818608E-02  0.8940798E-01
         -4   -1    0    0    0  501 -0.00000000000E+00  0.00000000000E+00  0.10844356241E+04  0.10844356241E+04  0.00000000000E+00 0. -1.
         21   -1    0    0  501  502  0.00000000000E+00 -0.00000000000E+00 -0.51751286689E+03  0.51751286689E+03  0.00000000000E+00 0.  1.
   -9000010    2    1    2    0  502 -0.44160080494E+03 -0.68876483426E+02  0.49367617118E+03  0.11490463885E+04  0.93639532250E+03 0.  0.
        -13    1    1    2    0    0  0.44160080494E+03  0.68876483426E+02  0.73246585988E+02  0.45290210246E+03  0.10566000000E+00 0.  1.
         13    1    3    3    0    0 -0.56773252286E+02 -0.46587706800E+03  0.12907094528E+03  0.48674835875E+03  0.10566000000E+00 0. -1.
         -4    1    3    3    0  502 -0.38482755265E+03  0.39700058458E+03  0.36460522589E+03  0.66229802973E+03  0.00000000000E+00 0. -1.
</event>
<event>
 6    1  0.2569591E-005  0.1317051E+04  0.7818608E-02  0.8617845E-01
         -4   -1    0    0    0  501 -0.00000000000E+00  0.00000000000E+00  0.19232193722E+04  0.19232193722E+04  0.00000000000E+00 0. -1.
         21   -1    0    0  501  502  0.00000000000E+00 -0.00000000000E+00 -0.62969598918E+03  0.62969598918E+03  0.00000000000E+00 0. -1.
   -9000010    2    1    2    0  502  0.84703846664E+03 -0.16773336928E+03  0.94852235600E+03  0.16230581858E+04  0.99449211536E+03 0.  0.
        -13    1    1    2    0    0 -0.84703846664E+03  0.16773336928E+03  0.34500102698E+03  0.92985717555E+03  0.10566000000E+00 0.  1.
         13    1    3    3    0    0 -0.70370303551E+02  0.78594535425E+02 -0.14196056481E+03  0.17686688143E+03  0.10566000000E+00 0. -1.
         -4    1    3    3    0  502  0.91740877019E+03 -0.24632790470E+03  0.10904829208E+04  0.14461913044E+04  0.00000000000E+00 0. -1.
</event>
<event>
 6    1  0.2569591E-005  0.1003132E+04  0.7818608E-02  0.9267736E-01
         21   -1    0    0  501  502  0.00000000000E+00  0.00000000000E+00  0.75678160965E+03  0.75678160965E+03  0.00000000000E+00 0. -1.
         -4   -1    0    0    0  501 -0.00000000000E+00 -0.00000000000E+00 -0.47517247012E+03  0.47517247012E+03  0.00000000000E+00 0. -1.
   -9000010    2    1    2    0  502  0.40435523165E+02  0.12951334172E+03  0.10408430299E+03  0.10085176996E+04  0.99391431780E+03 0.  0.
        -13    1    1    2    0    0 -0.40435523165E+02 -0.12951334172E+03  0.17752483655E+03  0.22343638014E+03  0.10566000000E+00 0.  1.
         13    1    3    3    0    0  0.41805833826E+03 -0.10861798947E+03 -0.19213742147E+03  0.47274458402E+03  0.10566000000E+00 0. -1.
         -4    1    3    3    0  502 -0.37762281510E+03  0.23813133119E+03  0.29622172446E+03  0.53577311561E+03  0.00000000000E+00 0. -1.
</event>
<event>
 6    1  0.2569591E-005  0.1015190E+04  0.7818608E-02  0.9223044E-01
          4   -1    0    0  502    0 -0.00000000000E+00  0.00000000000E+00  0.12327732839E+04  0.12327732839E+04  0.00000000000E+00 0.  1.
         21   -1    0    0  501  502  0.00000000000E+00 -0.00000000000E+00 -0.31346904679E+03  0.31346904679E+03  0.00000000000E+00 0.  1.
    9000010    2    1    2  501    0  0.32861106337E+02 -0.15186653613E+03  0.57076931488E+03  0.11646405746E+04  0.10032281694E+04 0.  0.
        -13    1    3    3    0    0 -0.26559618668E+03 -0.23345350406E+03 -0.14705590178E+03  0.38297169915E+03  0.10566000000E+00 0.  1.
         13    1    1    2    0    0 -0.32861106337E+02  0.15186653613E+03  0.34853492218E+03  0.38160175609E+03  0.10566000000E+00 0. -1.
          4    1    3    3  501    0  0.29845729302E+03  0.81586967924E+02  0.71782521666E+03  0.78166887540E+03  0.00000000000E+00 0.  1.
</event>
<event>
 6    1  0.2569591E-005  0.1014821E+04  0.7818608E-02  0.9115233E-01
         -4   -1    0    0    0  501 -0.00000000000E+00  0.00000000000E+00  0.13242921722E+04  0.13242921722E+04  0.00000000000E+00 0. -1.
         21   -1    0    0  501  502  0.00000000000E+00 -0.00000000000E+00 -0.41624045000E+03  0.41624045000E+03  0.00000000000E+00 0. -1.
   -9000010    2    1    2    0  502  0.65161556633E+02 -0.22771653784E+03  0.25573836847E+03  0.10465487804E+04  0.98679348729E+03 0.  0.
        -13    1    1    2    0    0 -0.65161556633E+02  0.22771653784E+03  0.65231335373E+03  0.69398384180E+03  0.10566000000E+00 0.  1.
         13    1    3    3    0    0 -0.18578790600E+03 -0.82761189811E+01 -0.32643135458E+03  0.37569013905E+03  0.10566000000E+00 0. -1.
         -4    1    3    3    0  502  0.25094946263E+03 -0.21944041886E+03  0.58216972305E+03  0.67085864134E+03  0.00000000000E+00 0. -1.
</event>
<event>
 5    1  0.2569591E-005  0.1204785E+03  0.7818608E-02  0.1138005E+00
          4   -1    0    0  502    0 -0.00000000000E+00  0.00000000000E+00  0.69024251788E+02  0.69024251788E+02  0.00000000000E+00 0.  1.
         21   -1    0    0  501  502  0.00000000000E+00 -0.00000000000E+00 -0.20980752898E+03  0.20980752898E+03  0.00000000000E+00 0. -1.
        -13    1    1    2    0    0  0.92435367831E+02  0.21058391813E+02 -0.68422215967E+02  0.11691605490E+03  0.10566000000E+00 0.  1.
         13    1    1    2    0    0 -0.10943764937E+03 -0.13542109284E+02 -0.27932861536E+02  0.11375519215E+03  0.10566000000E+00 0. -1.
          4    1    1    2  501    0  0.17002281536E+02 -0.75162825291E+01 -0.44428199691E+02  0.48160533721E+02  0.00000000000E+00 0.  1.
</event>
<event>
 6    1  0.2569591E-005  0.1026234E+04  0.7818608E-02  0.9118750E-01
         -4   -1    0    0    0  501 -0.00000000000E+00  0.00000000000E+00  0.26743724448E+04  0.26743724448E+04  0.00000000000E+00 0. -1.
         21   -1    0    0  501  502  0.00000000000E+00 -0.00000000000E+00 -0.15898948532E+03  0.15898948532E+03  0.00000000000E+00 0. -1.
   -9000010    2    1    2    0  502  0.66740647460E+02  0.21580129704E+03  0.16859775700E+04  0.19737470018E+04  0.10010656055E+04 0.  0.
        -13    1    1    2    0    0 -0.66740647460E+02 -0.21580129704E+03  0.82940538950E+03  0.85961492839E+03  0.10566000000E+00 0.  1.
         13    1    3    3    0    0  0.23846450308E+03  0.69191245393E+02 -0.23511562273E+02  0.24941040955E+03  0.10566000000E+00 0. -1.
         -4    1    3    3    0  502 -0.17172385562E+03  0.14661005164E+03  0.17094891323E+04  0.17243365922E+04  0.00000000000E+00 0. -1.
</event>
<event>
 6    1  0.2569591E-005  0.1265336E+04  0.7818608E-02  0.8659601E-01
          4   -1    0    0  502    0 -0.00000000000E+00  0.00000000000E+00  0.30273868299E+04  0.30273868299E+04  0.00000000000E+00 0.  1.
         21   -1    0    0  501  502  0.00000000000E+00 -0.00000000000E+00 -0.35695707692E+03  0.35695707692E+03  0.00000000000E+00 0.  1.
    9000010    2    1    2  501    0 -0.22585590542E+03  0.77844182277E+03  0.17184586705E+04  0.21340513353E+04  0.97164414157E+03 0.  0.
        -13    1    3    3    0    0  0.20881018435E+03  0.18844942829E+03  0.12096284275E+04  0.12419000861E+04  0.10566000000E+00 0.  1.
         13    1    1    2    0    0  0.22585590542E+03 -0.77844182277E+03  0.95197108247E+03  0.12502925716E+04  0.10566000000E+00 0. -1.
          4    1    3    3  501    0 -0.43466608977E+03  0.58999239448E+03  0.50883024298E+03  0.89215124912E+03  0.00000000000E+00 0.  1.
</event>
<event>
 6    1  0.2569591E-005  0.1247134E+04  0.7818608E-02  0.8689698E-01
          4   -1    0    0  502    0 -0.00000000000E+00  0.00000000000E+00  0.11975089164E+04  0.11975089164E+04  0.00000000000E+00 0.  1.
         21   -1    0    0  501  502  0.00000000000E+00 -0.00000000000E+00 -0.86231476374E+03  0.86231476374E+03  0.00000000000E+00 0. -1.
    9000010    2    1    2  501    0  0.70788585620E+03  0.22419089376E+03  0.41175371841E+03  0.13133484157E+04  0.10019875219E+04 0.  0.
        -13    1    3    3    0    0 -0.53836498944E+02  0.23400643143E+03  0.49188015920E+03  0.54736046692E+03  0.10566000000E+00 0.  1.
         13    1    1    2    0    0 -0.70788585620E+03 -0.22419089376E+03 -0.76559565733E+02  0.74647526451E+03  0.10566000000E+00 0. -1.
          4    1    3    3  501    0  0.76172235514E+03 -0.98155376745E+01 -0.80126440786E+02  0.76598794874E+03  0.00000000000E+00 0.  1.
</event>
<event>
 6    1  0.2569591E-005  0.1044366E+04  0.7818608E-02  0.9026609E-01
         -4   -1    0    0    0  501 -0.00000000000E+00  0.00000000000E+00  0.48967465564E+03  0.48967465564E+03  0.00000000000E+00 0. -1.
         21   -1    0    0  501  502  0.00000000000E+00 -0.00000000000E+00 -0.12617019534E+04  0.12617019534E+04  0.00000000000E+00 0. -1.
   -9000010    2    1    2    0  502 -0.82843821311E+02  0.29801765285E+03 -0.93499428068E+03  0.14017541430E+04  0.99750827178E+03 0.  0.
        -13    1    1    2    0    0  0.82843821311E+02 -0.29801765285E+03  0.16296698289E+03  0.34962246611E+03  0.10566000000E+00 0.  1.
         13    1    3    3    0    0 -0.40143563501E+03  0.36274951981E+03 -0.93079798860E+03  0.10766256034E+04  0.10566000000E+00 0. -1.
         -4    1    3    3    0  502  0.31859181370E+03 -0.64731866963E+02 -0.41962920807E+01  0.32512853954E+03  0.00000000000E+00 0. -1.
</event>
<event>
 6    1  0.2569591E-005  0.1050115E+04  0.7818608E-02  0.9018970E-01
         21   -1    0    0  501  502  0.00000000000E+00  0.00000000000E+00  0.61586792116E+03  0.61586792116E+03  0.00000000000E+00 0. -1.
         -4   -1    0    0    0  501 -0.00000000000E+00 -0.00000000000E+00 -0.87820714230E+03  0.87820714230E+03  0.00000000000E+00 0. -1.
   -9000010    2    1    2    0  502 -0.62664299570E+02  0.30744557118E+03  0.50060531429E+02  0.10513073927E+04  0.10021434945E+04 0.  0.
        -13    1    1    2    0    0  0.62664299570E+02 -0.30744557118E+03 -0.31239975257E+03  0.44276767074E+03  0.10566000000E+00 0.  1.
         13    1    3    3    0    0 -0.50466475368E+02  0.22747675023E+03  0.52244316470E+03  0.57204843198E+03  0.10566000000E+00 0. -1.
         -4    1    3    3    0  502 -0.12197824202E+02  0.79968820956E+02 -0.47238263327E+03  0.47925896075E+03  0.00000000000E+00 0. -1.
</event>
<event>
 6    1  0.2569591E-005  0.1072886E+04  0.7818608E-02  0.8956539E-01
          4   -1    0    0  502    0 -0.00000000000E+00  0.00000000000E+00  0.11145113312E+04  0.11145113312E+04  0.00000000000E+00 0.  1.
         21   -1    0    0  501  502  0.00000000000E+00 -0.00000000000E+00 -0.58457541806E+03  0.58457541806E+03  0.00000000000E+00 0.  1.
    9000010    2    1    2  501    0 -0.33053468703E+03  0.18550609541E+03  0.32078511142E+02  0.10733650103E+04  0.10037020094E+04 0.  0.
        -13    1    3    3    0    0 -0.17172903150E+03  0.35215150247E+03 -0.41486355500E+03  0.57062537744E+03  0.10566000000E+00 0.  1.
         13    1    1    2    0    0  0.33053468703E+03 -0.18550609541E+03  0.49785740196E+03  0.62572173897E+03  0.10566000000E+00 0. -1.
          4    1    3    3  501    0 -0.15880565553E+03 -0.16664540705E+03  0.44694206614E+03  0.50273963282E+03  0.00000000000E+00 0.  1.
</event>
<event>
 5    1  0.2569591E-005  0.1872772E+03  0.7818608E-02  0.1129275E+00
         21   -1    0    0  501  502  0.00000000000E+00  0.00000000000E+00  0.16328839833E+02  0.16328839833E+02  0.00000000000E+00 0.  1.
          4   -1    0    0  502    0 -0.00000000000E+00 -0.00000000000E+00 -0.76989315774E+03  0.76989315774E+03  0.00000000000E+00 0.  1.
        -13    1    1    2    0    0 -0.14605269988E+01  0.15099569995E+02  0.92194118628E+01  0.17752151202E+02  0.10566000000E+00 0.  1.
         13    1    1    2    0    0 -0.32325397139E+02 -0.17342451401E+02 -0.13872854387E+03  0.14349673157E+03  0.10566000000E+00 0. -1.
          4    1    1    2  501    0  0.33785924137E+02  0.22428814058E+01 -0.62405518590E+03  0.62497311481E+03  0.00000000000E+00 0.  1.
</event>
<event>
 6    1  0.2569591E-005  0.1088085E+04  0.7818608E-02  0.8888133E-01
         21   -1    0    0  501  502  0.00000000000E+00  0.00000000000E+00  0.12999754994E+04  0.12999754994E+04  0.00000000000E+00 0. -1.
          4   -1    0    0  502    0 -0.00000000000E+00 -0.00000000000E+00 -0.52876873938E+03  0.52876873938E+03  0.00000000000E+00 0.  1.
    9000010    2    1    2  501    0  0.14904670086E+03  0.45798110658E+03  0.79336704836E+03  0.13466107484E+04  0.97568828082E+03 0.  0.
        -13    1    3    3    0    0  0.28555374518E+03  0.10403214352E+03  0.90214701848E+03  0.95196264758E+03  0.10566000000E+00 0.  1.
         13    1    1    2    0    0 -0.14904670086E+03 -0.45798110658E+03 -0.22160288293E+02  0.48213349039E+03  0.10566000000E+00 0. -1.
          4    1    3    3  501    0 -0.13650704432E+03  0.35394896306E+03 -0.10877997013E+03  0.39464810084E+03  0.00000000000E+00 0.  1.
</event>
<event>
 5    1  0.2587996E-005  0.1884697E+03  0.7818608E-02  0.1073844E+00
         -4   -1    0    0    0  501 -0.00000000000E+00  0.00000000000E+00  0.68215698064E+03  0.68215698064E+03  0.00000000000E+00 0. -1.
         21   -1    0    0  501  502  0.00000000000E+00 -0.00000000000E+00 -0.89563496226E+02  0.89563496226E+02  0.00000000000E+00 0.  1.
        -13    1    1    2    0    0  0.16074144937E+03  0.99992366575E+01  0.12223405439E+02  0.16151538962E+03  0.10566000000E+00 0.  1.
         13    1    1    2    0    0 -0.13595817008E+03 -0.34162025859E+02  0.53544992079E+03  0.55349642895E+03  0.10566000000E+00 0. -1.
         -4    1    1    2    0  502 -0.24783279291E+02  0.24162789201E+02  0.44920158179E+02  0.56708658292E+02  0.00000000000E+00 0. -1.
</event>
<event>
 5    1  0.2569591E-005  0.8296528E+02  0.7818608E-02  0.1196951E+00
         -4   -1    0    0    0  501 -0.00000000000E+00  0.00000000000E+00  0.39592183187E+02  0.39592183187E+02  0.00000000000E+00 0. -1.
         21   -1    0    0  501  502  0.00000000000E+00 -0.00000000000E+00 -0.19286511398E+03  0.19286511398E+03  0.00000000000E+00 0.  1.
        -13    1    1    2    0    0 -0.25944394162E+01 -0.81700195487E+02 -0.11499654281E+03  0.14108816067E+03  0.10566000000E+00 0.  1.
         13    1    1    2    0    0 -0.12393285067E+01  0.64599167028E+02 -0.35194238240E+02  0.73574682366E+02  0.10566000000E+00 0. -1.
         -4    1    1    2    0  502  0.38337679229E+01  0.17101028458E+02 -0.30821497420E+01  0.17794454132E+02  0.00000000000E+00 0. -1.
</event>
<event>
 6    1  0.2569591E-005  0.1544462E+04  0.7818608E-02  0.8443127E-01
         21   -1    0    0  501  502  0.00000000000E+00  0.00000000000E+00  0.17246283182E+04  0.17246283182E+04  0.00000000000E+00 0. -1.
          4   -1    0    0  502    0 -0.00000000000E+00 -0.00000000000E+00 -0.15221745149E+04  0.15221745149E+04  0.00000000000E+00 0.  1.
    9000010    2    1    2  501    0 -0.11425345639E+04 -0.28115750060E+03  0.98673062414E+03  0.18327572494E+04  0.10004634129E+04 0.  0.
        -13    1    3    3    0    0  0.13914384861E+03 -0.18991368407E+03  0.45024232992E+02  0.23969858307E+03  0.10566000000E+00 0.  1.
         13    1    1    2    0    0  0.11425345639E+04  0.28115750060E+03 -0.78427682086E+03  0.14140455837E+04  0.10566000000E+00 0. -1.
          4    1    3    3  501    0 -0.12816784125E+04 -0.91243816527E+02  0.94170639115E+03  0.15930586663E+04  0.00000000000E+00 0.  1.
</event>
<event>
 5    1  0.2569591E-005  0.2678941E+03  0.7818608E-02  0.1023076E+00
          4   -1    0    0  502    0 -0.00000000000E+00  0.00000000000E+00  0.22310711727E+03  0.22310711727E+03  0.00000000000E+00 0.  1.
         21   -1    0    0  501  502  0.00000000000E+00 -0.00000000000E+00 -0.64185776937E+03  0.64185776937E+03  0.00000000000E+00 0. -1.
        -13    1    1    2    0    0 -0.87816212982E+02  0.13325772267E+03  0.10352796265E+03  0.19022975090E+03  0.10566000000E+00 0.  1.
         13    1    1    2    0    0  0.14987198974E+03 -0.20642903981E+03 -0.51949954285E+03  0.57875240645E+03  0.10566000000E+00 0. -1.
          4    1    1    2  501    0 -0.62055776759E+02  0.73171317140E+02 -0.27790718986E+01  0.95982729289E+02  0.00000000000E+00 0.  1.
</event>
<event>
 6    1  0.2569591E-005  0.1024164E+04  0.7818608E-02  0.9079527E-01
          4   -1    0    0  502    0 -0.00000000000E+00  0.00000000000E+00  0.26807042764E+03  0.26807042764E+03  0.00000000000E+00 0.  1.
         21   -1    0    0  501  502  0.00000000000E+00 -0.00000000000E+00 -0.17846328558E+04  0.17846328558E+04  0.00000000000E+00 0.  1.
    9000010    2    1    2  501    0 -0.13548432091E+03 -0.22825815355E+03 -0.83546115034E+03  0.13217061920E+04  0.98916840749E+03 0.  0.
        -13    1    3    3    0    0  0.27994133373E+03 -0.92245417890E+02 -0.83402878619E+03  0.88457921907E+03  0.10566000000E+00 0.  1.
         13    1    1    2    0    0  0.13548432091E+03  0.22825815355E+03 -0.68110127777E+03  0.73099709139E+03  0.10566000000E+00 0. -1.
          4    1    3    3  501    0 -0.41542565464E+03 -0.13601273566E+03 -0.14323641520E+01  0.43712697293E+03  0.00000000000E+00 0.  1.
</event>
<event>
 6    1  0.2569591E-005  0.1051928E+04  0.7818608E-02  0.9006348E-01
         -4   -1    0    0    0  501 -0.00000000000E+00  0.00000000000E+00  0.39712855284E+04  0.39712855284E+04  0.00000000000E+00 0. -1.
         21   -1    0    0  501  502  0.00000000000E+00 -0.00000000000E+00 -0.12937735171E+03  0.12937735171E+03  0.00000000000E+00 0.  1.
   -9000010    2    1    2    0  502  0.23596396306E+03  0.22848064032E+03  0.33321646408E+04  0.34942629474E+04  0.99933475733E+03 0.  0.
        -13    1    1    2    0    0 -0.23596396306E+03 -0.22848064032E+03  0.50974353587E+03  0.60639993270E+03  0.10566000000E+00 0.  1.
         13    1    3    3    0    0  0.34846049671E+02  0.55733389306E+03  0.11511577190E+04  0.12794527818E+04  0.10566000000E+00 0. -1.
         -4    1    3    3    0  502  0.20111791339E+03 -0.32885325274E+03  0.21810069217E+04  0.22148101656E+04  0.00000000000E+00 0. -1.
</event>
<event>
 6    1  0.2569591E-005  0.1310899E+04  0.7818608E-02  0.8626258E-01
         21   -1    0    0  501  502  0.00000000000E+00  0.00000000000E+00  0.43120376871E+03  0.43120376871E+03  0.00000000000E+00 0. -1.
          4   -1    0    0  502    0 -0.00000000000E+00 -0.00000000000E+00 -0.29557634469E+04  0.29557634469E+04  0.00000000000E+00 0.  1.
    9000010    2    1    2  501    0  0.79211273314E+03 -0.29079400795E+03 -0.10162800450E+04  0.16586989494E+04  0.10032214799E+04 0.  0.
        -13    1    3    3    0    0  0.22222546890E+03 -0.61444619109E+03 -0.46019891341E+03  0.79919417655E+03  0.10566000000E+00 0.  1.
         13    1    1    2    0    0 -0.79211273314E+03  0.29079400795E+03 -0.15082796332E+04  0.17282682662E+04  0.10566000000E+00 0. -1.
          4    1    3    3  501    0  0.56988726424E+03  0.32365218314E+03 -0.55608113163E+03  0.85950477285E+03  0.00000000000E+00 0.  1.
</event>
<event>
 6    1  0.2569591E-005  0.1248539E+04  0.7818608E-02  0.8702235E-01
         21   -1    0    0  501  502  0.00000000000E+00  0.00000000000E+00  0.40277149176E+03  0.40277149176E+03  0.00000000000E+00 0.  1.
          4   -1    0    0  502    0 -0.00000000000E+00 -0.00000000000E+00 -0.26900865589E+04  0.26900865589E+04  0.00000000000E+00 0.  1.
    9000010    2    1    2  501    0  0.69928037911E+03 -0.47598217111E+02 -0.90184080965E+03  0.15401837229E+04  0.10332426701E+04 0.  0.
        -13    1    3    3    0    0 -0.25139031867E+02 -0.15826588397E+03  0.17522648679E+03  0.23745398246E+03  0.10566000000E+00 0.  1.
         13    1    1    2    0    0 -0.69928037911E+03  0.47598217111E+02 -0.13854742575E+04  0.15526743278E+04  0.10566000000E+00 0. -1.
          4    1    3    3  501    0  0.72441941097E+03  0.11066766686E+03 -0.10770672964E+04  0.13027297404E+04  0.00000000000E+00 0.  1.
</event>
<event>
 5    1  0.2569591E-005  0.5965498E+02  0.7818608E-02  0.1292634E+00
          4   -1    0    0  502    0 -0.00000000000E+00  0.00000000000E+00  0.40831416732E+03  0.40831416732E+03  0.00000000000E+00 0.  1.
         21   -1    0    0  501  502  0.00000000000E+00 -0.00000000000E+00 -0.48188709775E+01  0.48188709775E+01  0.00000000000E+00 0.  1.
        -13    1    1    2    0    0 -0.34335547167E+01  0.37813514201E+02  0.22449165231E+03  0.22767996020E+03  0.10566000000E+00 0.  1.
         13    1    1    2    0    0 -0.11681570019E+02 -0.26494091432E+02  0.12257514604E+03  0.12594869412E+03  0.10566000000E+00 0. -1.
          4    1    1    2  501    0  0.15115124736E+02 -0.11319422769E+02  0.56428497984E+02  0.59504383976E+02  0.00000000000E+00 0.  1.
</event>
<event>
 6    1  0.2569591E-005  0.1842037E+04  0.7818608E-02  0.8274153E-01
         -4   -1    0    0    0  501 -0.00000000000E+00  0.00000000000E+00  0.32836483487E+04  0.32836483487E+04  0.00000000000E+00 0. -1.
         21   -1    0    0  501  502  0.00000000000E+00 -0.00000000000E+00 -0.93128245291E+03  0.93128245291E+03  0.00000000000E+00 0.  1.
   -9000010    2    1    2    0  502  0.13326735256E+04 -0.75675093310E+03  0.18280931803E+04  0.25951923684E+04  0.10219628432E+04 0.  0.
        -13    1    1    2    0    0 -0.13326735256E+04  0.75675093310E+03  0.52427271554E+03  0.16197384332E+04  0.10566000000E+00 0.  1.
         13    1    3    3    0    0  0.45642936518E+03 -0.37308131712E+03  0.69906811442E+02  0.59363659594E+03  0.10566000000E+00 0. -1.
         -4    1    3    3    0  502  0.87624416041E+03 -0.38366961597E+03  0.17581863688E+04  0.20015557725E+04  0.00000000000E+00 0. -1.
</event>
<event>
 5    1  0.2569591E-005  0.4530153E+03  0.7818608E-02  0.9831690E-01
          4   -1    0    0  502    0 -0.00000000000E+00  0.00000000000E+00  0.26694334102E+04  0.26694334102E+04  0.00000000000E+00 0.  1.
         21   -1    0    0  501  502  0.00000000000E+00 -0.00000000000E+00 -0.43063428895E+02  0.43063428895E+02  0.00000000000E+00 0. -1.
        -13    1    1    2    0    0 -0.15936491033E+03  0.16446169310E+03  0.98022017003E+03  0.10066163202E+04  0.10566000000E+00 0.  1.
         13    1    1    2    0    0 -0.60998437221E+02 -0.18383748973E+03  0.45736629552E+03  0.49669001542E+03  0.10566000000E+00 0. -1.
          4    1    1    2  501    0  0.22036334755E+03  0.19375796626E+02  0.11887835158E+04  0.12091905035E+04  0.00000000000E+00 0.  1.
</event>
<event>
 6    1  0.2569591E-005  0.1081273E+04  0.7818608E-02  0.9002192E-01
          4   -1    0    0  502    0 -0.00000000000E+00  0.00000000000E+00  0.88758267104E+03  0.88758267104E+03  0.00000000000E+00 0.  1.
         21   -1    0    0  501  502  0.00000000000E+00 -0.00000000000E+00 -0.66251424789E+03  0.66251424789E+03  0.00000000000E+00 0.  1.
    9000010    2    1    2  501    0 -0.16919628442E+03 -0.25683239976E+03 -0.11994024978E+03  0.10879051192E+04  0.10366106408E+04 0.  0.
        -13    1    3    3    0    0  0.92329975172E+02  0.25619012615E+03 -0.37058641707E+03  0.45988314682E+03  0.10566000000E+00 0.  1.
         13    1    1    2    0    0  0.16919628442E+03  0.25683239976E+03  0.34500867292E+03  0.46219179978E+03  0.10566000000E+00 0. -1.
          4    1    3    3  501    0 -0.26152625959E+03 -0.51302252591E+03  0.25064616730E+03  0.62802197233E+03  0.00000000000E+00 0.  1.
</event>
<event>
 5    1  0.2569591E-005  0.1013854E+03  0.7818608E-02  0.1193403E+00
         -4   -1    0    0    0  501 -0.00000000000E+00  0.00000000000E+00  0.79513585217E+02  0.79513585217E+02  0.00000000000E+00 0. -1.
         21   -1    0    0  501  502  0.00000000000E+00 -0.00000000000E+00 -0.11060947123E+03  0.11060947123E+03  0.00000000000E+00 0.  1.
        -13    1    1    2    0    0  0.34271060626E+02  0.34447218647E+02 -0.66827000078E+02  0.82625514052E+02  0.10566000000E+00 0.  1.
         13    1    1    2    0    0 -0.61645754128E+02 -0.13225312989E+02  0.36500017097E+02  0.72851700857E+02  0.10566000000E+00 0. -1.
         -4    1    1    2    0  502  0.27374693502E+02 -0.21221905658E+02 -0.76890303362E+00  0.34645841539E+02  0.00000000000E+00 0. -1.
</event>
<event>
 5    1  0.2569591E-005  0.2345109E+03  0.7818608E-02  0.1040208E+00
         21   -1    0    0  501  502  0.00000000000E+00  0.00000000000E+00  0.19314862960E+03  0.19314862960E+03  0.00000000000E+00 0. -1.
          4   -1    0    0  502    0 -0.00000000000E+00 -0.00000000000E+00 -0.28402436921E+03  0.28402436921E+03  0.00000000000E+00 0.  1.
        -13    1    1    2    0    0  0.13040910880E+02  0.21601400343E+03 -0.90002327557E+02  0.23437692968E+03  0.10566000000E+00 0.  1.
         13    1    1    2    0    0 -0.29760239191E+02 -0.22236959986E+03  0.35120801821E+01  0.22437971533E+03  0.10566000000E+00 0. -1.
          4    1    1    2  501    0  0.16719328311E+02  0.63555964297E+01 -0.43854922382E+01  0.18416353801E+02  0.00000000000E+00 0.  1.
</event>
<event>
 5    1  0.2569591E-005  0.4144069E+03  0.7818608E-02  0.9728947E-01
          4   -1    0    0  502    0 -0.00000000000E+00  0.00000000000E+00  0.13704390974E+03  0.13704390974E+03  0.00000000000E+00 0.  1.
         21   -1    0    0  501  502  0.00000000000E+00 -0.00000000000E+00 -0.11465716161E+04  0.11465716161E+04  0.00000000000E+00 0. -1.
        -13    1    1    2    0    0 -0.16856346904E+03  0.29732692751E+03 -0.41609190689E+03  0.53846952658E+03  0.10566000000E+00 0.  1.
         13    1    1    2    0    0  0.14999124480E+03 -0.32708749342E+03 -0.60852708639E+03  0.70695744419E+03  0.10566000000E+00 0. -1.
          4    1    1    2  501    0  0.18572224244E+02  0.29760565909E+02  0.15091286913E+02  0.38188555056E+02  0.00000000000E+00 0.  1.
</event>
<event>
 6    1  0.2569591E-005  0.1011445E+04  0.7818608E-02  0.9057803E-01
         21   -1    0    0  501  502  0.00000000000E+00  0.00000000000E+00  0.16829757252E+03  0.16829757252E+03  0.00000000000E+00 0. -1.
         -4   -1    0    0    0  501 -0.00000000000E+00 -0.00000000000E+00 -0.25587007138E+04  0.25587007138E+04  0.00000000000E+00 0. -1.
   -9000010    2    1    2    0  502  0.29134335922E+03  0.73616797996E+02 -0.18110071005E+04  0.20743114018E+04  0.96577465690E+03 0.  0.
        -13    1    1    2    0    0 -0.29134335922E+03 -0.73616797996E+02 -0.57939604085E+03  0.65268688452E+03  0.10566000000E+00 0.  1.
         13    1    3    3    0    0 -0.13583205950E+03 -0.14351856835E+03  0.34583324568E+01  0.19763577377E+03  0.10566000000E+00 0. -1.
         -4    1    3    3    0  502  0.42717541871E+03  0.21713536634E+03 -0.18144654329E+04  0.18766756280E+04  0.00000000000E+00 0. -1.
</event>
<event>
 5    1  0.2569591E-005  0.3978724E+03  0.7818608E-02  0.9835353E-01
         21   -1    0    0  501  502  0.00000000000E+00  0.00000000000E+00  0.54020817491E+03  0.54020817491E+03  0.00000000000E+00 0. -1.
         -4   -1    0    0    0  501 -0.00000000000E+00 -0.00000000000E+00 -0.21430138021E+03  0.21430138021E+03  0.00000000000E+00 0. -1.
        -13    1    1    2    0    0 -0.28138207750E+03 -0.23672509649E+02  0.12535968186E+03  0.30895197403E+03  0.10566000000E+00 0.  1.
         13    1    1    2    0    0 -0.25663920013E+02  0.23309235300E+02  0.12449591206E+03  0.12923312472E+03  0.10566000000E+00 0. -1.
         -4    1    1    2    0  502  0.30704599752E+03  0.36327434964E+00  0.76051200767E+02  0.31632445637E+03  0.00000000000E+00 0. -1.
</event>
<event>
 6    1  0.2569591E-005  0.1034876E+04  0.7818608E-02  0.9126806E-01
          4   -1    0    0  502    0 -0.00000000000E+00  0.00000000000E+00  0.12475304423E+04  0.12475304423E+04  0.00000000000E+00 0.  1.
         21   -1    0    0  501  502  0.00000000000E+00 -0.00000000000E+00 -0.33869967274E+03  0.33869967274E+03  0.00000000000E+00 0.  1.
    9000010    2    1    2  501    0 -0.21061259110E+03 -0.34340457743E+02  0.55833936039E+03  0.11758873685E+04  0.10126358336E+04 0.  0.
        -13    1    3    3    0    0  0.27338449518E+03  0.25091354113E+02 -0.15236385720E+03  0.31397995859E+03  0.10566000000E+00 0.  1.
         13    1    1    2    0    0  0.21061259110E+03  0.34340457743E+02  0.35049140922E+03  0.41034274658E+03  0.10566000000E+00 0. -1.
          4    1    3    3  501    0 -0.48399708628E+03 -0.59431811856E+02  0.71070321759E+03  0.86190740992E+03  0.00000000000E+00 0.  1.
</event>
<event>
 5    1  0.2569591E-005  0.4554330E+02  0.7818608E-02  0.1348967E+00
         21   -1    0    0  501  502  0.00000000000E+00  0.00000000000E+00  0.30371913695E+01  0.30371913695E+01  0.00000000000E+00 0.  1.
         -4   -1    0    0    0  501 -0.00000000000E+00 -0.00000000000E+00 -0.39634507563E+03  0.39634507563E+03  0.00000000000E+00 0. -1.
        -13    1    1    2    0    0 -0.21884521787E+02  0.55003989016E+01 -0.96682525218E+02  0.99280957532E+02  0.10566000000E+00 0.  1.
         13    1    1    2    0    0  0.31375110778E+02 -0.20563114361E+01 -0.15736691683E+03  0.16047736186E+03  0.10566000000E+00 0. -1.
         -4    1    1    2    0  502 -0.94905889912E+01 -0.34440874655E+01 -0.13925844222E+03  0.13962394761E+03  0.00000000000E+00 0. -1.
</event>
<event>
 6    1  0.2569591E-005  0.1038299E+04  0.7818608E-02  0.9084679E-01
         -4   -1    0    0    0  501 -0.00000000000E+00  0.00000000000E+00  0.57013424902E+03  0.57013424902E+03  0.00000000000E+00 0. -1.
         21   -1    0    0  501  502  0.00000000000E+00 -0.00000000000E+00 -0.77684470763E+03  0.77684470763E+03  0.00000000000E+00 0.  1.
   -9000010    2    1    2    0  502  0.63330042141E+02 -0.24141438101E+03 -0.25610896906E+02  0.10386144645E+04  0.10078553915E+04 0.  0.
        -13    1    1    2    0    0 -0.63330042141E+02  0.24141438101E+03 -0.18109956171E+03  0.30836449214E+03  0.10566000000E+00 0.  1.
         13    1    3    3    0    0 -0.23348052110E+03  0.14414933259E+03 -0.35673490367E+03  0.45005775904E+03  0.10566000000E+00 0. -1.
         -4    1    3    3    0  502  0.29681056324E+03 -0.38556371360E+03  0.33112400676E+03  0.58855670546E+03  0.00000000000E+00 0. -1.
</event>
<event>
 6    1  0.2569591E-005  0.1039764E+04  0.7818608E-02  0.9041534E-01
         21   -1    0    0  501  502  0.00000000000E+00  0.00000000000E+00  0.25268302327E+03  0.25268302327E+03  0.00000000000E+00 0.  1.
          4   -1    0    0  502    0 -0.00000000000E+00 -0.00000000000E+00 -0.17782250834E+04  0.17782250834E+04  0.00000000000E+00 0.  1.
    9000010    2    1    2  501    0  0.22886041383E+03 -0.18647881198E+03 -0.11070937289E+04  0.15188041588E+04  0.99697447908E+03 0.  0.
        -13    1    3    3    0    0 -0.25702755498E+03 -0.25826218922E+03 -0.69644204315E+02  0.37096205838E+03  0.10566000000E+00 0.  1.
         13    1    1    2    0    0 -0.22886041383E+03  0.18647881198E+03 -0.41844833129E+03  0.51210394791E+03  0.10566000000E+00 0. -1.
          4    1    3    3  501    0  0.48588796881E+03  0.71783377244E+02 -0.10374495246E+04  0.11478421004E+04  0.00000000000E+00 0.  1.
</event>
<event>
 6    1  0.2569591E-005  0.1097535E+04  0.7818608E-02  0.8900218E-01
          4   -1    0    0  502    0 -0.00000000000E+00  0.00000000000E+00  0.17641365043E+04  0.17641365043E+04  0.00000000000E+00 0.  1.
         21   -1    0    0  501  502  0.00000000000E+00 -0.00000000000E+00 -0.36320076926E+03  0.36320076926E+03  0.00000000000E+00 0.  1.
    9000010    2    1    2  501    0  0.18123642447E+03 -0.40791031708E+03  0.12322684206E+04  0.16501725824E+04  0.10026697477E+04 0.  0.
        -13    1    3    3    0    0  0.59345470914E+03 -0.18000690119E+03  0.61151387952E+03  0.87094214060E+03  0.10566000000E+00 0.  1.
         13    1    1    2    0    0 -0.18123642447E+03  0.40791031708E+03  0.16866731443E+03  0.47716469113E+03  0.10566000000E+00 0. -1.
          4    1    3    3  501    0 -0.41221828467E+03 -0.22790341590E+03  0.62075454106E+03  0.77923044181E+03  0.00000000000E+00 0.  1.
</event>
<event>
 5    1  0.2569591E-005  0.1765461E+03  0.7818608E-02  0.1088325E+00
         21   -1    0    0  501  502  0.00000000000E+00  0.00000000000E+00  0.68836617873E+02  0.68836617873E+02  0.00000000000E+00 0.  1.
         -4   -1    0    0    0  501 -0.00000000000E+00 -0.00000000000E+00 -0.34250954945E+03  0.34250954945E+03  0.00000000000E+00 0. -1.
        -13    1    1    2    0    0  0.89991875962E+02  0.94555530527E+02 -0.11421806851E+03  0.17345046679E+03  0.10566000000E+00 0.  1.
         13    1    1    2    0    0 -0.10533739240E+02 -0.45046869207E+02 -0.13269232438E+03  0.14052559981E+03  0.10566000000E+00 0. -1.
         -4    1    1    2    0  502 -0.79458136722E+02 -0.49508661320E+02 -0.26762538681E+02  0.97370100717E+02  0.00000000000E+00 0. -1.
</event>
<event>
 5    1  0.2569591E-005  0.1026906E+03  0.7818608E-02  0.1164145E+00
         -4   -1    0    0    0  501 -0.00000000000E+00  0.00000000000E+00  0.80603165457E+03  0.80603165457E+03  0.00000000000E+00 0. -1.
         21   -1    0    0  501  502  0.00000000000E+00 -0.00000000000E+00 -0.12202077387E+02  0.12202077387E+02  0.00000000000E+00 0.  1.
        -13    1    1    2    0    0 -0.82255063035E+02 -0.43959813552E+02  0.31503105433E+03  0.32854670438E+03  0.10566000000E+00 0.  1.
         13    1    1    2    0    0  0.67746918625E+02  0.45056481017E+02  0.45131174697E+03  0.45858699893E+03  0.10566000000E+00 0. -1.
         -4    1    1    2    0  502  0.14508144410E+02 -0.10966674648E+01  0.27486775874E+02  0.31100028645E+02  0.00000000000E+00 0. -1.
</event>
<event>
 6    1  0.2569591E-005  0.1055458E+04  0.7818608E-02  0.8986793E-01
          4   -1    0    0  502    0 -0.00000000000E+00  0.00000000000E+00  0.64588547189E+03  0.64588547189E+03  0.00000000000E+00 0.  1.
         21   -1    0    0  501  502  0.00000000000E+00 -0.00000000000E+00 -0.78350340047E+03  0.78350340047E+03  0.00000000000E+00 0. -1.
    9000010    2    1    2  501    0 -0.10448743004E+03  0.33609985925E+03 -0.11538056795E+02  0.10555214043E+04  0.99504350145E+03 0.  0.
        -13    1    3    3    0    0 -0.35877765630E+03  0.32628030220E+03 -0.37415928385E+03  0.61251565132E+03  0.10566000000E+00 0.  1.
         13    1    1    2    0    0  0.10448743004E+03 -0.33609985925E+03 -0.12607987178E+03  0.37386746804E+03  0.10566000000E+00 0. -1.
          4    1    3    3  501    0  0.25429022626E+03  0.98195570523E+01  0.36262122705E+03  0.44300575299E+03  0.00000000000E+00 0.  1.
</event>
<event>
 5    1  0.2569591E-005  0.2840921E+03  0.7818608E-02  0.1018710E+00
         -4   -1    0    0    0  501 -0.00000000000E+00  0.00000000000E+00  0.85702989845E+03  0.85702989845E+03  0.00000000000E+00 0. -1.
         21   -1    0    0  501  502  0.00000000000E+00 -0.00000000000E+00 -0.12635863371E+03  0.12635863371E+03  0.00000000000E+00 0.  1.
        -13    1    1    2    0    0  0.19693707183E+03  0.14640305757E+03  0.63959474576E+03  0.68505438871E+03  0.10566000000E+00 0.  1.
         13    1    1    2    0    0 -0.20564772749E+03 -0.11795625721E+03  0.41739833057E+02  0.24072160531E+03  0.10566000000E+00 0. -1.
         -4    1    1    2    0  502  0.87106556566E+01 -0.28446800367E+02  0.49336685924E+02  0.57612538141E+02  0.00000000000E+00 0. -1.
</event>
<event>
 5    1  0.3043536E-005  0.3008248E+03  0.7818608E-02  0.1008756E+00
          4   -1    0    0  502    0 -0.00000000000E+00  0.00000000000E+00  0.16768871455E+04  0.16768871455E+04  0.00000000000E+00 0.  1.
         21   -1    0    0  501  502  0.00000000000E+00 -0.00000000000E+00 -0.56857838973E+02  0.56857838973E+02  0.00000000000E+00 0. -1.
        -13    1    1    2    0    0  0.18597151713E+03  0.17120701709E+03  0.10593092819E+04  0.10890516121E+04  0.10566000000E+00 0.  1.
         13    1    1    2    0    0 -0.19921202841E+03 -0.20232726822E+03  0.51042265845E+03  0.58408309097E+03  0.10566000000E+00 0. -1.
          4    1    1    2  501    0  0.13240511284E+02  0.31120251134E+02  0.50297366128E+02  0.60610281381E+02  0.00000000000E+00 0.  1.
</event>
<event>
 6    1  0.2569591E-005  0.1435976E+04  0.7818608E-02  0.8522151E-01
          4   -1    0    0  502    0 -0.00000000000E+00  0.00000000000E+00  0.35550700518E+04  0.35550700518E+04  0.00000000000E+00 0.  1.
         21   -1    0    0  501  502  0.00000000000E+00 -0.00000000000E+00 -0.12378123613E+04  0.12378123613E+04  0.00000000000E+00 0. -1.
    9000010    2    1    2  501    0  0.19120890099E+03 -0.10032865197E+04 -0.70716658961E+03  0.16006595322E+04  0.10093966852E+04 0.  0.
        -13    1    3    3    0    0 -0.90740577035E+02 -0.68696154333E+03 -0.89938348283E+03  0.11353592712E+04  0.10566000000E+00 0.  1.
         13    1    1    2    0    0 -0.19120890099E+03  0.10032865197E+04  0.30244242801E+04  0.31922228809E+04  0.10566000000E+00 0. -1.
          4    1    3    3  501    0  0.28194947802E+03 -0.31632497636E+03  0.19221689322E+03  0.46530026098E+03  0.00000000000E+00 0.  1.
</event>
<event>
 5    1  0.2569591E-005  0.9482744E+02  0.7818608E-02  0.1179769E+00
         21   -1    0    0  501  502  0.00000000000E+00  0.00000000000E+00  0.82030682401E+02  0.82030682401E+02  0.00000000000E+00 0. -1.
          4   -1    0    0  502    0 -0.00000000000E+00 -0.00000000000E+00 -0.97710598681E+02  0.97710598681E+02  0.00000000000E+00 0.  1.
        -13    1    1    2    0    0 -0.61861145386E+02 -0.35002951979E+02 -0.28670427962E+02  0.76642106960E+02  0.10566000000E+00 0.  1.
         13    1    1    2    0    0  0.59812526436E+02  0.55460012780E+02  0.81242769742E+01  0.81971741330E+02  0.10566000000E+00 0. -1.
          4    1    1    2  501    0  0.20486189495E+01 -0.20457060801E+02  0.48662347071E+01  0.21127432793E+02  0.00000000000E+00 0.  1.
</event>
<event>
 5    1  0.2569591E-005  0.5361064E+03  0.7818608E-02  0.9404182E-01
         21   -1    0    0  501  502  0.00000000000E+00  0.00000000000E+00  0.66111364669E+02  0.66111364669E+02  0.00000000000E+00 0. -1.
          4   -1    0    0  502    0 -0.00000000000E+00 -0.00000000000E+00 -0.43151887612E+04  0.43151887612E+04  0.00000000000E+00 0.  1.
        -13    1    1    2    0    0 -0.27674371279E+03  0.44273659878E+03 -0.20696117192E+04  0.21344543701E+04  0.10566000000E+00 0.  1.
         13    1    1    2    0    0  0.28898418033E+03 -0.44679368073E+03 -0.21013857437E+04  0.21677081225E+04  0.10566000000E+00 0. -1.
          4    1    1    2  501    0 -0.12240467541E+02  0.40570819508E+01 -0.78079933598E+02  0.79137633211E+02  0.00000000000E+00 0.  1.
</event>
<event>
 6    1  0.2569591E-005  0.1084712E+04  0.7818608E-02  0.8920255E-01
         21   -1    0    0  501  502  0.00000000000E+00  0.00000000000E+00  0.30277970755E+03  0.30277970755E+03  0.00000000000E+00 0. -1.
         -4   -1    0    0    0  501 -0.00000000000E+00 -0.00000000000E+00 -0.19187573690E+04  0.19187573690E+04  0.00000000000E+00 0. -1.
   -9000010    2    1    2    0  502  0.16041619484E+03  0.39427226382E+03 -0.10184348268E+04  0.14878876889E+04  0.99770552006E+03 0.  0.
        -13    1    1    2    0    0 -0.16041619484E+03 -0.39427226382E+03 -0.59754283464E+03  0.73364938764E+03  0.10566000000E+00 0.  1.
         13    1    3    3    0    0  0.29273293339E+03  0.68975851532E+02  0.98956436336E+02  0.31661115875E+03  0.10566000000E+00 0. -1.
         -4    1    3    3    0  502 -0.13231673856E+03  0.32529641229E+03 -0.11173912631E+04  0.11712765302E+04  0.00000000000E+00 0. -1.
</event>
<event>
 6    1  0.2569591E-005  0.1100195E+04  0.7818608E-02  0.8895598E-01
         -4   -1    0    0    0  501 -0.00000000000E+00  0.00000000000E+00  0.16646777647E+04  0.16646777647E+04  0.00000000000E+00 0. -1.
         21   -1    0    0  501  502  0.00000000000E+00 -0.00000000000E+00 -0.36344571883E+03  0.36344571883E+03  0.00000000000E+00 0.  1.
   -9000010    2    1    2    0  502 -0.15360467279E+03  0.42477236877E+03  0.98533612350E+03  0.14769282316E+04  0.10031967725E+04 0.  0.
        -13    1    1    2    0    0  0.15360467279E+03 -0.42477236877E+03  0.31589592235E+03  0.55119525188E+03  0.10566000000E+00 0.  1.
         13    1    3    3    0    0  0.14434598383E+03  0.40258440631E+03 -0.19987738591E+02  0.42814657316E+03  0.10566000000E+00 0. -1.
         -4    1    3    3    0  502 -0.29795065662E+03  0.22187962458E+02  0.10053238621E+04  0.10487816585E+04  0.00000000000E+00 0. -1.
</event>
<event>
 5    1  0.2569591E-005  0.6305606E+02  0.7818608E-02  0.1261846E+00
         -4   -1    0    0    0  501 -0.00000000000E+00  0.00000000000E+00  0.33063120367E+02  0.33063120367E+02  0.00000000000E+00 0. -1.
         21   -1    0    0  501  502  0.00000000000E+00 -0.00000000000E+00 -0.89143145525E+02  0.89143145525E+02  0.00000000000E+00 0.  1.
        -13    1    1    2    0    0  0.23879817530E+02  0.38753352197E+02 -0.23948887730E+02  0.51435672245E+02  0.10566000000E+00 0.  1.
         13    1    1    2    0    0 -0.23928670143E+01 -0.40141033157E+02 -0.27584254566E+02  0.48764029976E+02  0.10566000000E+00 0. -1.
         -4    1    1    2    0  502 -0.21486950515E+02  0.13876809608E+01 -0.45468828621E+01  0.22006563672E+02  0.00000000000E+00 0. -1.
</event>
<event>
 6    1  0.2569591E-005  0.1261303E+04  0.7818608E-02  0.8675936E-01
          4   -1    0    0  502    0 -0.00000000000E+00  0.00000000000E+00  0.34900723675E+04  0.34900723675E+04  0.00000000000E+00 0.  1.
         21   -1    0    0  501  502  0.00000000000E+00 -0.00000000000E+00 -0.39477273355E+03  0.39477273355E+03  0.00000000000E+00 0. -1.
    9000010    2    1    2  501    0 -0.61026209411E+03  0.45640035357E+03  0.86885952319E+03  0.15316012369E+04  0.10050693367E+04 0.  0.
        -13    1    3    3    0    0 -0.57123089428E+03  0.72413904201E+03  0.43374795679E+03  0.10192248957E+04  0.10566000000E+00 0.  1.
         13    1    1    2    0    0  0.61026209411E+03 -0.45640035357E+03  0.22264401108E+04  0.23532438642E+04  0.10566000000E+00 0. -1.
          4    1    3    3  501    0 -0.39031199827E+02 -0.26773868844E+03  0.43511156640E+03  0.51237634124E+03  0.00000000000E+00 0.  1.
</event>
<event>
 6    1  0.2569591E-005  0.1106933E+04  0.7818608E-02  0.8880873E-01
          4   -1    0    0  502    0 -0.00000000000E+00  0.00000000000E+00  0.23390270602E+04  0.23390270602E+04  0.00000000000E+00 0.  1.
         21   -1    0    0  501  502  0.00000000000E+00 -0.00000000000E+00 -0.32329082358E+03  0.32329082358E+03  0.00000000000E+00 0.  1.
    9000010    2    1    2  501    0  0.37294322557E+03  0.28839900486E+03  0.82171051349E+03  0.13785896905E+04  0.10015192117E+04 0.  0.
        -13    1    3    3    0    0 -0.27043588852E+03 -0.13099763067E+03  0.80140328986E+02  0.31099587221E+03  0.10566000000E+00 0.  1.
         13    1    1    2    0    0 -0.37294322557E+03 -0.28839900486E+03  0.11940257231E+04  0.12837281932E+04  0.10566000000E+00 0. -1.
          4    1    3    3  501    0  0.64337911409E+03  0.41939663553E+03  0.74157018451E+03  0.10675938183E+04  0.00000000000E+00 0.  1.
</event>
<event>
 5    1  0.2569591E-005  0.1927900E+03  0.7818608E-02  0.1069327E+00
         -4   -1    0    0    0  501 -0.00000000000E+00  0.00000000000E+00  0.23722578752E+03  0.23722578752E+03  0.00000000000E+00 0. -1.
         21   -1    0    0  501  502  0.00000000000E+00 -0.00000000000E+00 -0.20834095877E+03  0.20834095877E+03  0.00000000000E+00 0.  1.
        -13    1    1    2    0    0  0.10190225658E+03 -0.13753462274E+03  0.14168335659E+03  0.22220267110E+03  0.10566000000E+00 0.  1.
         13    1    1    2    0    0 -0.79800204997E+02  0.10601206849E+03 -0.12568477104E+03  0.18276570854E+03  0.10566000000E+00 0. -1.
         -4    1    1    2    0  502 -0.22102051579E+02  0.31522554246E+02  0.12886243199E+02  0.40598366642E+02  0.00000000000E+00 0. -1.
</event>
<event>
 5    1  0.2569591E-005  0.2879936E+03  0.7818608E-02  0.1028081E+00
         21   -1    0    0  501  502  0.00000000000E+00  0.00000000000E+00  0.32667165126E+02  0.32667165126E+02  0.00000000000E+00 0.  1.
         -4   -1    0    0    0  501 -0.00000000000E+00 -0.00000000000E+00 -0.23356951302E+04  0.23356951302E+04  0.00000000000E+00 0. -1.
        -13    1    1    2    0    0  0.13428138214E+03  0.11324901008E+03 -0.32459637253E+03  0.36907945499E+03  0.10566000000E+00 0.  1.
         13    1    1    2    0    0  0.37452929239E+02 -0.68134788366E+02 -0.25142224386E+03  0.26316957873E+03  0.10566000000E+00 0. -1.
         -4    1    1    2    0  502 -0.17173431138E+03 -0.45114221710E+02 -0.17270093487E+04  0.17361132616E+04  0.00000000000E+00 0. -1.
</event>
<event>
 5    1  0.2569591E-005  0.5140754E+03  0.7818608E-02  0.9481445E-01
         -4   -1    0    0    0  501 -0.00000000000E+00  0.00000000000E+00  0.23170980466E+04  0.23170980466E+04  0.00000000000E+00 0. -1.
         21   -1    0    0  501  502  0.00000000000E+00 -0.00000000000E+00 -0.11638668081E+03  0.11638668081E+03  0.00000000000E+00 0.  1.
        -13    1    1    2    0    0 -0.35196037828E+03  0.28717184425E+03  0.14805302311E+04  0.15486489442E+04  0.10566000000E+00 0.  1.
         13    1    1    2    0    0  0.13208289787E+03 -0.19139808053E+03  0.52992420304E+03  0.57870440578E+03  0.10566000000E+00 0. -1.
         -4    1    1    2    0  502  0.21987748042E+03 -0.95773763725E+02  0.19025693167E+03  0.30613137745E+03  0.00000000000E+00 0. -1.
</event>
<event>
 6    1  0.2569591E-005  0.1024853E+04  0.7818608E-02  0.9130089E-01
         21   -1    0    0  501  502  0.00000000000E+00  0.00000000000E+00  0.31158977663E+03  0.31158977663E+03  0.00000000000E+00 0.  1.
          4   -1    0    0  502    0 -0.00000000000E+00 -0.00000000000E+00 -0.15461278656E+04  0.15461278656E+04  0.00000000000E+00 0.  1.
    9000010    2    1    2  501    0  0.15365844258E+03 -0.15307849225E+03 -0.60098986101E+03  0.11880704888E+04  0.10016380242E+04 0.  0.
        -13    1    3    3    0    0  0.28145107014E+03 -0.16273900725E+02  0.21267743169E+03  0.35314479444E+03  0.10566000000E+00 0.  1.
         13    1    1    2    0    0 -0.15365844258E+03  0.15307849225E+03 -0.63354822799E+03  0.66964715345E+03  0.10566000000E+00 0. -1.
          4    1    3    3  501    0 -0.12779262756E+03 -0.13680459152E+03 -0.81366729270E+03  0.83492569438E+03  0.00000000000E+00 0.  1.
</event>
<event>
 6    1  0.2569591E-005  0.1072435E+04  0.7818608E-02  0.8890954E-01
         21   -1    0    0  501  502  0.00000000000E+00  0.00000000000E+00  0.95068800399E+03  0.95068800399E+03  0.00000000000E+00 0.  1.
          4   -1    0    0  502    0 -0.00000000000E+00 -0.00000000000E+00 -0.12267050462E+04  0.12267050462E+04  0.00000000000E+00 0.  1.
    9000010    2    1    2  501    0  0.41510652204E+03 -0.27360622709E+03  0.55611941981E+03  0.12080505438E+04  0.95023340032E+03 0.  0.
        -13    1    3    3    0    0  0.38441016064E+03 -0.27059838451E+01  0.77059940568E+03  0.86116313736E+03  0.10566000000E+00 0.  1.
         13    1    1    2    0    0 -0.41510652204E+03  0.27360622709E+03 -0.83213646200E+03  0.96934250639E+03  0.10566000000E+00 0. -1.
          4    1    3    3  501    0  0.30696361398E+02 -0.27090024324E+03 -0.21447998587E+03  0.34688740642E+03  0.00000000000E+00 0.  1.
</event>
<event>
 6    1  0.2569591E-005  0.1204781E+04  0.7818608E-02  0.8780701E-01
         -4   -1    0    0    0  501 -0.00000000000E+00  0.00000000000E+00  0.29568953564E+04  0.29568953564E+04  0.00000000000E+00 0. -1.
         21   -1    0    0  501  502  0.00000000000E+00 -0.00000000000E+00 -0.26338673817E+03  0.26338673817E+03  0.00000000000E+00 0. -1.
   -9000010    2    1    2    0  502  0.45376221953E+03  0.32332295000E+03  0.17520322651E+04  0.21262914107E+04  0.10682042048E+04 0.  0.
        -13    1    1    2    0    0 -0.45376221953E+03 -0.32332295000E+03  0.94147635306E+03  0.10939906839E+04  0.10566000000E+00 0.  1.
         13    1    3    3    0    0  0.15424566036E+03 -0.38822007911E+03  0.78163146133E+03  0.88625859999E+03  0.10566000000E+00 0. -1.
         -4    1    3    3    0  502  0.29951655917E+03  0.71154302911E+03  0.97040080380E+03  0.12400328107E+04  0.00000000000E+00 0. -1.
</event>
<event>
 6    1  0.2569591E-005  0.1051494E+04  0.7818608E-02  0.8994506E-01
          4   -1    0    0  502    0 -0.00000000000E+00  0.00000000000E+00  0.81746202304E+03  0.81746202304E+03  0.00000000000E+00 0.  1.
         21   -1    0    0  501  502  0.00000000000E+00 -0.00000000000E+00 -0.59783674633E+03  0.59783674633E+03  0.00000000000E+00 0.  1.
    9000010    2    1    2  501    0  0.87859454234E+02  0.33362748321E+03  0.13550568838E+03  0.10601893530E+04  0.99328399337E+03 0.  0.
        -13    1    3    3    0    0  0.24455026326E+03 -0.26102046983E+03 -0.14288244516E+03  0.38516479750E+03  0.10566000000E+00 0.  1.
         13    1    1    2    0    0 -0.87859454234E+02 -0.33362748321E+03  0.84119588328E+02  0.35510941632E+03  0.10566000000E+00 0. -1.
          4    1    3    3  501    0 -0.15669080903E+03  0.59464795304E+03  0.27838813354E+03  0.67502455555E+03  0.00000000000E+00 0.  1.
</event>
<event>
 5    1  0.2569591E-005  0.4117875E+03  0.7818608E-02  0.9820622E-01
         -4   -1    0    0    0  501 -0.00000000000E+00  0.00000000000E+00  0.34970538860E+03  0.34970538860E+03  0.00000000000E+00 0. -1.
         21   -1    0    0  501  502  0.00000000000E+00 -0.00000000000E+00 -0.38059625370E+03  0.38059625370E+03  0.00000000000E+00 0.  1.
        -13    1    1    2    0    0 -0.18514727437E+02 -0.26712630172E+03 -0.14295466446E+03  0.30353797696E+03  0.10566000000E+00 0.  1.
         13    1    1    2    0    0  0.14201006762E+03  0.14389697968E+03  0.14555491676E+03  0.24911733184E+03  0.10566000000E+00 0. -1.
         -4    1    1    2    0  502 -0.12349534019E+03  0.12322932205E+03 -0.33491117401E+02  0.17764633350E+03  0.00000000000E+00 0. -1.
</event>
<event>
 5    1  0.2569591E-005  0.1722298E+03  0.7818608E-02  0.1090482E+00
          4   -1    0    0  502    0 -0.00000000000E+00  0.00000000000E+00  0.33192762009E+03  0.33192762009E+03  0.00000000000E+00 0.  1.
         21   -1    0    0  501  502  0.00000000000E+00 -0.00000000000E+00 -0.92683136490E+02  0.92683136490E+02  0.00000000000E+00 0. -1.
        -13    1    1    2    0    0 -0.54529699006E+02  0.72123163797E+02  0.93327613279E+02  0.12994342382E+03  0.10566000000E+00 0.  1.
         13    1    1    2    0    0  0.12562604858E+03 -0.42011723473E+02  0.33166086128E+01  0.13250622645E+03  0.10566000000E+00 0. -1.
          4    1    1    2  501    0 -0.71096349573E+02 -0.30111440324E+02  0.14260026171E+03  0.16216110631E+03  0.00000000000E+00 0.  1.
</event>
<event>
 6    1  0.2569591E-005  0.1203798E+04  0.7818608E-02  0.8737989E-01
         21   -1    0    0  501  502  0.00000000000E+00  0.00000000000E+00  0.62878886543E+03  0.62878886543E+03  0.00000000000E+00 0. -1.
         -4   -1    0    0    0  501 -0.00000000000E+00 -0.00000000000E+00 -0.17052821949E+04  0.17052821949E+04  0.00000000000E+00 0. -1.
   -9000010    2    1    2    0  502 -0.55680991723E+03 -0.37323342609E+03 -0.18384535793E+03  0.12177552956E+04  0.99989417946E+03 0.  0.
        -13    1    1    2    0    0  0.55680991723E+03  0.37323342609E+03 -0.89264797157E+03  0.11163157647E+04  0.10566000000E+00 0.  1.
         13    1    3    3    0    0  0.21097793568E+03 -0.30293032756E+03  0.12128408935E+03  0.38857214799E+03  0.10566000000E+00 0. -1.
         -4    1    3    3    0  502 -0.76778785291E+03 -0.70303098534E+02 -0.30512944728E+03  0.82918314765E+03  0.00000000000E+00 0. -1.
</event>
<event>
 6    1  0.2569591E-005  0.1175547E+04  0.7818608E-02  0.8772858E-01
         21   -1    0    0  501  502  0.00000000000E+00  0.00000000000E+00  0.71928008671E+03  0.71928008671E+03  0.00000000000E+00 0. -1.
         -4   -1    0    0    0  501 -0.00000000000E+00 -0.00000000000E+00 -0.18003739911E+04  0.18003739911E+04  0.00000000000E+00 0. -1.
   -9000010    2    1    2    0  502 -0.14402970972E+03  0.60317648311E+03  0.10602568123E+03  0.11803186647E+04  0.99867125629E+03 0.  0.
        -13    1    1    2    0    0  0.14402970972E+03 -0.60317648311E+03 -0.11871195856E+04  0.13393354131E+04  0.10566000000E+00 0.  1.
         13    1    3    3    0    0 -0.37456432463E+02  0.45392287149E+03  0.54163061710E+03  0.70768120940E+03  0.10566000000E+00 0. -1.
         -4    1    3    3    0  502 -0.10657327726E+03  0.14925361162E+03 -0.43560493587E+03  0.47263745531E+03  0.00000000000E+00 0. -1.
</event>
<event>
 6    1  0.2569591E-005  0.1276581E+04  0.7818608E-02  0.8669530E-01
         21   -1    0    0  501  502  0.00000000000E+00  0.00000000000E+00  0.62289592012E+03  0.62289592012E+03  0.00000000000E+00 0.  1.
         -4   -1    0    0    0  501 -0.00000000000E+00 -0.00000000000E+00 -0.16583142844E+04  0.16583142844E+04  0.00000000000E+00 0. -1.
   -9000010    2    1    2    0  502 -0.72177720659E+03  0.22430487122E+03 -0.63196001862E+03  0.14244408895E+04  0.10287776103E+04 0.  0.
        -13    1    1    2    0    0  0.72177720659E+03 -0.22430487122E+03 -0.40345834561E+03  0.85676931494E+03  0.10566000000E+00 0.  1.
         13    1    3    3    0    0 -0.57598634394E+03 -0.35664467650E+03 -0.32434917066E+03  0.75110457951E+03  0.10566000000E+00 0. -1.
         -4    1    3    3    0  502 -0.14579086265E+03  0.58094954772E+03 -0.30761084796E+03  0.67333631003E+03  0.00000000000E+00 0. -1.
</event>
<event>
 6    1  0.2569591E-005  0.1211413E+04  0.7818608E-02  0.8734689E-01
          4   -1    0    0  502    0 -0.00000000000E+00  0.00000000000E+00  0.10940079080E+04  0.10940079080E+04  0.00000000000E+00 0.  1.
         21   -1    0    0  501  502  0.00000000000E+00 -0.00000000000E+00 -0.81559911635E+03  0.81559911635E+03  0.00000000000E+00 0. -1.
    9000010    2    1    2  501    0 -0.14332882263E+03 -0.65157144002E+03  0.27598531995E+03  0.12424530862E+04  0.10111544302E+04 0.  0.
        -13    1    3    3    0    0  0.21263095162E+03  0.16535331872E+03  0.22314152667E+03  0.34977963590E+03  0.10566000000E+00 0.  1.
         13    1    1    2    0    0  0.14332882263E+03  0.65157144002E+03  0.24234716738E+01  0.66715393817E+03  0.10566000000E+00 0. -1.
          4    1    3    3  501    0 -0.35595977425E+03 -0.81692475873E+03  0.52843793274E+02  0.89267345026E+03  0.00000000000E+00 0.  1.
</event>
<event>
 6    1  0.2569591E-005  0.9844252E+03  0.7818608E-02  0.9477742E-01
         21   -1    0    0  501  502  0.00000000000E+00  0.00000000000E+00  0.21493717959E+03  0.21493717959E+03  0.00000000000E+00 0.  1.
          4   -1    0    0  502    0 -0.00000000000E+00 -0.00000000000E+00 -0.14376897545E+04  0.14376897545E+04  0.00000000000E+00 0.  1.
    9000010    2    1    2  501    0  0.61413236059E+02  0.22970449126E+02 -0.93566370988E+03  0.13581456024E+04  0.98223911159E+03 0.  0.
        -13    1    3    3    0    0 -0.17871230030E+03 -0.36005874756E+03 -0.10988408562E+03  0.41671922371E+03  0.10566000000E+00 0.  1.
         13    1    1    2    0    0 -0.61413236059E+02 -0.22970449126E+02 -0.28708886509E+03  0.29448133169E+03  0.10566000000E+00 0. -1.
          4    1    3    3  501    0  0.24012553636E+03  0.38302919668E+03 -0.82577962426E+03  0.94142637873E+03  0.00000000000E+00 0.  1.
</event>
<event>
 5    1  0.2569591E-005  0.6785126E+03  0.7818608E-02  0.9175404E-01
         -4   -1    0    0    0  501 -0.00000000000E+00  0.00000000000E+00  0.18245359532E+04  0.18245359532E+04  0.00000000000E+00 0. -1.
         21   -1    0    0  501  502  0.00000000000E+00 -0.00000000000E+00 -0.23315609304E+03  0.23315609304E+03  0.00000000000E+00 0.  1.
        -13    1    1    2    0    0 -0.35885471023E+03 -0.51286160006E+03  0.76523630721E+03  0.98863053812E+03  0.10566000000E+00 0.  1.
         13    1    1    2    0    0  0.33393566541E+03  0.43128476317E+03  0.81826453207E+03  0.98340044294E+03  0.10566000000E+00 0. -1.
         -4    1    1    2    0  502  0.24919044818E+02  0.81576836891E+02  0.78790208345E+01  0.85661065141E+02  0.00000000000E+00 0. -1.
</event>
<event>
 5    1  0.2569591E-005  0.1635901E+03  0.7818608E-02  0.1092323E+00
         21   -1    0    0  501  502  0.00000000000E+00  0.00000000000E+00  0.17979153273E+03  0.17979153273E+03  0.00000000000E+00 0.  1.
         -4   -1    0    0    0  501 -0.00000000000E+00 -0.00000000000E+00 -0.13981953233E+03  0.13981953233E+03  0.00000000000E+00 0. -1.
        -13    1    1    2    0    0  0.14227954213E+03  0.36710474340E+02  0.51280791012E+02  0.15563051669E+03  0.10566000000E+00 0.  1.
         13    1    1    2    0    0 -0.12433125256E+03 -0.45893047525E+02 -0.30664633977E+02  0.13603221352E+03  0.10566000000E+00 0. -1.
         -4    1    1    2    0  502 -0.17948289576E+02  0.91825731847E+01  0.19355843365E+02  0.27948334858E+02  0.00000000000E+00 0. -1.
</event>
<event>
 6    1  0.2569591E-005  0.1035694E+04  0.7818608E-02  0.9061718E-01
         21   -1    0    0  501  502  0.00000000000E+00  0.00000000000E+00  0.48414670241E+03  0.48414670241E+03  0.00000000000E+00 0. -1.
         -4   -1    0    0    0  501 -0.00000000000E+00 -0.00000000000E+00 -0.88813388337E+03  0.88813388337E+03  0.00000000000E+00 0. -1.
   -9000010    2    1    2    0  502 -0.17066704435E+03 -0.21632378016E+03 -0.32957090256E+03  0.10868668308E+04  0.99836832389E+03 0.  0.
        -13    1    1    2    0    0  0.17066704435E+03  0.21632378016E+03 -0.74416278388E+02  0.28541375500E+03  0.10566000000E+00 0.  1.
         13    1    3    3    0    0  0.54347893222E+02  0.28557289813E+03 -0.43854756942E+03  0.52614594502E+03  0.10566000000E+00 0. -1.
         -4    1    3    3    0  502 -0.22501493757E+03 -0.50189667829E+03  0.10897666686E+03  0.56072088576E+03  0.00000000000E+00 0. -1.
</event>
<event>
 6    1  0.2569591E-005  0.1040625E+04  0.7818608E-02  0.9037501E-01
         21   -1    0    0  501  502  0.00000000000E+00  0.00000000000E+00  0.49413816502E+03  0.49413816502E+03  0.00000000000E+00 0. -1.
         -4   -1    0    0    0  501 -0.00000000000E+00 -0.00000000000E+00 -0.95489706609E+03  0.95489706609E+03  0.00000000000E+00 0. -1.
   -9000010    2    1    2    0  502 -0.51085546903E+01 -0.29923864673E+03 -0.21691654637E+03  0.10629925261E+04  0.99665964969E+03 0.  0.
        -13    1    1    2    0    0  0.51085546903E+01  0.29923864673E+03 -0.24384235470E+03  0.38604270507E+03  0.10566000000E+00 0.  1.
         13    1    3    3    0    0  0.22107894107E+02 -0.99000479736E+02  0.40060440859E+03  0.41324781586E+03  0.10566000000E+00 0. -1.
         -4    1    3    3    0  502 -0.27216448797E+02 -0.20023816699E+03 -0.61752095496E+03  0.64974471019E+03  0.00000000000E+00 0. -1.
</event>
<event>
 6    1  0.2569591E-005  0.1002867E+04  0.7818608E-02  0.9351648E-01
          4   -1    0    0  502    0 -0.00000000000E+00  0.00000000000E+00  0.19311530094E+04  0.19311530094E+04  0.00000000000E+00 0.  1.
         21   -1    0    0  501  502  0.00000000000E+00 -0.00000000000E+00 -0.16193448683E+03  0.16193448683E+03  0.00000000000E+00 0.  1.
    9000010    2    1    2  501    0  0.86695960202E+02 -0.47516121249E+02  0.14828688574E+04  0.17901516727E+04  0.99798246059E+03 0.  0.
        -13    1    3    3    0    0  0.26670159794E+03 -0.22600413355E+03  0.72292960537E+02  0.35697884256E+03  0.10566000000E+00 0.  1.
         13    1    1    2    0    0 -0.86695960202E+02  0.47516121249E+02  0.28634966508E+03  0.30293582349E+03  0.10566000000E+00 0. -1.
          4    1    3    3  501    0 -0.18000563774E+03  0.17848801230E+03  0.14105758969E+04  0.14331728302E+04  0.00000000000E+00 0.  1.
</event>
<event>
 6    1  0.2569591E-005  0.1011291E+04  0.7818608E-02  0.9250141E-01
          4   -1    0    0  502    0 -0.00000000000E+00  0.00000000000E+00  0.74381024911E+03  0.74381024911E+03  0.00000000000E+00 0.  1.
         21   -1    0    0  501  502  0.00000000000E+00 -0.00000000000E+00 -0.44714236141E+03  0.44714236141E+03  0.00000000000E+00 0.  1.
    9000010    2    1    2  501    0  0.28288172803E+02 -0.13878514392E+03  0.24883898760E+03  0.10414562837E+04  0.10013235302E+04 0.  0.
        -13    1    3    3    0    0 -0.43628866833E+03  0.14914616725E+03  0.69917099235E+02  0.46634836040E+03  0.10566000000E+00 0.  1.
         13    1    1    2    0    0 -0.28288172803E+02  0.13878514392E+03  0.47828900098E+02  0.14949632685E+03  0.10566000000E+00 0. -1.
          4    1    3    3  501    0  0.46457684113E+03 -0.28793131117E+03  0.17892188836E+03  0.57510792327E+03  0.00000000000E+00 0.  1.
</event>
<event>
 6    1  0.2569591E-005  0.8184656E+03  0.7818608E-02  0.9219607E-01
          4   -1    0    0  502    0 -0.00000000000E+00  0.00000000000E+00  0.44671401611E+03  0.44671401611E+03  0.00000000000E+00 0.  1.
         21   -1    0    0  501  502  0.00000000000E+00 -0.00000000000E+00 -0.85706453980E+03  0.85706453980E+03  0.00000000000E+00 0.  1.
    9000010    2    1    2  501    0  0.28790089885E+03  0.85980917409E+02 -0.53572331112E+03  0.97820522667E+03  0.76131882526E+03 0.  0.
        -13    1    3    3    0    0  0.34557002859E+03 -0.51645166992E+02 -0.68385291001E+03  0.76794575435E+03  0.10566000000E+00 0.  1.
         13    1    1    2    0    0 -0.28790089885E+03 -0.85980917409E+02  0.12537278744E+03  0.32557332924E+03  0.10566000000E+00 0. -1.
          4    1    3    3  501    0 -0.57669129733E+02  0.13762608440E+03  0.14812959889E+03  0.21025947232E+03  0.00000000000E+00 0.  1.
</event>
<event>
 6    1  0.2569591E-005  0.1002027E+04  0.7818608E-02  0.9392458E-01
          4   -1    0    0  502    0 -0.00000000000E+00  0.00000000000E+00  0.14614784255E+04  0.14614784255E+04  0.00000000000E+00 0.  1.
         21   -1    0    0  501  502  0.00000000000E+00 -0.00000000000E+00 -0.21356411332E+03  0.21356411332E+03  0.00000000000E+00 0.  1.
    9000010    2    1    2  501    0 -0.85064769333E+02  0.29208002890E+01  0.10115928723E+04  0.14238605726E+04  0.99840585174E+03 0.  0.
        -13    1    3    3    0    0 -0.51052490046E+03 -0.85870297835E+02  0.32496940284E+03  0.61124013774E+03  0.10566000000E+00 0.  1.
         13    1    1    2    0    0  0.85064769333E+02 -0.29208002890E+01  0.23632143985E+03  0.25118196622E+03  0.10566000000E+00 0. -1.
          4    1    3    3  501    0  0.42546013113E+03  0.88791098124E+02  0.68662346949E+03  0.81262043485E+03  0.00000000000E+00 0.  1.
</event>
<event>
 6    1  0.2569591E-005  0.1306949E+04  0.7818608E-02  0.8641258E-01
         21   -1    0    0  501  502  0.00000000000E+00  0.00000000000E+00  0.70815272601E+03  0.70815272601E+03  0.00000000000E+00 0.  1.
          4   -1    0    0  502    0 -0.00000000000E+00 -0.00000000000E+00 -0.15686525452E+04  0.15686525452E+04  0.00000000000E+00 0.  1.
    9000010    2    1    2  501    0  0.55741686400E+03 -0.56980402677E+03 -0.60102729619E+03  0.14385235819E+04  0.10357249132E+04 0.  0.
        -13    1    3    3    0    0  0.34094358955E+03  0.17083205687E+03  0.10190058407E+03  0.39472758088E+03  0.10566000000E+00 0.  1.
         13    1    1    2    0    0 -0.55741686400E+03  0.56980402677E+03 -0.25947252296E+03  0.83828168925E+03  0.10566000000E+00 0. -1.
          4    1    3    3  501    0  0.21647327445E+03 -0.74063608364E+03 -0.70292788026E+03  0.10437960010E+04  0.00000000000E+00 0.  1.
</event>
<event>
 6    1  0.2569591E-005  0.1137377E+04  0.7818608E-02  0.8830420E-01
         21   -1    0    0  501  502  0.00000000000E+00  0.00000000000E+00  0.27099723576E+03  0.27099723576E+03  0.00000000000E+00 0.  1.
         -4   -1    0    0    0  501 -0.00000000000E+00 -0.00000000000E+00 -0.26629429116E+04  0.26629429116E+04  0.00000000000E+00 0. -1.
   -9000010    2    1    2    0  502 -0.52992229891E+03 -0.84770869315E+02 -0.18469856801E+04  0.21690969273E+04  0.10028068779E+04 0.  0.
        -13    1    1    2    0    0  0.52992229891E+03  0.84770869315E+02 -0.54495999578E+03  0.76484322009E+03  0.10566000000E+00 0.  1.
         13    1    3    3    0    0 -0.19419159182E+03 -0.49223718722E+03 -0.52421741999E+03  0.74485685698E+03  0.10566000000E+00 0. -1.
         -4    1    3    3    0  502 -0.33573070709E+03  0.40746631790E+03 -0.13227682601E+04  0.14242400703E+04  0.00000000000E+00 0. -1.
</event>
<event>
 6    1  0.2569591E-005  0.1089813E+04  0.7818608E-02  0.8893362E-01
         21   -1    0    0  501  502  0.00000000000E+00  0.00000000000E+00  0.52554546457E+03  0.52554546457E+03  0.00000000000E+00 0.  1.
          4   -1    0    0  502    0 -0.00000000000E+00 -0.00000000000E+00 -0.11619372410E+04  0.11619372410E+04  0.00000000000E+00 0.  1.
    9000010    2    1    2  501    0 -0.26227033539E+03 -0.38887407399E+03 -0.49974999203E+03  0.11989340768E+04  0.98370935330E+03 0.  0.
        -13    1    3    3    0    0 -0.58054345530E+03 -0.12811743005E+03 -0.61306265623E+02  0.59766482977E+03  0.10566000000E+00 0.  1.
         13    1    1    2    0    0  0.26227033539E+03  0.38887407399E+03 -0.13664178440E+03  0.48854862875E+03  0.10566000000E+00 0. -1.
          4    1    3    3  501    0  0.31827311992E+03 -0.26075664394E+03 -0.43844372641E+03  0.60126924705E+03  0.00000000000E+00 0.  1.
</event>
<event>
 6    1  0.2569591E-005  0.1062907E+04  0.7818608E-02  0.8971458E-01
         21   -1    0    0  501  502  0.00000000000E+00  0.00000000000E+00  0.17069423381E+04  0.17069423381E+04  0.00000000000E+00 0.  1.
          4   -1    0    0  502    0 -0.00000000000E+00 -0.00000000000E+00 -0.30361384351E+03  0.30361384351E+03  0.00000000000E+00 0.  1.
    9000010    2    1    2  501    0  0.99428025226E+02 -0.35305619914E+03  0.11425624477E+04  0.15605189006E+04  0.99761499599E+03 0.  0.
        -13    1    3    3    0    0 -0.23919931165E+03  0.45410305769E+02  0.98460914175E+03  0.10142650441E+04  0.10566000000E+00 0.  1.
         13    1    1    2    0    0 -0.99428025226E+02  0.35305619914E+03  0.26076604695E+03  0.45003728108E+03  0.10566000000E+00 0. -1.
          4    1    3    3  501    0  0.33862733688E+03 -0.39846650491E+03  0.15795330593E+03  0.54625385643E+03  0.00000000000E+00 0.  1.
</event>
<event>
 5    1  0.2569591E-005  0.2197607E+03  0.7818608E-02  0.1076413E+00
          4   -1    0    0  502    0 -0.00000000000E+00  0.00000000000E+00  0.86519105767E+03  0.86519105767E+03  0.00000000000E+00 0.  1.
         21   -1    0    0  501  502  0.00000000000E+00 -0.00000000000E+00 -0.20476516068E+03  0.20476516068E+03  0.00000000000E+00 0. -1.
        -13    1    1    2    0    0 -0.11779233266E+03  0.75651190508E+02  0.48314248294E+03  0.50301571172E+03  0.10566000000E+00 0.  1.
         13    1    1    2    0    0  0.94444977682E+02 -0.13295276535E+01 -0.17891802685E+03  0.20231977894E+03  0.10566000000E+00 0. -1.
          4    1    1    2  501    0  0.23347354983E+02 -0.74321662855E+02  0.35620144091E+03  0.36462072769E+03  0.00000000000E+00 0.  1.
</event>
<event>
 5    1  0.2569591E-005  0.1090777E+03  0.7818608E-02  0.1186723E+00
          4   -1    0    0  502    0 -0.00000000000E+00  0.00000000000E+00  0.33080734646E+02  0.33080734646E+02  0.00000000000E+00 0.  1.
         21   -1    0    0  501  502  0.00000000000E+00 -0.00000000000E+00 -0.24464115127E+03  0.24464115127E+03  0.00000000000E+00 0. -1.
        -13    1    1    2    0    0 -0.56392338003E+01 -0.31348251263E+02 -0.32133144228E+01  0.32013284254E+02  0.10566000000E+00 0.  1.
         13    1    1    2    0    0  0.28028644316E+02 -0.35894497737E+02 -0.14011064644E+03  0.14732625116E+03  0.10566000000E+00 0. -1.
          4    1    1    2  501    0 -0.22389410516E+02  0.67242749000E+02 -0.68236455761E+02  0.98382350506E+02  0.00000000000E+00 0.  1.
</event>
<event>
 6    1  0.2569591E-005  0.1787958E+04  0.7818608E-02  0.8299060E-01
         21   -1    0    0  501  502  0.00000000000E+00  0.00000000000E+00  0.99320614286E+03  0.99320614286E+03  0.00000000000E+00 0.  1.
         -4   -1    0    0    0  501 -0.00000000000E+00 -0.00000000000E+00 -0.28113091210E+04  0.28113091210E+04  0.00000000000E+00 0. -1.
   -9000010    2    1    2    0  502  0.13500038929E+03 -0.14817881188E+04 -0.61411036776E+03  0.18904830408E+04  0.99139974255E+03 0.  0.
        -13    1    1    2    0    0 -0.13500038929E+03  0.14817881188E+04 -0.12039926104E+04  0.19140322231E+04  0.10566000000E+00 0.  1.
         13    1    3    3    0    0  0.26304899610E+03 -0.19441613625E+03  0.17913029437E+03  0.37293442039E+03  0.10566000000E+00 0. -1.
         -4    1    3    3    0  502 -0.12804860681E+03 -0.12873719825E+04 -0.79324066213E+03  0.15175486204E+04  0.00000000000E+00 0. -1.
</event>
<event>
 6    1  0.2569591E-005  0.1019831E+04  0.7818608E-02  0.9191135E-01
         21   -1    0    0  501  502  0.00000000000E+00  0.00000000000E+00  0.21530548202E+03  0.21530548202E+03  0.00000000000E+00 0. -1.
         -4   -1    0    0    0  501 -0.00000000000E+00 -0.00000000000E+00 -0.18569428577E+04  0.18569428577E+04  0.00000000000E+00 0. -1.
   -9000010    2    1    2    0  502 -0.76380397080E+02 -0.15567576014E+03 -0.10842337322E+04  0.14884951896E+04  0.10049807143E+04 0.  0.
        -13    1    1    2    0    0  0.76380397080E+02  0.15567576014E+03 -0.55740364344E+03  0.58375315009E+03  0.10566000000E+00 0.  1.
         13    1    3    3    0    0  0.33970361833E+03 -0.50533074897E+02 -0.23514104949E+02  0.34424564523E+03  0.10566000000E+00 0. -1.
         -4    1    3    3    0  502 -0.41608401541E+03 -0.10514268524E+03 -0.10607196273E+04  0.11442495444E+04  0.00000000000E+00 0. -1.
</event>
<event>
 6    1  0.2569591E-005  0.1171653E+04  0.7818608E-02  0.8780303E-01
          4   -1    0    0  502    0 -0.00000000000E+00  0.00000000000E+00  0.50667938525E+03  0.50667938525E+03  0.00000000000E+00 0.  1.
         21   -1    0    0  501  502  0.00000000000E+00 -0.00000000000E+00 -0.15747846376E+04  0.15747846376E+04  0.00000000000E+00 0. -1.
    9000010    2    1    2  501    0 -0.39085356580E+03  0.46416153100E+03 -0.60846678744E+03  0.13202282076E+04  0.10022765347E+04 0.  0.
        -13    1    3    3    0    0  0.29310999793E+03  0.12557874455E+03  0.36571822411E+02  0.32096884791E+03  0.10566000000E+00 0.  1.
         13    1    1    2    0    0  0.39085356580E+03 -0.46416153100E+03 -0.45963846489E+03  0.76123581519E+03  0.10566000000E+00 0. -1.
          4    1    3    3  501    0 -0.68396356373E+03  0.33858278645E+03 -0.64503860985E+03  0.99925935972E+03  0.00000000000E+00 0.  1.
</event>
<event>
 5    1  0.2569591E-005  0.1680285E+03  0.7818608E-02  0.1166579E+00
         21   -1    0    0  501  502  0.00000000000E+00  0.00000000000E+00  0.42997179368E+02  0.42997179368E+02  0.00000000000E+00 0.  1.
          4   -1    0    0  502    0 -0.00000000000E+00 -0.00000000000E+00 -0.20629690172E+03  0.20629690172E+03  0.00000000000E+00 0.  1.
        -13    1    1    2    0    0 -0.23518630369E+02  0.49422683628E+02  0.56006138379E+01  0.55019139132E+02  0.10566000000E+00 0.  1.
         13    1    1    2    0    0 -0.19505551881E+02  0.47434435406E+01 -0.13549146259E+02  0.24218945872E+02  0.10566000000E+00 0. -1.
          4    1    1    2  501    0  0.43024182250E+02 -0.54166127169E+02 -0.15535118993E+03  0.17005599608E+03  0.00000000000E+00 0.  1.
</event>
<event>
 5    1  0.2569591E-005  0.2035559E+03  0.7818608E-02  0.1069225E+00
         21   -1    0    0  501  502  0.00000000000E+00  0.00000000000E+00  0.84147749111E+02  0.84147749111E+02  0.00000000000E+00 0. -1.
          4   -1    0    0  502    0 -0.00000000000E+00 -0.00000000000E+00 -0.54530702290E+03  0.54530702290E+03  0.00000000000E+00 0.  1.
        -13    1    1    2    0    0 -0.91265339293E+02 -0.11131021107E+03 -0.20853569645E+03  0.25338996251E+03  0.10566000000E+00 0.  1.
         13    1    1    2    0    0  0.83412476779E+02  0.11964366507E+03 -0.24787856040E+02  0.14794153185E+03  0.10566000000E+00 0. -1.
          4    1    1    2  501    0  0.78528625141E+01 -0.83334539981E+01 -0.22783572130E+03  0.22812327765E+03  0.00000000000E+00 0.  1.
</event>
<event>
 6    1  0.2569591E-005  0.1037570E+04  0.7818608E-02  0.9057635E-01
          4   -1    0    0  502    0 -0.00000000000E+00  0.00000000000E+00  0.72304470695E+03  0.72304470695E+03  0.00000000000E+00 0.  1.
         21   -1    0    0  501  502  0.00000000000E+00 -0.00000000000E+00 -0.64887931900E+03  0.64887931900E+03  0.00000000000E+00 0.  1.
    9000010    2    1    2  501    0  0.19377727729E+03  0.20010675082E+03 -0.10163108432E+03  0.10425355687E+04  0.99947945945E+03 0.  0.
        -13    1    3    3    0    0 -0.35548016170E+03  0.71969762492E+02 -0.27200629105E+03  0.45335772367E+03  0.10566000000E+00 0.  1.
         13    1    1    2    0    0 -0.19377727729E+03 -0.20010675082E+03  0.17579647228E+03  0.32938845721E+03  0.10566000000E+00 0. -1.
          4    1    3    3  501    0  0.54925743898E+03  0.12813698833E+03  0.17037520673E+03  0.58917784507E+03  0.00000000000E+00 0.  1.
</event>
<event>
 6    1  0.2569591E-005  0.1029045E+04  0.7818608E-02  0.9085465E-01
          4   -1    0    0  502    0 -0.00000000000E+00  0.00000000000E+00  0.18270050538E+04  0.18270050538E+04  0.00000000000E+00 0.  1.
         21   -1    0    0  501  502  0.00000000000E+00 -0.00000000000E+00 -0.24275012798E+03  0.24275012798E+03  0.00000000000E+00 0.  1.
    9000010    2    1    2  501    0  0.25348962117E+03  0.32606902403E+02  0.10132584901E+04  0.14441697448E+04  0.99680152791E+03 0.  0.
        -13    1    3    3    0    0 -0.73590309782E+02  0.67796180182E+02 -0.18024695578E+03  0.20615729910E+03  0.10566000000E+00 0.  1.
         13    1    1    2    0    0 -0.25348962117E+03 -0.32606902403E+02  0.57099643577E+03  0.62558543698E+03  0.10566000000E+00 0. -1.
          4    1    3    3  501    0  0.32707993095E+03 -0.35189277778E+02  0.11935054458E+04  0.12380124457E+04  0.00000000000E+00 0.  1.
</event>
<event>
 6    1  0.2569591E-005  0.1166492E+04  0.7818608E-02  0.8779001E-01
         21   -1    0    0  501  502  0.00000000000E+00  0.00000000000E+00  0.22006877845E+03  0.22006877845E+03  0.00000000000E+00 0. -1.
          4   -1    0    0  502    0 -0.00000000000E+00 -0.00000000000E+00 -0.37882857551E+04  0.37882857551E+04  0.00000000000E+00 0.  1.
    9000010    2    1    2  501    0 -0.35257857863E+03 -0.50793318905E+03 -0.27119513691E+04  0.29521828712E+04  0.98913886668E+03 0.  0.
        -13    1    3    3    0    0  0.21247974515E+03 -0.31040655724E+03 -0.34398545031E+03  0.50973117824E+03  0.10566000000E+00 0.  1.
         13    1    1    2    0    0  0.35257857863E+03  0.50793318905E+03 -0.85626560748E+03  0.10561716624E+04  0.10566000000E+00 0. -1.
          4    1    3    3  501    0 -0.56505832378E+03 -0.19752663180E+03 -0.23679659188E+04  0.24424516929E+04  0.00000000000E+00 0.  1.
</event>
<event>
 6    1  0.2569591E-005  0.1063564E+04  0.7818608E-02  0.8992115E-01
          4   -1    0    0  502    0 -0.00000000000E+00  0.00000000000E+00  0.17522603734E+04  0.17522603734E+04  0.00000000000E+00 0.  1.
         21   -1    0    0  501  502  0.00000000000E+00 -0.00000000000E+00 -0.32040001436E+03  0.32040001436E+03  0.00000000000E+00 0.  1.
    9000010    2    1    2  501    0 -0.13652922836E+03  0.30770672305E+03  0.71749979822E+03  0.12829549492E+04  0.10088824430E+04 0.  0.
        -13    1    3    3    0    0 -0.35292847871E+03 -0.20056295149E+03  0.38698843873E+02  0.40777643418E+03  0.10566000000E+00 0.  1.
         13    1    1    2    0    0  0.13652922836E+03 -0.30770672305E+03  0.71436056080E+03  0.78970543850E+03  0.10566000000E+00 0. -1.
          4    1    3    3  501    0  0.21639925035E+03  0.50826967454E+03  0.67880095434E+03  0.87517851506E+03  0.00000000000E+00 0.  1.
</event>
<event>
 6    1  0.2569591E-005  0.1399735E+04  0.7818608E-02  0.8547857E-01
         -4   -1    0    0    0  501 -0.00000000000E+00  0.00000000000E+00  0.32299454955E+04  0.32299454955E+04  0.00000000000E+00 0. -1.
         21   -1    0    0  501  502  0.00000000000E+00 -0.00000000000E+00 -0.76928934189E+03  0.76928934189E+03  0.00000000000E+00 0.  1.
   -9000010    2    1    2    0  502 -0.97852024200E+03 -0.85587924686E+02  0.55049136682E+02  0.14008175714E+04  0.99721226636E+03 0.  0.
        -13    1    1    2    0    0  0.97852024200E+03  0.85587924686E+02  0.24056070170E+04  0.25984172660E+04  0.10566000000E+00 0.  1.
         13    1    3    3    0    0 -0.41589225956E+02 -0.39232153171E+03  0.12125839199E+03  0.41273412356E+03  0.10566000000E+00 0. -1.
         -4    1    3    3    0  502 -0.93693101605E+03  0.30673360702E+03 -0.66209255305E+02  0.98808344789E+03  0.00000000000E+00 0. -1.
</event>
<event>
 6    1  0.2569591E-005  0.1044884E+04  0.7818608E-02  0.9091229E-01
          4   -1    0    0  502    0 -0.00000000000E+00  0.00000000000E+00  0.11538338533E+04  0.11538338533E+04  0.00000000000E+00 0.  1.
         21   -1    0    0  501  502  0.00000000000E+00 -0.00000000000E+00 -0.39336693457E+03  0.39336693457E+03  0.00000000000E+00 0.  1.
    9000010    2    1    2  501    0 -0.16763164044E+03  0.16980653138E+03  0.40832940218E+03  0.11218356897E+04  0.10172746871E+04 0.  0.
        -13    1    3    3    0    0 -0.23873348488E+03 -0.11719471617E+03 -0.27176772298E+03  0.38024463799E+03  0.10566000000E+00 0.  1.
         13    1    1    2    0    0  0.16763164044E+03 -0.16980653138E+03  0.35213751654E+03  0.42536509811E+03  0.10566000000E+00 0. -1.
          4    1    3    3  501    0  0.71101844443E+02  0.28700124755E+03  0.68009712516E+03  0.74159105175E+03  0.00000000000E+00 0.  1.
</event>
<event>
 5    1  0.2569591E-005  0.3687376E+03  0.7818608E-02  0.9866722E-01
         21   -1    0    0  501  502  0.00000000000E+00  0.00000000000E+00  0.10680205203E+03  0.10680205203E+03  0.00000000000E+00 0. -1.
          4   -1    0    0  502    0 -0.00000000000E+00 -0.00000000000E+00 -0.15765062961E+04  0.15765062961E+04  0.00000000000E+00 0.  1.
        -13    1    1    2    0    0  0.98333244700E+02  0.17630682564E+03 -0.10163426214E+04  0.10361977895E+04  0.10566000000E+00 0.  1.
         13    1    1    2    0    0 -0.10296639808E+03 -0.30199019509E+03 -0.23927293292E+03  0.39881286923E+03  0.10566000000E+00 0. -1.
          4    1    1    2  501    0  0.46331533829E+01  0.12568336946E+03 -0.21408868975E+03  0.24829768937E+03  0.00000000000E+00 0.  1.
</event>
<event>
 6    1  0.2569591E-005  0.1401197E+04  0.7818608E-02  0.8547589E-01
         21   -1    0    0  501  502  0.00000000000E+00  0.00000000000E+00  0.72671202693E+03  0.72671202693E+03  0.00000000000E+00 0. -1.
          4   -1    0    0  502    0 -0.00000000000E+00 -0.00000000000E+00 -0.26547138851E+04  0.26547138851E+04  0.00000000000E+00 0.  1.
    9000010    2    1    2  501    0 -0.95486208452E+03  0.22215269065E+03 -0.19495162137E+04  0.24008259442E+04  0.10011185385E+04 0.  0.
        -13    1    3    3    0    0 -0.50166098408E+03 -0.37466462868E+03 -0.11184631997E+04  0.12817945495E+04  0.10566000000E+00 0.  1.
         13    1    1    2    0    0  0.95486208452E+03 -0.22215269065E+03  0.21514355499E+02  0.98059996791E+03  0.10566000000E+00 0. -1.
          4    1    3    3  501    0 -0.45320110044E+03  0.59681731933E+03 -0.83105301404E+03  0.11190313947E+04  0.00000000000E+00 0.  1.
</event>
<event>
 5    1  0.2569591E-005  0.7623701E+03  0.7818608E-02  0.9208613E-01
          4   -1    0    0  502    0 -0.00000000000E+00  0.00000000000E+00  0.44386965206E+03  0.44386965206E+03  0.00000000000E+00 0.  1.
         21   -1    0    0  501  502  0.00000000000E+00 -0.00000000000E+00 -0.77172479553E+03  0.77172479553E+03  0.00000000000E+00 0.  1.
        -13    1    1    2    0    0 -0.50959653910E+03 -0.19809784498E+03 -0.21576433042E+03  0.58778027042E+03  0.10566000000E+00 0.  1.
         13    1    1    2    0    0  0.30000536588E+03  0.24591943063E+03 -0.57184832321E+01  0.38795914492E+03  0.10566000000E+00 0. -1.
          4    1    1    2  501    0  0.20959117322E+03 -0.47821585649E+02 -0.10637232982E+03  0.23985503225E+03  0.00000000000E+00 0.  1.
</event>
<event>
 6    1  0.2569591E-005  0.1173390E+04  0.7818608E-02  0.8764894E-01
         -4   -1    0    0    0  501 -0.00000000000E+00  0.00000000000E+00  0.18963777687E+04  0.18963777687E+04  0.00000000000E+00 0. -1.
         21   -1    0    0  501  502  0.00000000000E+00 -0.00000000000E+00 -0.43705208734E+03  0.43705208734E+03  0.00000000000E+00 0. -1.
   -9000010    2    1    2    0  502  0.50983795752E+03 -0.39523520423E+03  0.88496015719E+03  0.14696929886E+04  0.98015171857E+03 0.  0.
        -13    1    1    2    0    0 -0.50983795752E+03  0.39523520423E+03  0.57436552413E+03  0.86373686737E+03  0.10566000000E+00 0.  1.
         13    1    3    3    0    0  0.56542451939E+03 -0.59944547651E+03  0.35166931062E+03  0.89594144989E+03  0.10566000000E+00 0. -1.
         -4    1    3    3    0  502 -0.55586561875E+02  0.20421027228E+03  0.53329084656E+03  0.57375153873E+03  0.00000000000E+00 0. -1.
</event>
<event>
 6    1  0.2569591E-005  0.1092793E+04  0.7818608E-02  0.8874002E-01
         -4   -1    0    0    0  501 -0.00000000000E+00  0.00000000000E+00  0.23485389904E+04  0.23485389904E+04  0.00000000000E+00 0. -1.
         21   -1    0    0  501  502  0.00000000000E+00 -0.00000000000E+00 -0.27299713148E+03  0.27299713148E+03  0.00000000000E+00 0.  1.
   -9000010    2    1    2    0  502 -0.39503219279E+03 -0.31330578799E+03  0.13273972179E+04  0.17193546739E+04  0.96952883932E+03 0.  0.
        -13    1    1    2    0    0  0.39503219279E+03  0.31330578799E+03  0.74814464099E+03  0.90218144801E+03  0.10566000000E+00 0.  1.
         13    1    3    3    0    0 -0.14627454116E+03 -0.25091082015E+03 -0.69890382478E+02  0.29872589072E+03  0.10566000000E+00 0. -1.
         -4    1    3    3    0  502 -0.24875765163E+03 -0.62394967838E+02  0.13972876004E+04  0.14206287832E+04  0.00000000000E+00 0. -1.
</event>
<event>
 6    1  0.2569591E-005  0.1689173E+04  0.7818608E-02  0.8352689E-01
         21   -1    0    0  501  502  0.00000000000E+00  0.00000000000E+00  0.13832258541E+04  0.13832258541E+04  0.00000000000E+00 0.  1.
         -4   -1    0    0    0  501 -0.00000000000E+00 -0.00000000000E+00 -0.18114122955E+04  0.18114122955E+04  0.00000000000E+00 0. -1.
   -9000010    2    1    2    0  502 -0.39397298929E+02 -0.13686370808E+04  0.17548286086E+03  0.16982637833E+04  0.98923507673E+03 0.  0.
        -13    1    1    2    0    0  0.39397298929E+02  0.13686370808E+04 -0.60366930228E+03  0.14963743662E+04  0.10566000000E+00 0.  1.
         13    1    3    3    0    0 -0.26018084406E+03 -0.26457744874E+03  0.40489221047E+03  0.54921126287E+03  0.10566000000E+00 0. -1.
         -4    1    3    3    0  502  0.22078354513E+03 -0.11040596321E+04 -0.22940934961E+03  0.11490525204E+04  0.00000000000E+00 0. -1.
</event>
<event>
 6    1  0.2569591E-005  0.1112537E+04  0.7818608E-02  0.8876855E-01
          4   -1    0    0  502    0 -0.00000000000E+00  0.00000000000E+00  0.18432856068E+04  0.18432856068E+04  0.00000000000E+00 0.  1.
         21   -1    0    0  501  502  0.00000000000E+00 -0.00000000000E+00 -0.34153918774E+03  0.34153918774E+03  0.00000000000E+00 0.  1.
    9000010    2    1    2  501    0  0.33482750217E+03  0.33293757746E+03  0.10012189636E+04  0.14967225990E+04  0.10073640050E+04 0.  0.
        -13    1    3    3    0    0  0.29934505955E+02 -0.22519740080E+03 -0.81232126133E+02  0.24126461293E+03  0.10566000000E+00 0.  1.
         13    1    1    2    0    0 -0.33482750217E+03 -0.33293757746E+03  0.50052745554E+03  0.68810219561E+03  0.10566000000E+00 0. -1.
          4    1    3    3  501    0  0.30489299622E+03  0.55813497826E+03  0.10824510897E+04  0.12554579860E+04  0.00000000000E+00 0.  1.
</event>
<event>
 6    1  0.2569591E-005  0.1066966E+04  0.7818608E-02  0.8957285E-01
          4   -1    0    0  502    0 -0.00000000000E+00  0.00000000000E+00  0.15321833915E+04  0.15321833915E+04  0.00000000000E+00 0.  1.
         21   -1    0    0  501  502  0.00000000000E+00 -0.00000000000E+00 -0.36139612659E+03  0.36139612659E+03  0.00000000000E+00 0.  1.
    9000010    2    1    2  501    0 -0.38307550206E+03  0.29409261262E+02  0.66062681412E+03  0.12549282504E+04  0.99539207416E+03 0.  0.
        -13    1    3    3    0    0 -0.52028549156E+03  0.14957568912E+03 -0.28464904560E+02  0.54210713098E+03  0.10566000000E+00 0.  1.
         13    1    1    2    0    0  0.38307550206E+03 -0.29409261262E+02  0.51016045075E+03  0.63865126760E+03  0.10566000000E+00 0. -1.
          4    1    3    3  501    0  0.13720998950E+03 -0.12016642786E+03  0.68909171868E+03  0.71282111946E+03  0.00000000000E+00 0.  1.
</event>
<event>
 6    1  0.2569591E-005  0.1051170E+04  0.7818608E-02  0.9018105E-01
          4   -1    0    0  502    0 -0.00000000000E+00  0.00000000000E+00  0.27332368909E+04  0.27332368909E+04  0.00000000000E+00 0.  1.
         21   -1    0    0  501  502  0.00000000000E+00 -0.00000000000E+00 -0.29828645809E+03  0.29828645809E+03  0.00000000000E+00 0.  1.
    9000010    2    1    2  501    0  0.17851832558E+02 -0.31340760719E+03  0.68734076342E+03  0.12559438425E+04  0.10032021702E+04 0.  0.
        -13    1    3    3    0    0  0.17941982839E+03 -0.26059977267E+03 -0.18546272452E+03  0.36674262049E+03  0.10566000000E+00 0.  1.
         13    1    1    2    0    0 -0.17851832558E+02  0.31340760719E+03  0.17476096694E+04  0.17755795065E+04  0.10566000000E+00 0. -1.
          4    1    3    3  501    0 -0.16156799583E+03 -0.52807834522E+02  0.87280348795E+03  0.88920122202E+03  0.00000000000E+00 0.  1.
</event>
<event>
 6    1  0.2569591E-005  0.1092121E+04  0.7818608E-02  0.8846550E-01
          4   -1    0    0  502    0 -0.00000000000E+00  0.00000000000E+00  0.57425059262E+03  0.57425059262E+03  0.00000000000E+00 0.  1.
         21   -1    0    0  501  502  0.00000000000E+00 -0.00000000000E+00 -0.12059804445E+04  0.12059804445E+04  0.00000000000E+00 0.  1.
    9000010    2    1    2  501    0 -0.37578613665E+03  0.42391337006E+03 -0.48545432976E+03  0.11951547128E+04  0.93370826030E+03 0.  0.
        -13    1    3    3    0    0  0.53228567134E+02  0.37428665561E+03 -0.63424225176E+03  0.73836781214E+03  0.10566000000E+00 0.  1.
         13    1    1    2    0    0  0.37578613665E+03 -0.42391337006E+03 -0.14627552214E+03  0.58507632439E+03  0.10566000000E+00 0. -1.
          4    1    3    3  501    0 -0.42901470378E+03  0.49626714451E+02  0.14878792200E+03  0.45678690062E+03  0.00000000000E+00 0.  1.
</event>
<event>
 5    1  0.2569591E-005  0.5111382E+03  0.7818608E-02  0.9837114E-01
         -4   -1    0    0    0  501 -0.00000000000E+00  0.00000000000E+00  0.34739817799E+03  0.34739817799E+03  0.00000000000E+00 0. -1.
         21   -1    0    0  501  502  0.00000000000E+00 -0.00000000000E+00 -0.33262488029E+03  0.33262488029E+03  0.00000000000E+00 0. -1.
        -13    1    1    2    0    0  0.12914591053E+03  0.29124901659E+02  0.94564970002E+02  0.16269440931E+03  0.10566000000E+00 0.  1.
         13    1    1    2    0    0 -0.27675160883E+03  0.40154572280E+01 -0.18512940786E+03  0.33298721552E+03  0.10566000000E+00 0. -1.
         -4    1    1    2    0  502  0.14760569829E+03 -0.33140358887E+02  0.10533773555E+03  0.18434143345E+03  0.00000000000E+00 0. -1.
</event>
<event>
 5    1  0.2569591E-005  0.3358653E+03  0.7818608E-02  0.9954263E-01
         -4   -1    0    0    0  501 -0.00000000000E+00  0.00000000000E+00  0.37273984691E+03  0.37273984691E+03  0.00000000000E+00 0. -1.
         21   -1    0    0  501  502  0.00000000000E+00 -0.00000000000E+00 -0.28433306015E+03  0.28433306015E+03  0.00000000000E+00 0.  1.
        -13    1    1    2    0    0  0.31988090992E+02 -0.31359318155E+03  0.44840297222E+02  0.31839375763E+03  0.10566000000E+00 0.  1.
         13    1    1    2    0    0 -0.56760751762E+02  0.22854353279E+03 -0.90255286809E+01  0.23565950151E+03  0.10566000000E+00 0. -1.
         -4    1    1    2    0  502  0.24772660770E+02  0.85049648762E+02  0.52592018216E+02  0.10301964791E+03  0.00000000000E+00 0. -1.
</event>
<event>
 6    1  0.2569591E-005  0.1401553E+04  0.7818608E-02  0.8548981E-01
         -4   -1    0    0    0  501 -0.00000000000E+00  0.00000000000E+00  0.14528899551E+04  0.14528899551E+04  0.00000000000E+00 0. -1.
         21   -1    0    0  501  502  0.00000000000E+00 -0.00000000000E+00 -0.16772665752E+04  0.16772665752E+04  0.00000000000E+00 0.  1.
   -9000010    2    1    2    0  502  0.67660466909E+03  0.69996027056E+03 -0.11301436415E+04  0.18004377004E+04  0.10082722866E+04 0.  0.
        -13    1    1    2    0    0 -0.67660466909E+03 -0.69996027056E+03  0.90576702139E+03  0.13297188300E+04  0.10566000000E+00 0.  1.
         13    1    3    3    0    0  0.94145616916E+02  0.63759914039E+03 -0.10166860528E+04  0.12037635159E+04  0.10566000000E+00 0. -1.
         -4    1    3    3    0  502  0.58245905217E+03  0.62361130175E+02 -0.11345758872E+03  0.59667418450E+03  0.00000000000E+00 0. -1.
</event>
<event>
 6    1  0.2569591E-005  0.1104412E+04  0.7818608E-02  0.8882840E-01
          4   -1    0    0  502    0 -0.00000000000E+00  0.00000000000E+00  0.41557741378E+03  0.41557741378E+03  0.00000000000E+00 0.  1.
         21   -1    0    0  501  502  0.00000000000E+00 -0.00000000000E+00 -0.15057225979E+04  0.15057225979E+04  0.00000000000E+00 0.  1.
    9000010    2    1    2  501    0 -0.28010852321E+03  0.37842678209E+03 -0.84425835413E+03  0.13901428236E+04  0.99902817136E+03 0.  0.
        -13    1    3    3    0    0  0.89887253875E+02 -0.23195835588E+03  0.41905417200E+02  0.25227063330E+03  0.10566000000E+00 0.  1.
         13    1    1    2    0    0  0.28010852321E+03 -0.37842678209E+03 -0.24588682999E+03  0.53115718813E+03  0.10566000000E+00 0. -1.
          4    1    3    3  501    0 -0.36999577709E+03  0.61038513797E+03 -0.88616377133E+03  0.11378721902E+04  0.00000000000E+00 0.  1.
</event>
<event>
 6    1  0.2569591E-005  0.1018979E+04  0.7818608E-02  0.9394890E-01
         21   -1    0    0  501  502  0.00000000000E+00  0.00000000000E+00  0.23188429062E+03  0.23188429062E+03  0.00000000000E+00 0. -1.
         -4   -1    0    0    0  501 -0.00000000000E+00 -0.00000000000E+00 -0.14757643121E+04  0.14757643121E+04  0.00000000000E+00 0. -1.
   -9000010    2    1    2    0  502  0.72093429030E+02  0.35158408450E+02 -0.91623945358E+03  0.13703328321E+04  0.10158167937E+04 0.  0.
        -13    1    1    2    0    0 -0.72093429030E+02 -0.35158408450E+02 -0.32764056792E+03  0.33731577062E+03  0.10566000000E+00 0.  1.
         13    1    3    3    0    0 -0.42700781207E+03 -0.65059884745E+02 -0.16397867145E+03  0.46201458421E+03  0.10566000000E+00 0. -1.
         -4    1    3    3    0  502  0.49910124110E+03  0.10021829319E+03 -0.75226078212E+03  0.90831824790E+03  0.00000000000E+00 0. -1.
</event>
<event>
 5    1  0.2569591E-005  0.1228522E+03  0.7818608E-02  0.1139719E+00
          4   -1    0    0  502    0 -0.00000000000E+00  0.00000000000E+00  0.55673812715E+02  0.55673812715E+02  0.00000000000E+00 0.  1.
         21   -1    0    0  501  502  0.00000000000E+00 -0.00000000000E+00 -0.25881156436E+03  0.25881156436E+03  0.00000000000E+00 0. -1.
        -13    1    1    2    0    0 -0.78786107079E+02 -0.72085319451E+02 -0.57227702342E+02  0.12115512795E+03  0.10566000000E+00 0.  1.
         13    1    1    2    0    0  0.67900631252E+02  0.72857889379E+02 -0.15131742823E+03  0.18115116069E+03  0.10566000000E+00 0. -1.
          4    1    1    2  501    0  0.10885475828E+02 -0.77256992798E+00  0.54073789265E+01  0.12179088437E+02  0.00000000000E+00 0.  1.
</event>
<event>
 6    1  0.2569591E-005  0.1042029E+04  0.7818608E-02  0.9116320E-01
         21   -1    0    0  501  502  0.00000000000E+00  0.00000000000E+00  0.27462565603E+03  0.27462565603E+03  0.00000000000E+00 0.  1.
          4   -1    0    0  502    0 -0.00000000000E+00 -0.00000000000E+00 -0.14504064315E+04  0.14504064315E+04  0.00000000000E+00 0.  1.
    9000010    2    1    2  501    0 -0.21754818906E+03  0.11416091451E+02 -0.93098138427E+03  0.13973366576E+04  0.10190023823E+04 0.  0.
        -13    1    3    3    0    0 -0.26403851124E+03 -0.73078226983E+02  0.14981102284E+03  0.31225008632E+03  0.10566000000E+00 0.  1.
         13    1    1    2    0    0  0.21754818906E+03 -0.11416091451E+02 -0.24479939120E+03  0.32769542994E+03  0.10566000000E+00 0. -1.
          4    1    3    3  501    0  0.46490322183E+02  0.84494318434E+02 -0.10807924071E+04  0.10850865713E+04  0.00000000000E+00 0.  1.
</event>
<event>
 6    1  0.2569591E-005  0.1050573E+04  0.7818608E-02  0.9005666E-01
          4   -1    0    0  502    0 -0.00000000000E+00  0.00000000000E+00  0.10525785616E+04  0.10525785616E+04  0.00000000000E+00 0.  1.
         21   -1    0    0  501  502  0.00000000000E+00 -0.00000000000E+00 -0.50292267829E+03  0.50292267829E+03  0.00000000000E+00 0. -1.
    9000010    2    1    2  501    0  0.27000313943E+03 -0.19083705843E+03  0.61660182649E+03  0.12181553511E+04  0.99718813112E+03 0.  0.
        -13    1    3    3    0    0  0.26245183819E+03 -0.48855496195E+03  0.24209119072E+02  0.55511531309E+03  0.10566000000E+00 0.  1.
         13    1    1    2    0    0 -0.27000313943E+03  0.19083705843E+03 -0.66945943215E+02  0.33734588874E+03  0.10566000000E+00 0. -1.
          4    1    3    3  501    0  0.75513012388E+01  0.29771790352E+03  0.59239270742E+03  0.66304003803E+03  0.00000000000E+00 0.  1.
</event>
<event>
 5    1  0.2569591E-005  0.7192059E+03  0.7818608E-02  0.9434595E-01
          4   -1    0    0  502    0 -0.00000000000E+00  0.00000000000E+00  0.19819179424E+04  0.19819179424E+04  0.00000000000E+00 0.  1.
         21   -1    0    0  501  502  0.00000000000E+00 -0.00000000000E+00 -0.14812246710E+03  0.14812246710E+03  0.00000000000E+00 0.  1.
        -13    1    1    2    0    0 -0.17597065097E+02  0.22316078248E+02 -0.12962412243E+03  0.13270300799E+03  0.10566000000E+00 0.  1.
         13    1    1    2    0    0  0.15565787989E+03 -0.12069116316E+03  0.10416542858E+04  0.10601129161E+04  0.10566000000E+00 0. -1.
          4    1    1    2  501    0 -0.13806081480E+03  0.98375084915E+02  0.92176531185E+03  0.93722448541E+03  0.00000000000E+00 0.  1.
</event>
<event>
 5    1  0.2569591E-005  0.8052821E+02  0.7818608E-02  0.1210264E+00
         21   -1    0    0  501  502  0.00000000000E+00  0.00000000000E+00  0.31683278726E+03  0.31683278726E+03  0.00000000000E+00 0. -1.
          4   -1    0    0  502    0 -0.00000000000E+00 -0.00000000000E+00 -0.19029386983E+02  0.19029386983E+02  0.00000000000E+00 0.  1.
        -13    1    1    2    0    0  0.44837943575E+01  0.33561380815E+02  0.17586055656E+03  0.17909052798E+03  0.10566000000E+00 0.  1.
         13    1    1    2    0    0 -0.50662829295E+01 -0.65939451936E+02  0.80894003472E+02  0.10448698247E+03  0.10566000000E+00 0. -1.
          4    1    1    2  501    0  0.58248857201E+00  0.32378071122E+02  0.41048840248E+02  0.52284663795E+02  0.00000000000E+00 0.  1.
</event>
<event>
 6    1  0.2569591E-005  0.9144871E+03  0.7818608E-02  0.9292316E-01
         21   -1    0    0  501  502  0.00000000000E+00  0.00000000000E+00  0.17637436614E+03  0.17637436614E+03  0.00000000000E+00 0. -1.
         -4   -1    0    0    0  501 -0.00000000000E+00 -0.00000000000E+00 -0.16672256237E+04  0.16672256237E+04  0.00000000000E+00 0. -1.
   -9000010    2    1    2    0  502 -0.13840249961E+03 -0.86266320531E+02 -0.11833502821E+04  0.14955281710E+04  0.89982747807E+03 0.  0.
        -13    1    1    2    0    0  0.13840249961E+03  0.86266320531E+02 -0.30750097545E+03  0.34807181877E+03  0.10566000000E+00 0.  1.
         13    1    3    3    0    0 -0.36006508787E+03 -0.12620664968E+03 -0.10756164367E+03  0.39641456113E+03  0.10566000000E+00 0. -1.
         -4    1    3    3    0  502  0.22166258826E+03  0.39940329154E+02 -0.10757886384E+04  0.10991136099E+04  0.00000000000E+00 0. -1.
</event>
<event>
 6    1  0.2569591E-005  0.1055141E+04  0.7818608E-02  0.8996060E-01
         21   -1    0    0  501  502  0.00000000000E+00  0.00000000000E+00  0.24188577281E+03  0.24188577281E+03  0.00000000000E+00 0. -1.
         -4   -1    0    0    0  501 -0.00000000000E+00 -0.00000000000E+00 -0.20097258705E+04  0.20097258705E+04  0.00000000000E+00 0. -1.
   -9000010    2    1    2    0  502 -0.25233153563E+03  0.22682523527E+03 -0.13423715523E+04  0.17074201462E+04  0.99910023523E+03 0.  0.
        -13    1    1    2    0    0  0.25233153563E+03 -0.22682523527E+03 -0.42546854538E+03  0.54419149708E+03  0.10566000000E+00 0.  1.
         13    1    3    3    0    0  0.21206862176E+03  0.27453044446E+02  0.55559754733E+02  0.22093815310E+03  0.10566000000E+00 0. -1.
         -4    1    3    3    0  502 -0.46440015739E+03  0.19937219082E+03 -0.13979313070E+04  0.14864819931E+04  0.00000000000E+00 0. -1.
</event>
<event>
 6    1  0.2569591E-005  0.1062066E+04  0.7818608E-02  0.8959308E-01
         -4   -1    0    0    0  501 -0.00000000000E+00  0.00000000000E+00  0.82927617383E+03  0.82927617383E+03  0.00000000000E+00 0. -1.
         21   -1    0    0  501  502  0.00000000000E+00 -0.00000000000E+00 -0.63247080804E+03  0.63247080804E+03  0.00000000000E+00 0. -1.
   -9000010    2    1    2    0  502 -0.37937567224E+03 -0.73019999469E+02  0.13994715522E+03  0.10712464207E+04  0.98930574980E+03 0.  0.
        -13    1    1    2    0    0  0.37937567224E+03  0.73019999469E+02  0.56858210560E+02  0.39050056118E+03  0.10566000000E+00 0.  1.
         13    1    3    3    0    0 -0.74623821262E+02  0.36930209565E+03 -0.20886193129E+03  0.43078541069E+03  0.10566000000E+00 0. -1.
         -4    1    3    3    0  502 -0.30475185097E+03 -0.44232209512E+03  0.34880908652E+03  0.64046101001E+03  0.00000000000E+00 0. -1.
</event>
<event>
 5    1  0.2569591E-005  0.1393423E+03  0.7818608E-02  0.1115069E+00
         -4   -1    0    0    0  501 -0.00000000000E+00  0.00000000000E+00  0.16563178981E+03  0.16563178981E+03  0.00000000000E+00 0. -1.
         21   -1    0    0  501  502  0.00000000000E+00 -0.00000000000E+00 -0.12371739279E+03  0.12371739279E+03  0.00000000000E+00 0.  1.
        -13    1    1    2    0    0 -0.33747778596E+02 -0.12442138709E+03  0.70749376686E+02  0.14705468232E+03  0.10566000000E+00 0.  1.
         13    1    1    2    0    0  0.18857162645E+02  0.12035257527E+03 -0.17341453278E+02  0.12304906388E+03  0.10566000000E+00 0. -1.
         -4    1    1    2    0  502  0.14890615951E+02  0.40688118252E+01 -0.11493526389E+02  0.19245436392E+02  0.00000000000E+00 0. -1.
</event>
<event>
 6    1  0.2569591E-005  0.1055980E+04  0.7818608E-02  0.8968304E-01
          4   -1    0    0  502    0 -0.00000000000E+00  0.00000000000E+00  0.16069320133E+04  0.16069320133E+04  0.00000000000E+00 0.  1.
         21   -1    0    0  501  502  0.00000000000E+00 -0.00000000000E+00 -0.37351805071E+03  0.37351805071E+03  0.00000000000E+00 0.  1.
    9000010    2    1    2  501    0  0.32963537216E+03  0.18681615640E+03  0.53009317078E+03  0.11815633998E+04  0.98566401132E+03 0.  0.
        -13    1    3    3    0    0 -0.21470905910E+03  0.36062035150E+03  0.27556765223E+02  0.42060243039E+03  0.10566000000E+00 0.  1.
         13    1    1    2    0    0 -0.32963537216E+03 -0.18681615640E+03  0.70332079179E+03  0.79888666418E+03  0.10566000000E+00 0. -1.
          4    1    3    3  501    0  0.54434443126E+03 -0.17380419510E+03  0.50253640556E+03  0.76096096943E+03  0.00000000000E+00 0.  1.
</event>
<event>
 6    1  0.2569591E-005  0.8792071E+03  0.7818608E-02  0.9248668E-01
          4   -1    0    0  502    0 -0.00000000000E+00  0.00000000000E+00  0.83665957747E+03  0.83665957747E+03  0.00000000000E+00 0.  1.
         21   -1    0    0  501  502  0.00000000000E+00 -0.00000000000E+00 -0.51744592882E+03  0.51744592882E+03  0.00000000000E+00 0.  1.
    9000010    2    1    2  501    0  0.10096671096E+03 -0.19181498675E+03 -0.97287512106E+02  0.88457329873E+03  0.85206677846E+03 0.  0.
        -13    1    3    3    0    0 -0.28675539625E+03 -0.20713162747E+03 -0.28430649401E+03  0.45383076369E+03  0.10566000000E+00 0.  1.
         13    1    1    2    0    0 -0.10096671096E+03  0.19181498675E+03  0.41650116076E+03  0.46953220756E+03  0.10566000000E+00 0. -1.
          4    1    3    3  501    0  0.38772210721E+03  0.15316640719E+02  0.18701898190E+03  0.43074253504E+03  0.00000000000E+00 0.  1.
</event>
<event>
 5    1  0.2569591E-005  0.8182936E+02  0.7818608E-02  0.1207984E+00
         21   -1    0    0  501  502  0.00000000000E+00  0.00000000000E+00  0.20968028794E+03  0.20968028794E+03  0.00000000000E+00 0.  1.
         -4   -1    0    0    0  501 -0.00000000000E+00 -0.00000000000E+00 -0.95143314143E+02  0.95143314143E+02  0.00000000000E+00 0. -1.
        -13    1    1    2    0    0  0.32698832339E+02  0.57716918281E+02  0.18519034225E+03  0.19671281178E+03  0.10566000000E+00 0.  1.
         13    1    1    2    0    0 -0.11116614211E+02 -0.57786727557E+02 -0.42272563632E+02  0.72455957611E+02  0.10566000000E+00 0. -1.
         -4    1    1    2    0  502 -0.21582218128E+02  0.69809276306E-01 -0.28380804814E+02  0.35654832696E+02  0.00000000000E+00 0. -1.
</event>
<event>
 5    1  0.2569591E-005  0.1407377E+03  0.7818608E-02  0.1119077E+00
         -4   -1    0    0    0  501 -0.00000000000E+00  0.00000000000E+00  0.52709516613E+02  0.52709516613E+02  0.00000000000E+00 0. -1.
         21   -1    0    0  501  502  0.00000000000E+00 -0.00000000000E+00 -0.32225747329E+03  0.32225747329E+03  0.00000000000E+00 0.  1.
        -13    1    1    2    0    0 -0.47154183212E+02 -0.10226997105E+03 -0.16446165545E+03  0.19932463784E+03  0.10566000000E+00 0.  1.
         13    1    1    2    0    0  0.66652352701E+02  0.70110138888E+02 -0.97360392571E+02  0.13724804152E+03  0.10566000000E+00 0. -1.
         -4    1    1    2    0  502 -0.19498169489E+02  0.32159832158E+02 -0.77259086608E+01  0.38394310549E+02  0.00000000000E+00 0. -1.
</event>
<event>
 6    1  0.2569591E-005  0.9869823E+03  0.7818608E-02  0.9127045E-01
          4   -1    0    0  502    0 -0.00000000000E+00  0.00000000000E+00  0.22140193931E+04  0.22140193931E+04  0.00000000000E+00 0.  1.
         21   -1    0    0  501  502  0.00000000000E+00 -0.00000000000E+00 -0.24251966432E+03  0.24251966432E+03  0.00000000000E+00 0.  1.
    9000010    2    1    2  501    0 -0.17122684978E+03  0.17629177531E+03  0.19781352092E+04  0.22106905983E+04  0.95589570103E+03 0.  0.
        -13    1    3    3    0    0 -0.43342492804E+03  0.43757370846E+03  0.11886466294E+04  0.13387340062E+04  0.10566000000E+00 0.  1.
         13    1    1    2    0    0  0.17122684978E+03 -0.17629177531E+03 -0.66354803826E+01  0.24584845920E+03  0.10566000000E+00 0. -1.
          4    1    3    3  501    0  0.26219807825E+03 -0.26128193315E+03  0.78948857976E+03  0.87195659204E+03  0.00000000000E+00 0.  1.
</event>
<event>
 6    1  0.2569591E-005  0.1090482E+04  0.7818608E-02  0.8917471E-01
         21   -1    0    0  501  502  0.00000000000E+00  0.00000000000E+00  0.32927355390E+03  0.32927355390E+03  0.00000000000E+00 0.  1.
          4   -1    0    0  502    0 -0.00000000000E+00 -0.00000000000E+00 -0.18180060473E+04  0.18180060473E+04  0.00000000000E+00 0.  1.
    9000010    2    1    2  501    0  0.42376755991E+03 -0.15762845105E+01 -0.12577100503E+04  0.16646277495E+04  0.10047733797E+04 0.  0.
        -13    1    3    3    0    0  0.51548256714E+03 -0.31798529131E+03 -0.11796826977E+04  0.13260800131E+04  0.10566000000E+00 0.  1.
         13    1    1    2    0    0 -0.42376755991E+03  0.15762845105E+01 -0.23102244314E+03  0.48265185165E+03  0.10566000000E+00 0. -1.
          4    1    3    3  501    0 -0.91715007230E+02  0.31640900680E+03 -0.78027352510E+02  0.33854773648E+03  0.00000000000E+00 0.  1.
</event>
<event>
 5    1  0.2569591E-005  0.3766666E+03  0.7818608E-02  0.9884142E-01
          4   -1    0    0  502    0 -0.00000000000E+00  0.00000000000E+00  0.31833096061E+03  0.31833096061E+03  0.00000000000E+00 0.  1.
         21   -1    0    0  501  502  0.00000000000E+00 -0.00000000000E+00 -0.35197460555E+03  0.35197460555E+03  0.00000000000E+00 0. -1.
        -13    1    1    2    0    0  0.16425929868E+03  0.15020417459E+03 -0.10339056437E+03  0.24542214903E+03  0.10566000000E+00 0.  1.
         13    1    1    2    0    0 -0.27388665787E+03 -0.68428459544E+02  0.44016575352E+02  0.28571633748E+03  0.10566000000E+00 0. -1.
          4    1    1    2  501    0  0.10962735919E+03 -0.81775715046E+02  0.25730344081E+02  0.13916707966E+03  0.00000000000E+00 0.  1.
</event>
<event>
 5    1  0.2569591E-005  0.9804606E+02  0.7818608E-02  0.1196335E+00
         21   -1    0    0  501  502  0.00000000000E+00  0.00000000000E+00  0.34355560674E+02  0.34355560674E+02  0.00000000000E+00 0. -1.
          4   -1    0    0  502    0 -0.00000000000E+00 -0.00000000000E+00 -0.21554211360E+03  0.21554211360E+03  0.00000000000E+00 0.  1.
        -13    1    1    2    0    0 -0.12729409380E+02  0.12284787876E+02  0.22420748936E+02  0.28559674774E+02  0.10566000000E+00 0.  1.
         13    1    1    2    0    0  0.13576411124E+02 -0.48360216949E+02 -0.12984615843E+03  0.13922307835E+03  0.10566000000E+00 0. -1.
          4    1    1    2  501    0 -0.84700174357E+00  0.36075429073E+02 -0.73761143431E+02  0.82114921148E+02  0.00000000000E+00 0.  1.
</event>
<event>
 5    1  0.2569591E-005  0.4356236E+03  0.7818608E-02  0.9678851E-01
         21   -1    0    0  501  502  0.00000000000E+00  0.00000000000E+00  0.15818035048E+03  0.15818035048E+03  0.00000000000E+00 0.  1.
         -4   -1    0    0    0  501 -0.00000000000E+00 -0.00000000000E+00 -0.10296455695E+04  0.10296455695E+04  0.00000000000E+00 0. -1.
        -13    1    1    2    0    0 -0.14265309017E+03  0.34007080600E+03 -0.44849313452E+03  0.58064116295E+03  0.10566000000E+00 0.  1.
         13    1    1    2    0    0 -0.27265431713E+02 -0.14944365547E+03 -0.26917683478E+03  0.30908411391E+03  0.10566000000E+00 0. -1.
         -4    1    1    2    0  502  0.16991852188E+03 -0.19062715053E+03 -0.15379524971E+03  0.29810064312E+03  0.00000000000E+00 0. -1.
</event>
<event>
 6    1  0.2569591E-005  0.1137140E+04  0.7818608E-02  0.8891701E-01
          4   -1    0    0  502    0 -0.00000000000E+00  0.00000000000E+00  0.49910873181E+03  0.49910873181E+03  0.00000000000E+00 0.  1.
         21   -1    0    0  501  502  0.00000000000E+00 -0.00000000000E+00 -0.12103758205E+04  0.12103758205E+04  0.00000000000E+00 0. -1.
    9000010    2    1    2  501    0  0.40084732420E+03 -0.11029368828E+03 -0.55490061056E+03  0.12653069283E+04  0.10584156368E+04 0.  0.
        -13    1    3    3    0    0  0.43387331556E+03  0.11105722965E+03 -0.81023400713E+03  0.92577476726E+03  0.10566000000E+00 0.  1.
         13    1    1    2    0    0 -0.40084732420E+03  0.11029368828E+03 -0.15636647809E+03  0.44417762396E+03  0.10566000000E+00 0. -1.
          4    1    3    3  501    0 -0.33025991358E+02 -0.22135091793E+03  0.25533339657E+03  0.33953216104E+03  0.00000000000E+00 0.  1.
</event>
<event>
 6    1  0.2569591E-005  0.1018156E+04  0.7818608E-02  0.9135561E-01
         -4   -1    0    0    0  501 -0.00000000000E+00  0.00000000000E+00  0.13895002954E+04  0.13895002954E+04  0.00000000000E+00 0. -1.
         21   -1    0    0  501  502  0.00000000000E+00 -0.00000000000E+00 -0.27721988309E+03  0.27721988309E+03  0.00000000000E+00 0. -1.
   -9000010    2    1    2    0  502 -0.99920546307E+02 -0.19205890992E+03  0.84771086853E+03  0.13248608578E+04  0.99487277355E+03 0.  0.
        -13    1    1    2    0    0  0.99920546307E+02  0.19205890992E+03  0.26456954382E+03  0.34185932068E+03  0.10566000000E+00 0.  1.
         13    1    3    3    0    0  0.44776950564E+03 -0.10647383357E+03  0.43997687305E+03  0.63672118498E+03  0.10566000000E+00 0. -1.
         -4    1    3    3    0  502 -0.54769005195E+03 -0.85585076353E+02  0.40773399548E+03  0.68813967286E+03  0.00000000000E+00 0. -1.
</event>
<event>
 6    1  0.2569591E-005  0.1010310E+04  0.7818608E-02  0.9377025E-01
         -4   -1    0    0    0  501 -0.00000000000E+00  0.00000000000E+00  0.54367026853E+03  0.54367026853E+03  0.00000000000E+00 0. -1.
         21   -1    0    0  501  502  0.00000000000E+00 -0.00000000000E+00 -0.55834489182E+03  0.55834489182E+03  0.00000000000E+00 0. -1.
   -9000010    2    1    2    0  502  0.73268096075E+01  0.87640774580E+02 -0.38010950227E+02  0.10110251454E+04  0.10064752479E+04 0.  0.
        -13    1    1    2    0    0 -0.73268096075E+01 -0.87640774580E+02  0.23336326933E+02  0.90990014984E+02  0.10566000000E+00 0.  1.
         13    1    3    3    0    0 -0.14131110745E+03  0.28389391099E+03 -0.43835892733E+03  0.54103894695E+03  0.10566000000E+00 0. -1.
         -4    1    3    3    0  502  0.14863791706E+03 -0.19625313641E+03  0.40034797710E+03  0.46998619842E+03  0.00000000000E+00 0. -1.
</event>
<event>
 6    1  0.2569591E-005  0.1009810E+04  0.7818608E-02  0.9348696E-01
         21   -1    0    0  501  502  0.00000000000E+00  0.00000000000E+00  0.36760842210E+03  0.36760842210E+03  0.00000000000E+00 0.  1.
          4   -1    0    0  502    0 -0.00000000000E+00 -0.00000000000E+00 -0.95135249700E+03  0.95135249700E+03  0.00000000000E+00 0.  1.
    9000010    2    1    2  501    0  0.28931689032E+02  0.93543796177E+02 -0.35542843459E+03  0.10705348190E+04  0.10050512137E+04 0.  0.
        -13    1    3    3    0    0 -0.20354462547E+03  0.43779460957E+02  0.30462185007E+03  0.36897362841E+03  0.10566000000E+00 0.  1.
         13    1    1    2    0    0 -0.28931689032E+02 -0.93543796177E+02 -0.22831564031E+03  0.24842610009E+03  0.10566000000E+00 0. -1.
          4    1    3    3  501    0  0.23247631450E+03  0.49764335220E+02 -0.66005028466E+03  0.70156119059E+03  0.00000000000E+00 0.  1.
</event>
<event>
 6    1  0.2569591E-005  0.1053865E+04  0.7818608E-02  0.9003992E-01
         21   -1    0    0  501  502  0.00000000000E+00  0.00000000000E+00  0.34037959838E+03  0.34037959838E+03  0.00000000000E+00 0. -1.
         -4   -1    0    0    0  501 -0.00000000000E+00 -0.00000000000E+00 -0.16811955324E+04  0.16811955324E+04  0.00000000000E+00 0. -1.
   -9000010    2    1    2    0  502 -0.30878055265E+03  0.11577630459E+03 -0.60484789207E+03  0.12151022221E+04  0.10009409849E+04 0.  0.
        -13    1    1    2    0    0  0.30878055265E+03 -0.11577630459E+03 -0.73596804193E+03  0.80647290860E+03  0.10566000000E+00 0.  1.
         13    1    3    3    0    0  0.23430002174E+03 -0.24024099858E+03 -0.42455711080E+03  0.54116632294E+03  0.10566000000E+00 0. -1.
         -4    1    3    3    0  502 -0.54308057439E+03  0.35601730318E+03 -0.18029078127E+03  0.67393589921E+03  0.00000000000E+00 0. -1.
</event>
<event>
 6    1  0.2569591E-005  0.1106083E+04  0.7818608E-02  0.8883047E-01
          4   -1    0    0  502    0 -0.00000000000E+00  0.00000000000E+00  0.36768443649E+04  0.36768443649E+04  0.00000000000E+00 0.  1.
         21   -1    0    0  501  502  0.00000000000E+00 -0.00000000000E+00 -0.18084927871E+03  0.18084927871E+03  0.00000000000E+00 0.  1.
    9000010    2    1    2  501    0  0.36626077167E+03 -0.29179228622E+03  0.19445620619E+04  0.22371276527E+04  0.10020622887E+04 0.  0.
        -13    1    3    3    0    0  0.41012198438E+03  0.16395465831E+03  0.30989617636E+03  0.53955242872E+03  0.10566000000E+00 0.  1.
         13    1    1    2    0    0 -0.36626077167E+03  0.29179228622E+03  0.15514330243E+04  0.16205659910E+04  0.10566000000E+00 0. -1.
          4    1    3    3  501    0 -0.43861212708E+02 -0.45574694453E+03  0.16346658856E+04  0.16975752239E+04  0.00000000000E+00 0.  1.
</event>
<event>
 6    1  0.2569591E-005  0.1305857E+04  0.7818608E-02  0.8631167E-01
          4   -1    0    0  502    0 -0.00000000000E+00  0.00000000000E+00  0.29891319854E+04  0.29891319854E+04  0.00000000000E+00 0.  1.
         21   -1    0    0  501  502  0.00000000000E+00 -0.00000000000E+00 -0.69041871221E+03  0.69041871221E+03  0.00000000000E+00 0. -1.
    9000010    2    1    2  501    0 -0.74421894390E+03  0.37942693969E+03  0.79448304363E+02  0.13082717912E+04  0.10037113168E+04 0.  0.
        -13    1    3    3    0    0 -0.12679998972E+03  0.59963385468E+03 -0.11698664807E+03  0.62395904037E+03  0.10566000000E+00 0.  1.
         13    1    1    2    0    0  0.74421894390E+03 -0.37942693969E+03  0.22192649688E+04  0.23712789064E+04  0.10566000000E+00 0. -1.
          4    1    3    3  501    0 -0.61741895418E+03 -0.22020691499E+03  0.19643495243E+03  0.68431275082E+03  0.00000000000E+00 0.  1.
</event>
<event>
 6    1  0.2569591E-005  0.1350790E+04  0.7818608E-02  0.8587445E-01
          4   -1    0    0  502    0 -0.00000000000E+00  0.00000000000E+00  0.21759880171E+04  0.21759880171E+04  0.00000000000E+00 0.  1.
         21   -1    0    0  501  502  0.00000000000E+00 -0.00000000000E+00 -0.59538612056E+03  0.59538612056E+03  0.00000000000E+00 0.  1.
    9000010    2    1    2  501    0 -0.84989133344E+03 -0.34111323422E+03  0.81416688811E+03  0.15771814604E+04  0.99295524573E+03 0.  0.
        -13    1    3    3    0    0 -0.31931400718E+03  0.21232204798E+03 -0.87812582981E+02  0.39338676660E+03  0.10566000000E+00 0.  1.
         13    1    1    2    0    0  0.84989133344E+03  0.34111323422E+03  0.76643500847E+03  0.11941926773E+04  0.10566000000E+00 0. -1.
          4    1    3    3  501    0 -0.53057732626E+03 -0.55343528220E+03  0.90197947109E+03  0.11837946938E+04  0.00000000000E+00 0.  1.
</event>
<event>
 6    1  0.2569591E-005  0.1036597E+04  0.7818608E-02  0.9103074E-01
         21   -1    0    0  501  502  0.00000000000E+00  0.00000000000E+00  0.64493648870E+03  0.64493648870E+03  0.00000000000E+00 0. -1.
          4   -1    0    0  502    0 -0.00000000000E+00 -0.00000000000E+00 -0.66704091829E+03  0.66704091829E+03  0.00000000000E+00 0.  1.
    9000010    2    1    2  501    0  0.21031326342E+03 -0.10069776225E+03 -0.14779762271E+03  0.10470802608E+04  0.10100303100E+04 0.  0.
        -13    1    3    3    0    0 -0.13813639198E+03  0.31095275929E+03  0.21001823822E+03  0.39985116337E+03  0.10566000000E+00 0.  1.
         13    1    1    2    0    0 -0.21031326342E+03  0.10069776225E+03  0.12569319312E+03  0.26489714618E+03  0.10566000000E+00 0. -1.
          4    1    3    3  501    0  0.34844965541E+03 -0.41165052154E+03 -0.35781586093E+03  0.64722909744E+03  0.00000000000E+00 0.  1.
</event>
<event>
 6    1  0.2569591E-005  0.1464782E+04  0.7818608E-02  0.8483750E-01
         -4   -1    0    0    0  501 -0.00000000000E+00  0.00000000000E+00  0.21312800717E+04  0.21312800717E+04  0.00000000000E+00 0. -1.
         21   -1    0    0  501  502  0.00000000000E+00 -0.00000000000E+00 -0.79923986597E+03  0.79923986597E+03  0.00000000000E+00 0. -1.
   -9000010    2    1    2    0  502  0.68364661605E+03 -0.91888336009E+03  0.72929840968E+03  0.16362954560E+04  0.91316336099E+03 0.  0.
        -13    1    1    2    0    0 -0.68364661605E+03  0.91888336009E+03  0.60274179602E+03  0.12942244817E+04  0.10566000000E+00 0.  1.
         13    1    3    3    0    0  0.33148000729E+03 -0.72857597023E+00  0.54186699275E+03  0.63521600661E+03  0.10566000000E+00 0. -1.
         -4    1    3    3    0  502  0.35216660876E+03 -0.91815478411E+03  0.18743141693E+03  0.10010794494E+04  0.00000000000E+00 0. -1.
</event>
<event>
 6    1  0.2569591E-005  0.1033119E+04  0.7818608E-02  0.9079512E-01
         -4   -1    0    0    0  501 -0.00000000000E+00  0.00000000000E+00  0.65205737184E+03  0.65205737184E+03  0.00000000000E+00 0. -1.
         21   -1    0    0  501  502  0.00000000000E+00 -0.00000000000E+00 -0.65612631343E+03  0.65612631343E+03  0.00000000000E+00 0. -1.
   -9000010    2    1    2    0  502 -0.11918047120E+03  0.22951217775E+03 -0.86547712942E+02  0.10367383255E+04  0.10002279863E+04 0.  0.
        -13    1    1    2    0    0  0.11918047120E+03 -0.22951217775E+03  0.82478771355E+02  0.27144535977E+03  0.10566000000E+00 0.  1.
         13    1    3    3    0    0  0.12208589588E+03 -0.13859557779E+03 -0.43680560520E+03  0.47424977391E+03  0.10566000000E+00 0. -1.
         -4    1    3    3    0  502 -0.24126636708E+03  0.36810775554E+03  0.35025789226E+03  0.56248855158E+03  0.00000000000E+00 0. -1.
</event>
<event>
 5    1  0.2569591E-005  0.5314855E+03  0.7818608E-02  0.1026675E+00
          4   -1    0    0  502    0 -0.00000000000E+00  0.00000000000E+00  0.17658663260E+04  0.17658663260E+04  0.00000000000E+00 0.  1.
         21   -1    0    0  501  502  0.00000000000E+00 -0.00000000000E+00 -0.63701888558E+02  0.63701888558E+02  0.00000000000E+00 0. -1.
        -13    1    1    2    0    0 -0.80523641216E+02  0.22325947454E+03  0.40860185401E+03  0.47252971973E+03  0.10566000000E+00 0.  1.
         13    1    1    2    0    0  0.81732850479E+01 -0.28027968675E+02 -0.14438016494E+02  0.32570494329E+02  0.10566000000E+00 0. -1.
          4    1    1    2  501    0  0.72350356168E+02 -0.19523150587E+03  0.13080005999E+04  0.13244680005E+04  0.00000000000E+00 0.  1.
</event>
<event>
 5    1  0.2569591E-005  0.1080638E+03  0.7818608E-02  0.1157691E+00
         21   -1    0    0  501  502  0.00000000000E+00  0.00000000000E+00  0.46883978876E+02  0.46883978876E+02  0.00000000000E+00 0. -1.
          4   -1    0    0  502    0 -0.00000000000E+00 -0.00000000000E+00 -0.29294790496E+03  0.29294790496E+03  0.00000000000E+00 0.  1.
        -13    1    1    2    0    0 -0.41742948458E+01 -0.88965244633E+02 -0.16216832858E+03  0.18501572216E+03  0.10566000000E+00 0.  1.
         13    1    1    2    0    0  0.21225984083E+02  0.91201796449E+02 -0.30130478332E+02  0.98367509699E+02  0.10566000000E+00 0. -1.
          4    1    1    2  501    0 -0.17051689237E+02 -0.22365518160E+01 -0.53765119179E+02  0.56448651978E+02  0.00000000000E+00 0.  1.
</event>
<event>
 6    1  0.2569591E-005  0.1460715E+04  0.7818608E-02  0.8507199E-01
          4   -1    0    0  502    0 -0.00000000000E+00  0.00000000000E+00  0.12049354905E+04  0.12049354905E+04  0.00000000000E+00 0.  1.
         21   -1    0    0  501  502  0.00000000000E+00 -0.00000000000E+00 -0.14214335764E+04  0.14214335764E+04  0.00000000000E+00 0. -1.
    9000010    2    1    2  501    0 -0.72557519724E+03  0.74257029594E+03  0.26061417456E+03  0.14837815948E+04  0.10275300783E+04 0.  0.
        -13    1    3    3    0    0 -0.62034560590E+03  0.12655689846E+03 -0.24605649514E+03  0.67925630602E+03  0.10566000000E+00 0.  1.
         13    1    1    2    0    0  0.72557519724E+03 -0.74257029594E+03 -0.47711226046E+03  0.11425874721E+04  0.10566000000E+00 0. -1.
          4    1    3    3  501    0 -0.10522959133E+03  0.61601339749E+03  0.50667066970E+03  0.80452528879E+03  0.00000000000E+00 0.  1.
</event>
<event>
 5    1  0.2569591E-005  0.1786465E+03  0.7818608E-02  0.1082620E+00
          4   -1    0    0  502    0 -0.00000000000E+00  0.00000000000E+00  0.17365899385E+03  0.17365899385E+03  0.00000000000E+00 0.  1.
         21   -1    0    0  501  502  0.00000000000E+00 -0.00000000000E+00 -0.15368716546E+03  0.15368716546E+03  0.00000000000E+00 0. -1.
        -13    1    1    2    0    0  0.92885726864E+02 -0.90415070320E+02 -0.21186341371E+02  0.13134502435E+03  0.10566000000E+00 0.  1.
         13    1    1    2    0    0 -0.11912975118E+03  0.87244610275E+02  0.68729150874E+00  0.14766178643E+03  0.10566000000E+00 0. -1.
          4    1    1    2  501    0  0.26244024318E+02  0.31704600449E+01  0.40470878251E+02  0.48339348524E+02  0.00000000000E+00 0.  1.
</event>
<event>
 6    1  0.2569591E-005  0.1137089E+04  0.7818608E-02  0.8827522E-01
         21   -1    0    0  501  502  0.00000000000E+00  0.00000000000E+00  0.36454772857E+03  0.36454772857E+03  0.00000000000E+00 0. -1.
         -4   -1    0    0    0  501 -0.00000000000E+00 -0.00000000000E+00 -0.24310283241E+04  0.24310283241E+04  0.00000000000E+00 0. -1.
   -9000010    2    1    2    0  502 -0.21977979333E+03 -0.49724790081E+03 -0.72611502396E+03  0.13491533935E+04  0.99870577184E+03 0.  0.
        -13    1    1    2    0    0  0.21977979333E+03  0.49724790081E+03 -0.13403655716E+04  0.14464226592E+04  0.10566000000E+00 0.  1.
         13    1    3    3    0    0 -0.82497205035E+02  0.29807541675E+03 -0.91749046015E+02  0.32260291616E+03  0.10566000000E+00 0. -1.
         -4    1    3    3    0  502 -0.13728258829E+03 -0.79532331756E+03 -0.63436597795E+03  0.10265504773E+04  0.00000000000E+00 0. -1.
</event>
<event>
 6    1  0.2569591E-005  0.1034868E+04  0.7818608E-02  0.9227425E-01
         21   -1    0    0  501  502  0.00000000000E+00  0.00000000000E+00  0.91481115696E+03  0.91481115696E+03  0.00000000000E+00 0.  1.
          4   -1    0    0  502    0 -0.00000000000E+00 -0.00000000000E+00 -0.39232234009E+03  0.39232234009E+03  0.00000000000E+00 0.  1.
    9000010    2    1    2  501    0 -0.56093387117E+02 -0.13287454155E+03  0.53003325803E+03  0.11627069011E+04  0.10247682525E+04 0.  0.
        -13    1    3    3    0    0  0.20717005975E+03  0.13645692549E+02  0.75734385564E+03  0.78528680457E+03  0.10566000000E+00 0.  1.
         13    1    1    2    0    0  0.56093387117E+02  0.13287454155E+03 -0.75444411563E+01  0.14442659598E+03  0.10566000000E+00 0. -1.
          4    1    3    3  501    0 -0.26326344687E+03 -0.14652023410E+03 -0.22731059761E+03  0.37742009650E+03  0.00000000000E+00 0.  1.
</event>
<event>
 6    1  0.2569591E-005  0.1050072E+04  0.7818608E-02  0.8989319E-01
         -4   -1    0    0    0  501 -0.00000000000E+00  0.00000000000E+00  0.12170687645E+04  0.12170687645E+04  0.00000000000E+00 0. -1.
         21   -1    0    0  501  502  0.00000000000E+00 -0.00000000000E+00 -0.49153281806E+03  0.49153281806E+03  0.00000000000E+00 0.  1.
   -9000010    2    1    2    0  502  0.14041848146E+03 -0.32470514812E+03  0.83137581969E+03  0.13393416835E+04  0.98868579860E+03 0.  0.
        -13    1    1    2    0    0 -0.14041848146E+03  0.32470514812E+03 -0.10583987325E+03  0.36925989910E+03  0.10566000000E+00 0.  1.
         13    1    3    3    0    0  0.10259660744E+03 -0.49201791227E+03  0.12566823791E+02  0.50275801941E+03  0.10566000000E+00 0. -1.
         -4    1    3    3    0  502  0.37821874019E+02  0.16731276416E+03  0.81880899590E+03  0.83658366406E+03  0.00000000000E+00 0. -1.
</event>
<event>
 5    1  0.2569591E-005  0.8082620E+02  0.7818608E-02  0.1250774E+00
         21   -1    0    0  501  502  0.00000000000E+00  0.00000000000E+00  0.22939440565E+02  0.22939440565E+02  0.00000000000E+00 0. -1.
         -4   -1    0    0    0  501 -0.00000000000E+00 -0.00000000000E+00 -0.13459592204E+03  0.13459592204E+03  0.00000000000E+00 0. -1.
        -13    1    1    2    0    0 -0.54200350193E+00  0.27197515310E+02 -0.13454668161E+02  0.30348605671E+02  0.10566000000E+00 0.  1.
         13    1    1    2    0    0  0.37509003494E+02 -0.21750775561E+02 -0.49571701991E+02  0.65858836787E+02  0.10566000000E+00 0. -1.
         -4    1    1    2    0  502 -0.36966999992E+02 -0.54467397490E+01 -0.48630111324E+02  0.61327920148E+02  0.00000000000E+00 0. -1.
</event>
<event>
 6    1  0.2569591E-005  0.1061296E+04  0.7818608E-02  0.8970678E-01
         21   -1    0    0  501  502  0.00000000000E+00  0.00000000000E+00  0.74886146078E+03  0.74886146078E+03  0.00000000000E+00 0. -1.
          4   -1    0    0  502    0 -0.00000000000E+00 -0.00000000000E+00 -0.68384410630E+03  0.68384410630E+03  0.00000000000E+00 0.  1.
    9000010    2    1    2  501    0 -0.22476512084E+03 -0.29344665810E+03  0.61024808832E+02  0.10630486284E+04  0.99484574605E+03 0.  0.
        -13    1    3    3    0    0  0.38549498281E+03 -0.91741597867E+02  0.12900892565E+03  0.41673278802E+03  0.10566000000E+00 0.  1.
         13    1    1    2    0    0  0.22476512084E+03  0.29344665810E+03  0.39925456481E+01  0.36965693863E+03  0.10566000000E+00 0. -1.
          4    1    3    3  501    0 -0.61026010366E+03 -0.20170506023E+03 -0.67984116815E+02  0.64631584042E+03  0.00000000000E+00 0.  1.
</event>
<event>
 6    1  0.2569591E-005  0.1634533E+04  0.7818608E-02  0.8378792E-01
         -4   -1    0    0    0  501 -0.00000000000E+00  0.00000000000E+00  0.11874561267E+04  0.11874561267E+04  0.00000000000E+00 0. -1.
         21   -1    0    0  501  502  0.00000000000E+00 -0.00000000000E+00 -0.21036173092E+04  0.21036173092E+04  0.00000000000E+00 0.  1.
   -9000010    2    1    2    0  502  0.12642249096E+04  0.43585633424E+03 -0.10568547540E+04  0.19464433535E+04  0.93992786482E+03 0.  0.
        -13    1    1    2    0    0 -0.12642249096E+04 -0.43585633424E+03  0.14069357154E+03  0.13446300824E+04  0.10566000000E+00 0.  1.
         13    1    3    3    0    0  0.10127942383E+04  0.42056547694E+03 -0.12245587746E+04  0.16438283649E+04  0.10566000000E+00 0. -1.
         -4    1    3    3    0  502  0.25143067132E+03  0.15290857292E+02  0.16770402062E+03  0.30261498860E+03  0.00000000000E+00 0. -1.
</event>
<event>
 6    1  0.2569591E-005  0.1117962E+04  0.7818608E-02  0.8922473E-01
          4   -1    0    0  502    0 -0.00000000000E+00  0.00000000000E+00  0.19762821807E+04  0.19762821807E+04  0.00000000000E+00 0.  1.
         21   -1    0    0  501  502  0.00000000000E+00 -0.00000000000E+00 -0.31238828791E+03  0.31238828791E+03  0.00000000000E+00 0.  1.
    9000010    2    1    2  501    0 -0.80498294580E+02  0.37675540045E+03  0.90793947068E+03  0.14402061460E+04  0.10494832316E+04 0.  0.
        -13    1    3    3    0    0  0.37379685241E+03  0.12813672748E+03  0.22367917700E+00  0.39514955269E+03  0.10566000000E+00 0.  1.
         13    1    1    2    0    0  0.80498294580E+02 -0.37675540045E+03  0.75595442208E+03  0.84846432255E+03  0.10566000000E+00 0. -1.
          4    1    3    3  501    0 -0.45429514699E+03  0.24861867298E+03  0.90771579150E+03  0.10450565933E+04  0.00000000000E+00 0.  1.
</event>
<event>
 5    1  0.2569591E-005  0.1891425E+03  0.7818608E-02  0.1085888E+00
         -4   -1    0    0    0  501 -0.00000000000E+00  0.00000000000E+00  0.27002402503E+03  0.27002402503E+03  0.00000000000E+00 0. -1.
         21   -1    0    0  501  502  0.00000000000E+00 -0.00000000000E+00 -0.85427215025E+02  0.85427215025E+02  0.00000000000E+00 0.  1.
        -13    1    1    2    0    0  0.64025641551E+02  0.93813182754E+02  0.55200873037E+02  0.12628279211E+03  0.10566000000E+00 0.  1.
         13    1    1    2    0    0 -0.10771439977E+03 -0.93635075945E+02  0.81558029532E+02  0.16438261073E+03  0.10566000000E+00 0. -1.
         -4    1    1    2    0  502  0.43688758215E+02 -0.17810680964E+00  0.47837907430E+02  0.64785837216E+02  0.00000000000E+00 0. -1.
</event>
<event>
 6    1  0.2569591E-005  0.1037090E+04  0.7818608E-02  0.9070266E-01
         21   -1    0    0  501  502  0.00000000000E+00  0.00000000000E+00  0.15718399831E+04  0.15718399831E+04  0.00000000000E+00 0.  1.
          4   -1    0    0  502    0 -0.00000000000E+00 -0.00000000000E+00 -0.34859338023E+03  0.34859338023E+03  0.00000000000E+00 0.  1.
    9000010    2    1    2  501    0 -0.26491774212E+03  0.12970838852E+02  0.12818046115E+04  0.16488110073E+04  0.10025991337E+04 0.  0.
        -13    1    3    3    0    0  0.23316212774E+03  0.73065601414E+02  0.10812546900E+04  0.11085192266E+04  0.10566000000E+00 0.  1.
         13    1    1    2    0    0  0.26491774212E+03 -0.12970838852E+02 -0.58558008689E+02  0.27162235603E+03  0.10566000000E+00 0. -1.
          4    1    3    3  501    0 -0.49807986985E+03 -0.60094762562E+02  0.20054992153E+03  0.54029178068E+03  0.00000000000E+00 0.  1.
</event>
<event>
 5    1  0.2569591E-005  0.1128286E+03  0.7818608E-02  0.1181604E+00
         21   -1    0    0  501  502  0.00000000000E+00  0.00000000000E+00  0.19633823976E+02  0.19633823976E+02  0.00000000000E+00 0.  1.
          4   -1    0    0  502    0 -0.00000000000E+00 -0.00000000000E+00 -0.32352194354E+03  0.32352194354E+03  0.00000000000E+00 0.  1.
        -13    1    1    2    0    0  0.75688695467E+02  0.10564086343E+02 -0.11696762707E+03  0.13972049058E+03  0.10566000000E+00 0.  1.
         13    1    1    2    0    0 -0.46007002576E+02 -0.58600932188E+01 -0.81042796121E+02  0.93375215907E+02  0.10566000000E+00 0. -1.
          4    1    1    2  501    0 -0.29681692891E+02 -0.47039931246E+01 -0.10587769637E+03  0.11006006102E+03  0.00000000000E+00 0.  1.
</event>
<event>
 6    1  0.2569591E-005  0.9288407E+03  0.7818608E-02  0.8957653E-01
          4   -1    0    0  502    0 -0.00000000000E+00  0.00000000000E+00  0.12180670395E+04  0.12180670395E+04  0.00000000000E+00 0.  1.
         21   -1    0    0  501  502  0.00000000000E+00 -0.00000000000E+00 -0.46965101958E+03  0.46965101958E+03  0.00000000000E+00 0. -1.
    9000010    2    1    2  501    0 -0.58124332488E+03  0.16668508593E+02  0.41396317074E+03  0.10169123038E+04  0.72430897061E+03 0.  0.
        -13    1    3    3    0    0 -0.69124089315E+03 -0.15577165865E+03  0.23913468627E+03  0.74783968292E+03  0.10566000000E+00 0.  1.
         13    1    1    2    0    0  0.58124332488E+03 -0.16668508593E+02  0.33445284921E+03  0.67080575534E+03  0.10566000000E+00 0. -1.
          4    1    3    3  501    0  0.10999756827E+03  0.17244016724E+03  0.17482848446E+03  0.26907262084E+03  0.00000000000E+00 0.  1.
</event>
<event>
 5    1  0.2569591E-005  0.1023328E+03  0.7818608E-02  0.1163010E+00
         21   -1    0    0  501  502  0.00000000000E+00  0.00000000000E+00  0.21270921643E+03  0.21270921643E+03  0.00000000000E+00 0.  1.
         -4   -1    0    0    0  501 -0.00000000000E+00 -0.00000000000E+00 -0.53880610906E+02  0.53880610906E+02  0.00000000000E+00 0. -1.
        -13    1    1    2    0    0 -0.46000853589E+02 -0.85253885363E+02  0.28681613496E+02  0.10102944926E+03  0.10566000000E+00 0.  1.
         13    1    1    2    0    0  0.35655865207E+02  0.77845123304E+02  0.93567492274E+02  0.12683095332E+03  0.10566000000E+00 0. -1.
         -4    1    1    2    0  502  0.10344988382E+02  0.74087620589E+01  0.36579499757E+02  0.38729424761E+02  0.00000000000E+00 0. -1.
</event>
<event>
 6    1  0.2569591E-005  0.1299889E+04  0.7818608E-02  0.8641540E-01
         21   -1    0    0  501  502  0.00000000000E+00  0.00000000000E+00  0.12305302382E+04  0.12305302382E+04  0.00000000000E+00 0.  1.
          4   -1    0    0  502    0 -0.00000000000E+00 -0.00000000000E+00 -0.14271112370E+04  0.14271112370E+04  0.00000000000E+00 0.  1.
    9000010    2    1    2  501    0  0.46502351202E+03  0.66220200501E+03  0.67805800564E+03  0.14661081096E+04  0.10173258907E+04 0.  0.
        -13    1    3    3    0    0 -0.15024089785E+03  0.27823797987E+03  0.66994316864E+03  0.74081884506E+03  0.10566000000E+00 0.  1.
         13    1    1    2    0    0 -0.46502351202E+03 -0.66220200501E+03 -0.87463900442E+03  0.11915333656E+04  0.10566000000E+00 0. -1.
          4    1    3    3  501    0  0.61526440987E+03  0.38396402514E+03  0.81148369989E+01  0.72528926452E+03  0.00000000000E+00 0.  1.
</event>
<event>
 6    1  0.2569591E-005  0.1041856E+04  0.7818608E-02  0.9108134E-01
          4   -1    0    0  502    0 -0.00000000000E+00  0.00000000000E+00  0.13549137931E+04  0.13549137931E+04  0.00000000000E+00 0.  1.
         21   -1    0    0  501  502  0.00000000000E+00 -0.00000000000E+00 -0.36241832124E+03  0.36241832124E+03  0.00000000000E+00 0.  1.
    9000010    2    1    2  501    0  0.20301962494E+03  0.97262722562E+02  0.45938075854E+03  0.11386367592E+04  0.10172443083E+04 0.  0.
        -13    1    3    3    0    0  0.40871475643E+03 -0.14955723636E+03 -0.14116947300E+03  0.45754120070E+03  0.10566000000E+00 0.  1.
         13    1    1    2    0    0 -0.20301962494E+03 -0.97262722562E+02  0.53311471327E+03  0.57869535506E+03  0.10566000000E+00 0. -1.
          4    1    3    3  501    0 -0.20569513149E+03  0.24681995892E+03  0.60055023155E+03  0.68109555853E+03  0.00000000000E+00 0.  1.
</event>
<event>
 6    1  0.2569591E-005  0.1024097E+04  0.7818608E-02  0.9363042E-01
         21   -1    0    0  501  502  0.00000000000E+00  0.00000000000E+00  0.12738647348E+03  0.12738647348E+03  0.00000000000E+00 0. -1.
         -4   -1    0    0    0  501 -0.00000000000E+00 -0.00000000000E+00 -0.25431532653E+04  0.25431532653E+04  0.00000000000E+00 0. -1.
   -9000010    2    1    2    0  502  0.80492783281E+02  0.37892970040E+02 -0.20184697974E+04  0.22634035475E+04  0.10202256272E+04 0.  0.
        -13    1    1    2    0    0 -0.80492783281E+02 -0.37892970040E+02 -0.39729699442E+03  0.40713619132E+03  0.10566000000E+00 0.  1.
         13    1    3    3    0    0  0.18086712560E+03 -0.99422983223E+02  0.29405578591E+02  0.20847672756E+03  0.10566000000E+00 0. -1.
         -4    1    3    3    0  502 -0.10037434232E+03  0.13731595326E+03 -0.20478753760E+04  0.20549268199E+04  0.00000000000E+00 0. -1.
</event>
<event>
 5    1  0.2569591E-005  0.1356014E+03  0.7818608E-02  0.1123942E+00
         -4   -1    0    0    0  501 -0.00000000000E+00  0.00000000000E+00  0.55962841063E+02  0.55962841063E+02  0.00000000000E+00 0. -1.
         21   -1    0    0  501  502  0.00000000000E+00 -0.00000000000E+00 -0.27534733658E+03  0.27534733658E+03  0.00000000000E+00 0.  1.
        -13    1    1    2    0    0  0.32364487577E+02 -0.10608353238E+03 -0.11842839920E+03  0.16225434601E+03  0.10566000000E+00 0.  1.
         13    1    1    2    0    0 -0.35904028758E+02  0.47885594032E+02 -0.95076112072E+01  0.60601445789E+02  0.10566000000E+00 0. -1.
         -4    1    1    2    0  502  0.35395411815E+01  0.58197938348E+02 -0.91448485113E+02  0.10845438585E+03  0.00000000000E+00 0. -1.
</event>
<event>
 6    1  0.2569591E-005  0.1008184E+04  0.7818608E-02  0.9210239E-01
          4   -1    0    0  502    0 -0.00000000000E+00  0.00000000000E+00  0.37740238701E+03  0.37740238701E+03  0.00000000000E+00 0.  1.
         21   -1    0    0  501  502  0.00000000000E+00 -0.00000000000E+00 -0.11300076913E+04  0.11300076913E+04  0.00000000000E+00 0.  1.
    9000010    2    1    2  501    0 -0.15183857817E+03 -0.68758221231E+02 -0.84620743688E+03  0.13162451830E+04  0.99430966442E+03 0.  0.
        -13    1    3    3    0    0  0.32316112822E+03 -0.11012933969E+03 -0.75802337084E+03  0.83136094939E+03  0.10566000000E+00 0.  1.
         13    1    1    2    0    0  0.15183857817E+03  0.68758221231E+02  0.93602132583E+02  0.19116489530E+03  0.10566000000E+00 0. -1.
          4    1    3    3  501    0 -0.47499970639E+03  0.41371118460E+02 -0.88184066035E+02  0.48488423363E+03  0.00000000000E+00 0.  1.
</event>
<event>
 5    1  0.2569591E-005  0.4353393E+03  0.7818608E-02  0.9816117E-01
         21   -1    0    0  501  502  0.00000000000E+00  0.00000000000E+00  0.37990219248E+03  0.37990219248E+03  0.00000000000E+00 0. -1.
          4   -1    0    0  502    0 -0.00000000000E+00 -0.00000000000E+00 -0.31413111664E+03  0.31413111664E+03  0.00000000000E+00 0.  1.
        -13    1    1    2    0    0  0.15267908600E+03  0.10760951957E+03 -0.46789360198E+00  0.18679117241E+03  0.10566000000E+00 0.  1.
         13    1    1    2    0    0 -0.18487335516E+03  0.13702389862E+03  0.11258938010E+03  0.25618369564E+03  0.10566000000E+00 0. -1.
          4    1    1    2  501    0  0.32194269156E+02 -0.24463341818E+03 -0.46350410664E+02  0.25105844106E+03  0.00000000000E+00 0.  1.
</event>
<event>
 6    1  0.2569591E-005  0.1045954E+04  0.7818608E-02  0.9029524E-01
         -4   -1    0    0    0  501 -0.00000000000E+00  0.00000000000E+00  0.32714278677E+03  0.32714278677E+03  0.00000000000E+00 0. -1.
         21   -1    0    0  501  502  0.00000000000E+00 -0.00000000000E+00 -0.14031207327E+04  0.14031207327E+04  0.00000000000E+00 0. -1.
   -9000010    2    1    2    0  502  0.14297092704E+03  0.26864995568E+03 -0.77088087231E+03  0.12993369362E+04  0.10007025881E+04 0.  0.
        -13    1    1    2    0    0 -0.14297092704E+03 -0.26864995568E+03 -0.30509707364E+03  0.43092658328E+03  0.10566000000E+00 0.  1.
         13    1    3    3    0    0 -0.41273293750E+03  0.15421360818E+03 -0.51264106259E+03  0.67596685189E+03  0.10566000000E+00 0. -1.
         -4    1    3    3    0  502  0.55570386454E+03  0.11443634750E+03 -0.25823980972E+03  0.62337008431E+03  0.00000000000E+00 0. -1.
</event>
<event>
 6    1  0.2569591E-005  0.1236333E+04  0.7818608E-02  0.8710883E-01
         -4   -1    0    0    0  501 -0.00000000000E+00  0.00000000000E+00  0.90415252824E+03  0.90415252824E+03  0.00000000000E+00 0. -1.
         21   -1    0    0  501  502  0.00000000000E+00 -0.00000000000E+00 -0.10400163583E+04  0.10400163583E+04  0.00000000000E+00 0. -1.
   -9000010    2    1    2    0  502  0.68804366327E+03  0.10069054540E+03 -0.16996262355E+03  0.12479610100E+04  0.10222410286E+04 0.  0.
        -13    1    1    2    0    0 -0.68804366327E+03 -0.10069054540E+03  0.34098793496E+02  0.69620787656E+03  0.10566000000E+00 0.  1.
         13    1    3    3    0    0  0.16605289861E+02 -0.30343298844E+03 -0.32947251484E+03  0.44821809795E+03  0.10566000000E+00 0. -1.
         -4    1    3    3    0  502  0.67143837341E+03  0.40412353385E+03  0.15950989129E+03  0.79974291202E+03  0.00000000000E+00 0. -1.
</event>
<event>
 5    1  0.2569591E-005  0.6317522E+02  0.7818608E-02  0.1316832E+00
         -4   -1    0    0    0  501 -0.00000000000E+00  0.00000000000E+00  0.10183492328E+03  0.10183492328E+03  0.00000000000E+00 0. -1.
         21   -1    0    0  501  502  0.00000000000E+00 -0.00000000000E+00 -0.20361288593E+02  0.20361288593E+02  0.00000000000E+00 0.  1.
        -13    1    1    2    0    0 -0.11820227198E+02 -0.97115218130E+01 -0.40913497682E+01  0.15836089602E+02  0.10566000000E+00 0.  1.
         13    1    1    2    0    0 -0.19029057024E+02  0.22770904110E+02  0.40316293530E+02  0.50060301370E+02  0.10566000000E+00 0. -1.
         -4    1    1    2    0  502  0.30849284222E+02 -0.13059382297E+02  0.45248690922E+02  0.56299820898E+02  0.00000000000E+00 0. -1.
</event>
<event>
 6    1  0.2569591E-005  0.1012701E+04  0.7818608E-02  0.9119465E-01
         21   -1    0    0  501  502  0.00000000000E+00  0.00000000000E+00  0.24943152526E+03  0.24943152526E+03  0.00000000000E+00 0. -1.
         -4   -1    0    0    0  501 -0.00000000000E+00 -0.00000000000E+00 -0.18491904021E+04  0.18491904021E+04  0.00000000000E+00 0. -1.
   -9000010    2    1    2    0  502  0.21112711689E+03  0.10183109322E+03 -0.87990159776E+03  0.13415626533E+04  0.98520013194E+03 0.  0.
        -13    1    1    2    0    0 -0.21112711689E+03 -0.10183109322E+03 -0.71985727909E+03  0.75705927407E+03  0.10566000000E+00 0.  1.
         13    1    3    3    0    0  0.10462841611E+03  0.45753129178E+02  0.21319883101E+03  0.24185575659E+03  0.10566000000E+00 0. -1.
         -4    1    3    3    0  502  0.10649870078E+03  0.56077964046E+02 -0.10931004288E+04  0.10997068967E+04  0.00000000000E+00 0. -1.
</event>
<event>
 5    1  0.2569591E-005  0.8767423E+02  0.7818608E-02  0.1206437E+00
         21   -1    0    0  501  502  0.00000000000E+00  0.00000000000E+00  0.58241632499E+02  0.58241632499E+02  0.00000000000E+00 0. -1.
         -4   -1    0    0    0  501 -0.00000000000E+00 -0.00000000000E+00 -0.10690488969E+03  0.10690488969E+03  0.00000000000E+00 0. -1.
        -13    1    1    2    0    0  0.55520874851E+02  0.60045535563E+01 -0.53503753179E+02  0.77338767613E+02  0.10566000000E+00 0.  1.
         13    1    1    2    0    0  0.22971039294E+01  0.15332831655E+02  0.19049428086E+02  0.24561439034E+02  0.10566000000E+00 0. -1.
         -4    1    1    2    0  502 -0.57817978781E+02 -0.21337385211E+02 -0.14208932095E+02  0.63246315538E+02  0.00000000000E+00 0. -1.
</event>
<event>
 5    1  0.3182482E-005  0.1197067E+03  0.7818608E-02  0.1146937E+00
         21   -1    0    0  501  502  0.00000000000E+00  0.00000000000E+00  0.38319557575E+03  0.38319557575E+03  0.00000000000E+00 0.  1.
         -4   -1    0    0    0  501 -0.00000000000E+00 -0.00000000000E+00 -0.44297162046E+02  0.44297162046E+02  0.00000000000E+00 0. -1.
        -13    1    1    2    0    0 -0.71229615314E+02  0.54732857723E+02  0.28004729945E+03  0.29410175944E+03  0.10566000000E+00 0.  1.
         13    1    1    2    0    0  0.68719928581E+02 -0.29356110027E+02  0.63161988692E+01  0.74994101850E+02  0.10566000000E+00 0. -1.
         -4    1    1    2    0  502  0.25096867337E+01 -0.25376747696E+02  0.52534915386E+02  0.58396876507E+02  0.00000000000E+00 0. -1.
</event>
<event>
 6    1  0.2569591E-005  0.1000963E+04  0.7818608E-02  0.9313115E-01
         21   -1    0    0  501  502  0.00000000000E+00  0.00000000000E+00  0.63520390771E+03  0.63520390771E+03  0.00000000000E+00 0.  1.
          4   -1    0    0  502    0 -0.00000000000E+00 -0.00000000000E+00 -0.64156934380E+03  0.64156934380E+03  0.00000000000E+00 0.  1.
    9000010    2    1    2  501    0 -0.19872334335E+01  0.11492578671E+03  0.21822778085E+03  0.10244757886E+04  0.99434168749E+03 0.  0.
        -13    1    3    3    0    0 -0.16976405383E+03  0.16177651922E+03  0.57854278200E+03  0.62426215480E+03  0.10566000000E+00 0.  1.
         13    1    1    2    0    0  0.19872334335E+01 -0.11492578671E+03 -0.22459321694E+03  0.25229746294E+03  0.10566000000E+00 0. -1.
          4    1    3    3  501    0  0.16777682040E+03 -0.46850732507E+02 -0.36031500115E+03  0.40021363377E+03  0.00000000000E+00 0.  1.
</event>
<event>
 6    1  0.2569591E-005  0.1009417E+04  0.7818608E-02  0.9224006E-01
         21   -1    0    0  501  502  0.00000000000E+00  0.00000000000E+00  0.33647698365E+04  0.33647698365E+04  0.00000000000E+00 0. -1.
         -4   -1    0    0    0  501 -0.00000000000E+00 -0.00000000000E+00 -0.14304034028E+03  0.14304034028E+03  0.00000000000E+00 0. -1.
   -9000010    2    1    2    0  502 -0.47294887542E+02 -0.15020731223E+03  0.31916716876E+04  0.33474901030E+04  0.99705706216E+03 0.  0.
        -13    1    1    2    0    0  0.47294887542E+02  0.15020731223E+03  0.30057808619E+02  0.16032007379E+03  0.10566000000E+00 0.  1.
         13    1    3    3    0    0 -0.20234146197E+03  0.33703366618E+03  0.21665610581E+04  0.22019356460E+04  0.10566000000E+00 0. -1.
         -4    1    3    3    0  502  0.15504657443E+03 -0.48724097842E+03  0.10251106295E+04  0.11455544570E+04  0.00000000000E+00 0. -1.
</event>
<event>
 5    1  0.2569591E-005  0.6444160E+02  0.7818608E-02  0.1247483E+00
         21   -1    0    0  501  502  0.00000000000E+00  0.00000000000E+00  0.18044553939E+03  0.18044553939E+03  0.00000000000E+00 0. -1.
          4   -1    0    0  502    0 -0.00000000000E+00 -0.00000000000E+00 -0.23872718563E+02  0.23872718563E+02  0.00000000000E+00 0.  1.
        -13    1    1    2    0    0 -0.21776865693E+02 -0.40558947619E+02  0.47431521829E+02  0.66098566841E+02  0.10566000000E+00 0.  1.
         13    1    1    2    0    0  0.29715543788E+02  0.49248513564E+02  0.11217755347E+03  0.12606444502E+03  0.10566000000E+00 0. -1.
          4    1    1    2  501    0 -0.79386780946E+01 -0.86895659451E+01 -0.30362544797E+01  0.12155246088E+02  0.00000000000E+00 0.  1.
</event>
<event>
 6    1  0.2569591E-005  0.1096901E+04  0.7818608E-02  0.9052212E-01
         -4   -1    0    0    0  501 -0.00000000000E+00  0.00000000000E+00  0.18148507592E+04  0.18148507592E+04  0.00000000000E+00 0. -1.
         21   -1    0    0  501  502  0.00000000000E+00 -0.00000000000E+00 -0.24729900337E+03  0.24729900337E+03  0.00000000000E+00 0. -1.
   -9000010    2    1    2    0  502  0.23886988232E+03  0.31361240785E+02  0.12399158015E+04  0.16554709239E+04  0.10701170202E+04 0.  0.
        -13    1    1    2    0    0 -0.23886988232E+03 -0.31361240785E+02  0.32763595438E+03  0.40667883873E+03  0.10566000000E+00 0.  1.
         13    1    3    3    0    0 -0.25052437006E+03  0.40279874122E+03  0.64136382036E+03  0.79771977984E+03  0.10566000000E+00 0. -1.
         -4    1    3    3    0  502  0.48939425238E+03 -0.37143750043E+03  0.59855198113E+03  0.85775114404E+03  0.00000000000E+00 0. -1.
</event>
<event>
 5    1  0.2569591E-005  0.3638778E+03  0.7818608E-02  0.9849933E-01
         21   -1    0    0  501  502  0.00000000000E+00  0.00000000000E+00  0.42748665097E+03  0.42748665097E+03  0.00000000000E+00 0. -1.
          4   -1    0    0  502    0 -0.00000000000E+00 -0.00000000000E+00 -0.37235132145E+03  0.37235132145E+03  0.00000000000E+00 0.  1.
        -13    1    1    2    0    0 -0.13064108183E+03 -0.24001725322E+03 -0.15440755049E+03  0.31387430114E+03  0.10566000000E+00 0.  1.
         13    1    1    2    0    0  0.15422756515E+03  0.31570960262E+03  0.20444578104E+03  0.40651787610E+03  0.10566000000E+00 0. -1.
          4    1    1    2  501    0 -0.23586483323E+02 -0.75692349400E+02  0.50970989717E+01  0.79445795176E+02  0.00000000000E+00 0.  1.
</event>
<event>
 6    1  0.2569591E-005  0.1073490E+04  0.7818608E-02  0.8953962E-01
         -4   -1    0    0    0  501 -0.00000000000E+00  0.00000000000E+00  0.44413570827E+03  0.44413570827E+03  0.00000000000E+00 0. -1.
         21   -1    0    0  501  502  0.00000000000E+00 -0.00000000000E+00 -0.12244431517E+04  0.12244431517E+04  0.00000000000E+00 0. -1.
   -9000010    2    1    2    0  502 -0.35448125685E+03 -0.14343220555E+03 -0.68851074296E+03  0.12753150752E+04  0.10030711534E+04 0.  0.
        -13    1    1    2    0    0  0.35448125685E+03  0.14343220555E+03 -0.91796700475E+02  0.39326378479E+03  0.10566000000E+00 0.  1.
         13    1    3    3    0    0 -0.17620059016E+03 -0.94832514794E+02 -0.94121877329E+03  0.96225393955E+03  0.10566000000E+00 0. -1.
         -4    1    3    3    0  502 -0.17828066668E+03 -0.48599690756E+02  0.25270803032E+03  0.31306113563E+03  0.00000000000E+00 0. -1.
</event>
<event>
 5    1  0.2569591E-005  0.8284366E+02  0.7818608E-02  0.1197100E+00
         21   -1    0    0  501  502  0.00000000000E+00  0.00000000000E+00  0.13398169551E+03  0.13398169551E+03  0.00000000000E+00 0. -1.
          4   -1    0    0  502    0 -0.00000000000E+00 -0.00000000000E+00 -0.55243051526E+02  0.55243051526E+02  0.00000000000E+00 0.  1.
        -13    1    1    2    0    0  0.57252381250E+02 -0.35087698195E+02  0.51691006934E+02  0.84740504396E+02  0.10566000000E+00 0.  1.
         13    1    1    2    0    0 -0.72522112548E+02  0.37885351357E+02  0.11698987885E+02  0.82653700083E+02  0.10566000000E+00 0. -1.
          4    1    1    2  501    0  0.15269731298E+02 -0.27976531617E+01  0.15348649160E+02  0.21830542553E+02  0.00000000000E+00 0.  1.
</event>
<event>
 6    1  0.2569591E-005  0.9579673E+03  0.7818608E-02  0.9323844E-01
          4   -1    0    0  502    0 -0.00000000000E+00  0.00000000000E+00  0.46669244448E+03  0.46669244448E+03  0.00000000000E+00 0.  1.
         21   -1    0    0  501  502  0.00000000000E+00 -0.00000000000E+00 -0.64615400056E+03  0.64615400056E+03  0.00000000000E+00 0.  1.
    9000010    2    1    2  501    0 -0.61885015734E+01 -0.12576862749E+03 -0.98213081850E+02  0.96298860928E+03  0.94965530954E+03 0.  0.
        -13    1    3    3    0    0 -0.19968822742E+03 -0.71533945227E+02 -0.48375609343E+03  0.52821630284E+03  0.10566000000E+00 0.  1.
         13    1    1    2    0    0  0.61885015734E+01  0.12576862749E+03 -0.81248474232E+02  0.14985783577E+03  0.10566000000E+00 0. -1.
          4    1    3    3  501    0  0.19349972584E+03 -0.54234682264E+02  0.38554301158E+03  0.43477230643E+03  0.00000000000E+00 0.  1.
</event>
<event>
 5    1  0.2569591E-005  0.2609222E+03  0.7818608E-02  0.1048654E+00
          4   -1    0    0  502    0 -0.00000000000E+00  0.00000000000E+00  0.15353010620E+04  0.15353010620E+04  0.00000000000E+00 0.  1.
         21   -1    0    0  501  502  0.00000000000E+00 -0.00000000000E+00 -0.24438615241E+02  0.24438615241E+02  0.00000000000E+00 0. -1.
        -13    1    1    2    0    0  0.45897296774E+02 -0.59772267838E+01  0.30981286487E+02  0.55696861380E+02  0.10566000000E+00 0.  1.
         13    1    1    2    0    0 -0.44400003850E+02 -0.11831715567E+03  0.47579894123E+03  0.49229559546E+03  0.10566000000E+00 0. -1.
          4    1    1    2  501    0 -0.14972929247E+01  0.12429438246E+03  0.10040822191E+04  0.10117472205E+04  0.00000000000E+00 0.  1.
</event>
<event>
 5    1  0.2569591E-005  0.8204829E+02  0.7818608E-02  0.1200594E+00
         21   -1    0    0  501  502  0.00000000000E+00  0.00000000000E+00  0.17371067604E+02  0.17371067604E+02  0.00000000000E+00 0. -1.
          4   -1    0    0  502    0 -0.00000000000E+00 -0.00000000000E+00 -0.40895823663E+03  0.40895823663E+03  0.00000000000E+00 0.  1.
        -13    1    1    2    0    0 -0.24538519576E+02  0.11834808727E+02 -0.14068559359E+03  0.14329915927E+03  0.10566000000E+00 0.  1.
         13    1    1    2    0    0  0.68751046617E+02 -0.36359853655E+02 -0.12332749237E+03  0.14580269856E+03  0.10566000000E+00 0. -1.
          4    1    1    2  501    0 -0.44212527041E+02  0.24525044929E+02 -0.12757408307E+03  0.13722744641E+03  0.00000000000E+00 0.  1.
</event>
<event>
 5    1  0.2569591E-005  0.4629231E+02  0.7818608E-02  0.1309027E+00
          4   -1    0    0  502    0 -0.00000000000E+00  0.00000000000E+00  0.43864820024E+02  0.43864820024E+02  0.00000000000E+00 0.  1.
         21   -1    0    0  501  502  0.00000000000E+00 -0.00000000000E+00 -0.78853945680E+02  0.78853945680E+02  0.00000000000E+00 0. -1.
        -13    1    1    2    0    0 -0.12024696472E+02 -0.16819100382E+02  0.93254602097E+01  0.22681508660E+02  0.10566000000E+00 0.  1.
         13    1    1    2    0    0  0.16198804991E+02  0.42093203006E+02 -0.55980684631E+02  0.71889409778E+02  0.10566000000E+00 0. -1.
          4    1    1    2  501    0 -0.41741085193E+01 -0.25274102624E+02  0.11666098765E+02  0.28147847267E+02  0.00000000000E+00 0.  1.
</event>
<event>
 6    1  0.2569591E-005  0.9905356E+03  0.7818608E-02  0.9078099E-01
         21   -1    0    0  501  502  0.00000000000E+00  0.00000000000E+00  0.16927765487E+03  0.16927765487E+03  0.00000000000E+00 0. -1.
         -4   -1    0    0    0  501 -0.00000000000E+00 -0.00000000000E+00 -0.25018871814E+04  0.25018871814E+04  0.00000000000E+00 0. -1.
   -9000010    2    1    2    0  502 -0.20315879877E+03  0.21399598096E+03 -0.16056623122E+04  0.18866139832E+04  0.94556495471E+03 0.  0.
        -13    1    1    2    0    0  0.20315879877E+03 -0.21399598096E+03 -0.72694721431E+03  0.78455085300E+03  0.10566000000E+00 0.  1.
         13    1    3    3    0    0 -0.32120864417E+03 -0.30909169435E+03 -0.60718866478E+03  0.75325344633E+03  0.10566000000E+00 0. -1.
         -4    1    3    3    0  502  0.11804984540E+03  0.52308767530E+03 -0.99847364739E+03  0.11333605369E+04  0.00000000000E+00 0. -1.
</event>
<event>
 6    1  0.2569591E-005  0.1026168E+04  0.7818608E-02  0.9193251E-01
         21   -1    0    0  501  502  0.00000000000E+00  0.00000000000E+00  0.10735831010E+04  0.10735831010E+04  0.00000000000E+00 0. -1.
         -4   -1    0    0    0  501 -0.00000000000E+00 -0.00000000000E+00 -0.50998822167E+03  0.50998822167E+03  0.00000000000E+00 0. -1.
   -9000010    2    1    2    0  502  0.73423620838E+02 -0.15201624448E+03  0.79432212916E+03  0.12976779131E+04  0.10121859289E+04 0.  0.
        -13    1    1    2    0    0 -0.73423620838E+02  0.15201624448E+03 -0.23072724981E+03  0.28589340960E+03  0.10566000000E+00 0.  1.
         13    1    3    3    0    0 -0.94567463517E+02 -0.42830738817E+03  0.86212666917E+03  0.96729138773E+03  0.10566000000E+00 0. -1.
         -4    1    3    3    0  502  0.16799108436E+03  0.27629114369E+03 -0.67804540012E+02  0.33038652537E+03  0.00000000000E+00 0. -1.
</event>
<event>
 6    1  0.2569591E-005  0.1162446E+04  0.7818608E-02  0.8799229E-01
          4   -1    0    0  502    0 -0.00000000000E+00  0.00000000000E+00  0.37251909158E+04  0.37251909158E+04  0.00000000000E+00 0.  1.
         21   -1    0    0  501  502  0.00000000000E+00 -0.00000000000E+00 -0.26926849123E+03  0.26926849123E+03  0.00000000000E+00 0.  1.
    9000010    2    1    2  501    0  0.29096544578E+02  0.57265372749E+03  0.12157174503E+04  0.16820370325E+04  0.10111877962E+04 0.  0.
        -13    1    3    3    0    0 -0.25845635204E+03  0.52939666947E+03  0.19476198811E+03  0.62047785032E+03  0.10566000000E+00 0.  1.
         13    1    1    2    0    0 -0.29096544578E+02 -0.57265372749E+03  0.22402049743E+04  0.23124223746E+04  0.10566000000E+00 0. -1.
          4    1    3    3  501    0  0.28755289661E+03  0.43257058019E+02  0.10209554622E+04  0.10615591822E+04  0.00000000000E+00 0.  1.
</event>
<event>
 5    1  0.2569591E-005  0.1711313E+03  0.7818608E-02  0.1084806E+00
         21   -1    0    0  501  502  0.00000000000E+00  0.00000000000E+00  0.80286377421E+02  0.80286377421E+02  0.00000000000E+00 0.  1.
         -4   -1    0    0    0  501 -0.00000000000E+00 -0.00000000000E+00 -0.37209006328E+03  0.37209006328E+03  0.00000000000E+00 0. -1.
        -13    1    1    2    0    0 -0.15447910428E+03 -0.33335570860E+02 -0.71611988285E+02  0.17350314687E+03  0.10566000000E+00 0.  1.
         13    1    1    2    0    0  0.15046552376E+03  0.44151391984E+02 -0.21527765375E+03  0.26633381052E+03  0.10566000000E+00 0. -1.
         -4    1    1    2    0  502  0.40135805150E+01 -0.10815821125E+02 -0.49140438201E+01  0.12539483315E+02  0.00000000000E+00 0. -1.
</event>
<event>
 6    1  0.2569591E-005  0.1036140E+04  0.7818608E-02  0.9048646E-01
          4   -1    0    0  502    0 -0.00000000000E+00  0.00000000000E+00  0.54949019639E+03  0.54949019639E+03  0.00000000000E+00 0.  1.
         21   -1    0    0  501  502  0.00000000000E+00 -0.00000000000E+00 -0.96520832229E+03  0.96520832229E+03  0.00000000000E+00 0. -1.
    9000010    2    1    2  501    0  0.26361912946E+03  0.12071687354E+03 -0.35770695077E+02  0.10367574446E+04  0.99474561937E+03 0.  0.
        -13    1    3    3    0    0  0.60792361769E+03 -0.11411368629E+03 -0.93738081311E+00  0.61854179179E+03  0.10566000000E+00 0.  1.
         13    1    1    2    0    0 -0.26361912946E+03 -0.12071687354E+03 -0.37994743082E+03  0.47794107412E+03  0.10566000000E+00 0. -1.
          4    1    3    3  501    0 -0.34430448823E+03  0.23483055982E+03 -0.34833314264E+02  0.41821565277E+03  0.00000000000E+00 0.  1.
</event>
<event>
 5    1  0.2795287E-005  0.1597442E+03  0.7818608E-02  0.1100479E+00
         21   -1    0    0  501  502  0.00000000000E+00  0.00000000000E+00  0.17164066787E+03  0.17164066787E+03  0.00000000000E+00 0. -1.
          4   -1    0    0  502    0 -0.00000000000E+00 -0.00000000000E+00 -0.17542747867E+03  0.17542747867E+03  0.00000000000E+00 0.  1.
        -13    1    1    2    0    0 -0.10387424000E+03 -0.24110374950E+01 -0.10145139428E+03  0.14521731096E+03  0.10566000000E+00 0.  1.
         13    1    1    2    0    0  0.12070611585E+03 -0.37292169802E+02  0.96041202223E+02  0.15869655327E+03  0.10566000000E+00 0. -1.
          4    1    1    2  501    0 -0.16831875847E+02  0.39703207297E+02  0.16233812629E+01  0.43154282301E+02  0.00000000000E+00 0.  1.
</event>
<event>
 5    1  0.2569591E-005  0.3560592E+03  0.7818608E-02  0.9920248E-01
          4   -1    0    0  502    0 -0.00000000000E+00  0.00000000000E+00  0.76845725560E+03  0.76845725560E+03  0.00000000000E+00 0.  1.
         21   -1    0    0  501  502  0.00000000000E+00 -0.00000000000E+00 -0.15350400648E+03  0.15350400648E+03  0.00000000000E+00 0. -1.
        -13    1    1    2    0    0  0.21509128510E+03 -0.20846178124E+03  0.41382604264E+03  0.51085475421E+03  0.10566000000E+00 0.  1.
         13    1    1    2    0    0 -0.17048935136E+03  0.24221729047E+03  0.13802686758E+03  0.32678320347E+03  0.10566000000E+00 0. -1.
          4    1    1    2  501    0 -0.44601933734E+02 -0.33755509225E+02  0.63100338899E+02  0.84323304401E+02  0.00000000000E+00 0.  1.
</event>
<event>
 5    1  0.2569591E-005  0.6738904E+02  0.7818608E-02  0.1236667E+00
          4   -1    0    0  502    0 -0.00000000000E+00  0.00000000000E+00  0.13039381697E+03  0.13039381697E+03  0.00000000000E+00 0.  1.
         21   -1    0    0  501  502  0.00000000000E+00 -0.00000000000E+00 -0.47670480123E+02  0.47670480123E+02  0.00000000000E+00 0. -1.
        -13    1    1    2    0    0  0.11127716926E+02 -0.12350687317E+02  0.14971245363E+02  0.22372190615E+02  0.10566000000E+00 0.  1.
         13    1    1    2    0    0 -0.12638754654E+02  0.62020252103E+02 -0.93316575517E+01  0.63979221524E+02  0.10566000000E+00 0. -1.
          4    1    1    2  501    0  0.15110377282E+01 -0.49669564786E+02  0.77083749035E+02  0.91712884952E+02  0.00000000000E+00 0.  1.
</event>
<event>
 5    1  0.2569591E-005  0.1230571E+03  0.7818608E-02  0.1132116E+00
         21   -1    0    0  501  502  0.00000000000E+00  0.00000000000E+00  0.10449331833E+03  0.10449331833E+03  0.00000000000E+00 0.  1.
         -4   -1    0    0    0  501 -0.00000000000E+00 -0.00000000000E+00 -0.15011310421E+03  0.15011310421E+03  0.00000000000E+00 0. -1.
        -13    1    1    2    0    0 -0.95941858253E+02  0.72437248801E+02  0.77682087767E+01  0.12046722131E+03  0.10566000000E+00 0.  1.
         13    1    1    2    0    0  0.49467265435E+02 -0.51773603900E+02 -0.24712100809E+02  0.75751009900E+02  0.10566000000E+00 0. -1.
         -4    1    1    2    0  502  0.46474592818E+02 -0.20663644900E+02 -0.28675893856E+02  0.58388191328E+02  0.00000000000E+00 0. -1.
</event>
<event>
 6    1  0.2569591E-005  0.1128701E+04  0.7818608E-02  0.8836284E-01
         21   -1    0    0  501  502  0.00000000000E+00  0.00000000000E+00  0.58573018540E+03  0.58573018540E+03  0.00000000000E+00 0.  1.
          4   -1    0    0  502    0 -0.00000000000E+00 -0.00000000000E+00 -0.14923902522E+04  0.14923902522E+04  0.00000000000E+00 0.  1.
    9000010    2    1    2  501    0 -0.17515718204E+03  0.50632265257E+03 -0.13221937802E+03  0.11364192862E+04  0.99344056853E+03 0.  0.
        -13    1    3    3    0    0 -0.27758259830E+03  0.31150985003E+02  0.35263545545E+03  0.44986026537E+03  0.10566000000E+00 0.  1.
         13    1    1    2    0    0  0.17515718204E+03 -0.50632265257E+03 -0.77444068875E+03  0.94170115136E+03  0.10566000000E+00 0. -1.
          4    1    3    3  501    0  0.10242541627E+03  0.47517166756E+03 -0.48485483347E+03  0.68655902084E+03  0.00000000000E+00 0.  1.
</event>
<event>
 6    1  0.2569591E-005  0.1056643E+04  0.7818608E-02  0.8962438E-01
         -4   -1    0    0    0  501 -0.00000000000E+00  0.00000000000E+00  0.27613875333E+04  0.27613875333E+04  0.00000000000E+00 0. -1.
         21   -1    0    0  501  502  0.00000000000E+00 -0.00000000000E+00 -0.18933832926E+03  0.18933832926E+03  0.00000000000E+00 0. -1.
   -9000010    2    1    2    0  502 -0.28229869552E+03 -0.26521314163E+03  0.19519189851E+04  0.22195678334E+04  0.98308854061E+03 0.  0.
        -13    1    1    2    0    0  0.28229869552E+03  0.26521314163E+03  0.62013021887E+03  0.73115802909E+03  0.10566000000E+00 0.  1.
         13    1    3    3    0    0 -0.54090579682E+03  0.10330942770E+03  0.70975300481E+03  0.89833248738E+03  0.10566000000E+00 0. -1.
         -4    1    3    3    0  502  0.25860710131E+03 -0.36852256933E+03  0.12421659803E+04  0.13212353460E+04  0.00000000000E+00 0. -1.
</event>
<event>
 6    1  0.2569591E-005  0.1033228E+04  0.7818608E-02  0.9115754E-01
         21   -1    0    0  501  502  0.00000000000E+00  0.00000000000E+00  0.37969497197E+03  0.37969497197E+03  0.00000000000E+00 0. -1.
         -4   -1    0    0    0  501 -0.00000000000E+00 -0.00000000000E+00 -0.16599277884E+04  0.16599277884E+04  0.00000000000E+00 0. -1.
   -9000010    2    1    2    0  502  0.98809425476E+02 -0.20098508976E+03 -0.36252359935E+03  0.10949807503E+04  0.10086630630E+04 0.  0.
        -13    1    1    2    0    0 -0.98809425476E+02  0.20098508976E+03 -0.91770921705E+03  0.94464201002E+03  0.10566000000E+00 0.  1.
         13    1    3    3    0    0  0.61600977351E+02  0.31468879548E+03  0.16133137644E+03  0.35895897063E+03  0.10566000000E+00 0. -1.
         -4    1    3    3    0  502  0.37208448124E+02 -0.51567388523E+03 -0.52385497578E+03  0.73602177969E+03  0.00000000000E+00 0. -1.
</event>
<event>
 6    1  0.2569591E-005  0.1057463E+04  0.7818608E-02  0.8975613E-01
         21   -1    0    0  501  502  0.00000000000E+00  0.00000000000E+00  0.49107552068E+03  0.49107552068E+03  0.00000000000E+00 0. -1.
         -4   -1    0    0    0  501 -0.00000000000E+00 -0.00000000000E+00 -0.10340755592E+04  0.10340755592E+04  0.00000000000E+00 0. -1.
   -9000010    2    1    2    0  502 -0.32176481658E+03  0.17491813918E+03 -0.37229058149E+03  0.11210834092E+04  0.99201753045E+03 0.  0.
        -13    1    1    2    0    0  0.32176481658E+03 -0.17491813918E+03 -0.17070945703E+03  0.40406767068E+03  0.10566000000E+00 0.  1.
         13    1    3    3    0    0 -0.33973886622E+03 -0.29749415017E+03  0.89332571751E+02  0.46033203902E+03  0.10566000000E+00 0. -1.
         -4    1    3    3    0  502  0.17974049639E+02  0.47241228935E+03 -0.46162315324E+03  0.66075137018E+03  0.00000000000E+00 0. -1.
</event>
<event>
 6    1  0.2569591E-005  0.1079778E+04  0.7818608E-02  0.8923082E-01
         21   -1    0    0  501  502  0.00000000000E+00  0.00000000000E+00  0.39786695298E+03  0.39786695298E+03  0.00000000000E+00 0.  1.
          4   -1    0    0  502    0 -0.00000000000E+00 -0.00000000000E+00 -0.17445845079E+04  0.17445845079E+04  0.00000000000E+00 0.  1.
    9000010    2    1    2  501    0  0.17939912295E+03 -0.38695980080E+03 -0.49067610548E+03  0.11860368504E+04  0.99196695376E+03 0.  0.
        -13    1    3    3    0    0 -0.18221338647E+03 -0.48895157338E+03  0.53737216262E+02  0.52455987160E+03  0.10566000000E+00 0.  1.
         13    1    1    2    0    0 -0.17939912295E+03  0.38695980080E+03 -0.85604144948E+03  0.95641461048E+03  0.10566000000E+00 0. -1.
          4    1    3    3  501    0  0.36161250942E+03  0.10199177257E+03 -0.54441332174E+03  0.66147697883E+03  0.00000000000E+00 0.  1.
</event>
<event>
 6    1  0.2569591E-005  0.1036301E+04  0.7818608E-02  0.9050345E-01
         21   -1    0    0  501  502  0.00000000000E+00  0.00000000000E+00  0.30205984120E+03  0.30205984120E+03  0.00000000000E+00 0.  1.
          4   -1    0    0  502    0 -0.00000000000E+00 -0.00000000000E+00 -0.15640401913E+04  0.15640401913E+04  0.00000000000E+00 0.  1.
    9000010    2    1    2  501    0  0.28776046360E+03  0.70341712060E+01 -0.75167140591E+03  0.12802068736E+04  0.99552206040E+03 0.  0.
        -13    1    3    3    0    0 -0.11521654312E+03  0.29703506252E+03  0.64338891426E+02  0.32502951296E+03  0.10566000000E+00 0.  1.
         13    1    1    2    0    0 -0.28776046360E+03 -0.70341712060E+01 -0.51030894422E+03  0.58589315893E+03  0.10566000000E+00 0. -1.
          4    1    3    3  501    0  0.40297700672E+03 -0.29000089132E+03 -0.81601029733E+03  0.95517736063E+03  0.00000000000E+00 0.  1.
</event>
<event>
 6    1  0.2569591E-005  0.1115891E+04  0.7818608E-02  0.8885013E-01
          4   -1    0    0  502    0 -0.00000000000E+00  0.00000000000E+00  0.17964952726E+04  0.17964952726E+04  0.00000000000E+00 0.  1.
         21   -1    0    0  501  502  0.00000000000E+00 -0.00000000000E+00 -0.35043525783E+03  0.35043525783E+03  0.00000000000E+00 0. -1.
    9000010    2    1    2  501    0 -0.60744563701E+02 -0.44823478611E+03  0.11709353292E+04  0.16174988263E+04  0.10201022412E+04 0.  0.
        -13    1    3    3    0    0  0.42671055013E+03  0.12489279851E+02  0.31741347261E+03  0.53196729173E+03  0.10566000000E+00 0.  1.
         13    1    1    2    0    0  0.60744563701E+02  0.44823478611E+03  0.27512468554E+03  0.52943170405E+03  0.10566000000E+00 0. -1.
          4    1    3    3  501    0 -0.48745511384E+03 -0.46072406596E+03  0.85352185659E+03  0.10855315346E+04  0.00000000000E+00 0.  1.
</event>
<event>
 5    1  0.2569591E-005  0.1080340E+03  0.7818608E-02  0.1157694E+00
          4   -1    0    0  502    0 -0.00000000000E+00  0.00000000000E+00  0.82445472489E+02  0.82445472489E+02  0.00000000000E+00 0.  1.
         21   -1    0    0  501  502  0.00000000000E+00 -0.00000000000E+00 -0.14204739674E+03  0.14204739674E+03  0.00000000000E+00 0. -1.
        -13    1    1    2    0    0  0.39849227645E+02  0.83130160051E+01  0.20072283275E+02  0.45386946349E+02  0.10566000000E+00 0.  1.
         13    1    1    2    0    0 -0.69626992487E+02 -0.62717659894E+02 -0.68525016236E+02  0.11609096416E+03  0.10566000000E+00 0. -1.
          4    1    1    2  501    0  0.29777764842E+02  0.54404643889E+02 -0.11149191287E+02  0.63014958717E+02  0.00000000000E+00 0.  1.
</event>
<event>
 5    1  0.2569591E-005  0.7842703E+02  0.7818608E-02  0.1217225E+00
          4   -1    0    0  502    0 -0.00000000000E+00  0.00000000000E+00  0.36317462090E+02  0.36317462090E+02  0.00000000000E+00 0.  1.
         21   -1    0    0  501  502  0.00000000000E+00 -0.00000000000E+00 -0.16169886132E+03  0.16169886132E+03  0.00000000000E+00 0. -1.
        -13    1    1    2    0    0 -0.44636633342E+02 -0.36304050614E+02 -0.79196446538E+01  0.58078783239E+02  0.10566000000E+00 0.  1.
         13    1    1    2    0    0  0.37030057411E+02  0.48874296792E+02 -0.96713572563E+02  0.11451396561E+03  0.10566000000E+00 0. -1.
          4    1    1    2  501    0  0.76065759313E+01 -0.12570246179E+02 -0.20748182011E+02  0.25423574555E+02  0.00000000000E+00 0.  1.
</event>
<event>
 6    1  0.2569591E-005  0.1162663E+04  0.7818608E-02  0.8756305E-01
          4   -1    0    0  502    0 -0.00000000000E+00  0.00000000000E+00  0.94285348012E+03  0.94285348012E+03  0.00000000000E+00 0.  1.
         21   -1    0    0  501  502  0.00000000000E+00 -0.00000000000E+00 -0.95787309307E+03  0.95787309307E+03  0.00000000000E+00 0. -1.
    9000010    2    1    2  501    0  0.44011865058E+03 -0.52866305157E+03  0.20059214811E+03  0.11798399723E+04  0.93733457294E+03 0.  0.
        -13    1    3    3    0    0  0.34347890382E+03 -0.23762712007E+03 -0.35308368630E+03  0.54691179019E+03  0.10566000000E+00 0.  1.
         13    1    1    2    0    0 -0.44011865058E+03  0.52866305157E+03 -0.21561176106E+03  0.72088660090E+03  0.10566000000E+00 0. -1.
          4    1    3    3  501    0  0.96639746766E+02 -0.29103593150E+03  0.55367583441E+03  0.63292818209E+03  0.00000000000E+00 0.  1.
</event>
<event>
 6    1  0.2569591E-005  0.1093971E+04  0.7818608E-02  0.8901689E-01
         -4   -1    0    0    0  501 -0.00000000000E+00  0.00000000000E+00  0.15268018805E+04  0.15268018805E+04  0.00000000000E+00 0. -1.
         21   -1    0    0  501  502  0.00000000000E+00 -0.00000000000E+00 -0.39005821146E+03  0.39005821146E+03  0.00000000000E+00 0.  1.
   -9000010    2    1    2    0  502 -0.18462861789E+03 -0.40818807029E+03  0.84380400914E+03  0.13815855056E+04  0.99803210182E+03 0.  0.
        -13    1    1    2    0    0  0.18462861789E+03  0.40818807029E+03  0.29293965992E+03  0.53527458635E+03  0.10566000000E+00 0.  1.
         13    1    3    3    0    0  0.29723136131E+03 -0.14227978944E+03 -0.48624906215E+02  0.33309820368E+03  0.10566000000E+00 0. -1.
         -4    1    3    3    0  502 -0.48185997920E+03 -0.26590828086E+03  0.89242891536E+03  0.10484873019E+04  0.00000000000E+00 0. -1.
</event>
<event>
 6    1  0.2569591E-005  0.1079378E+04  0.7818608E-02  0.8965851E-01
         21   -1    0    0  501  502  0.00000000000E+00  0.00000000000E+00  0.51226307636E+03  0.51226307636E+03  0.00000000000E+00 0.  1.
          4   -1    0    0  502    0 -0.00000000000E+00 -0.00000000000E+00 -0.10277628291E+04  0.10277628291E+04  0.00000000000E+00 0.  1.
    9000010    2    1    2  501    0 -0.23499046417E+02 -0.35757690579E+03 -0.29382712320E+03  0.11186564540E+04  0.10181573725E+04 0.  0.
        -13    1    3    3    0    0  0.69894932034E+02 -0.46025460097E+02  0.37004557547E+03  0.37939080588E+03  0.10566000000E+00 0.  1.
         13    1    1    2    0    0  0.23499046417E+02  0.35757690579E+03 -0.22167262955E+03  0.42136945143E+03  0.10566000000E+00 0. -1.
          4    1    3    3  501    0 -0.93393978451E+02 -0.31155144569E+03 -0.66387269867E+03  0.73926564817E+03  0.00000000000E+00 0.  1.
</event>
<event>
 6    1  0.2569591E-005  0.1060680E+04  0.7818608E-02  0.8970027E-01
         -4   -1    0    0    0  501 -0.00000000000E+00  0.00000000000E+00  0.20649968794E+04  0.20649968794E+04  0.00000000000E+00 0. -1.
         21   -1    0    0  501  502  0.00000000000E+00 -0.00000000000E+00 -0.31600034006E+03  0.31600034006E+03  0.00000000000E+00 0.  1.
   -9000010    2    1    2    0  502 -0.13644096930E+03  0.34528185855E+03  0.17038161611E+04  0.20069959124E+04  0.99358310256E+03 0.  0.
        -13    1    1    2    0    0  0.13644096930E+03 -0.34528185855E+03  0.45180378269E+02  0.37400130707E+03  0.10566000000E+00 0.  1.
         13    1    3    3    0    0  0.33850779872E+03  0.41136359840E+03  0.59333549498E+03  0.79740489129E+03  0.10566000000E+00 0. -1.
         -4    1    3    3    0  502 -0.47494876802E+03 -0.66081739847E+02  0.11104806661E+04  0.12095910211E+04  0.00000000000E+00 0. -1.
</event>
<event>
 5    1  0.2569591E-005  0.5948980E+03  0.7818608E-02  0.9294477E-01
         21   -1    0    0  501  502  0.00000000000E+00  0.00000000000E+00  0.50196422241E+03  0.50196422241E+03  0.00000000000E+00 0. -1.
          4   -1    0    0  502    0 -0.00000000000E+00 -0.00000000000E+00 -0.74079887890E+03  0.74079887890E+03  0.00000000000E+00 0.  1.
        -13    1    1    2    0    0 -0.49753128561E+03  0.29855968762E+03  0.20912754666E+02  0.58061400405E+03  0.10566000000E+00 0.  1.
         13    1    1    2    0    0  0.50751200277E+03 -0.29609774806E+03 -0.27087047314E+03  0.64700319454E+03  0.10566000000E+00 0. -1.
          4    1    1    2  501    0 -0.99807171585E+01 -0.24619395515E+01  0.11123061977E+02  0.15145902716E+02  0.00000000000E+00 0.  1.
</event>
<event>
 5    1  0.2569591E-005  0.9945360E+02  0.7818608E-02  0.1178319E+00
         -4   -1    0    0    0  501 -0.00000000000E+00  0.00000000000E+00  0.60566554591E+02  0.60566554591E+02  0.00000000000E+00 0. -1.
         21   -1    0    0  501  502  0.00000000000E+00 -0.00000000000E+00 -0.13057750594E+03  0.13057750594E+03  0.00000000000E+00 0.  1.
        -13    1    1    2    0    0  0.17657565221E+01 -0.73145681609E+02 -0.52759682035E+02  0.90205342672E+02  0.10566000000E+00 0.  1.
         13    1    1    2    0    0  0.23170837782E+02  0.39832949194E+02 -0.32749651236E+02  0.56534081624E+02  0.10566000000E+00 0. -1.
         -4    1    1    2    0  502 -0.24936594304E+02  0.33312732415E+02  0.15498381925E+02  0.44404636230E+02  0.00000000000E+00 0. -1.
</event>
<event>
 6    1  0.2569591E-005  0.9505939E+03  0.7818608E-02  0.9154700E-01
         21   -1    0    0  501  502  0.00000000000E+00  0.00000000000E+00  0.15101535616E+03  0.15101535616E+03  0.00000000000E+00 0. -1.
         -4   -1    0    0    0  501 -0.00000000000E+00 -0.00000000000E+00 -0.25952997472E+04  0.25952997472E+04  0.00000000000E+00 0. -1.
   -9000010    2    1    2    0  502 -0.23045525171E+03 -0.88285615476E+02 -0.15470733750E+04  0.18157821424E+04  0.91800042927E+03 0.  0.
        -13    1    1    2    0    0  0.23045525171E+03  0.88285615476E+02 -0.89721101605E+03  0.93053296096E+03  0.10566000000E+00 0.  1.
         13    1    3    3    0    0 -0.27005214962E+03  0.21766472024E+03 -0.13794052448E+03  0.37327428710E+03  0.10566000000E+00 0. -1.
         -4    1    3    3    0  502  0.39596897910E+02 -0.30595033571E+03 -0.14091328505E+04  0.14425078553E+04  0.00000000000E+00 0. -1.
</event>
<event>
 6    1  0.2569591E-005  0.1054132E+04  0.7818608E-02  0.9008868E-01
         21   -1    0    0  501  502  0.00000000000E+00  0.00000000000E+00  0.21096772712E+03  0.21096772712E+03  0.00000000000E+00 0.  1.
          4   -1    0    0  502    0 -0.00000000000E+00 -0.00000000000E+00 -0.22507049359E+04  0.22507049359E+04  0.00000000000E+00 0.  1.
    9000010    2    1    2  501    0  0.96146584640E+02  0.30845650567E+03 -0.15987437499E+04  0.19149873573E+04  0.10033969399E+04 0.  0.
        -13    1    3    3    0    0 -0.11906167536E+01 -0.22382201311E+03  0.34867644265E+01  0.22385236164E+03  0.10566000000E+00 0.  1.
         13    1    1    2    0    0 -0.96146584640E+02 -0.30845650567E+03 -0.44099345889E+03  0.54668530580E+03  0.10566000000E+00 0. -1.
          4    1    3    3  501    0  0.97337201393E+02  0.53227851878E+03 -0.16022305144E+04  0.16911349956E+04  0.00000000000E+00 0.  1.
</event>
<event>
 6    1  0.2569591E-005  0.1072036E+04  0.7818608E-02  0.8938726E-01
         21   -1    0    0  501  502  0.00000000000E+00  0.00000000000E+00  0.22280418817E+03  0.22280418817E+03  0.00000000000E+00 0.  1.
          4   -1    0    0  502    0 -0.00000000000E+00 -0.00000000000E+00 -0.30226370520E+04  0.30226370520E+04  0.00000000000E+00 0.  1.
    9000010    2    1    2  501    0 -0.40503705014E+03  0.54486928963E+02 -0.12700740702E+04  0.16620316863E+04  0.99107887934E+03 0.  0.
        -13    1    3    3    0    0 -0.46800993294E+02 -0.44865759341E+03 -0.47234267183E+03  0.65313978587E+03  0.10566000000E+00 0.  1.
         13    1    1    2    0    0  0.40503705014E+03 -0.54486928963E+02 -0.15297587936E+04  0.15834095539E+04  0.10566000000E+00 0. -1.
          4    1    3    3  501    0 -0.35823605684E+03  0.50314452237E+03 -0.79773139839E+03  0.10088919005E+04  0.00000000000E+00 0.  1.
</event>
<event>
 5    1  0.2569591E-005  0.9833245E+02  0.7818608E-02  0.1186311E+00
         21   -1    0    0  501  502  0.00000000000E+00  0.00000000000E+00  0.74126643969E+02  0.74126643969E+02  0.00000000000E+00 0.  1.
         -4   -1    0    0    0  501 -0.00000000000E+00 -0.00000000000E+00 -0.98502882245E+02  0.98502882245E+02  0.00000000000E+00 0. -1.
        -13    1    1    2    0    0 -0.53102953325E+02 -0.33452498934E+02  0.18389238913E+02  0.65400065815E+02  0.10566000000E+00 0.  1.
         13    1    1    2    0    0  0.23062865709E+02 -0.10214439214E+02 -0.47740602432E+02  0.53994507385E+02  0.10566000000E+00 0. -1.
         -4    1    1    2    0  502  0.30040087616E+02  0.43666938148E+02  0.49751252435E+01  0.53234953014E+02  0.00000000000E+00 0. -1.
</event>
<event>
 5    1  0.2569591E-005  0.9070125E+02  0.7818608E-02  0.1191009E+00
         21   -1    0    0  501  502  0.00000000000E+00  0.00000000000E+00  0.69367922608E+02  0.69367922608E+02  0.00000000000E+00 0. -1.
          4   -1    0    0  502    0 -0.00000000000E+00 -0.00000000000E+00 -0.10029914482E+03  0.10029914482E+03  0.00000000000E+00 0.  1.
        -13    1    1    2    0    0 -0.43436076217E+02  0.11271828864E+02 -0.50380130745E+02  0.67467885553E+02  0.10566000000E+00 0.  1.
         13    1    1    2    0    0  0.69739406131E+02 -0.16723634762E+02  0.54900400845E+01  0.71926465444E+02  0.10566000000E+00 0. -1.
          4    1    1    2  501    0 -0.26303329914E+02  0.54518058983E+01  0.13958868445E+02  0.30272716435E+02  0.00000000000E+00 0.  1.
</event>
<event>
 6    1  0.2569591E-005  0.1030621E+04  0.7818608E-02  0.9164224E-01
         -4   -1    0    0    0  501 -0.00000000000E+00  0.00000000000E+00  0.13372061493E+04  0.13372061493E+04  0.00000000000E+00 0. -1.
         21   -1    0    0  501  502  0.00000000000E+00 -0.00000000000E+00 -0.27778521134E+03  0.27778521134E+03  0.00000000000E+00 0. -1.
   -9000010    2    1    2    0  502 -0.12860593408E+03 -0.13516411690E+03  0.92720328878E+03  0.13863205433E+04  0.10135925638E+04 0.  0.
        -13    1    1    2    0    0  0.12860593408E+03  0.13516411690E+03  0.13221764919E+03  0.22867081734E+03  0.10566000000E+00 0.  1.
         13    1    3    3    0    0  0.17925389802E+03  0.21589105182E+03 -0.66503712617E+02  0.28838110404E+03  0.10566000000E+00 0. -1.
         -4    1    3    3    0  502 -0.30785983210E+03 -0.35105516873E+03  0.99370700139E+03  0.10979394393E+04  0.00000000000E+00 0. -1.
</event>
<event>
 5    1  0.2569591E-005  0.1045716E+03  0.7818608E-02  0.1183544E+00
         21   -1    0    0  501  502  0.00000000000E+00  0.00000000000E+00  0.67502183848E+02  0.67502183848E+02  0.00000000000E+00 0. -1.
          4   -1    0    0  502    0 -0.00000000000E+00 -0.00000000000E+00 -0.16046401248E+03  0.16046401248E+03  0.00000000000E+00 0.  1.
        -13    1    1    2    0    0 -0.40498138505E+02 -0.62745658460E+02 -0.97879699630E+02  0.12311605761E+03  0.10566000000E+00 0.  1.
         13    1    1    2    0    0  0.44293953098E+02  0.33716223826E+02  0.32640853980E+02  0.64530415640E+02  0.10566000000E+00 0. -1.
          4    1    1    2  501    0 -0.37958145927E+01  0.29029434634E+02 -0.27722982982E+02  0.40319723077E+02  0.00000000000E+00 0.  1.
</event>
<event>
 6    1  0.2569591E-005  0.1028596E+04  0.7818608E-02  0.9072430E-01
          4   -1    0    0  502    0 -0.00000000000E+00  0.00000000000E+00  0.87778384764E+03  0.87778384764E+03  0.00000000000E+00 0.  1.
         21   -1    0    0  501  502  0.00000000000E+00 -0.00000000000E+00 -0.53743380748E+03  0.53743380748E+03  0.00000000000E+00 0.  1.
    9000010    2    1    2  501    0  0.24714853574E+03 -0.10752843874E+03  0.66136070490E+02  0.10307204819E+04  0.99265601706E+03 0.  0.
        -13    1    3    3    0    0 -0.27994487286E+03  0.11549246594E+03 -0.23563080368E+03  0.38370500171E+03  0.10566000000E+00 0.  1.
         13    1    1    2    0    0 -0.24714853574E+03  0.10752843874E+03  0.27421396967E+03  0.38449717318E+03  0.10566000000E+00 0. -1.
          4    1    3    3  501    0  0.52709340860E+03 -0.22302090468E+03  0.30176687417E+03  0.64701548023E+03  0.00000000000E+00 0.  1.
</event>
<event>
 6    1  0.2569591E-005  0.1278054E+04  0.7818608E-02  0.8654242E-01
         21   -1    0    0  501  502  0.00000000000E+00  0.00000000000E+00  0.81071014810E+03  0.81071014810E+03  0.00000000000E+00 0.  1.
         -4   -1    0    0    0  501 -0.00000000000E+00 -0.00000000000E+00 -0.16224966395E+04  0.16224966395E+04  0.00000000000E+00 0. -1.
   -9000010    2    1    2    0  502 -0.16627954245E+03 -0.78789068115E+03 -0.98005492179E+03  0.16105678100E+04  0.99247186817E+03 0.  0.
        -13    1    1    2    0    0  0.16627954245E+03  0.78789068115E+03  0.16826843039E+03  0.82263897763E+03  0.10566000000E+00 0.  1.
         13    1    3    3    0    0  0.25129403375E+03 -0.70701662086E+03 -0.29924768385E+03  0.80781828466E+03  0.10566000000E+00 0. -1.
         -4    1    3    3    0  502 -0.41757357620E+03 -0.80874060289E+02 -0.68080723793E+03  0.80274952531E+03  0.00000000000E+00 0. -1.
</event>
<event>
 5    1  0.2569591E-005  0.1451249E+03  0.7818608E-02  0.1138004E+00
         21   -1    0    0  501  502  0.00000000000E+00  0.00000000000E+00  0.94439752909E+01  0.94439752909E+01  0.00000000000E+00 0. -1.
          4   -1    0    0  502    0 -0.00000000000E+00 -0.00000000000E+00 -0.11608873197E+04  0.11608873197E+04  0.00000000000E+00 0.  1.
        -13    1    1    2    0    0  0.93166551674E+00 -0.48561453483E+02 -0.10480833907E+03  0.11551572130E+03  0.10566000000E+00 0.  1.
         13    1    1    2    0    0 -0.47720551964E+02  0.41273715786E+02 -0.29407074410E+03  0.30076300369E+03  0.10566000000E+00 0. -1.
          4    1    1    2  501    0  0.46788886447E+02  0.72877376971E+01 -0.75256426120E+03  0.75405256995E+03  0.00000000000E+00 0.  1.
</event>
<event>
 6    1  0.2569591E-005  0.1052475E+04  0.7818608E-02  0.9009509E-01
         -4   -1    0    0    0  501 -0.00000000000E+00  0.00000000000E+00  0.81503908891E+03  0.81503908891E+03  0.00000000000E+00 0. -1.
         21   -1    0    0  501  502  0.00000000000E+00 -0.00000000000E+00 -0.80382201196E+03  0.80382201196E+03  0.00000000000E+00 0. -1.
   -9000010    2    1    2    0  502 -0.34649570413E+02 -0.32192293301E+03  0.38832081371E+03  0.11218276946E+04  0.10014336495E+04 0.  0.
        -13    1    1    2    0    0  0.34649570413E+02  0.32192293301E+03 -0.37710373676E+03  0.49703340629E+03  0.10566000000E+00 0.  1.
         13    1    3    3    0    0  0.35278020861E+03 -0.71623695157E+02  0.52876594495E+03  0.63966965302E+03  0.10566000000E+00 0. -1.
         -4    1    3    3    0  502 -0.38742977902E+03 -0.25029923785E+03 -0.14044513124E+03  0.48215804155E+03  0.00000000000E+00 0. -1.
</event>
<event>
 6    1  0.2569591E-005  0.1105134E+04  0.7818608E-02  0.8887315E-01
          4   -1    0    0  502    0 -0.00000000000E+00  0.00000000000E+00  0.96879272974E+03  0.96879272974E+03  0.00000000000E+00 0.  1.
         21   -1    0    0  501  502  0.00000000000E+00 -0.00000000000E+00 -0.68937405499E+03  0.68937405499E+03  0.00000000000E+00 0.  1.
    9000010    2    1    2  501    0  0.24744848839E+02 -0.46057580196E+03  0.41009922793E+03  0.11787715459E+04  0.10042801421E+04 0.  0.
        -13    1    3    3    0    0  0.18233449248E+02 -0.42125476794E+03 -0.26792839332E+03  0.49957349138E+03  0.10566000000E+00 0.  1.
         13    1    1    2    0    0 -0.24744848839E+02  0.46057580196E+03 -0.13068055318E+03  0.47939523885E+03  0.10566000000E+00 0. -1.
          4    1    3    3  501    0  0.65113995909E+01 -0.39321034019E+02  0.67802762126E+03  0.67919805449E+03  0.00000000000E+00 0.  1.
</event>
<event>
 6    1  0.2569591E-005  0.1143866E+04  0.7818608E-02  0.8843899E-01
         -4   -1    0    0    0  501 -0.00000000000E+00  0.00000000000E+00  0.21018584614E+04  0.21018584614E+04  0.00000000000E+00 0. -1.
         21   -1    0    0  501  502  0.00000000000E+00 -0.00000000000E+00 -0.44526316189E+03  0.44526316189E+03  0.00000000000E+00 0. -1.
   -9000010    2    1    2    0  502 -0.27148968299E+03  0.41814568270E+03  0.42815602907E+03  0.12213706994E+04  0.10295029578E+04 0.  0.
        -13    1    1    2    0    0  0.27148968299E+03 -0.41814568270E+03  0.12284392705E+04  0.13257509239E+04  0.10566000000E+00 0.  1.
         13    1    3    3    0    0  0.20761245733E+03  0.42821663338E+03 -0.12249171815E+03  0.49140273679E+03  0.10566000000E+00 0. -1.
         -4    1    3    3    0  502 -0.47910214032E+03 -0.10070950677E+02  0.55064774722E+03  0.72996796260E+03  0.00000000000E+00 0. -1.
</event>
<event>
 5    1  0.2569591E-005  0.2095824E+03  0.7818608E-02  0.1054454E+00
          4   -1    0    0  502    0 -0.00000000000E+00  0.00000000000E+00  0.12339054167E+03  0.12339054167E+03  0.00000000000E+00 0.  1.
         21   -1    0    0  501  502  0.00000000000E+00 -0.00000000000E+00 -0.37630313859E+03  0.37630313859E+03  0.00000000000E+00 0. -1.
        -13    1    1    2    0    0  0.53365728689E+02  0.17316649103E+03 -0.15243457169E+03  0.23679283018E+03  0.10566000000E+00 0.  1.
         13    1    1    2    0    0 -0.53211501978E+02 -0.19830599436E+03 -0.57686510832E+02  0.21327089825E+03  0.10566000000E+00 0. -1.
          4    1    1    2  501    0 -0.15422671093E+00  0.25139503329E+02 -0.42791514399E+02  0.49629951824E+02  0.00000000000E+00 0.  1.
</event>
<event>
 6    1  0.2569591E-005  0.1126178E+04  0.7818608E-02  0.8825377E-01
          4   -1    0    0  502    0 -0.00000000000E+00  0.00000000000E+00  0.11729604938E+04  0.11729604938E+04  0.00000000000E+00 0.  1.
         21   -1    0    0  501  502  0.00000000000E+00 -0.00000000000E+00 -0.70896692446E+03  0.70896692446E+03  0.00000000000E+00 0. -1.
    9000010    2    1    2  501    0  0.56193607993E+03 -0.55632221125E+02  0.63378489105E+03  0.12922697158E+04  0.97437704623E+03 0.  0.
        -13    1    3    3    0    0  0.56394876682E+03 -0.31160418597E+03  0.39873964809E+02  0.64554265897E+03  0.10566000000E+00 0.  1.
         13    1    1    2    0    0 -0.56193607993E+03  0.55632221125E+02 -0.16979132174E+03  0.58965770245E+03  0.10566000000E+00 0. -1.
          4    1    3    3  501    0 -0.20126868899E+01  0.25597196485E+03  0.59391092624E+03  0.64672705680E+03  0.00000000000E+00 0.  1.
</event>
<event>
 6    1  0.2569591E-005  0.1081766E+04  0.7818608E-02  0.8950227E-01
         21   -1    0    0  501  502  0.00000000000E+00  0.00000000000E+00  0.16759360218E+03  0.16759360218E+03  0.00000000000E+00 0.  1.
         -4   -1    0    0    0  501 -0.00000000000E+00 -0.00000000000E+00 -0.34925154249E+04  0.34925154249E+04  0.00000000000E+00 0. -1.
   -9000010    2    1    2    0  502  0.14690499174E+03  0.34985283029E+03 -0.19086909788E+04  0.21939276283E+04  0.10130346028E+04 0.  0.
        -13    1    1    2    0    0 -0.14690499174E+03 -0.34985283029E+03 -0.14162308439E+04  0.14661813987E+04  0.10566000000E+00 0.  1.
         13    1    3    3    0    0  0.15044003484E+03 -0.17904415738E+03 -0.22445744674E+02  0.23493155810E+03  0.10566000000E+00 0. -1.
         -4    1    3    3    0  502 -0.35350430949E+01  0.52889698767E+03 -0.18862452341E+04  0.19589960702E+04  0.00000000000E+00 0. -1.
</event>
<event>
 6    1  0.2569591E-005  0.1064847E+04  0.7818608E-02  0.8969421E-01
         -4   -1    0    0    0  501 -0.00000000000E+00  0.00000000000E+00  0.12313406704E+04  0.12313406704E+04  0.00000000000E+00 0. -1.
         21   -1    0    0  501  502  0.00000000000E+00 -0.00000000000E+00 -0.46981020949E+03  0.46981020949E+03  0.00000000000E+00 0.  1.
   -9000010    2    1    2    0  502  0.30359930748E+03  0.20766510681E+03  0.79920243891E+03  0.13313989020E+04  0.99930033616E+03 0.  0.
        -13    1    1    2    0    0 -0.30359930748E+03 -0.20766510681E+03 -0.37671977949E+02  0.36975197792E+03  0.10566000000E+00 0.  1.
         13    1    3    3    0    0 -0.10680177363E+03  0.37319081020E+03 -0.32257509687E+02  0.38951066450E+03  0.10566000000E+00 0. -1.
         -4    1    3    3    0  502  0.41040108110E+03 -0.16552570339E+03  0.83145994860E+03  0.94188823752E+03  0.00000000000E+00 0. -1.
</event>
<event>
 6    1  0.2569591E-005  0.1030552E+04  0.7818608E-02  0.9117272E-01
          4   -1    0    0  502    0 -0.00000000000E+00  0.00000000000E+00  0.30036893386E+04  0.30036893386E+04  0.00000000000E+00 0.  1.
         21   -1    0    0  501  502  0.00000000000E+00 -0.00000000000E+00 -0.13118173380E+03  0.13118173380E+03  0.00000000000E+00 0. -1.
    9000010    2    1    2  501    0 -0.21522601276E+03  0.63372565947E+02  0.23235705963E+04  0.25418532234E+04  0.10058325780E+04 0.  0.
        -13    1    3    3    0    0 -0.31749315043E+03 -0.40649905980E+03  0.87681568819E+03  0.10172753553E+04  0.10566000000E+00 0.  1.
         13    1    1    2    0    0  0.21522601276E+03 -0.63372565947E+02  0.54893700858E+03  0.59301784901E+03  0.10566000000E+00 0. -1.
          4    1    3    3  501    0  0.10226713767E+03  0.46987162575E+03  0.14467549081E+04  0.15245778682E+04  0.00000000000E+00 0.  1.
</event>
<event>
 5    1  0.2569591E-005  0.3704095E+02  0.7818608E-02  0.1367091E+00
         21   -1    0    0  501  502  0.00000000000E+00  0.00000000000E+00  0.23086204901E+02  0.23086204901E+02  0.00000000000E+00 0. -1.
          4   -1    0    0  502    0 -0.00000000000E+00 -0.00000000000E+00 -0.49845714090E+02  0.49845714090E+02  0.00000000000E+00 0.  1.
        -13    1    1    2    0    0 -0.24543300319E+02  0.18309100918E-01 -0.40585785885E+01  0.24876839629E+02  0.10566000000E+00 0.  1.
         13    1    1    2    0    0  0.28184618423E+02  0.11373625631E+02 -0.16066485402E+02  0.34378411727E+02  0.10566000000E+00 0. -1.
          4    1    1    2  501    0 -0.36413181047E+01 -0.11391934732E+02 -0.66344451992E+01  0.13676667634E+02  0.00000000000E+00 0.  1.
</event>
<event>
 5    1  0.2569591E-005  0.3352629E+02  0.7818608E-02  0.1407789E+00
         21   -1    0    0  501  502  0.00000000000E+00  0.00000000000E+00  0.14551399596E+02  0.14551399596E+02  0.00000000000E+00 0.  1.
         -4   -1    0    0    0  501 -0.00000000000E+00 -0.00000000000E+00 -0.20627461297E+03  0.20627461297E+03  0.00000000000E+00 0. -1.
        -13    1    1    2    0    0  0.42146711002E+01  0.20054563758E+02  0.51405679649E+01  0.21127839053E+02  0.10566000000E+00 0.  1.
         13    1    1    2    0    0  0.81731845186E+01 -0.19475013027E+02 -0.12553333126E+03  0.12729770422E+03  0.10566000000E+00 0. -1.
         -4    1    1    2    0  502 -0.12387855619E+02 -0.57955073133E+00 -0.71330450077E+02  0.72400469295E+02  0.00000000000E+00 0. -1.
</event>
<event>
 6    1  0.2569591E-005  0.1047757E+04  0.7818608E-02  0.9080065E-01
          4   -1    0    0  502    0 -0.00000000000E+00  0.00000000000E+00  0.57506849752E+03  0.57506849752E+03  0.00000000000E+00 0.  1.
         21   -1    0    0  501  502  0.00000000000E+00 -0.00000000000E+00 -0.74149083334E+03  0.74149083334E+03  0.00000000000E+00 0. -1.
    9000010    2    1    2  501    0  0.19568926221E+03  0.15133406997E+03 -0.20073450802E+03  0.10668122100E+04  0.10181344020E+04 0.  0.
        -13    1    3    3    0    0 -0.24033966655E+02 -0.15268542404E+03 -0.53960349516E+03  0.56130420756E+03  0.10566000000E+00 0.  1.
         13    1    1    2    0    0 -0.19568926221E+03 -0.15133406997E+03  0.34312172203E+02  0.24974712091E+03  0.10566000000E+00 0. -1.
          4    1    3    3  501    0  0.21972322886E+03  0.30401949402E+03  0.33886898714E+03  0.50550800240E+03  0.00000000000E+00 0.  1.
</event>
<event>
 6    1  0.2569591E-005  0.1089312E+04  0.7818608E-02  0.8946775E-01
         21   -1    0    0  501  502  0.00000000000E+00  0.00000000000E+00  0.26740865248E+03  0.26740865248E+03  0.00000000000E+00 0. -1.
         -4   -1    0    0    0  501 -0.00000000000E+00 -0.00000000000E+00 -0.25016526117E+04  0.25016526117E+04  0.00000000000E+00 0. -1.
   -9000010    2    1    2    0  502  0.23116797410E+03  0.29768566695E+03 -0.21058183484E+04  0.23708797262E+04  0.10220295353E+04 0.  0.
        -13    1    1    2    0    0 -0.23116797410E+03 -0.29768566695E+03 -0.12842561085E+03  0.39818153805E+03  0.10566000000E+00 0.  1.
         13    1    3    3    0    0 -0.38469535166E+03  0.91721018087E+02 -0.49157700844E+03  0.63091300917E+03  0.10566000000E+00 0. -1.
         -4    1    3    3    0  502  0.61586332577E+03  0.20596464886E+03 -0.16142413400E+04  0.17399667170E+04  0.00000000000E+00 0. -1.
</event>
<event>
 5    1  0.2569591E-005  0.1024226E+03  0.7818608E-02  0.1174052E+00
         21   -1    0    0  501  502  0.00000000000E+00  0.00000000000E+00  0.10541822727E+03  0.10541822727E+03  0.00000000000E+00 0. -1.
          4   -1    0    0  502    0 -0.00000000000E+00 -0.00000000000E+00 -0.91140866940E+02  0.91140866940E+02  0.00000000000E+00 0.  1.
        -13    1    1    2    0    0 -0.31658988124E+02 -0.28413549648E+02 -0.24297806794E+02  0.48989957253E+02  0.10566000000E+00 0.  1.
         13    1    1    2    0    0  0.73065783497E+02 -0.12424869752E+02  0.48496393473E+02  0.88571425699E+02  0.10566000000E+00 0. -1.
          4    1    1    2  501    0 -0.41406795373E+02  0.40838419400E+02 -0.99212263446E+01  0.58997711263E+02  0.00000000000E+00 0.  1.
</event>
<event>
 6    1  0.2569591E-005  0.1015142E+04  0.7818608E-02  0.9031927E-01
         21   -1    0    0  501  502  0.00000000000E+00  0.00000000000E+00  0.37416682205E+03  0.37416682205E+03  0.00000000000E+00 0. -1.
         -4   -1    0    0    0  501 -0.00000000000E+00 -0.00000000000E+00 -0.12759485541E+04  0.12759485541E+04  0.00000000000E+00 0. -1.
   -9000010    2    1    2    0  502  0.23608333825E+03  0.23012668564E+03 -0.50369851065E+03  0.11332363803E+04  0.96011398799E+03 0.  0.
        -13    1    1    2    0    0 -0.23608333825E+03 -0.23012668564E+03 -0.39808322142E+03  0.51687899588E+03  0.10566000000E+00 0.  1.
         13    1    3    3    0    0 -0.97089538069E+01  0.41977605645E+03  0.11986713298E+03  0.43666273265E+03  0.10566000000E+00 0. -1.
         -4    1    3    3    0  502  0.24579229205E+03 -0.18964937080E+03 -0.62356564363E+03  0.69657364764E+03  0.00000000000E+00 0. -1.
</event>
<event>
 6    1  0.2569591E-005  0.1062222E+04  0.7818608E-02  0.8937101E-01
         21   -1    0    0  501  502  0.00000000000E+00  0.00000000000E+00  0.57717632027E+03  0.57717632027E+03  0.00000000000E+00 0.  1.
          4   -1    0    0  502    0 -0.00000000000E+00 -0.00000000000E+00 -0.10065685061E+04  0.10065685061E+04  0.00000000000E+00 0.  1.
    9000010    2    1    2  501    0  0.40559693664E+03  0.11983345591E+03 -0.14028766798E+03  0.10714457286E+04  0.97439539580E+03 0.  0.
        -13    1    3    3    0    0  0.42905198807E+03  0.46838622532E+03  0.10605072639E+03  0.64398604974E+03  0.10566000000E+00 0.  1.
         13    1    1    2    0    0 -0.40559693664E+03 -0.11983345591E+03 -0.28910451785E+03  0.51229909777E+03  0.10566000000E+00 0. -1.
          4    1    3    3  501    0 -0.23455051426E+02 -0.34855276940E+03 -0.24633839437E+03  0.42745967884E+03  0.00000000000E+00 0.  1.
</event>
<event>
 6    1  0.2569591E-005  0.1038957E+04  0.7818608E-02  0.9086932E-01
         21   -1    0    0  501  502  0.00000000000E+00  0.00000000000E+00  0.27367964226E+03  0.27367964226E+03  0.00000000000E+00 0.  1.
          4   -1    0    0  502    0 -0.00000000000E+00 -0.00000000000E+00 -0.20049870262E+04  0.20049870262E+04  0.00000000000E+00 0.  1.
    9000010    2    1    2  501    0  0.11772587408E+03 -0.21701497017E+03 -0.78909979954E+03  0.13046492035E+04  0.10091958046E+04 0.  0.
        -13    1    3    3    0    0 -0.25323658596E+02  0.13228467671E+03  0.20274750870E+03  0.24340724481E+03  0.10566000000E+00 0.  1.
         13    1    1    2    0    0 -0.11772587408E+03  0.21701497017E+03 -0.94220758438E+03  0.97401746490E+03  0.10566000000E+00 0. -1.
          4    1    3    3  501    0  0.14304953267E+03 -0.34929964688E+03 -0.99184730824E+03  0.10612419587E+04  0.00000000000E+00 0.  1.
</event>
<event>
 6    1  0.2569591E-005  0.1076835E+04  0.7818608E-02  0.8939065E-01
         21   -1    0    0  501  502  0.00000000000E+00  0.00000000000E+00  0.16473118647E+03  0.16473118647E+03  0.00000000000E+00 0.  1.
         -4   -1    0    0    0  501 -0.00000000000E+00 -0.00000000000E+00 -0.33815988997E+04  0.33815988997E+04  0.00000000000E+00 0. -1.
   -9000010    2    1    2    0  502 -0.40086099824E+03  0.38278243542E+02 -0.25383672185E+04  0.27573321798E+04  0.99870809033E+03 0.  0.
        -13    1    1    2    0    0  0.40086099824E+03 -0.38278243542E+02 -0.67850049475E+03  0.78899790645E+03  0.10566000000E+00 0.  1.
         13    1    3    3    0    0 -0.36331296747E+03  0.85778557994E+02 -0.21027069360E+03  0.42844842058E+03  0.10566000000E+00 0. -1.
         -4    1    3    3    0  502 -0.37548030769E+02 -0.47500314452E+02 -0.23280965249E+04  0.23288837592E+04  0.00000000000E+00 0. -1.
</event>
<event>
 6    1  0.2569591E-005  0.1030713E+04  0.7818608E-02  0.9067619E-01
         21   -1    0    0  501  502  0.00000000000E+00  0.00000000000E+00  0.27013830356E+03  0.27013830356E+03  0.00000000000E+00 0. -1.
          4   -1    0    0  502    0 -0.00000000000E+00 -0.00000000000E+00 -0.21482757285E+04  0.21482757285E+04  0.00000000000E+00 0.  1.
    9000010    2    1    2  501    0 -0.13795968219E+03 -0.23563706039E+03 -0.18815195535E+04  0.21453405106E+04  0.99388750794E+03 0.  0.
        -13    1    3    3    0    0  0.10697204986E+03  0.26742294298E+03 -0.14812712738E+03  0.32388224235E+03  0.10566000000E+00 0.  1.
         13    1    1    2    0    0  0.13795968219E+03  0.23563706039E+03  0.33821285134E+01  0.27307352141E+03  0.10566000000E+00 0. -1.
          4    1    3    3  501    0 -0.24493173205E+03 -0.50306000337E+03 -0.17333924261E+04  0.18214582683E+04  0.00000000000E+00 0.  1.
</event>
<event>
 5    1  0.2569591E-005  0.3249991E+03  0.7818608E-02  0.1002028E+00
          4   -1    0    0  502    0 -0.00000000000E+00  0.00000000000E+00  0.22356163415E+03  0.22356163415E+03  0.00000000000E+00 0.  1.
         21   -1    0    0  501  502  0.00000000000E+00 -0.00000000000E+00 -0.52186438345E+03  0.52186438345E+03  0.00000000000E+00 0. -1.
        -13    1    1    2    0    0  0.22221494390E+03  0.56727095231E+02 -0.32149888569E+03  0.39491643329E+03  0.10566000000E+00 0.  1.
         13    1    1    2    0    0 -0.25469026654E+03 -0.11648298611E+03  0.32189858447E+02  0.28190710540E+03  0.10566000000E+00 0. -1.
          4    1    1    2  501    0  0.32475322643E+02  0.59755890877E+02 -0.89937220652E+01  0.68602478904E+02  0.00000000000E+00 0.  1.
</event>
<event>
 5    1  0.2569591E-005  0.1256583E+03  0.7818608E-02  0.1131716E+00
         21   -1    0    0  501  502  0.00000000000E+00  0.00000000000E+00  0.17042742088E+02  0.17042742088E+02  0.00000000000E+00 0. -1.
          4   -1    0    0  502    0 -0.00000000000E+00 -0.00000000000E+00 -0.92495801714E+03  0.92495801714E+03  0.00000000000E+00 0.  1.
        -13    1    1    2    0    0 -0.78040226644E+02  0.15769013376E+02 -0.19488667706E+03  0.21052260406E+03  0.10566000000E+00 0.  1.
         13    1    1    2    0    0  0.11334942523E+03  0.12770693243E+02 -0.57400639561E+03  0.58523032745E+03  0.10566000000E+00 0. -1.
          4    1    1    2  501    0 -0.35309198584E+02 -0.28539706619E+02 -0.13902220238E+03  0.14624782772E+03  0.00000000000E+00 0.  1.
</event>
<event>
 5    1  0.2569591E-005  0.2104812E+03  0.7818608E-02  0.1056594E+00
          4   -1    0    0  502    0 -0.00000000000E+00  0.00000000000E+00  0.36508646272E+03  0.36508646272E+03  0.00000000000E+00 0.  1.
         21   -1    0    0  501  502  0.00000000000E+00 -0.00000000000E+00 -0.11755967949E+03  0.11755967949E+03  0.00000000000E+00 0. -1.
        -13    1    1    2    0    0  0.18245568622E+03 -0.81873290462E+02  0.17850096557E+03  0.26805954376E+03  0.10566000000E+00 0.  1.
         13    1    1    2    0    0 -0.17218436179E+03  0.81109589058E+02  0.56854223239E+02  0.19864197377E+03  0.10566000000E+00 0. -1.
          4    1    1    2  501    0 -0.10271324438E+02  0.76370140319E+00  0.12171594419E+02  0.15944624682E+02  0.00000000000E+00 0.  1.
</event>
<event>
 6    1  0.2569591E-005  0.1133548E+04  0.7818608E-02  0.8827038E-01
         21   -1    0    0  501  502  0.00000000000E+00  0.00000000000E+00  0.39015751827E+03  0.39015751827E+03  0.00000000000E+00 0.  1.
          4   -1    0    0  502    0 -0.00000000000E+00 -0.00000000000E+00 -0.21399626837E+04  0.21399626837E+04  0.00000000000E+00 0.  1.
    9000010    2    1    2  501    0  0.54958684886E+03 -0.18066467761E+02 -0.15988162671E+04  0.19598836192E+04  0.99124075956E+03 0.  0.
        -13    1    3    3    0    0  0.14482300603E+03 -0.42947115736E+03 -0.11260167151E+04  0.12138092239E+04  0.10566000000E+00 0.  1.
         13    1    1    2    0    0 -0.54958684886E+03  0.18066467761E+02 -0.15098889837E+03  0.57023658273E+03  0.10566000000E+00 0. -1.
          4    1    3    3  501    0  0.40476384283E+03  0.41140468960E+03 -0.47279955196E+03  0.74607439537E+03  0.00000000000E+00 0.  1.
</event>
<event>
 6    1  0.2569591E-005  0.1178004E+04  0.7818608E-02  0.8764611E-01
         21   -1    0    0  501  502  0.00000000000E+00  0.00000000000E+00  0.41058535563E+03  0.41058535563E+03  0.00000000000E+00 0. -1.
         -4   -1    0    0    0  501 -0.00000000000E+00 -0.00000000000E+00 -0.30137121693E+04  0.30137121693E+04  0.00000000000E+00 0. -1.
   -9000010    2    1    2    0  502  0.56094820084E+03  0.30459909200E+03 -0.60015250236E+03  0.13220726098E+04  0.99007548632E+03 0.  0.
        -13    1    1    2    0    0 -0.56094820084E+03 -0.30459909200E+03 -0.20029743113E+04  0.21022249151E+04  0.10566000000E+00 0.  1.
         13    1    3    3    0    0 -0.10606956034E+03  0.97029320463E+02  0.20863500544E+03  0.25336538303E+03  0.10566000000E+00 0. -1.
         -4    1    3    3    0  502  0.66701776118E+03  0.20756977154E+03 -0.80878750779E+03  0.10687072268E+04  0.00000000000E+00 0. -1.
</event>
<event>
 5    1  0.2569591E-005  0.6716941E+02  0.7818608E-02  0.1264151E+00
         21   -1    0    0  501  502  0.00000000000E+00  0.00000000000E+00  0.92382562601E+02  0.92382562601E+02  0.00000000000E+00 0.  1.
         -4   -1    0    0    0  501 -0.00000000000E+00 -0.00000000000E+00 -0.45811708759E+02  0.45811708759E+02  0.00000000000E+00 0. -1.
        -13    1    1    2    0    0  0.12693459776E+02 -0.33598832475E+02  0.59778459738E+02  0.69738661283E+02  0.10566000000E+00 0.  1.
         13    1    1    2    0    0  0.11982205533E+02  0.39879673235E+02 -0.96644857954E+01  0.42747807388E+02  0.10566000000E+00 0. -1.
         -4    1    1    2    0  502 -0.24675665309E+02 -0.62808407596E+01 -0.35431201005E+01  0.25707802690E+02  0.00000000000E+00 0. -1.
</event>
<event>
 6    1  0.2569591E-005  0.1195819E+04  0.7818608E-02  0.8749294E-01
          4   -1    0    0  502    0 -0.00000000000E+00  0.00000000000E+00  0.14434596643E+04  0.14434596643E+04  0.00000000000E+00 0.  1.
         21   -1    0    0  501  502  0.00000000000E+00 -0.00000000000E+00 -0.59323415353E+03  0.59323415353E+03  0.00000000000E+00 0. -1.
    9000010    2    1    2  501    0 -0.16509977753E+03  0.63022146105E+03  0.60916096695E+03  0.13420362389E+04  0.10027697424E+04 0.  0.
        -13    1    3    3    0    0 -0.65038847577E+02 -0.14821221545E+03 -0.17097002506E+03  0.23543082452E+03  0.10566000000E+00 0.  1.
         13    1    1    2    0    0  0.16509977753E+03 -0.63022146105E+03  0.24106454378E+03  0.69465757891E+03  0.10566000000E+00 0. -1.
          4    1    3    3  501    0 -0.10006092995E+03  0.77843367649E+03  0.78013099201E+03  0.11066054144E+04  0.00000000000E+00 0.  1.
</event>
<event>
 5    1  0.2569591E-005  0.2181296E+03  0.7818608E-02  0.1050678E+00
         -4   -1    0    0    0  501 -0.00000000000E+00  0.00000000000E+00  0.31331070307E+03  0.31331070307E+03  0.00000000000E+00 0. -1.
         21   -1    0    0  501  502  0.00000000000E+00 -0.00000000000E+00 -0.14231821371E+03  0.14231821371E+03  0.00000000000E+00 0.  1.
        -13    1    1    2    0    0  0.72850077716E+02 -0.19017478161E+03  0.94140425810E+02  0.22435688605E+03  0.10566000000E+00 0.  1.
         13    1    1    2    0    0 -0.86025978725E+02  0.12880160545E+03  0.47742243702E+02  0.16207916455E+03  0.10566000000E+00 0. -1.
         -4    1    1    2    0  502  0.13175901010E+02  0.61373176155E+02  0.29109819843E+02  0.69192866179E+02  0.00000000000E+00 0. -1.
</event>
<event>
 6    1  0.2569591E-005  0.1068150E+04  0.7818608E-02  0.8970527E-01
          4   -1    0    0  502    0 -0.00000000000E+00  0.00000000000E+00  0.25076093962E+04  0.25076093962E+04  0.00000000000E+00 0.  1.
         21   -1    0    0  501  502  0.00000000000E+00 -0.00000000000E+00 -0.21454768338E+03  0.21454768338E+03  0.00000000000E+00 0.  1.
    9000010    2    1    2  501    0  0.25418144763E+03  0.25885622344E+03  0.14213880446E+04  0.17780015057E+04  0.10046544819E+04 0.  0.
        -13    1    3    3    0    0 -0.18658088127E+03 -0.26242505059E+03  0.20075799513E+03  0.37945107222E+03  0.10566000000E+00 0.  1.
         13    1    1    2    0    0 -0.25418144763E+03 -0.25885622344E+03  0.87167366827E+03  0.94415557397E+03  0.10566000000E+00 0. -1.
          4    1    3    3  501    0  0.44076232890E+03  0.52128127403E+03  0.12206300494E+04  0.13985504334E+04  0.00000000000E+00 0.  1.
</event>
<event>
 5    1  0.2569591E-005  0.4706705E+02  0.7818608E-02  0.1305730E+00
         21   -1    0    0  501  502  0.00000000000E+00  0.00000000000E+00  0.16856269565E+02  0.16856269565E+02  0.00000000000E+00 0.  1.
         -4   -1    0    0    0  501 -0.00000000000E+00 -0.00000000000E+00 -0.29778114797E+03  0.29778114797E+03  0.00000000000E+00 0. -1.
        -13    1    1    2    0    0  0.22820017936E+02 -0.39609274819E+02 -0.20684070629E+02  0.50174593293E+02  0.10566000000E+00 0.  1.
         13    1    1    2    0    0 -0.11551027491E+02  0.29715877653E+02 -0.18767444433E+03  0.19036325234E+03  0.10566000000E+00 0. -1.
         -4    1    1    2    0  502 -0.11268990445E+02  0.98933971662E+01 -0.72566363441E+02  0.74099571903E+02  0.00000000000E+00 0. -1.
</event>
<event>
 6    1  0.2569591E-005  0.1320873E+04  0.7818608E-02  0.8615724E-01
         -4   -1    0    0    0  501 -0.00000000000E+00  0.00000000000E+00  0.10727901196E+04  0.10727901196E+04  0.00000000000E+00 0. -1.
         21   -1    0    0  501  502  0.00000000000E+00 -0.00000000000E+00 -0.11949765723E+04  0.11949765723E+04  0.00000000000E+00 0. -1.
   -9000010    2    1    2    0  502 -0.36130238882E+03 -0.78490255490E+03  0.21876150244E+03  0.13388657520E+04  0.99904628025E+03 0.  0.
        -13    1    1    2    0    0  0.36130238882E+03  0.78490255490E+03 -0.34094795509E+03  0.92890093987E+03  0.10566000000E+00 0.  1.
         13    1    3    3    0    0 -0.25297655918E+03  0.14497698350E+03 -0.15575007336E+03  0.33056551809E+03  0.10566000000E+00 0. -1.
         -4    1    3    3    0  502 -0.10832582964E+03 -0.92987953840E+03  0.37451157579E+03  0.10083002339E+04  0.00000000000E+00 0. -1.
</event>
<event>
 6    1  0.2569591E-005  0.1079374E+04  0.7818608E-02  0.8949223E-01
         -4   -1    0    0    0  501 -0.00000000000E+00  0.00000000000E+00  0.14049470640E+04  0.14049470640E+04  0.00000000000E+00 0. -1.
         21   -1    0    0  501  502  0.00000000000E+00 -0.00000000000E+00 -0.38139639494E+03  0.38139639494E+03  0.00000000000E+00 0. -1.
   -9000010    2    1    2    0  502 -0.36640490813E+03 -0.11337748189E+03  0.72431215095E+03  0.12998758732E+04  0.10089312085E+04 0.  0.
        -13    1    1    2    0    0  0.36640490813E+03  0.11337748189E+03  0.29923851809E+03  0.48646758574E+03  0.10566000000E+00 0.  1.
         13    1    3    3    0    0 -0.11500253949E+03 -0.17937187585E+03 -0.22839288222E+03  0.31235104249E+03  0.10566000000E+00 0. -1.
         -4    1    3    3    0  502 -0.25140236864E+03  0.65994393959E+02  0.95270503316E+03  0.98752483068E+03  0.00000000000E+00 0. -1.
</event>
<event>
 6    1  0.2569591E-005  0.9708416E+03  0.7818608E-02  0.8991484E-01
         21   -1    0    0  501  502  0.00000000000E+00  0.00000000000E+00  0.25418040109E+03  0.25418040109E+03  0.00000000000E+00 0.  1.
         -4   -1    0    0    0  501 -0.00000000000E+00 -0.00000000000E+00 -0.19821154879E+04  0.19821154879E+04  0.00000000000E+00 0. -1.
   -9000010    2    1    2    0  502  0.22874966808E+03 -0.38021939354E+03 -0.12709561378E+04  0.15993320212E+04  0.86350461027E+03 0.  0.
        -13    1    1    2    0    0 -0.22874966808E+03  0.38021939354E+03 -0.45697894904E+03  0.63696386781E+03  0.10566000000E+00 0.  1.
         13    1    3    3    0    0  0.98382013382E+02 -0.50291349720E+03 -0.26374654645E+03  0.57633606356E+03  0.10566000000E+00 0. -1.
         -4    1    3    3    0  502  0.13036765470E+03  0.12269410367E+03 -0.10072095913E+04  0.10229959576E+04  0.00000000000E+00 0. -1.
</event>
<event>
 6    1  0.2569591E-005  0.9114431E+03  0.7818608E-02  0.9005456E-01
          4   -1    0    0  502    0 -0.00000000000E+00  0.00000000000E+00  0.13840224652E+04  0.13840224652E+04  0.00000000000E+00 0.  1.
         21   -1    0    0  501  502  0.00000000000E+00 -0.00000000000E+00 -0.40981581234E+03  0.40981581234E+03  0.00000000000E+00 0. -1.
    9000010    2    1    2  501    0  0.45870360781E+03 -0.21542123765E+03  0.31929303447E+03  0.96575182787E+03  0.75757061831E+03 0.  0.
        -13    1    3    3    0    0  0.10342296329E+03  0.13983139244E+03 -0.18498424122E+03  0.25390610137E+03  0.10566000000E+00 0.  1.
         13    1    1    2    0    0 -0.45870360781E+03  0.21542123765E+03  0.65491361843E+03  0.82808644973E+03  0.10566000000E+00 0. -1.
          4    1    3    3  501    0  0.35528064452E+03 -0.35525263009E+03  0.50427727569E+03  0.71184572650E+03  0.00000000000E+00 0.  1.
</event>
<event>
 6    1  0.2569591E-005  0.1012755E+04  0.7818608E-02  0.9146460E-01
          4   -1    0    0  502    0 -0.00000000000E+00  0.00000000000E+00  0.18833527543E+04  0.18833527543E+04  0.00000000000E+00 0.  1.
         21   -1    0    0  501  502  0.00000000000E+00 -0.00000000000E+00 -0.21400728052E+03  0.21400728052E+03  0.00000000000E+00 0.  1.
    9000010    2    1    2  501    0 -0.10151553247E+03  0.18471211297E+03  0.15600069974E+04  0.18599176595E+04  0.99057957789E+03 0.  0.
        -13    1    3    3    0    0 -0.11596597769E+03 -0.16389833433E+03 -0.54579554784E+02  0.20806179597E+03  0.10566000000E+00 0.  1.
         13    1    1    2    0    0  0.10151553247E+03 -0.18471211297E+03  0.10933847633E+03  0.23744237528E+03  0.10566000000E+00 0. -1.
          4    1    3    3  501    0  0.14450445221E+02  0.34861044729E+03  0.16145865522E+04  0.16518558635E+04  0.00000000000E+00 0.  1.
</event>
<event>
 6    1  0.2569591E-005  0.1096731E+04  0.7818608E-02  0.8886603E-01
         21   -1    0    0  501  502  0.00000000000E+00  0.00000000000E+00  0.62846276142E+03  0.62846276142E+03  0.00000000000E+00 0. -1.
         -4   -1    0    0    0  501 -0.00000000000E+00 -0.00000000000E+00 -0.98088391849E+03  0.98088391849E+03  0.00000000000E+00 0. -1.
   -9000010    2    1    2    0  502 -0.32616231380E+03  0.34300178846E+03 -0.25891141478E+03  0.11268778572E+04  0.98933639500E+03 0.  0.
        -13    1    1    2    0    0  0.32616231380E+03 -0.34300178846E+03 -0.93509742292E+02  0.48246882272E+03  0.10566000000E+00 0.  1.
         13    1    3    3    0    0 -0.27037910614E+03  0.49127495273E+03  0.23512567877E+03  0.60806252655E+03  0.10566000000E+00 0. -1.
         -4    1    3    3    0  502 -0.55783207662E+02 -0.14827316427E+03 -0.49403709355E+03  0.51881533063E+03  0.00000000000E+00 0. -1.
</event>
<event>
 6    1  0.2569591E-005  0.1190252E+04  0.7818608E-02  0.8755934E-01
          4   -1    0    0  502    0 -0.00000000000E+00  0.00000000000E+00  0.12368304088E+04  0.12368304088E+04  0.00000000000E+00 0.  1.
         21   -1    0    0  501  502  0.00000000000E+00 -0.00000000000E+00 -0.12044166680E+04  0.12044166680E+04  0.00000000000E+00 0.  1.
    9000010    2    1    2  501    0 -0.19276078551E+03  0.61255616729E+03 -0.76690228895E+03  0.14159237594E+04  0.10021572697E+04 0.  0.
        -13    1    3    3    0    0 -0.27279346572E+02  0.18274462724E+03 -0.91395921056E+03  0.93244903951E+03  0.10566000000E+00 0.  1.
         13    1    1    2    0    0  0.19276078551E+03 -0.61255616729E+03  0.79931602976E+03  0.10253233174E+04  0.10566000000E+00 0. -1.
          4    1    3    3  501    0 -0.16548143894E+03  0.42981154004E+03  0.14705692162E+03  0.48347471990E+03  0.00000000000E+00 0.  1.
</event>
<event>
 6    1  0.2569591E-005  0.1090968E+04  0.7818608E-02  0.8912918E-01
         -4   -1    0    0    0  501 -0.00000000000E+00  0.00000000000E+00  0.17403670409E+04  0.17403670409E+04  0.00000000000E+00 0. -1.
         21   -1    0    0  501  502  0.00000000000E+00 -0.00000000000E+00 -0.43038589564E+03  0.43038589564E+03  0.00000000000E+00 0. -1.
   -9000010    2    1    2    0  502 -0.20004334319E+03  0.38202143354E+03  0.39682702819E+03  0.11608974184E+04  0.10021244488E+04 0.  0.
        -13    1    1    2    0    0  0.20004334319E+03 -0.38202143354E+03  0.91315411706E+03  0.10098555181E+04  0.10566000000E+00 0.  1.
         13    1    3    3    0    0  0.10963718481E+03  0.10757062293E+03 -0.30766239736E+03  0.34387194292E+03  0.10566000000E+00 0. -1.
         -4    1    3    3    0  502 -0.30968052801E+03  0.27445081061E+03  0.70448942555E+03  0.81702547548E+03  0.00000000000E+00 0. -1.
</event>
<event>
 6    1  0.2569591E-005  0.1191157E+04  0.7818608E-02  0.8754395E-01
         21   -1    0    0  501  502  0.00000000000E+00  0.00000000000E+00  0.44409502118E+03  0.44409502118E+03  0.00000000000E+00 0.  1.
          4   -1    0    0  502    0 -0.00000000000E+00 -0.00000000000E+00 -0.24893827031E+04  0.24893827031E+04  0.00000000000E+00 0.  1.
    9000010    2    1    2  501    0  0.61823316904E+03  0.18366062569E+03 -0.56411232296E+03  0.13179827748E+04  0.10014551438E+04 0.  0.
        -13    1    3    3    0    0 -0.19635793824E+03  0.26374639356E+03 -0.89155019621E+01  0.32893479196E+03  0.10566000000E+00 0.  1.
         13    1    1    2    0    0 -0.61823316904E+03 -0.18366062569E+03 -0.14811753590E+04  0.16154949495E+04  0.10566000000E+00 0. -1.
          4    1    3    3  501    0  0.81459110728E+03 -0.80085767874E+02 -0.55519682100E+03  0.98904798282E+03  0.00000000000E+00 0.  1.
</event>
<event>
 6    1  0.2569591E-005  0.1017340E+04  0.7818608E-02  0.9133832E-01
         21   -1    0    0  501  502  0.00000000000E+00  0.00000000000E+00  0.21722975326E+03  0.21722975326E+03  0.00000000000E+00 0. -1.
         -4   -1    0    0    0  501 -0.00000000000E+00 -0.00000000000E+00 -0.20396070442E+04  0.20396070442E+04  0.00000000000E+00 0. -1.
   -9000010    2    1    2    0  502  0.12332294878E+03  0.18036818228E+03 -0.10831733512E+04  0.14860166456E+04  0.99359938168E+03 0.  0.
        -13    1    1    2    0    0 -0.12332294878E+03 -0.18036818228E+03 -0.73920393969E+03  0.77082015184E+03  0.10566000000E+00 0.  1.
         13    1    3    3    0    0  0.47100408994E+03 -0.21614738671E+02 -0.19343021731E+03  0.50963448647E+03  0.10566000000E+00 0. -1.
         -4    1    3    3    0  502 -0.34768114116E+03  0.20198292095E+03 -0.88974313392E+03  0.97638215911E+03  0.00000000000E+00 0. -1.
</event>
<event>
 5    1  0.2569591E-005  0.2852909E+03  0.7818608E-02  0.1014572E+00
         21   -1    0    0  501  502  0.00000000000E+00  0.00000000000E+00  0.51893408032E+03  0.51893408032E+03  0.00000000000E+00 0.  1.
         -4   -1    0    0    0  501 -0.00000000000E+00 -0.00000000000E+00 -0.15199297779E+03  0.15199297779E+03  0.00000000000E+00 0. -1.
        -13    1    1    2    0    0  0.26483413783E+03  0.78794377456E+02  0.18665170509E+03  0.33344346545E+03  0.10566000000E+00 0.  1.
         13    1    1    2    0    0 -0.12634119258E+03 -0.31229870894E+02  0.12647384693E+03  0.18147464534E+03  0.10566000000E+00 0. -1.
         -4    1    1    2    0  502 -0.13849294524E+03 -0.47564506562E+02  0.53815550516E+02  0.15600894732E+03  0.00000000000E+00 0. -1.
</event>
<event>
 5    1  0.4148219E-005  0.5539300E+02  0.7818608E-02  0.1287681E+00
         -4   -1    0    0    0  501 -0.00000000000E+00  0.00000000000E+00  0.20574341404E+02  0.20574341404E+02  0.00000000000E+00 0. -1.
         21   -1    0    0  501  502  0.00000000000E+00 -0.00000000000E+00 -0.14653029418E+03  0.14653029418E+03  0.00000000000E+00 0.  1.
        -13    1    1    2    0    0 -0.39127262686E+02 -0.76770580314E+01 -0.96397505363E+02  0.10431859906E+03  0.10566000000E+00 0.  1.
         13    1    1    2    0    0  0.21431606370E+02  0.10730108932E+02  0.44034147955E+01  0.24369042148E+02  0.10566000000E+00 0. -1.
         -4    1    1    2    0  502  0.17695656316E+02 -0.30530509008E+01 -0.33961862204E+02  0.38416994372E+02  0.00000000000E+00 0. -1.
</event>
<event>
 6    1  0.2569591E-005  0.1377476E+04  0.7818608E-02  0.8565189E-01
         21   -1    0    0  501  502  0.00000000000E+00  0.00000000000E+00  0.54790178197E+03  0.54790178197E+03  0.00000000000E+00 0. -1.
          4   -1    0    0  502    0 -0.00000000000E+00 -0.00000000000E+00 -0.24939344733E+04  0.24939344733E+04  0.00000000000E+00 0.  1.
    9000010    2    1    2  501    0 -0.50296959501E+03 -0.81025351610E+03 -0.10353881324E+04  0.17232147411E+04  0.99395738604E+03 0.  0.
        -13    1    3    3    0    0  0.54694025919E+02  0.19840663566E+03 -0.62921455995E+02  0.21521094380E+03  0.10566000000E+00 0.  1.
         13    1    1    2    0    0  0.50296959501E+03  0.81025351610E+03 -0.91064455893E+03  0.13186215142E+04  0.10566000000E+00 0. -1.
          4    1    3    3  501    0 -0.55766362093E+03 -0.10086601518E+04 -0.97246667643E+03  0.15080037973E+04  0.00000000000E+00 0.  1.
</event>
<event>
 6    1  0.2569591E-005  0.1311463E+04  0.7818608E-02  0.8613532E-01
         21   -1    0    0  501  502  0.00000000000E+00  0.00000000000E+00  0.21982541391E+04  0.21982541391E+04  0.00000000000E+00 0. -1.
         -4   -1    0    0    0  501 -0.00000000000E+00 -0.00000000000E+00 -0.12566917231E+04  0.12566917231E+04  0.00000000000E+00 0. -1.
   -9000010    2    1    2    0  502  0.78316538460E+02 -0.88794511355E+03  0.17935458257E+04  0.22218782460E+04  0.96195441995E+03 0.  0.
        -13    1    1    2    0    0 -0.78316538460E+02  0.88794511355E+03 -0.85198340969E+03  0.12330676163E+04  0.10566000000E+00 0.  1.
         13    1    3    3    0    0  0.39289231231E+03 -0.60194202737E+03  0.16013835666E+04  0.17553141918E+04  0.10566000000E+00 0. -1.
         -4    1    3    3    0  502 -0.31457577385E+03 -0.28600308618E+03  0.19216225909E+03  0.46656405414E+03  0.00000000000E+00 0. -1.
</event>
<event>
 6    1  0.2569591E-005  0.1060406E+04  0.7818608E-02  0.9026265E-01
         21   -1    0    0  501  502  0.00000000000E+00  0.00000000000E+00  0.22709194634E+03  0.22709194634E+03  0.00000000000E+00 0. -1.
         -4   -1    0    0    0  501 -0.00000000000E+00 -0.00000000000E+00 -0.22176788820E+04  0.22176788820E+04  0.00000000000E+00 0. -1.
   -9000010    2    1    2    0  502  0.20412730866E+03  0.21422018534E+03 -0.12041374787E+04  0.16044964652E+04  0.10182846326E+04 0.  0.
        -13    1    1    2    0    0 -0.20412730866E+03 -0.21422018534E+03 -0.78644945696E+03  0.84027436321E+03  0.10566000000E+00 0.  1.
         13    1    3    3    0    0  0.39044934751E+03 -0.21155382710E+03 -0.17875799586E+03  0.47870674424E+03  0.10566000000E+00 0. -1.
         -4    1    3    3    0  502 -0.18632203885E+03  0.42577401245E+03 -0.10253794829E+04  0.11257897209E+04  0.00000000000E+00 0. -1.
</event>
<event>
 5    1  0.2569591E-005  0.9857728E+02  0.7818608E-02  0.1228157E+00
          4   -1    0    0  502    0 -0.00000000000E+00  0.00000000000E+00  0.22554113490E+02  0.22554113490E+02  0.00000000000E+00 0.  1.
         21   -1    0    0  501  502  0.00000000000E+00 -0.00000000000E+00 -0.22666191688E+03  0.22666191688E+03  0.00000000000E+00 0.  1.
        -13    1    1    2    0    0  0.39944817759E+02  0.24499458729E+02 -0.93968770886E+02  0.10500453804E+03  0.10566000000E+00 0.  1.
         13    1    1    2    0    0 -0.24232653230E+02  0.17615965125E+01 -0.11096892863E+03  0.11359770680E+03  0.10566000000E+00 0. -1.
          4    1    1    2  501    0 -0.15712164528E+02 -0.26261055242E+02  0.82989612746E+00  0.30613785525E+02  0.00000000000E+00 0.  1.
</event>
<event>
 5    1  0.2569591E-005  0.3716987E+02  0.7818608E-02  0.1366093E+00
         21   -1    0    0  501  502  0.00000000000E+00  0.00000000000E+00  0.13761244985E+02  0.13761244985E+02  0.00000000000E+00 0. -1.
          4   -1    0    0  502    0 -0.00000000000E+00 -0.00000000000E+00 -0.11538845026E+03  0.11538845026E+03  0.00000000000E+00 0.  1.
        -13    1    1    2    0    0  0.10256521520E+02  0.75319890989E+01  0.25985348393E+01  0.12988096120E+02  0.10566000000E+00 0.  1.
         13    1    1    2    0    0 -0.20784179750E+02 -0.22471748645E+02 -0.81108783942E+02  0.86692604134E+02  0.10566000000E+00 0. -1.
          4    1    1    2  501    0  0.10527658229E+02  0.14939759547E+02 -0.23116956176E+02  0.29468994994E+02  0.00000000000E+00 0.  1.
</event>
<event>
 6    1  0.2569591E-005  0.1031247E+04  0.7818608E-02  0.9101052E-01
         21   -1    0    0  501  502  0.00000000000E+00  0.00000000000E+00  0.15963692488E+03  0.15963692488E+03  0.00000000000E+00 0. -1.
         -4   -1    0    0    0  501 -0.00000000000E+00 -0.00000000000E+00 -0.27281075540E+04  0.27281075540E+04  0.00000000000E+00 0. -1.
   -9000010    2    1    2    0  502  0.90203358571E+02  0.22103031552E+03 -0.17117903437E+04  0.19984232946E+04  0.10032339893E+04 0.  0.
        -13    1    1    2    0    0 -0.90203358571E+02 -0.22103031552E+03 -0.85668028539E+03  0.88932118428E+03  0.10566000000E+00 0.  1.
         13    1    3    3    0    0  0.17103121233E+03 -0.23750137195E+03 -0.82745259733E+02  0.30414694876E+03  0.10566000000E+00 0. -1.
         -4    1    3    3    0  502 -0.80827853754E+02  0.45853168748E+03 -0.16290450840E+04  0.16942763459E+04  0.00000000000E+00 0. -1.
</event>
<event>
 5    1  0.2569591E-005  0.2125953E+03  0.7818608E-02  0.1059955E+00
         21   -1    0    0  501  502  0.00000000000E+00  0.00000000000E+00  0.54734582102E+03  0.54734582102E+03  0.00000000000E+00 0.  1.
         -4   -1    0    0    0  501 -0.00000000000E+00 -0.00000000000E+00 -0.95024962808E+02  0.95024962808E+02  0.00000000000E+00 0. -1.
        -13    1    1    2    0    0  0.16256438576E+03 -0.39936849023E+02  0.38427163476E+03  0.41915013047E+03  0.10566000000E+00 0.  1.
         13    1    1    2    0    0 -0.14324058972E+03 -0.17637034754E+02  0.74020905616E+02  0.16219752517E+03  0.10566000000E+00 0. -1.
         -4    1    1    2    0  502 -0.19323796039E+02  0.57573883776E+02 -0.59716821583E+01  0.61023128191E+02  0.00000000000E+00 0. -1.
</event>
<event>
 6    1  0.2569591E-005  0.1039376E+04  0.7818608E-02  0.9056180E-01
          4   -1    0    0  502    0 -0.00000000000E+00  0.00000000000E+00  0.23391296063E+04  0.23391296063E+04  0.00000000000E+00 0.  1.
         21   -1    0    0  501  502  0.00000000000E+00 -0.00000000000E+00 -0.21190941224E+03  0.21190941224E+03  0.00000000000E+00 0.  1.
    9000010    2    1    2  501    0  0.18012160437E+03 -0.21269939590E+03  0.12238560887E+04  0.16056546822E+04  0.10013083477E+04 0.  0.
        -13    1    3    3    0    0 -0.24798848464E+03 -0.46582968998E+03  0.49689452065E+03  0.72484464846E+03  0.10566000000E+00 0.  1.
         13    1    1    2    0    0 -0.18012160437E+03  0.21269939590E+03  0.90336410534E+03  0.94538433632E+03  0.10566000000E+00 0. -1.
          4    1    3    3  501    0  0.42811008901E+03  0.25313029408E+03  0.72696156804E+03  0.88081003373E+03  0.00000000000E+00 0.  1.
</event>
<event>
 6    1  0.2569591E-005  0.1126935E+04  0.7818608E-02  0.8910150E-01
         -4   -1    0    0    0  501 -0.00000000000E+00  0.00000000000E+00  0.10962403442E+04  0.10962403442E+04  0.00000000000E+00 0. -1.
         21   -1    0    0  501  502  0.00000000000E+00 -0.00000000000E+00 -0.55771025845E+03  0.55771025845E+03  0.00000000000E+00 0. -1.
   -9000010    2    1    2    0  502 -0.39552244327E+03 -0.13150916408E+02  0.22526896483E+03  0.11492294016E+04  0.10551640447E+04 0.  0.
        -13    1    1    2    0    0  0.39552244327E+03  0.13150916408E+02  0.31326112096E+03  0.50472120106E+03  0.10566000000E+00 0.  1.
         13    1    3    3    0    0  0.23270418304E+03  0.30755487050E+03 -0.56294297995E+02  0.38975671171E+03  0.10566000000E+00 0. -1.
         -4    1    3    3    0  502 -0.62822662631E+03 -0.32070578691E+03  0.28156326283E+03  0.75947268992E+03  0.00000000000E+00 0. -1.
</event>
<event>
 6    1  0.2569591E-005  0.1271722E+04  0.7818608E-02  0.8657864E-01
         21   -1    0    0  501  502  0.00000000000E+00  0.00000000000E+00  0.59335874768E+03  0.59335874768E+03  0.00000000000E+00 0.  1.
          4   -1    0    0  502    0 -0.00000000000E+00 -0.00000000000E+00 -0.18163616320E+04  0.18163616320E+04  0.00000000000E+00 0.  1.
    9000010    2    1    2  501    0  0.92454837684E+02  0.79915076969E+03 -0.76035412652E+03  0.14816935838E+04  0.98493026593E+03 0.  0.
        -13    1    3    3    0    0  0.53337366885E+03  0.50258347344E+03 -0.51932396767E+03  0.89820655361E+03  0.10566000000E+00 0.  1.
         13    1    1    2    0    0 -0.92454837684E+02 -0.79915076969E+03 -0.46264875785E+03  0.92802679595E+03  0.10566000000E+00 0. -1.
          4    1    3    3  501    0 -0.44091883116E+03  0.29656729625E+03 -0.24103015885E+03  0.58348703015E+03  0.00000000000E+00 0.  1.
</event>
<event>
 6    1  0.2569591E-005  0.1124738E+04  0.7818608E-02  0.8861915E-01
         -4   -1    0    0    0  501 -0.00000000000E+00  0.00000000000E+00  0.26058747678E+04  0.26058747678E+04  0.00000000000E+00 0. -1.
         21   -1    0    0  501  502  0.00000000000E+00 -0.00000000000E+00 -0.25530035679E+03  0.25530035679E+03  0.00000000000E+00 0. -1.
   -9000010    2    1    2    0  502  0.45612886398E+03 -0.16875985354E+03  0.14229389311E+04  0.18137778631E+04  0.10141506329E+04 0.  0.
        -13    1    1    2    0    0 -0.45612886398E+03  0.16875985354E+03  0.92763547983E+03  0.10473972615E+04  0.10566000000E+00 0.  1.
         13    1    3    3    0    0 -0.10305144196E+03 -0.14086753740E+03 -0.92990264216E+02  0.19776365487E+03  0.10566000000E+00 0. -1.
         -4    1    3    3    0  502  0.55918030594E+03 -0.27892316140E+02  0.15159291953E+04  0.16160142082E+04  0.00000000000E+00 0. -1.
</event>
<event>
 6    1  0.2569591E-005  0.9449404E+03  0.7818608E-02  0.9266733E-01
         21   -1    0    0  501  502  0.00000000000E+00  0.00000000000E+00  0.15963581866E+03  0.15963581866E+03  0.00000000000E+00 0.  1.
          4   -1    0    0  502    0 -0.00000000000E+00 -0.00000000000E+00 -0.22203495777E+04  0.22203495777E+04  0.00000000000E+00 0.  1.
    9000010    2    1    2  501    0 -0.49208052229E+02  0.15533569508E+03 -0.19888133550E+04  0.22018834878E+04  0.93078554042E+03 0.  0.
        -13    1    3    3    0    0 -0.10005242331E+03 -0.18607237739E+03 -0.30587808809E+02  0.21346906626E+03  0.10566000000E+00 0.  1.
         13    1    1    2    0    0  0.49208052229E+02 -0.15533569508E+03 -0.71900404044E+02  0.17810190857E+03  0.10566000000E+00 0. -1.
          4    1    3    3  501    0  0.50844371083E+02  0.34140807247E+03 -0.19582255462E+04  0.19884144216E+04  0.00000000000E+00 0.  1.
</event>
<event>
 6    1  0.2569591E-005  0.1277412E+04  0.7818608E-02  0.8618377E-01
          4   -1    0    0  502    0 -0.00000000000E+00  0.00000000000E+00  0.20511199020E+04  0.20511199020E+04  0.00000000000E+00 0.  1.
         21   -1    0    0  501  502  0.00000000000E+00 -0.00000000000E+00 -0.68312476565E+03  0.68312476565E+03  0.00000000000E+00 0. -1.
    9000010    2    1    2  501    0 -0.94360194966E+03 -0.32698068098E+02  0.30662897788E+03  0.13136983162E+04  0.86042322895E+03 0.  0.
        -13    1    3    3    0    0 -0.14910794087E+03 -0.62910577143E+02  0.47429333334E+03  0.50114378771E+03  0.10566000000E+00 0.  1.
         13    1    1    2    0    0  0.94360194966E+03  0.32698068098E+02  0.10613661584E+04  0.14205463514E+04  0.10566000000E+00 0. -1.
          4    1    3    3  501    0 -0.79449400879E+03  0.30212509045E+02 -0.16766435546E+03  0.81255452851E+03  0.00000000000E+00 0.  1.
</event>
<event>
 6    1  0.2569591E-005  0.1168093E+04  0.7818608E-02  0.8800494E-01
         21   -1    0    0  501  502  0.00000000000E+00  0.00000000000E+00  0.61753696717E+03  0.61753696717E+03  0.00000000000E+00 0.  1.
         -4   -1    0    0    0  501 -0.00000000000E+00 -0.00000000000E+00 -0.13582302049E+04  0.13582302049E+04  0.00000000000E+00 0. -1.
   -9000010    2    1    2    0  502 -0.56193473277E+03  0.13558997225E+02 -0.79208283816E+03  0.14113246218E+04  0.10239567742E+04 0.  0.
        -13    1    1    2    0    0  0.56193473277E+03 -0.13558997225E+02  0.51389600457E+02  0.56444255022E+03  0.10566000000E+00 0.  1.
         13    1    3    3    0    0 -0.18674515088E+03 -0.95789758127E+02  0.23340816694E+03  0.31389299562E+03  0.10566000000E+00 0. -1.
         -4    1    3    3    0  502 -0.37518958189E+03  0.10934875535E+03 -0.10254910051E+04  0.10974316262E+04  0.00000000000E+00 0. -1.
</event>
<event>
 6    1  0.2569591E-005  0.1293639E+04  0.7818608E-02  0.8657027E-01
          4   -1    0    0  502    0 -0.00000000000E+00  0.00000000000E+00  0.88243034983E+03  0.88243034983E+03  0.00000000000E+00 0.  1.
         21   -1    0    0  501  502  0.00000000000E+00 -0.00000000000E+00 -0.12840726524E+04  0.12840726524E+04  0.00000000000E+00 0. -1.
    9000010    2    1    2  501    0 -0.20172375923E+02 -0.76682297475E+03  0.14677661720E+02  0.12937219740E+04  0.10416701556E+04 0.  0.
        -13    1    3    3    0    0  0.49057029911E+03 -0.43202924697E+03 -0.12914318849E+03  0.66632309198E+03  0.10566000000E+00 0.  1.
         13    1    1    2    0    0  0.20172375923E+02  0.76682297475E+03 -0.41631996432E+03  0.87278102821E+03  0.10566000000E+00 0. -1.
          4    1    3    3  501    0 -0.51074267503E+03 -0.33479372777E+03  0.14382085021E+03  0.62739888206E+03  0.00000000000E+00 0.  1.
</event>
<event>
 5    1  0.2569591E-005  0.5698264E+02  0.7818608E-02  0.1282881E+00
         21   -1    0    0  501  502  0.00000000000E+00  0.00000000000E+00  0.18226220580E+02  0.18226220580E+02  0.00000000000E+00 0. -1.
          4   -1    0    0  502    0 -0.00000000000E+00 -0.00000000000E+00 -0.15294969738E+03  0.15294969738E+03  0.00000000000E+00 0.  1.
        -13    1    1    2    0    0  0.27470113003E+02  0.12125138275E+02 -0.28126293647E+02  0.41142747173E+02  0.10566000000E+00 0.  1.
         13    1    1    2    0    0 -0.39113634944E+02 -0.96626118799E+01 -0.24662496037E+02  0.47238674639E+02  0.10566000000E+00 0. -1.
          4    1    1    2  501    0  0.11643521941E+02 -0.24625263953E+01 -0.81934687119E+02  0.82794496150E+02  0.00000000000E+00 0.  1.
</event>
<event>
 6    1  0.2569591E-005  0.1519711E+04  0.7818608E-02  0.8459302E-01
         21   -1    0    0  501  502  0.00000000000E+00  0.00000000000E+00  0.72790794224E+03  0.72790794224E+03  0.00000000000E+00 0.  1.
         -4   -1    0    0    0  501 -0.00000000000E+00 -0.00000000000E+00 -0.26472600618E+04  0.26472600618E+04  0.00000000000E+00 0. -1.
   -9000010    2    1    2    0  502 -0.77491611976E+03 -0.84524175219E+03 -0.15493352705E+04  0.21702443168E+04  0.99729233521E+03 0.  0.
        -13    1    1    2    0    0  0.77491611976E+03  0.84524175219E+03 -0.37001684906E+03  0.12049236872E+04  0.10566000000E+00 0.  1.
         13    1    3    3    0    0 -0.69829533937E+03 -0.19095628554E+03 -0.12547677629E+04  0.14486279143E+04  0.10566000000E+00 0. -1.
         -4    1    3    3    0  502 -0.76620780388E+02 -0.65428546665E+03 -0.29456750756E+03  0.72161640251E+03  0.00000000000E+00 0. -1.
</event>
<event>
 6    1  0.2569591E-005  0.1037030E+04  0.7818608E-02  0.9126949E-01
         21   -1    0    0  501  502  0.00000000000E+00  0.00000000000E+00  0.17297668162E+03  0.17297668162E+03  0.00000000000E+00 0. -1.
         -4   -1    0    0    0  501 -0.00000000000E+00 -0.00000000000E+00 -0.23852414751E+04  0.23852414751E+04  0.00000000000E+00 0. -1.
   -9000010    2    1    2    0  502  0.11158925769E+03  0.18019245470E+03 -0.15673288348E+04  0.18793485926E+04  0.10151403710E+04 0.  0.
        -13    1    1    2    0    0 -0.11158925769E+03 -0.18019245470E+03 -0.64493595868E+03  0.67886956414E+03  0.10566000000E+00 0.  1.
         13    1    3    3    0    0  0.36937766794E+03 -0.25463210215E+03 -0.37655717528E+03  0.58572407023E+03  0.10566000000E+00 0. -1.
         -4    1    3    3    0  502 -0.25778841025E+03  0.43482455685E+03 -0.11907716595E+04  0.12936245224E+04  0.00000000000E+00 0. -1.
</event>
<event>
 5    1  0.2569591E-005  0.4130653E+03  0.7818608E-02  0.9736586E-01
          4   -1    0    0  502    0 -0.00000000000E+00  0.00000000000E+00  0.62787198120E+03  0.62787198120E+03  0.00000000000E+00 0.  1.
         21   -1    0    0  501  502  0.00000000000E+00 -0.00000000000E+00 -0.27348167145E+03  0.27348167145E+03  0.00000000000E+00 0. -1.
        -13    1    1    2    0    0  0.20580738057E+03  0.27393952555E+03  0.33374973962E+03  0.47831834736E+03  0.10566000000E+00 0.  1.
         13    1    1    2    0    0 -0.15787189966E+03 -0.31671081965E+03 -0.48734782535E+01  0.35391106502E+03  0.10566000000E+00 0. -1.
          4    1    1    2  501    0 -0.47935480909E+02  0.42771294096E+02  0.25514048387E+02  0.69124240275E+02  0.00000000000E+00 0.  1.
</event>
<event>
 6    1  0.2569591E-005  0.1014346E+04  0.7818608E-02  0.9173233E-01
         21   -1    0    0  501  502  0.00000000000E+00  0.00000000000E+00  0.30418716503E+03  0.30418716503E+03  0.00000000000E+00 0.  1.
          4   -1    0    0  502    0 -0.00000000000E+00 -0.00000000000E+00 -0.11929233551E+04  0.11929233551E+04  0.00000000000E+00 0.  1.
    9000010    2    1    2  501    0  0.15266255935E+03 -0.11132049658E+03 -0.72131050824E+03  0.12446635354E+04  0.99659437944E+03 0.  0.
        -13    1    3    3    0    0  0.20157562523E+03  0.30140500682E+03  0.52425091395E+02  0.36636881990E+03  0.10566000000E+00 0.  1.
         13    1    1    2    0    0 -0.15266255935E+03  0.11132049658E+03 -0.16742568181E+03  0.25244698469E+03  0.10566000000E+00 0. -1.
          4    1    3    3  501    0 -0.48913065875E+02 -0.41272550340E+03 -0.77373559963E+03  0.87829471552E+03  0.00000000000E+00 0.  1.
</event>
<event>
 6    1  0.2569591E-005  0.1075492E+04  0.7818608E-02  0.8945889E-01
         21   -1    0    0  501  502  0.00000000000E+00  0.00000000000E+00  0.89961977598E+03  0.89961977598E+03  0.00000000000E+00 0.  1.
          4   -1    0    0  502    0 -0.00000000000E+00 -0.00000000000E+00 -0.63482649295E+03  0.63482649295E+03  0.00000000000E+00 0.  1.
    9000010    2    1    2  501    0 -0.22693724877E+03 -0.32090991039E+03  0.28556325097E+02  0.10758706515E+04  0.10010986513E+04 0.  0.
        -13    1    3    3    0    0  0.10886650152E+03 -0.56668852019E+03  0.22031153894E+03  0.61767708345E+03  0.10566000000E+00 0.  1.
         13    1    1    2    0    0  0.22693724877E+03  0.32090991039E+03  0.23623695793E+03  0.45857561746E+03  0.10566000000E+00 0. -1.
          4    1    3    3  501    0 -0.33580375029E+03  0.24577860980E+03 -0.19175521384E+03  0.45819356802E+03  0.00000000000E+00 0.  1.
</event>
<event>
 6    1  0.2569591E-005  0.1107545E+04  0.7818608E-02  0.8826066E-01
         21   -1    0    0  501  502  0.00000000000E+00  0.00000000000E+00  0.17335255363E+04  0.17335255363E+04  0.00000000000E+00 0. -1.
         -4   -1    0    0    0  501 -0.00000000000E+00 -0.00000000000E+00 -0.45974219233E+03  0.45974219233E+03  0.00000000000E+00 0. -1.
   -9000010    2    1    2    0  502  0.33748949474E+03  0.48631638628E+03  0.11338287003E+04  0.15849996134E+04  0.93608411270E+03 0.  0.
        -13    1    1    2    0    0 -0.33748949474E+03 -0.48631638628E+03  0.13995464365E+03  0.60826811528E+03  0.10566000000E+00 0.  1.
         13    1    3    3    0    0  0.16981255848E+03 -0.25967461969E+03  0.51547209747E+03  0.60164666338E+03  0.10566000000E+00 0. -1.
         -4    1    3    3    0  502  0.16767693626E+03  0.74599100597E+03  0.61835660287E+03  0.98335294999E+03  0.00000000000E+00 0. -1.
</event>
<event>
 6    1  0.2569591E-005  0.1511457E+04  0.7818608E-02  0.8465366E-01
         21   -1    0    0  501  502  0.00000000000E+00  0.00000000000E+00  0.84644315287E+03  0.84644315287E+03  0.00000000000E+00 0. -1.
         -4   -1    0    0    0  501 -0.00000000000E+00 -0.00000000000E+00 -0.26375340615E+04  0.26375340615E+04  0.00000000000E+00 0. -1.
   -9000010    2    1    2    0  502 -0.10451365613E+04 -0.43924670154E+03 -0.19173130139E+03  0.15235692821E+04  0.99962711489E+03 0.  0.
        -13    1    1    2    0    0  0.10451365613E+04  0.43924670154E+03 -0.15993596072E+04  0.19604079323E+04  0.10566000000E+00 0.  1.
         13    1    3    3    0    0 -0.36907912806E+02 -0.49958055594E+03 -0.81713489943E+02  0.50756283503E+03  0.10566000000E+00 0. -1.
         -4    1    3    3    0  502 -0.10082286485E+04  0.60333854407E+02 -0.11001781145E+03  0.10160064471E+04  0.00000000000E+00 0. -1.
</event>
<event>
 6    1  0.2569591E-005  0.9425871E+03  0.7818608E-02  0.9281000E-01
         21   -1    0    0  501  502  0.00000000000E+00  0.00000000000E+00  0.14148368681E+03  0.14148368681E+03  0.00000000000E+00 0. -1.
         -4   -1    0    0    0  501 -0.00000000000E+00 -0.00000000000E+00 -0.21353577546E+04  0.21353577546E+04  0.00000000000E+00 0. -1.
   -9000010    2    1    2    0  502 -0.10902158293E+03  0.11084856981E+03 -0.16721839831E+04  0.19195493582E+04  0.92967594044E+03 0.  0.
        -13    1    1    2    0    0  0.10902158293E+03 -0.11084856981E+03 -0.32169008465E+03  0.35729208317E+03  0.10566000000E+00 0.  1.
         13    1    3    3    0    0 -0.12962935418E+03 -0.14189906630E+03  0.33521223863E+02  0.19509689412E+03  0.10566000000E+00 0. -1.
         -4    1    3    3    0  502  0.20607771249E+02  0.25274763611E+03 -0.17057052070E+04  0.17244524641E+04  0.00000000000E+00 0. -1.
</event>
<event>
 6    1  0.2569591E-005  0.1128044E+04  0.7818608E-02  0.8812822E-01
         -4   -1    0    0    0  501 -0.00000000000E+00  0.00000000000E+00  0.19427116098E+04  0.19427116098E+04  0.00000000000E+00 0. -1.
         21   -1    0    0  501  502  0.00000000000E+00 -0.00000000000E+00 -0.39451297180E+03  0.39451297180E+03  0.00000000000E+00 0. -1.
   -9000010    2    1    2    0  502 -0.44850693089E+02  0.59072507333E+03  0.12133587795E+04  0.16567207690E+04  0.95995649995E+03 0.  0.
        -13    1    1    2    0    0  0.44850693089E+02 -0.59072507333E+03  0.33483985852E+03  0.68050381259E+03  0.10566000000E+00 0.  1.
         13    1    3    3    0    0  0.43302369079E+03  0.29038243708E+03  0.35997520631E+03  0.63357212445E+03  0.10566000000E+00 0. -1.
         -4    1    3    3    0  502 -0.47787438388E+03  0.30034263625E+03  0.85338357316E+03  0.10231486446E+04  0.00000000000E+00 0. -1.
</event>
<event>
 5    1  0.2569591E-005  0.1007633E+03  0.7818608E-02  0.1164831E+00
          4   -1    0    0  502    0 -0.00000000000E+00  0.00000000000E+00  0.70411136250E+03  0.70411136250E+03  0.00000000000E+00 0.  1.
         21   -1    0    0  501  502  0.00000000000E+00 -0.00000000000E+00 -0.14174596132E+02  0.14174596132E+02  0.00000000000E+00 0. -1.
        -13    1    1    2    0    0  0.35895636834E+02 -0.25360238152E+02  0.16354030219E+03  0.16934308379E+03  0.10566000000E+00 0.  1.
         13    1    1    2    0    0 -0.89663503998E+02  0.37256080413E+02  0.38869001045E+03  0.40063386635E+03  0.10566000000E+00 0. -1.
          4    1    1    2  501    0  0.53767867163E+02 -0.11895842261E+02  0.13770645372E+03  0.14830900849E+03  0.00000000000E+00 0.  1.
</event>
<event>
 6    1  0.2569591E-005  0.1150875E+04  0.7818608E-02  0.8808984E-01
          4   -1    0    0  502    0 -0.00000000000E+00  0.00000000000E+00  0.24487358288E+04  0.24487358288E+04  0.00000000000E+00 0.  1.
         21   -1    0    0  501  502  0.00000000000E+00 -0.00000000000E+00 -0.40027674460E+03  0.40027674460E+03  0.00000000000E+00 0.  1.
    9000010    2    1    2  501    0 -0.46967824481E+03  0.31759712483E+03  0.19631864410E+04  0.22756566436E+04  0.10015221266E+04 0.  0.
        -13    1    3    3    0    0 -0.64260578929E+02 -0.34411797903E+03  0.84423469469E+03  0.91393590386E+03  0.10566000000E+00 0.  1.
         13    1    1    2    0    0  0.46967824481E+03 -0.31759712483E+03  0.85272643166E+02  0.57335592976E+03  0.10566000000E+00 0. -1.
          4    1    3    3  501    0 -0.40541766588E+03  0.66171510386E+03  0.11189517463E+04  0.13617207398E+04  0.00000000000E+00 0.  1.
</event>
<event>
 5    1  0.2569591E-005  0.2109938E+03  0.7818608E-02  0.1056434E+00
         21   -1    0    0  501  502  0.00000000000E+00  0.00000000000E+00  0.46035144889E+02  0.46035144889E+02  0.00000000000E+00 0. -1.
          4   -1    0    0  502    0 -0.00000000000E+00 -0.00000000000E+00 -0.11223385595E+04  0.11223385595E+04  0.00000000000E+00 0.  1.
        -13    1    1    2    0    0  0.64579813252E+02  0.22419158307E+02 -0.17051699743E+03  0.18370963098E+03  0.10566000000E+00 0.  1.
         13    1    1    2    0    0 -0.18822055997E+03  0.24712218354E+02 -0.24074697661E+03  0.30658896073E+03  0.10566000000E+00 0. -1.
          4    1    1    2  501    0  0.12364074672E+03 -0.47131376661E+02 -0.66503944056E+03  0.67807511267E+03  0.00000000000E+00 0.  1.
</event>
<event>
 6    1  0.2569591E-005  0.1123287E+04  0.7818608E-02  0.8845994E-01
         21   -1    0    0  501  502  0.00000000000E+00  0.00000000000E+00  0.69570373369E+03  0.69570373369E+03  0.00000000000E+00 0.  1.
          4   -1    0    0  502    0 -0.00000000000E+00 -0.00000000000E+00 -0.13056688615E+04  0.13056688615E+04  0.00000000000E+00 0.  1.
    9000010    2    1    2  501    0 -0.10409922875E+03 -0.51136456055E+03 -0.86765312402E+03  0.14193644529E+04  0.99470756672E+03 0.  0.
        -13    1    3    3    0    0  0.25626917052E+03  0.84334217084E+02  0.42859883587E+02  0.27317234251E+03  0.10566000000E+00 0.  1.
         13    1    1    2    0    0  0.10409922875E+03  0.51136456055E+03  0.25768799617E+03  0.58200814234E+03  0.10566000000E+00 0. -1.
          4    1    3    3  501    0 -0.36036839927E+03 -0.59569877764E+03 -0.91051300761E+03  0.11461921104E+04  0.00000000000E+00 0.  1.
</event>
<event>
 6    1  0.2569591E-005  0.1222530E+04  0.7818608E-02  0.8717320E-01
         21   -1    0    0  501  502  0.00000000000E+00  0.00000000000E+00  0.57449702194E+03  0.57449702194E+03  0.00000000000E+00 0. -1.
          4   -1    0    0  502    0 -0.00000000000E+00 -0.00000000000E+00 -0.17066014313E+04  0.17066014313E+04  0.00000000000E+00 0.  1.
    9000010    2    1    2  501    0 -0.69781840719E+03 -0.48323265956E+02 -0.44615154138E+03  0.13013959394E+04  0.10026437681E+04 0.  0.
        -13    1    3    3    0    0  0.20200804069E+03 -0.21642037737E+03 -0.35700287568E+02  0.29819381271E+03  0.10566000000E+00 0.  1.
         13    1    1    2    0    0  0.69781840719E+03  0.48323265956E+02 -0.68595286798E+03  0.97970251388E+03  0.10566000000E+00 0. -1.
          4    1    3    3  501    0 -0.89982644788E+03  0.16809711141E+03 -0.41045125382E+03  0.10032021267E+04  0.00000000000E+00 0.  1.
</event>
<event>
 6    1  0.2569591E-005  0.1021437E+04  0.7818608E-02  0.9146424E-01
          4   -1    0    0  502    0 -0.00000000000E+00  0.00000000000E+00  0.32106148101E+03  0.32106148101E+03  0.00000000000E+00 0.  1.
         21   -1    0    0  501  502  0.00000000000E+00 -0.00000000000E+00 -0.12707500157E+04  0.12707500157E+04  0.00000000000E+00 0.  1.
    9000010    2    1    2  501    0  0.17549375191E+03 -0.10686433981E+03 -0.93673850578E+03  0.13859334782E+04  0.10005571117E+04 0.  0.
        -13    1    3    3    0    0 -0.31076447156E+03 -0.34085554197E+03 -0.57105763654E+03  0.73407349270E+03  0.10566000000E+00 0.  1.
         13    1    1    2    0    0 -0.17549375191E+03  0.10686433981E+03 -0.12950028904E+02  0.20587801849E+03  0.10566000000E+00 0. -1.
          4    1    3    3  501    0  0.48625822347E+03  0.23399120216E+03 -0.36568086924E+03  0.65185998551E+03  0.00000000000E+00 0.  1.
</event>
<event>
 6    1  0.2569591E-005  0.1141461E+04  0.7818608E-02  0.8811505E-01
         -4   -1    0    0    0  501 -0.00000000000E+00  0.00000000000E+00  0.10247563930E+04  0.10247563930E+04  0.00000000000E+00 0. -1.
         21   -1    0    0  501  502  0.00000000000E+00 -0.00000000000E+00 -0.80168538343E+03  0.80168538343E+03  0.00000000000E+00 0.  1.
   -9000010    2    1    2    0  502 -0.34174607590E+03  0.46238358008E+03 -0.13449680311E+03  0.11493570644E+04  0.98607470092E+03 0.  0.
        -13    1    1    2    0    0  0.34174607590E+03 -0.46238358008E+03  0.35756781271E+03  0.67708471211E+03  0.10566000000E+00 0.  1.
         13    1    3    3    0    0 -0.15269888550E+03 -0.28818324716E+03 -0.18274162583E+03  0.37384628733E+03  0.10566000000E+00 0. -1.
         -4    1    3    3    0  502 -0.18904719040E+03  0.75056682724E+03  0.48244822719E+02  0.77551077702E+03  0.00000000000E+00 0. -1.
</event>
<event>
 5    1  0.2569591E-005  0.3088363E+03  0.7818608E-02  0.1014074E+00
         21   -1    0    0  501  502  0.00000000000E+00  0.00000000000E+00  0.84675391869E+02  0.84675391869E+02  0.00000000000E+00 0. -1.
          4   -1    0    0  502    0 -0.00000000000E+00 -0.00000000000E+00 -0.10898963546E+04  0.10898963546E+04  0.00000000000E+00 0.  1.
        -13    1    1    2    0    0 -0.20575563735E+03  0.69759229584E+02 -0.57352629450E+03  0.61329776949E+03  0.10566000000E+00 0.  1.
         13    1    1    2    0    0  0.22037497731E+03  0.20081894306E+02 -0.15548140264E+03  0.27044942380E+03  0.10566000000E+00 0. -1.
          4    1    1    2  501    0 -0.14619339964E+02 -0.89841123890E+02 -0.27621326560E+03  0.29082455318E+03  0.00000000000E+00 0.  1.
</event>
<event>
 6    1  0.2569591E-005  0.9993080E+03  0.7818608E-02  0.9008683E-01
          4   -1    0    0  502    0 -0.00000000000E+00  0.00000000000E+00  0.15090447578E+04  0.15090447578E+04  0.00000000000E+00 0.  1.
         21   -1    0    0  501  502  0.00000000000E+00 -0.00000000000E+00 -0.47920523486E+03  0.47920523486E+03  0.00000000000E+00 0.  1.
    9000010    2    1    2  501    0 -0.19804098168E+03  0.32375775461E+03  0.12507013279E+03  0.10071042468E+04  0.92443340038E+03 0.  0.
        -13    1    3    3    0    0 -0.19277245511E+02  0.98622398860E+02 -0.39786557268E+03  0.41035961648E+03  0.10566000000E+00 0.  1.
         13    1    1    2    0    0  0.19804098168E+03 -0.32375775461E+03  0.90476939011E+03  0.98114574582E+03  0.10566000000E+00 0. -1.
          4    1    3    3  501    0 -0.17876373617E+03  0.22513535575E+03  0.52293570547E+03  0.59674463033E+03  0.00000000000E+00 0.  1.
</event>
<event>
 6    1  0.2569591E-005  0.1033849E+04  0.7818608E-02  0.9031982E-01
          4   -1    0    0  502    0 -0.00000000000E+00  0.00000000000E+00  0.25063924489E+04  0.25063924489E+04  0.00000000000E+00 0.  1.
         21   -1    0    0  501  502  0.00000000000E+00 -0.00000000000E+00 -0.19608663084E+03  0.19608663084E+03  0.00000000000E+00 0.  1.
    9000010    2    1    2  501    0 -0.24469913219E+03  0.19363071530E+03  0.20506996893E+04  0.22965654529E+04  0.98563337229E+03 0.  0.
        -13    1    3    3    0    0 -0.43158482808E+03  0.33427107699E+03  0.53996157350E+03  0.76782884080E+03  0.10566000000E+00 0.  1.
         13    1    1    2    0    0  0.24469913219E+03 -0.19363071530E+03  0.25960612878E+03  0.40591362685E+03  0.10566000000E+00 0. -1.
          4    1    3    3  501    0  0.18688569589E+03 -0.14064036169E+03  0.15107381158E+04  0.15287366121E+04  0.00000000000E+00 0.  1.
</event>
<event>
 6    1  0.2569591E-005  0.1158179E+04  0.7818608E-02  0.8796934E-01
          4   -1    0    0  502    0 -0.00000000000E+00  0.00000000000E+00  0.31070948110E+04  0.31070948110E+04  0.00000000000E+00 0.  1.
         21   -1    0    0  501  502  0.00000000000E+00 -0.00000000000E+00 -0.41705633013E+03  0.41705633013E+03  0.00000000000E+00 0.  1.
    9000010    2    1    2  501    0 -0.24952256814E+03 -0.52957506394E+03  0.50754558184E+03  0.12645081326E+04  0.99933329750E+03 0.  0.
        -13    1    3    3    0    0 -0.58449894285E+02  0.29519571809E+03  0.59891613417E+02  0.30682880999E+03  0.10566000000E+00 0.  1.
         13    1    1    2    0    0  0.24952256814E+03  0.52957506394E+03  0.21824928990E+04  0.22596430085E+04  0.10566000000E+00 0. -1.
          4    1    3    3  501    0 -0.19107267386E+03 -0.82477078203E+03  0.44765396843E+03  0.95767932265E+03  0.00000000000E+00 0.  1.
</event>
<event>
 5    1  0.2569591E-005  0.3744460E+03  0.7818608E-02  0.9853135E-01
          4   -1    0    0  502    0 -0.00000000000E+00  0.00000000000E+00  0.23962230509E+03  0.23962230509E+03  0.00000000000E+00 0.  1.
         21   -1    0    0  501  502  0.00000000000E+00 -0.00000000000E+00 -0.50641987977E+03  0.50641987977E+03  0.00000000000E+00 0. -1.
        -13    1    1    2    0    0  0.48973004836E+02  0.24084610814E+03 -0.31052917991E+02  0.24772867797E+03  0.10566000000E+00 0.  1.
         13    1    1    2    0    0  0.43770370768E+02 -0.31596052988E+03 -0.15887333207E+03  0.35635326378E+03  0.10566000000E+00 0. -1.
          4    1    1    2  501    0 -0.92743375604E+02  0.75114421742E+02 -0.76871324618E+02  0.14196024310E+03  0.00000000000E+00 0.  1.
</event>
<event>
 6    1  0.2569591E-005  0.1230477E+04  0.7818608E-02  0.8875589E-01
         -4   -1    0    0    0  501 -0.00000000000E+00  0.00000000000E+00  0.10594550346E+04  0.10594550346E+04  0.00000000000E+00 0. -1.
         21   -1    0    0  501  502  0.00000000000E+00 -0.00000000000E+00 -0.66080143742E+03  0.66080143742E+03  0.00000000000E+00 0. -1.
   -9000010    2    1    2    0  502  0.22241988346E+03 -0.27133924767E+03  0.58934931411E+02  0.12318873750E+04  0.11793971285E+04 0.  0.
        -13    1    1    2    0    0 -0.22241988346E+03  0.27133924767E+03  0.33971866579E+03  0.48836909703E+03  0.10566000000E+00 0.  1.
         13    1    3    3    0    0  0.73565634295E+02 -0.26903642007E+03 -0.54373760849E+03  0.61109990666E+03  0.10566000000E+00 0. -1.
         -4    1    3    3    0  502  0.14885424917E+03 -0.23028275943E+01  0.60267253990E+03  0.62078746835E+03  0.00000000000E+00 0. -1.
</event>
<event>
 6    1  0.2569591E-005  0.1101972E+04  0.7818608E-02  0.8907997E-01
         21   -1    0    0  501  502  0.00000000000E+00  0.00000000000E+00  0.49838948241E+03  0.49838948241E+03  0.00000000000E+00 0.  1.
          4   -1    0    0  502    0 -0.00000000000E+00 -0.00000000000E+00 -0.15740758503E+04  0.15740758503E+04  0.00000000000E+00 0.  1.
    9000010    2    1    2  501    0  0.42435846101E+03 -0.47687100905E+02 -0.23092852222E+03  0.11259084184E+04  0.10158679153E+04 0.  0.
        -13    1    3    3    0    0  0.59969783600E+03 -0.30095307450E+03  0.94744741449E+02  0.67763325239E+03  0.10566000000E+00 0.  1.
         13    1    1    2    0    0 -0.42435846101E+03  0.47687100905E+02 -0.84475784570E+03  0.94655691432E+03  0.10566000000E+00 0. -1.
          4    1    3    3  501    0 -0.17533937499E+03  0.25326597359E+03 -0.32567326367E+03  0.44827516602E+03  0.00000000000E+00 0.  1.
</event>
<event>
 5    1  0.2569591E-005  0.3875733E+03  0.7818608E-02  0.9821313E-01
         21   -1    0    0  501  502  0.00000000000E+00  0.00000000000E+00  0.44092084377E+03  0.44092084377E+03  0.00000000000E+00 0. -1.
          4   -1    0    0  502    0 -0.00000000000E+00 -0.00000000000E+00 -0.29047264431E+03  0.29047264431E+03  0.00000000000E+00 0.  1.
        -13    1    1    2    0    0 -0.45491878016E+01  0.10195786502E+03 -0.48854824933E+02  0.11314992899E+03  0.10566000000E+00 0.  1.
         13    1    1    2    0    0 -0.12894199274E+03 -0.29331123198E+03  0.14715862719E+02  0.32073990098E+03  0.10566000000E+00 0. -1.
          4    1    1    2  501    0  0.13349118054E+03  0.19135336697E+03  0.18458716168E+03  0.29750365811E+03  0.00000000000E+00 0.  1.
</event>
<event>
 6    1  0.2569591E-005  0.9801164E+03  0.7818608E-02  0.9012533E-01
         21   -1    0    0  501  502  0.00000000000E+00  0.00000000000E+00  0.24471801349E+03  0.24471801349E+03  0.00000000000E+00 0.  1.
         -4   -1    0    0    0  501 -0.00000000000E+00 -0.00000000000E+00 -0.20336880618E+04  0.20336880618E+04  0.00000000000E+00 0. -1.
   -9000010    2    1    2    0  502 -0.16920021710E+03 -0.35809358448E+03 -0.14843993738E+04  0.17787831819E+04  0.89653130369E+03 0.  0.
        -13    1    1    2    0    0  0.16920021710E+03  0.35809358448E+03 -0.30457067458E+03  0.49962289348E+03  0.10566000000E+00 0.  1.
         13    1    3    3    0    0 -0.39737062218E+03  0.12429109019E+03 -0.87340131707E+03  0.96756475664E+03  0.10566000000E+00 0. -1.
         -4    1    3    3    0  502  0.22817040508E+03 -0.48238467467E+03 -0.61099805671E+03  0.81121842522E+03  0.00000000000E+00 0. -1.
</event>
<event>
 6    1  0.2569591E-005  0.1122084E+04  0.7818608E-02  0.8862782E-01
         -4   -1    0    0    0  501 -0.00000000000E+00  0.00000000000E+00  0.24821117261E+04  0.24821117261E+04  0.00000000000E+00 0. -1.
         21   -1    0    0  501  502  0.00000000000E+00 -0.00000000000E+00 -0.26892993166E+03  0.26892993166E+03  0.00000000000E+00 0. -1.
   -9000010    2    1    2    0  502  0.45402519724E+03  0.17899761595E+03  0.13136129467E+04  0.17276144990E+04  0.10103929222E+04 0.  0.
        -13    1    1    2    0    0 -0.45402519724E+03 -0.17899761595E+03  0.89956884771E+03  0.10234271587E+04  0.10566000000E+00 0.  1.
         13    1    3    3    0    0  0.35227070363E+03  0.14901905337E+03 -0.26405455595E+02  0.38340394645E+03  0.10566000000E+00 0. -1.
         -4    1    3    3    0  502  0.10175449360E+03  0.29978562588E+02  0.13400184023E+04  0.13442105526E+04  0.00000000000E+00 0. -1.
</event>
<event>
 5    1  0.2569591E-005  0.2084228E+03  0.7818608E-02  0.1065844E+00
          4   -1    0    0  502    0 -0.00000000000E+00  0.00000000000E+00  0.88110679636E+02  0.88110679636E+02  0.00000000000E+00 0.  1.
         21   -1    0    0  501  502  0.00000000000E+00 -0.00000000000E+00 -0.36591787544E+03  0.36591787544E+03  0.00000000000E+00 0. -1.
        -13    1    1    2    0    0  0.10676347492E+03 -0.48381198582E+02 -0.12804868692E+03  0.17359624805E+03  0.10566000000E+00 0.  1.
         13    1    1    2    0    0 -0.14864411776E+03 -0.18120456517E+02 -0.13254453396E+03  0.19997872221E+03  0.10566000000E+00 0. -1.
          4    1    1    2  501    0  0.41880642848E+02  0.66501655098E+02 -0.17213974926E+02  0.80453584811E+02  0.00000000000E+00 0.  1.
</event>
<event>
 6    1  0.2569591E-005  0.1008562E+04  0.7818608E-02  0.9326680E-01
         21   -1    0    0  501  502  0.00000000000E+00  0.00000000000E+00  0.29369220381E+03  0.29369220381E+03  0.00000000000E+00 0. -1.
         -4   -1    0    0    0  501 -0.00000000000E+00 -0.00000000000E+00 -0.10621184815E+04  0.10621184815E+04  0.00000000000E+00 0. -1.
   -9000010    2    1    2    0  502 -0.94533808198E+02 -0.49603931803E+02 -0.67183457973E+03  0.12118413892E+04  0.10028961357E+04 0.  0.
        -13    1    1    2    0    0  0.94533808198E+02  0.49603931803E+02 -0.96591697913E+02  0.14396929608E+03  0.10566000000E+00 0.  1.
         13    1    3    3    0    0  0.30457099863E+03 -0.10680749377E+03  0.10265801629E+03  0.33868866737E+03  0.10566000000E+00 0. -1.
         -4    1    3    3    0  502 -0.39910480683E+03  0.57203561963E+02 -0.77449259602E+03  0.87315272182E+03  0.00000000000E+00 0. -1.
</event>
<event>
 6    1  0.2569591E-005  0.1033669E+04  0.7818608E-02  0.9079367E-01
         -4   -1    0    0    0  501 -0.00000000000E+00  0.00000000000E+00  0.17794501692E+04  0.17794501692E+04  0.00000000000E+00 0. -1.
         21   -1    0    0  501  502  0.00000000000E+00 -0.00000000000E+00 -0.26377068834E+03  0.26377068834E+03  0.00000000000E+00 0. -1.
   -9000010    2    1    2    0  502  0.24455141950E+03  0.83295754290E+02  0.88171213840E+03  0.13586347184E+04  0.10008638387E+04 0.  0.
        -13    1    1    2    0    0 -0.24455141950E+03 -0.83295754290E+02  0.63396734247E+03  0.68458613917E+03  0.10566000000E+00 0.  1.
         13    1    3    3    0    0 -0.35407996817E+03 -0.38439457470E+02  0.10667939040E+03  0.37179392040E+03  0.10566000000E+00 0. -1.
         -4    1    3    3    0  502  0.59863138767E+03  0.12173521176E+03  0.77503274800E+03  0.98684079798E+03  0.00000000000E+00 0. -1.
</event>
<event>
 6    1  0.2569591E-005  0.9992494E+03  0.7818608E-02  0.9254672E-01
         -4   -1    0    0    0  501 -0.00000000000E+00  0.00000000000E+00  0.17933586920E+04  0.17933586920E+04  0.00000000000E+00 0. -1.
         21   -1    0    0  501  502  0.00000000000E+00 -0.00000000000E+00 -0.18372972598E+03  0.18372972598E+03  0.00000000000E+00 0. -1.
   -9000010    2    1    2    0  502 -0.45230293176E+02  0.13702339158E+03  0.13435687692E+04  0.16744182530E+04  0.98877614213E+03 0.  0.
        -13    1    1    2    0    0  0.45230293176E+02 -0.13702339158E+03  0.26606019677E+03  0.30267016491E+03  0.10566000000E+00 0.  1.
         13    1    3    3    0    0  0.41995317554E+03 -0.14911263591E+03  0.70637515394E+03  0.83520124348E+03  0.10566000000E+00 0. -1.
         -4    1    3    3    0  502 -0.46518346872E+03  0.28613602749E+03  0.63719361528E+03  0.83921700957E+03  0.00000000000E+00 0. -1.
</event>
<event>
 5    1  0.2569591E-005  0.7296356E+02  0.7818608E-02  0.1221910E+00
         -4   -1    0    0    0  501 -0.00000000000E+00  0.00000000000E+00  0.13537171181E+03  0.13537171181E+03  0.00000000000E+00 0. -1.
         21   -1    0    0  501  502  0.00000000000E+00 -0.00000000000E+00 -0.66274360235E+02  0.66274360235E+02  0.00000000000E+00 0.  1.
        -13    1    1    2    0    0  0.67177061293E+02  0.14284425626E+02 -0.32968665289E+02  0.76182323634E+02  0.10566000000E+00 0.  1.
         13    1    1    2    0    0 -0.14734695857E+02 -0.84868589300E+01  0.43129003713E+02  0.46360113911E+02  0.10566000000E+00 0. -1.
         -4    1    1    2    0  502 -0.52442365436E+02 -0.57975666958E+01  0.58937013153E+02  0.79103634503E+02  0.00000000000E+00 0. -1.
</event>
