<event>
 8    1  0.7096247E-006  0.1460874E+04  0.7818608E-02  0.8432379E-01
          2   -1    0    0  502    0  0.00000000000E+00  0.00000000000E+00  0.30190779751E+04  0.30190779751E+04  0.00000000000E+00 0. -1.
         -2   -1    0    0    0  501 -0.00000000000E+00 -0.00000000000E+00 -0.76718540778E+03  0.76718540778E+03  0.00000000000E+00 0.  1.
    9000010    2    1    2  502    0 -0.93125258785E+03 -0.40404930929E+03  0.56942440167E+03  0.15314022328E+04  0.99521928368E+03 0.  0.
   -9000010    2    1    2    0  501  0.93125258785E+03  0.40404930929E+03  0.16824681656E+04  0.22548611501E+04  0.11059893540E+04 0.  0.
        -13    1    3    3    0    0 -0.33565271837E+03  0.21839652108E+03 -0.13075275633E+03  0.42125536462E+03  0.10566000000E+00 0.  1.
         13    1    4    4    0    0  0.98517087969E+03  0.53152878762E+03  0.83595336557E+03  0.13971050622E+04  0.10566000000E+00 0. -1.
          4    1    3    3  502    0 -0.59559986948E+03 -0.62244583038E+03  0.70017715801E+03  0.11101468682E+04  0.00000000000E+00 0.  1.
         -4    1    4    4    0  501 -0.53918291841E+02 -0.12747947833E+03  0.84651480007E+03  0.85775608790E+03  0.00000000000E+00 0. -1.
</event>
<event>
 8    1  0.7096247E-006  0.1484335E+04  0.7818608E-02  0.8418572E-01
          4   -1    0    0  502    0  0.00000000000E+00  0.00000000000E+00  0.12238185655E+04  0.12238185655E+04  0.00000000000E+00 0.  1.
         -4   -1    0    0    0  501 -0.00000000000E+00 -0.00000000000E+00 -0.23366684006E+04  0.23366684006E+04  0.00000000000E+00 0. -1.
    9000010    2    1    2  502    0  0.93676631622E+03 -0.56277602518E+03  0.29739492644E+03  0.15107627973E+04  0.99985624056E+03 0.  0.
   -9000010    2    1    2    0  501 -0.93676631622E+03  0.56277602518E+03 -0.14102447616E+04  0.20497241688E+04  0.10091238252E+04 0.  0.
        -13    1    3    3    0    0 -0.21092552808E+03 -0.65770746158E+02 -0.15652412442E+02  0.22149577563E+03  0.10566000000E+00 0.  1.
         13    1    4    4    0    0 -0.12736487649E+03  0.62573696745E+03 -0.85082501386E+03  0.10638006296E+04  0.10566000000E+00 0. -1.
          4    1    3    3  502    0  0.11476918443E+04 -0.49700527902E+03  0.31304733889E+03  0.12892670217E+04  0.00000000000E+00 0.  1.
         -4    1    4    4    0  501 -0.80940143973E+03 -0.62960942263E+02 -0.55941974776E+03  0.98592353916E+03  0.00000000000E+00 0. -1.
</event>
<event>
 8    1  0.7096247E-006  0.1082059E+04  0.7818608E-02  0.8701095E-01
          1   -1    0    0  502    0  0.00000000000E+00  0.00000000000E+00  0.20860897853E+04  0.20860897853E+04  0.00000000000E+00 0.  1.
         -1   -1    0    0    0  501 -0.00000000000E+00 -0.00000000000E+00 -0.59087554301E+03  0.59087554301E+03  0.00000000000E+00 0. -1.
    9000010    2    1    2  502    0 -0.25534072312E+03 -0.30370552821E+03  0.10356654920E+04  0.14859909890E+04  0.98900468924E+03 0.  0.
   -9000010    2    1    2    0  501  0.25534072312E+03  0.30370552821E+03  0.45954875029E+03  0.11909743393E+04  0.10245969404E+04 0.  0.
        -13    1    3    3    0    0 -0.53838296449E+02 -0.44675643615E+03  0.11340068535E+04  0.12200251761E+04  0.10566000000E+00 0.  1.
         13    1    4    4    0    0 -0.32311076753E+03  0.51381596505E+02 -0.10563247306E+03  0.34380062112E+03  0.10566000000E+00 0. -1.
          4    1    3    3  502    0 -0.20150242668E+03  0.14305090795E+03 -0.98341361537E+02  0.26596581286E+03  0.00000000000E+00 0.  1.
         -4    1    4    4    0  501  0.57845149065E+03  0.25232393170E+03  0.56518122335E+03  0.84717371818E+03  0.00000000000E+00 0. -1.
</event>
<event>
 7    1  0.7096247E-006  0.2008839E+04  0.7818608E-02  0.8164803E-01
          1   -1    0    0  502    0  0.00000000000E+00  0.00000000000E+00  0.19996517828E+04  0.19996517828E+04  0.00000000000E+00 0.  1.
         -1   -1    0    0    0  501 -0.00000000000E+00 -0.00000000000E+00 -0.20284247040E+04  0.20284247040E+04  0.00000000000E+00 0. -1.
    9000010    2    1    2  502    0 -0.14833224874E+04  0.68378669406E+03  0.10007369379E+03  0.19254550478E+04  0.10146686910E+04 0.  0.
        -13    1    3    3    0    0 -0.12677716960E+04  0.72513004156E+02  0.15484082023E+01  0.12698447218E+04  0.10566000000E+00 0.  1.
         13    1    1    2    0    0  0.69721337185E+03  0.10481696490E+03  0.46116065990E+03  0.84247388531E+03  0.10566000000E+00 0. -1.
          4    1    3    3  502    0 -0.21555079141E+03  0.61127368990E+03  0.98525285589E+02  0.65561032599E+03  0.00000000000E+00 0.  1.
         -4    1    1    2    0  501  0.78610911551E+03 -0.78860365896E+03 -0.59000727488E+03  0.12601475536E+04  0.00000000000E+00 0. -1.
</event>
<event>
 8    1  0.7096247E-006  0.1183930E+04  0.7818608E-02  0.8618763E-01
         -1   -1    0    0    0  501 -0.00000000000E+00  0.00000000000E+00  0.12735863892E+04  0.12735863892E+04  0.00000000000E+00 0. -1.
          1   -1    0    0  502    0  0.00000000000E+00 -0.00000000000E+00 -0.11007094606E+04  0.11007094606E+04  0.00000000000E+00 0.  1.
    9000010    2    1    2  502    0  0.30787458985E+03  0.53855823922E+03  0.97228008240E+02  0.11952776724E+04  0.10170563842E+04 0.  0.
   -9000010    2    1    2    0  501 -0.30787458985E+03 -0.53855823922E+03  0.75648920372E+02  0.11790181774E+04  0.99976465395E+03 0.  0.
        -13    1    3    3    0    0 -0.10452294409E+03  0.10046568209E+03 -0.39318878765E+03  0.41906542809E+03  0.10566000000E+00 0.  1.
         13    1    4    4    0    0 -0.38378609504E+03 -0.51771504678E+03 -0.35872648409E+03  0.73756717522E+03  0.10566000000E+00 0. -1.
          4    1    3    3  502    0  0.41239753393E+03  0.43809255713E+03  0.49041679589E+03  0.77621224436E+03  0.00000000000E+00 0.  1.
         -4    1    4    4    0  501  0.75911505196E+02 -0.20843192441E+02  0.43437540446E+03  0.44145100214E+03  0.00000000000E+00 0. -1.
</event>
<event>
 8    1  0.7096247E-006  0.1628708E+04  0.7818608E-02  0.8339049E-01
         -4   -1    0    0    0  501 -0.00000000000E+00  0.00000000000E+00  0.20065629686E+04  0.20065629686E+04  0.00000000000E+00 0. -1.
          4   -1    0    0  502    0  0.00000000000E+00 -0.00000000000E+00 -0.15209781291E+04  0.15209781291E+04  0.00000000000E+00 0.  1.
    9000010    2    1    2  502    0  0.70074180260E+03  0.10709687268E+04 -0.39509179416E+03  0.16763179408E+04  0.10079341373E+04 0.  0.
   -9000010    2    1    2    0  501 -0.70074180260E+03 -0.10709687268E+04  0.88067663366E+03  0.18512231570E+04  0.10066890067E+04 0.  0.
        -13    1    3    3    0    0  0.49509361069E+03  0.68746108992E+03  0.26325862211E+03  0.88714460308E+03  0.10566000000E+00 0.  1.
         13    1    4    4    0    0  0.17184172680E+03 -0.60365685403E+03  0.44701714342E+03  0.77055532842E+03  0.10566000000E+00 0. -1.
          4    1    3    3  502    0  0.20564819191E+03  0.38350763684E+03 -0.65835041627E+03  0.78917333771E+03  0.00000000000E+00 0.  1.
         -4    1    4    4    0  501 -0.87258352940E+03 -0.46731187272E+03  0.43365949024E+03  0.10806678285E+04  0.00000000000E+00 0. -1.
</event>
<event>
 8    1  0.7096247E-006  0.1373266E+04  0.7818608E-02  0.8486390E-01
         -4   -1    0    0    0  501 -0.00000000000E+00  0.00000000000E+00  0.20141842800E+04  0.20141842800E+04  0.00000000000E+00 0. -1.
          4   -1    0    0  502    0  0.00000000000E+00 -0.00000000000E+00 -0.10941359992E+04  0.10941359992E+04  0.00000000000E+00 0.  1.
    9000010    2    1    2  502    0  0.30846221757E+03  0.88094936321E+03 -0.12822445126E+03  0.13862258760E+04  0.10168382119E+04 0.  0.
   -9000010    2    1    2    0  501 -0.30846221757E+03 -0.88094936321E+03  0.10482727321E+04  0.17220944031E+04  0.99775382341E+03 0.  0.
        -13    1    3    3    0    0 -0.27649743112E+03  0.66549300596E+03 -0.22594225095E+03  0.75523617652E+03  0.10566000000E+00 0.  1.
         13    1    4    4    0    0 -0.56495543436E+02 -0.47471589179E+03  0.11392438597E+04  0.12354851304E+04  0.10566000000E+00 0. -1.
          4    1    3    3  502    0  0.58495964870E+03  0.21545635726E+03  0.97717799688E+02  0.63098969949E+03  0.00000000000E+00 0.  1.
         -4    1    4    4    0  501 -0.25196667414E+03 -0.40623347143E+03 -0.90971127677E+02  0.48660927268E+03  0.00000000000E+00 0. -1.
</event>
<event>
 8    1  0.7096247E-006  0.1264232E+04  0.7818608E-02  0.8559702E-01
         -2   -1    0    0    0  501 -0.00000000000E+00  0.00000000000E+00  0.40961795619E+04  0.40961795619E+04  0.00000000000E+00 0. -1.
          2   -1    0    0  502    0  0.00000000000E+00 -0.00000000000E+00 -0.43376124508E+03  0.43376124508E+03  0.00000000000E+00 0.  1.
    9000010    2    1    2  502    0 -0.56739503666E+02 -0.78941753494E+03  0.25461138322E+04  0.28417007273E+04  0.98293843227E+03 0.  0.
   -9000010    2    1    2    0  501  0.56739503666E+02  0.78941753494E+03  0.11163044847E+04  0.16882400796E+04  0.98874640243E+03 0.  0.
        -13    1    3    3    0    0  0.36512541620E+03 -0.44528985660E+03  0.19551507029E+04  0.20381888794E+04  0.10566000000E+00 0.  1.
         13    1    4    4    0    0  0.36845205807E+03  0.57064083439E+03  0.21935899387E+03  0.71379707223E+03  0.10566000000E+00 0. -1.
          4    1    3    3  502    0 -0.42186491986E+03 -0.34412767835E+03  0.59096312930E+03  0.80351184796E+03  0.00000000000E+00 0.  1.
         -4    1    4    4    0  501 -0.31171255440E+03  0.21877670055E+03  0.89694549078E+03  0.97444300742E+03  0.00000000000E+00 0. -1.
</event>
<event>
 8    1  0.7096247E-006  0.1352033E+04  0.7818608E-02  0.8500104E-01
         -1   -1    0    0    0  501 -0.00000000000E+00  0.00000000000E+00  0.83999232852E+03  0.83999232852E+03  0.00000000000E+00 0.  1.
          1   -1    0    0  502    0  0.00000000000E+00 -0.00000000000E+00 -0.21831613368E+04  0.21831613368E+04  0.00000000000E+00 0. -1.
    9000010    2    1    2  502    0 -0.25347664099E+03 -0.87129377273E+03 -0.58526519327E+03  0.14713973154E+04  0.99953562593E+03 0.  0.
   -9000010    2    1    2    0  501  0.25347664099E+03  0.87129377273E+03 -0.75790381496E+03  0.15517563498E+04  0.10050504120E+04 0.  0.
        -13    1    3    3    0    0 -0.48826861207E+03 -0.42317808189E+03  0.62885252362E+02  0.64918448275E+03  0.10566000000E+00 0.  1.
         13    1    4    4    0    0  0.31482741712E+03  0.78647563319E+02  0.13917590196E+03  0.35308877727E+03  0.10566000000E+00 0. -1.
          4    1    3    3  502    0  0.23479197108E+03 -0.44811569084E+03 -0.64815044563E+03  0.82221283269E+03  0.00000000000E+00 0.  1.
         -4    1    4    4    0  501 -0.61350776129E+02  0.79264620941E+03 -0.89707971691E+03  0.11986675726E+04  0.00000000000E+00 0. -1.
</event>
<event>
 8    1  0.7096247E-006  0.1292762E+04  0.7818608E-02  0.8539803E-01
         -2   -1    0    0    0  501 -0.00000000000E+00  0.00000000000E+00  0.69021218138E+03  0.69021218138E+03  0.00000000000E+00 0.  1.
          2   -1    0    0  502    0  0.00000000000E+00 -0.00000000000E+00 -0.24258928208E+04  0.24258928208E+04  0.00000000000E+00 0. -1.
    9000010    2    1    2  502    0 -0.35382642140E+03 -0.73841054180E+03 -0.80224111223E+03  0.15238086534E+04  0.10039714863E+04 0.  0.
   -9000010    2    1    2    0  501  0.35382642140E+03  0.73841054180E+03 -0.93343952714E+03  0.15922963487E+04  0.99682247497E+03 0.  0.
        -13    1    3    3    0    0 -0.34541109241E+03 -0.55041403331E+03  0.49333657089E+02  0.65168876905E+03  0.10566000000E+00 0.  1.
         13    1    4    4    0    0  0.25515455570E+03  0.56694572439E+03 -0.11448436620E+04  0.13027656441E+04  0.10566000000E+00 0. -1.
          4    1    3    3  502    0 -0.84153289965E+01 -0.18799650849E+03 -0.85157476932E+03  0.87211988436E+03  0.00000000000E+00 0.  1.
         -4    1    4    4    0  501  0.98671865700E+02  0.17146481741E+03  0.21140413489E+03  0.28953070466E+03  0.00000000000E+00 0. -1.
</event>
<event>
 8    1  0.7096247E-006  0.1230516E+04  0.7818608E-02  0.8583930E-01
          2   -1    0    0  502    0  0.00000000000E+00  0.00000000000E+00  0.10335340424E+04  0.10335340424E+04  0.00000000000E+00 0.  1.
         -2   -1    0    0    0  501 -0.00000000000E+00 -0.00000000000E+00 -0.18699362809E+04  0.18699362809E+04  0.00000000000E+00 0. -1.
    9000010    2    1    2  502    0  0.70589312025E+03  0.17171426819E+03 -0.10956055825E+04  0.16530032440E+04  0.10021463192E+04 0.  0.
   -9000010    2    1    2    0  501 -0.70589312025E+03 -0.17171426819E+03  0.25920334405E+03  0.12504670793E+04  0.98423099713E+03 0.  0.
        -13    1    3    3    0    0  0.76292793221E+03 -0.37021131925E+01 -0.27353077831E+03  0.81048863856E+03  0.10566000000E+00 0.  1.
         13    1    4    4    0    0 -0.20922849709E+03  0.27681049616E+02  0.58636858927E+03  0.62319414161E+03  0.10566000000E+00 0. -1.
          4    1    3    3  502    0 -0.57034811962E+02  0.17541638139E+03 -0.82207480421E+03  0.84251460542E+03  0.00000000000E+00 0.  1.
         -4    1    4    4    0  501 -0.49666462316E+03 -0.19939531781E+03 -0.32716524521E+03  0.62727293768E+03  0.00000000000E+00 0. -1.
</event>
<event>
 8    1  0.7096247E-006  0.1192541E+04  0.7818608E-02  0.8612200E-01
          2   -1    0    0  502    0  0.00000000000E+00  0.00000000000E+00  0.35561478585E+04  0.35561478585E+04  0.00000000000E+00 0.  1.
         -2   -1    0    0    0  501 -0.00000000000E+00 -0.00000000000E+00 -0.46992205178E+03  0.46992205178E+03  0.00000000000E+00 0. -1.
    9000010    2    1    2  502    0  0.45528718483E+03 -0.40179209736E+03  0.78722596278E+03  0.14446172867E+04  0.10480797100E+04 0.  0.
   -9000010    2    1    2    0  501 -0.45528718483E+03  0.40179209736E+03  0.22989998440E+04  0.25814526236E+04  0.10048751440E+04 0.  0.
        -13    1    3    3    0    0  0.76508593577E+03 -0.40582054087E+03  0.41508808911E+03  0.96038790777E+03  0.10566000000E+00 0.  1.
         13    1    4    4    0    0 -0.51531606378E+03  0.65488252109E+03  0.20824629210E+04  0.22430054816E+04  0.10566000000E+00 0. -1.
          4    1    3    3  502    0 -0.30979875094E+03  0.40284435172E+01  0.37213787367E+03  0.48422937897E+03  0.00000000000E+00 0.  1.
         -4    1    4    4    0  501  0.60028878952E+02 -0.25309042373E+03  0.21653692295E+03  0.33844714195E+03  0.00000000000E+00 0. -1.
</event>
<event>
 8    1  0.7096247E-006  0.1364403E+04  0.7818608E-02  0.8492083E-01
          4   -1    0    0  502    0  0.00000000000E+00  0.00000000000E+00  0.11998968309E+04  0.11998968309E+04  0.00000000000E+00 0. -1.
         -4   -1    0    0    0  501 -0.00000000000E+00 -0.00000000000E+00 -0.15603788708E+04  0.15603788708E+04  0.00000000000E+00 0.  1.
    9000010    2    1    2  502    0 -0.33842356524E+03 -0.86485092796E+03 -0.75670508410E+02  0.13644731429E+04  0.99677645176E+03 0.  0.
   -9000010    2    1    2    0  501  0.33842356524E+03  0.86485092796E+03 -0.28481153145E+03  0.13958025588E+04  0.10023220728E+04 0.  0.
        -13    1    3    3    0    0 -0.22570707644E+02  0.22138289090E+03 -0.69846269559E+02  0.23323450379E+03  0.10566000000E+00 0.  1.
         13    1    4    4    0    0  0.66642449348E+03  0.65265399853E+03 -0.37680684397E+02  0.93354094310E+03  0.10566000000E+00 0. -1.
          4    1    3    3  502    0 -0.31585285759E+03 -0.10862338189E+04 -0.58242388513E+01  0.11312386391E+04  0.00000000000E+00 0.  1.
         -4    1    4    4    0  501 -0.32800092824E+03  0.21219692943E+03 -0.24713084705E+03  0.46226161570E+03  0.00000000000E+00 0. -1.
</event>
<event>
 8    1  0.7096247E-006  0.1133097E+04  0.7818608E-02  0.8658719E-01
          4   -1    0    0  502    0  0.00000000000E+00  0.00000000000E+00  0.63527008066E+03  0.63527008066E+03  0.00000000000E+00 0. -1.
         -4   -1    0    0    0  501 -0.00000000000E+00 -0.00000000000E+00 -0.25694720701E+04  0.25694720701E+04  0.00000000000E+00 0.  1.
    9000010    2    1    2  502    0 -0.53625209248E+03 -0.12604236027E+03 -0.22386160733E+03  0.11506573261E+04  0.98511181074E+03 0.  0.
   -9000010    2    1    2    0  501  0.53625209248E+03  0.12604236027E+03 -0.17103403821E+04  0.20540848247E+04  0.99526240804E+03 0.  0.
        -13    1    3    3    0    0  0.56314308946E+02 -0.40169582305E+03  0.10506023204E+03  0.41900894879E+03  0.10566000000E+00 0.  1.
         13    1    4    4    0    0  0.55215791411E+03  0.50815376052E+03 -0.12188978753E+04  0.14313667063E+04  0.10566000000E+00 0. -1.
          4    1    3    3  502    0 -0.59256640143E+03  0.27565346278E+03 -0.32892183937E+03  0.73164837733E+03  0.00000000000E+00 0.  1.
         -4    1    4    4    0  501 -0.15905821628E+02 -0.38211140025E+03 -0.49144250687E+03  0.62271811835E+03  0.00000000000E+00 0. -1.
</event>
<event>
 8    1  0.7096247E-006  0.1839705E+04  0.7818608E-02  0.8236974E-01
          2   -1    0    0  502    0  0.00000000000E+00  0.00000000000E+00  0.21184921803E+04  0.21184921803E+04  0.00000000000E+00 0.  1.
         -2   -1    0    0    0  501 -0.00000000000E+00 -0.00000000000E+00 -0.16387736895E+04  0.16387736895E+04  0.00000000000E+00 0. -1.
    9000010    2    1    2  502    0  0.11279199071E+04 -0.10464142736E+04 -0.57944832635E+02  0.18402386682E+04  0.10079358131E+04 0.  0.
   -9000010    2    1    2    0  501 -0.11279199071E+04  0.10464142736E+04  0.53766332341E+03  0.19170272017E+04  0.10093192230E+04 0.  0.
        -13    1    3    3    0    0  0.41542120415E+03 -0.25980538726E+02  0.33588026106E+03  0.53485075131E+03  0.10566000000E+00 0.  1.
         13    1    4    4    0    0  0.94356499612E+02  0.39821782391E+03  0.31338026692E+03  0.51544911209E+03  0.10566000000E+00 0. -1.
          4    1    3    3  502    0  0.71249870295E+03 -0.10204337349E+04 -0.39382509369E+03  0.13053879168E+04  0.00000000000E+00 0.  1.
         -4    1    4    4    0  501 -0.12222764067E+04  0.64819644972E+03  0.22428305649E+03  0.14015780896E+04  0.00000000000E+00 0. -1.
</event>
<event>
 8    1  0.7096247E-006  0.1577276E+04  0.7818608E-02  0.8366364E-01
          2   -1    0    0  502    0  0.00000000000E+00  0.00000000000E+00  0.23490188641E+04  0.23490188641E+04  0.00000000000E+00 0.  1.
         -2   -1    0    0    0  501 -0.00000000000E+00 -0.00000000000E+00 -0.12289489418E+04  0.12289489418E+04  0.00000000000E+00 0. -1.
    9000010    2    1    2  502    0 -0.32963447642E+03 -0.10602523565E+04 -0.79729279709E+02  0.16489749438E+04  0.12165392143E+04 0.  0.
   -9000010    2    1    2    0  501  0.32963447642E+03  0.10602523565E+04  0.11997992019E+04  0.19289928621E+04  0.10240612236E+04 0.  0.
        -13    1    3    3    0    0  0.39100016540E+01 -0.98908515357E+03  0.39448239704E+03  0.10648573153E+04  0.10566000000E+00 0.  1.
         13    1    4    4    0    0  0.16310574768E+03  0.81714621862E+03  0.13589593153E+04  0.15940833916E+04  0.10566000000E+00 0. -1.
          4    1    3    3  502    0 -0.33354447807E+03 -0.71167202905E+02 -0.47421167675E+03  0.58411762855E+03  0.00000000000E+00 0.  1.
         -4    1    4    4    0  501  0.16652872874E+03  0.24310613785E+03 -0.15916011337E+03  0.33490947052E+03  0.00000000000E+00 0. -1.
</event>
<event>
 8    1  0.7096247E-006  0.1291102E+04  0.7818608E-02  0.8540947E-01
          1   -1    0    0  502    0  0.00000000000E+00  0.00000000000E+00  0.14604394299E+04  0.14604394299E+04  0.00000000000E+00 0. -1.
         -1   -1    0    0    0  501 -0.00000000000E+00 -0.00000000000E+00 -0.11423256482E+04  0.11423256482E+04  0.00000000000E+00 0.  1.
    9000010    2    1    2  502    0 -0.69325092940E+03  0.41762109876E+03  0.12424089904E+03  0.13061089467E+04  0.10175856457E+04 0.  0.
   -9000010    2    1    2    0  501  0.69325092940E+03 -0.41762109876E+03  0.19387288268E+03  0.12966561314E+04  0.99434712008E+03 0.  0.
        -13    1    3    3    0    0 -0.32553678574E+03  0.49671834249E+03 -0.35883190391E+03  0.69387582251E+03  0.10566000000E+00 0.  1.
         13    1    4    4    0    0  0.54611432014E+03  0.16075957948E+03  0.36445618096E+03  0.67595326174E+03  0.10566000000E+00 0. -1.
          4    1    3    3  502    0 -0.36771414366E+03 -0.79097243734E+02  0.48307280294E+03  0.61223312419E+03  0.00000000000E+00 0.  1.
         -4    1    4    4    0  501  0.14713660926E+03 -0.57838067824E+03 -0.17058329827E+03  0.62070286965E+03  0.00000000000E+00 0. -1.
</event>
<event>
 8    1  0.7096247E-006  0.1861112E+04  0.7818608E-02  0.8227409E-01
         -4   -1    0    0    0  501 -0.00000000000E+00  0.00000000000E+00  0.22539974405E+04  0.22539974405E+04  0.00000000000E+00 0. -1.
          4   -1    0    0  502    0  0.00000000000E+00 -0.00000000000E+00 -0.16688268817E+04  0.16688268817E+04  0.00000000000E+00 0.  1.
    9000010    2    1    2  502    0  0.11600772916E+04  0.10310676276E+04 -0.25505543988E+03  0.19034150388E+04  0.10719401837E+04 0.  0.
   -9000010    2    1    2    0  501 -0.11600772916E+04 -0.10310676276E+04  0.84022599867E+03  0.20194092834E+04  0.98140427440E+03 0.  0.
        -13    1    3    3    0    0  0.78378223772E+02  0.37222803318E+03  0.33434449012E+03  0.50644160955E+03  0.10566000000E+00 0.  1.
         13    1    4    4    0    0 -0.76067016735E+03 -0.56057435600E+03  0.10061916940E+04  0.13803204151E+04  0.10566000000E+00 0. -1.
          4    1    3    3  502    0  0.10816990679E+04  0.65883959437E+03 -0.58939993000E+03  0.13969734292E+04  0.00000000000E+00 0.  1.
         -4    1    4    4    0  501 -0.39940712429E+03 -0.47049327156E+03 -0.16596569535E+03  0.63908886827E+03  0.00000000000E+00 0. -1.
</event>
<event>
 8    1  0.7096247E-006  0.1110753E+04  0.7818608E-02  0.8676979E-01
          2   -1    0    0  502    0  0.00000000000E+00  0.00000000000E+00  0.28631750081E+04  0.28631750081E+04  0.00000000000E+00 0.  1.
         -2   -1    0    0    0  501 -0.00000000000E+00 -0.00000000000E+00 -0.43583618630E+03  0.43583618630E+03  0.00000000000E+00 0. -1.
    9000010    2    1    2  502    0  0.47286296735E+03  0.10747302432E+03  0.10382756720E+04  0.15204355354E+04  0.99927874462E+03 0.  0.
   -9000010    2    1    2    0  501 -0.47286296735E+03 -0.10747302432E+03  0.13890631499E+04  0.17785756590E+04  0.99934233561E+03 0.  0.
        -13    1    3    3    0    0 -0.31626017491E+03  0.33710753190E+02  0.30701714261E+03  0.44205932875E+03  0.10566000000E+00 0.  1.
         13    1    4    4    0    0 -0.20241844561E+03 -0.53771931325E+03  0.53678837274E+03  0.78629323744E+03  0.10566000000E+00 0. -1.
          4    1    3    3  502    0  0.78912314226E+03  0.73762271132E+02  0.73125852936E+03  0.10783762066E+04  0.00000000000E+00 0.  1.
         -4    1    4    4    0  501 -0.27044452174E+03  0.43024628893E+03  0.85227477712E+03  0.99228242159E+03  0.00000000000E+00 0. -1.
</event>
<event>
 8    1  0.7096247E-006  0.1811331E+04  0.7818608E-02  0.8249859E-01
         -2   -1    0    0    0  501 -0.00000000000E+00  0.00000000000E+00  0.13692973150E+04  0.13692973150E+04  0.00000000000E+00 0. -1.
          2   -1    0    0  502    0  0.00000000000E+00 -0.00000000000E+00 -0.25802165777E+04  0.25802165777E+04  0.00000000000E+00 0.  1.
    9000010    2    1    2  502    0 -0.13824628906E+04 -0.61328734564E+03 -0.77957314026E+02  0.18132201755E+04  0.99717854460E+03 0.  0.
   -9000010    2    1    2    0  501  0.13824628906E+04  0.61328734564E+03 -0.11329619486E+04  0.21362937173E+04  0.99640506693E+03 0.  0.
        -13    1    3    3    0    0  0.52898595011E+02  0.34009123885E+02 -0.22327595213E+03  0.23196345365E+03  0.10566000000E+00 0.  1.
         13    1    4    4    0    0  0.63721071633E+02  0.92415160923E+02 -0.61750348071E+03  0.62762369043E+03  0.10566000000E+00 0. -1.
          4    1    3    3  502    0 -0.14353614856E+04 -0.64729646952E+03  0.14531863811E+03  0.15812567218E+04  0.00000000000E+00 0.  1.
         -4    1    4    4    0  501  0.13187418189E+04  0.52087218471E+03 -0.51545846792E+03  0.15086700269E+04  0.00000000000E+00 0. -1.
</event>
<event>
 8    1  0.7096247E-006  0.1377756E+04  0.7818608E-02  0.8483522E-01
          2   -1    0    0  502    0  0.00000000000E+00  0.00000000000E+00  0.15614586947E+04  0.15614586947E+04  0.00000000000E+00 0.  1.
         -2   -1    0    0    0  501 -0.00000000000E+00 -0.00000000000E+00 -0.12744673282E+04  0.12744673282E+04  0.00000000000E+00 0. -1.
    9000010    2    1    2  502    0  0.31700362848E+03 -0.90645193935E+03 -0.16030851199E+03  0.13939519038E+04  0.99762551706E+03 0.  0.
   -9000010    2    1    2    0  501 -0.31700362848E+03  0.90645193935E+03  0.44729987852E+03  0.14419741191E+04  0.97829737808E+03 0.  0.
        -13    1    3    3    0    0  0.19533608039E+03 -0.46464212129E+03  0.41890187229E+03  0.65538330384E+03  0.10566000000E+00 0.  1.
         13    1    4    4    0    0 -0.43722398152E+02  0.48907210270E+03 -0.27602606792E+03  0.56328817765E+03  0.10566000000E+00 0. -1.
          4    1    3    3  502    0  0.12166754809E+03 -0.44180981806E+03 -0.57921038429E+03  0.73856859997E+03  0.00000000000E+00 0.  1.
         -4    1    4    4    0  501 -0.27328123033E+03  0.41737983665E+03  0.72332594644E+03  0.87868594144E+03  0.00000000000E+00 0. -1.
</event>
<event>
 8    1  0.7096247E-006  0.1416180E+04  0.7818608E-02  0.8459433E-01
         -1   -1    0    0    0  501 -0.00000000000E+00  0.00000000000E+00  0.39882953762E+03  0.39882953762E+03  0.00000000000E+00 0. -1.
          1   -1    0    0  502    0  0.00000000000E+00 -0.00000000000E+00 -0.50805644129E+04  0.50805644129E+04  0.00000000000E+00 0.  1.
    9000010    2    1    2  502    0 -0.86157108531E+03  0.46842841869E+03 -0.26317542890E+04  0.29927925710E+04  0.10338988427E+04 0.  0.
   -9000010    2    1    2    0  501  0.86157108531E+03 -0.46842841869E+03 -0.20499805863E+04  0.24866013795E+04  0.10094731785E+04 0.  0.
        -13    1    3    3    0    0 -0.94719214053E+03  0.48247058024E+03 -0.26872108831E+04  0.28898188790E+04  0.10566000000E+00 0.  1.
         13    1    4    4    0    0  0.32460380425E+03 -0.65692848817E+03 -0.16044488193E+04  0.17638533650E+04  0.10566000000E+00 0. -1.
          4    1    3    3  502    0  0.85621055227E+02 -0.14042161544E+02  0.55456594165E+02  0.10297369196E+03  0.00000000000E+00 0.  1.
         -4    1    4    4    0  501  0.53696728105E+03  0.18850006947E+03 -0.44553176701E+03  0.72274801454E+03  0.00000000000E+00 0. -1.
</event>
<event>
 8    1  0.7096247E-006  0.1607812E+04  0.7818608E-02  0.8350019E-01
          1   -1    0    0  502    0  0.00000000000E+00  0.00000000000E+00  0.77693070785E+03  0.77693070785E+03  0.00000000000E+00 0.  1.
         -1   -1    0    0    0  501 -0.00000000000E+00 -0.00000000000E+00 -0.34814266271E+04  0.34814266271E+04  0.00000000000E+00 0. -1.
    9000010    2    1    2  502    0 -0.41658086895E+03  0.10980364108E+04 -0.18475870124E+04  0.24976068970E+04  0.12021808781E+04 0.  0.
   -9000010    2    1    2    0  501  0.41658086895E+03 -0.10980364108E+04 -0.85690890690E+03  0.17607504380E+04  0.99334065171E+03 0.  0.
        -13    1    3    3    0    0  0.22760361918E+03 -0.11717350283E+03 -0.55029941112E+03  0.60692873575E+03  0.10566000000E+00 0.  1.
         13    1    4    4    0    0  0.63106357791E+03 -0.11526808971E+04 -0.76906662139E+03  0.15226220704E+04  0.10566000000E+00 0. -1.
          4    1    3    3  502    0 -0.64418448813E+03  0.12152099137E+04 -0.12972876012E+04  0.18906781612E+04  0.00000000000E+00 0.  1.
         -4    1    4    4    0  501 -0.21448270896E+03  0.54644486319E+02 -0.87842285513E+02  0.23812836759E+03  0.00000000000E+00 0. -1.
</event>
<event>
 8    1  0.7096247E-006  0.1530659E+04  0.7818608E-02  0.8392070E-01
         -1   -1    0    0    0  501 -0.00000000000E+00  0.00000000000E+00  0.19776155651E+04  0.19776155651E+04  0.00000000000E+00 0.  1.
          1   -1    0    0  502    0  0.00000000000E+00 -0.00000000000E+00 -0.13762570606E+04  0.13762570606E+04  0.00000000000E+00 0. -1.
    9000010    2    1    2  502    0 -0.96281316063E+03  0.66708315737E+03  0.92465637269E+03  0.17804901563E+04  0.97115738574E+03 0.  0.
   -9000010    2    1    2    0  501  0.96281316063E+03 -0.66708315737E+03 -0.32329786818E+03  0.15733824694E+04  0.99950075659E+03 0.  0.
        -13    1    3    3    0    0 -0.11463568731E+04  0.61043362900E+03  0.91395559509E+03  0.15881052034E+04  0.10566000000E+00 0.  1.
         13    1    4    4    0    0  0.50282283869E+03 -0.70757723130E+03  0.18406748356E+03  0.88734277201E+03  0.10566000000E+00 0. -1.
          4    1    3    3  502    0  0.18354371250E+03  0.56649528368E+02  0.10700777594E+02  0.19238495290E+03  0.00000000000E+00 0.  1.
         -4    1    4    4    0  501  0.45999032193E+03  0.40494073932E+02 -0.50736535174E+03  0.68603969742E+03  0.00000000000E+00 0. -1.
</event>
<event>
 8    1  0.7096247E-006  0.1270054E+04  0.7818608E-02  0.8555598E-01
          2   -1    0    0  502    0  0.00000000000E+00  0.00000000000E+00  0.33415623398E+04  0.33415623398E+04  0.00000000000E+00 0.  1.
         -2   -1    0    0    0  501 -0.00000000000E+00 -0.00000000000E+00 -0.65023396208E+03  0.65023396208E+03  0.00000000000E+00 0. -1.
    9000010    2    1    2  502    0  0.21642735657E+03  0.70523471827E+03  0.23468888996E+04  0.26615728154E+04  0.10158176688E+04 0.  0.
   -9000010    2    1    2    0  501 -0.21642735657E+03 -0.70523471827E+03  0.34443947812E+03  0.13302234864E+04  0.10519786886E+04 0.  0.
        -13    1    3    3    0    0 -0.37780098860E+03  0.70998540091E+02  0.78842316220E+03  0.87714620990E+03  0.10566000000E+00 0.  1.
         13    1    4    4    0    0  0.11553834321E+03 -0.85830250498E+03  0.61986448104E+02  0.86825954052E+03  0.10566000000E+00 0. -1.
          4    1    3    3  502    0  0.59422834516E+03  0.63423617818E+03  0.15584657374E+04  0.17844266055E+04  0.00000000000E+00 0.  1.
         -4    1    4    4    0  501 -0.33196569978E+03  0.15306778670E+03  0.28245303001E+03  0.46196394591E+03  0.00000000000E+00 0. -1.
</event>
<event>
 8    1  0.7096247E-006  0.1026837E+04  0.7818608E-02  0.8749777E-01
         -2   -1    0    0    0  501 -0.00000000000E+00  0.00000000000E+00  0.44624048636E+03  0.44624048636E+03  0.00000000000E+00 0.  1.
          2   -1    0    0  502    0  0.00000000000E+00 -0.00000000000E+00 -0.24249362196E+04  0.24249362196E+04  0.00000000000E+00 0. -1.
    9000010    2    1    2  502    0 -0.49657311204E+02  0.20344860074E+03 -0.11879726082E+04  0.15515581291E+04  0.97580557914E+03 0.  0.
   -9000010    2    1    2    0  501  0.49657311204E+02 -0.20344860074E+03 -0.79072312505E+03  0.13196185769E+04  0.10355157876E+04 0.  0.
        -13    1    3    3    0    0 -0.26139035267E+02  0.57482143992E+03 -0.94738342007E+03  0.11084395756E+04  0.10566000000E+00 0.  1.
         13    1    4    4    0    0  0.42025304271E+03 -0.28296923761E+03 -0.78317959701E+02  0.51265770580E+03  0.10566000000E+00 0. -1.
          4    1    3    3  502    0 -0.23518275937E+02 -0.37137283917E+03 -0.24058918814E+03  0.44311855347E+03  0.00000000000E+00 0.  1.
         -4    1    4    4    0  501 -0.37059573150E+03  0.79520636866E+02 -0.71240516535E+03  0.80696087112E+03  0.00000000000E+00 0. -1.
</event>
<event>
 8    1  0.7096247E-006  0.1122113E+04  0.7818608E-02  0.8667640E-01
         -2   -1    0    0    0  501 -0.00000000000E+00  0.00000000000E+00  0.11563518300E+04  0.11563518300E+04  0.00000000000E+00 0.  1.
          2   -1    0    0  502    0  0.00000000000E+00 -0.00000000000E+00 -0.10913894505E+04  0.10913894505E+04  0.00000000000E+00 0. -1.
    9000010    2    1    2  502    0  0.10210781423E+03 -0.54998083941E+03  0.81201251486E+02  0.11494696719E+04  0.10008905804E+04 0.  0.
   -9000010    2    1    2    0  501 -0.10210781423E+03  0.54998083941E+03 -0.16238871977E+02  0.10982716086E+04  0.94500364862E+03 0.  0.
        -13    1    3    3    0    0 -0.83166873317E+01  0.27646885656E+03 -0.10374465192E+03  0.29541015538E+03  0.10566000000E+00 0.  1.
         13    1    4    4    0    0 -0.17896423722E+03  0.83891543722E+01 -0.39445327578E+03  0.43323431772E+03  0.10566000000E+00 0. -1.
          4    1    3    3  502    0  0.11042450156E+03 -0.82644969597E+03  0.18494590340E+03  0.85405951648E+03  0.00000000000E+00 0.  1.
         -4    1    4    4    0  501  0.76856422993E+02  0.54159168504E+03  0.37821440380E+03  0.66503729091E+03  0.00000000000E+00 0. -1.
</event>
<event>
 8    1  0.7096247E-006  0.1410883E+04  0.7818608E-02  0.8462707E-01
          1   -1    0    0  502    0  0.00000000000E+00  0.00000000000E+00  0.80319837361E+03  0.80319837361E+03  0.00000000000E+00 0. -1.
         -1   -1    0    0    0  501 -0.00000000000E+00 -0.00000000000E+00 -0.25802842215E+04  0.25802842215E+04  0.00000000000E+00 0.  1.
    9000010    2    1    2  502    0  0.81378806386E+03 -0.59479370954E+03 -0.12283143595E+04  0.18751086259E+04  0.99561318969E+03 0.  0.
   -9000010    2    1    2    0  501 -0.81378806386E+03  0.59479370954E+03 -0.54877148840E+03  0.15083739692E+04  0.97878052425E+03 0.  0.
        -13    1    3    3    0    0  0.69284023150E+03 -0.34752390172E+03 -0.13635170465E+04  0.15684320820E+04  0.10566000000E+00 0.  1.
         13    1    4    4    0    0 -0.80614093656E+03  0.83686365399E+03 -0.47353004686E+03  0.12547647992E+04  0.10566000000E+00 0. -1.
          4    1    3    3  502    0  0.12094783236E+03 -0.24726980782E+03  0.13520268700E+03  0.30667654391E+03  0.00000000000E+00 0.  1.
         -4    1    4    4    0  501 -0.76471273010E+01 -0.24206994444E+03 -0.75241441534E+02  0.25360916995E+03  0.00000000000E+00 0. -1.
</event>
<event>
 8    1  0.7096247E-006  0.1214130E+04  0.7818608E-02  0.8595997E-01
         -1   -1    0    0    0  501 -0.00000000000E+00  0.00000000000E+00  0.12173274890E+04  0.12173274890E+04  0.00000000000E+00 0. -1.
          1   -1    0    0  502    0  0.00000000000E+00 -0.00000000000E+00 -0.18595601221E+04  0.18595601221E+04  0.00000000000E+00 0.  1.
    9000010    2    1    2  502    0 -0.42116631018E+03  0.55286356965E+03  0.58786387106E+03  0.13469389511E+04  0.99278467937E+03 0.  0.
   -9000010    2    1    2    0  501  0.42116631018E+03 -0.55286356965E+03 -0.12300965042E+04  0.17299486600E+04  0.99827139053E+03 0.  0.
        -13    1    3    3    0    0 -0.62240262740E+03  0.68986021999E+02  0.10619722741E+03  0.63515507091E+03  0.10566000000E+00 0.  1.
         13    1    4    4    0    0  0.47436457840E+03 -0.57481438258E+03 -0.13805471488E+04  0.15688670335E+04  0.10566000000E+00 0. -1.
          4    1    3    3  502    0  0.20123631722E+03  0.48387754765E+03  0.48166664365E+03  0.71178388019E+03  0.00000000000E+00 0.  1.
         -4    1    4    4    0  501 -0.53198268221E+02  0.21950812928E+02  0.15045064460E+03  0.16108162648E+03  0.00000000000E+00 0. -1.
</event>
<event>
 8    1  0.7096247E-006  0.1183697E+04  0.7818608E-02  0.8618941E-01
         -1   -1    0    0    0  501 -0.00000000000E+00  0.00000000000E+00  0.11929863228E+04  0.11929863228E+04  0.00000000000E+00 0. -1.
          1   -1    0    0  502    0  0.00000000000E+00 -0.00000000000E+00 -0.11814258179E+04  0.11814258179E+04  0.00000000000E+00 0.  1.
    9000010    2    1    2  502    0 -0.29404500158E+03 -0.58378272585E+03  0.96798867160E+02  0.11869573082E+04  0.98601871019E+03 0.  0.
   -9000010    2    1    2    0  501  0.29404500158E+03  0.58378272585E+03 -0.85238362329E+02  0.11874548325E+04  0.98768348515E+03 0.  0.
        -13    1    3    3    0    0 -0.48878630563E+03 -0.19708108036E+02 -0.19010703651E+03  0.52482488373E+03  0.10566000000E+00 0.  1.
         13    1    4    4    0    0  0.57556797829E+03  0.73923581799E+02 -0.15561693873E+03  0.60079933119E+03  0.10566000000E+00 0. -1.
          4    1    3    3  502    0  0.19474130405E+03 -0.56407461781E+03  0.28690590367E+03  0.66213242446E+03  0.00000000000E+00 0.  1.
         -4    1    4    4    0  501 -0.28152297671E+03  0.50985914405E+03  0.70378576400E+02  0.58665550129E+03  0.00000000000E+00 0. -1.
</event>
<event>
 8    1  0.7096247E-006  0.1698889E+04  0.7818608E-02  0.8303412E-01
          4   -1    0    0  502    0  0.00000000000E+00  0.00000000000E+00  0.32106236290E+04  0.32106236290E+04  0.00000000000E+00 0. -1.
         -4   -1    0    0    0  501 -0.00000000000E+00 -0.00000000000E+00 -0.11297207095E+04  0.11297207095E+04  0.00000000000E+00 0.  1.
    9000010    2    1    2  502    0  0.11916142876E+04  0.68312154164E+03  0.61146613796E+02  0.17030829854E+04  0.10050637272E+04 0.  0.
   -9000010    2    1    2    0  501 -0.11916142876E+04 -0.68312154164E+03  0.20197563057E+04  0.26372613531E+04  0.99455128509E+03 0.  0.
        -13    1    3    3    0    0  0.69116207896E+01  0.30890657407E+03  0.30813625158E+03  0.43637025874E+03  0.10566000000E+00 0.  1.
         13    1    4    4    0    0 -0.10596954028E+04 -0.18326271031E+03  0.17502834704E+04  0.20542715998E+04  0.10566000000E+00 0. -1.
          4    1    3    3  502    0  0.11847026668E+04  0.37421496757E+03 -0.24698963779E+03  0.12667127267E+04  0.00000000000E+00 0.  1.
         -4    1    4    4    0  501 -0.13191888480E+03 -0.49985883134E+03  0.26947283530E+03  0.58298975325E+03  0.00000000000E+00 0. -1.
</event>
<event>
 8    1  0.7096247E-006  0.1114564E+04  0.7818608E-02  0.8673833E-01
          1   -1    0    0  502    0  0.00000000000E+00  0.00000000000E+00  0.16278334641E+04  0.16278334641E+04  0.00000000000E+00 0. -1.
         -1   -1    0    0    0  501 -0.00000000000E+00 -0.00000000000E+00 -0.10281550862E+04  0.10281550862E+04  0.00000000000E+00 0.  1.
    9000010    2    1    2  502    0  0.47541556253E+03  0.86865669010E+02  0.97889015261E+03  0.15048162945E+04  0.10357029245E+04 0.  0.
   -9000010    2    1    2    0  501 -0.47541556253E+03 -0.86865669010E+02 -0.37921177473E+03  0.11511722557E+04  0.97356581224E+03 0.  0.
        -13    1    3    3    0    0  0.54553908668E+03  0.16018253428E+03  0.11630347844E+04  0.12945737755E+04  0.10566000000E+00 0.  1.
         13    1    4    4    0    0 -0.10260665749E+03 -0.19588576325E+03 -0.64411558830E+03  0.68101707810E+03  0.10566000000E+00 0. -1.
          4    1    3    3  502    0 -0.70123524151E+02 -0.73316865271E+02 -0.18414463179E+03  0.21024251899E+03  0.00000000000E+00 0.  1.
         -4    1    4    4    0  501 -0.37280890504E+03  0.10902009425E+03  0.26490381357E+03  0.47015517765E+03  0.00000000000E+00 0. -1.
</event>
<event>
 8    1  0.7096247E-006  0.1060211E+04  0.7818608E-02  0.8719987E-01
          2   -1    0    0  502    0  0.00000000000E+00  0.00000000000E+00  0.14178773453E+04  0.14178773453E+04  0.00000000000E+00 0.  1.
         -2   -1    0    0    0  501 -0.00000000000E+00 -0.00000000000E+00 -0.79448822488E+03  0.79448822488E+03  0.00000000000E+00 0. -1.
    9000010    2    1    2  502    0  0.29826668236E+03 -0.11171967617E+03  0.34922280143E+03  0.10932930162E+04  0.98584418366E+03 0.  0.
   -9000010    2    1    2    0  501 -0.29826668236E+03  0.11171967617E+03  0.27416631894E+03  0.11190725539E+04  0.10371653246E+04 0.  0.
        -13    1    3    3    0    0  0.58039929013E+03 -0.32677257586E+03  0.13731719245E+03  0.68007328636E+03  0.10566000000E+00 0.  1.
         13    1    4    4    0    0 -0.36678224361E+01 -0.11282942975E+03  0.60922611752E+03  0.61959697108E+03  0.10566000000E+00 0. -1.
          4    1    3    3  502    0 -0.28213260777E+03  0.21505289969E+03  0.21190560898E+03  0.41321972986E+03  0.00000000000E+00 0.  1.
         -4    1    4    4    0  501 -0.29459885992E+03  0.22454910592E+03 -0.33505979857E+03  0.49947558284E+03  0.00000000000E+00 0. -1.
</event>
<event>
 8    1  0.7096247E-006  0.1492686E+04  0.7818608E-02  0.8413721E-01
          1   -1    0    0  502    0  0.00000000000E+00  0.00000000000E+00  0.17882066965E+04  0.17882066965E+04  0.00000000000E+00 0. -1.
         -1   -1    0    0    0  501 -0.00000000000E+00 -0.00000000000E+00 -0.13879498579E+04  0.13879498579E+04  0.00000000000E+00 0.  1.
    9000010    2    1    2  502    0  0.93528920671E+03 -0.63082039104E+03  0.70593450239E+03  0.16376849182E+04  0.95444649083E+03 0.  0.
   -9000010    2    1    2    0  501 -0.93528920671E+03  0.63082039104E+03 -0.30567766380E+03  0.15384716361E+04  0.10003778661E+04 0.  0.
        -13    1    3    3    0    0 -0.14610786446E+03 -0.55699798621E+02  0.31553176604E+03  0.35215093663E+03  0.10566000000E+00 0.  1.
         13    1    4    4    0    0 -0.17361912187E+03 -0.27440484661E+03 -0.70708696338E+02  0.33232717346E+03  0.10566000000E+00 0. -1.
          4    1    3    3  502    0  0.10813970712E+04 -0.57512059242E+03  0.39040273635E+03  0.12855339816E+04  0.00000000000E+00 0.  1.
         -4    1    4    4    0  501 -0.76167008484E+03  0.90522523765E+03 -0.23496896746E+03  0.12061444626E+04  0.00000000000E+00 0. -1.
</event>
<event>
 8    1  0.7096247E-006  0.9637295E+03  0.7818608E-02  0.8809437E-01
         -2   -1    0    0    0  501 -0.00000000000E+00  0.00000000000E+00  0.35788416206E+03  0.35788416206E+03  0.00000000000E+00 0. -1.
          2   -1    0    0  502    0  0.00000000000E+00 -0.00000000000E+00 -0.26821926877E+04  0.26821926877E+04  0.00000000000E+00 0.  1.
    9000010    2    1    2  502    0  0.15404003480E+03  0.18085556075E+03 -0.14871076136E+04  0.18043522720E+04  0.99386166084E+03 0.  0.
   -9000010    2    1    2    0  501 -0.15404003480E+03 -0.18085556075E+03 -0.83720091205E+03  0.12357245778E+04  0.87730997874E+03 0.  0.
        -13    1    3    3    0    0  0.40810352202E+03 -0.32390875260E+02 -0.16519517533E+03  0.44146020274E+03  0.10566000000E+00 0.  1.
         13    1    4    4    0    0 -0.53663468182E+02 -0.39733865044E+03 -0.90315716399E+03  0.98815517252E+03  0.10566000000E+00 0. -1.
          4    1    3    3  502    0 -0.25406348722E+03  0.21324643601E+03 -0.13219124383E+04  0.13628920693E+04  0.00000000000E+00 0.  1.
         -4    1    4    4    0  501 -0.10037656662E+03  0.21648308969E+03  0.65956251938E+02  0.24756940525E+03  0.00000000000E+00 0. -1.
</event>
<event>
 8    1  0.7096247E-006  0.1115513E+04  0.7818608E-02  0.8673052E-01
          2   -1    0    0  502    0  0.00000000000E+00  0.00000000000E+00  0.10668828390E+04  0.10668828390E+04  0.00000000000E+00 0. -1.
         -2   -1    0    0    0  501 -0.00000000000E+00 -0.00000000000E+00 -0.11668408531E+04  0.11668408531E+04  0.00000000000E+00 0.  1.
    9000010    2    1    2  502    0 -0.49887087150E+03  0.19048911149E+01 -0.72695896606E+02  0.11183657986E+04  0.99828933229E+03 0.  0.
   -9000010    2    1    2    0  501  0.49887087150E+03 -0.19048911149E+01 -0.27262117490E+02  0.11153578935E+04  0.99719819114E+03 0.  0.
        -13    1    3    3    0    0  0.97987203532E+02 -0.38900685680E+03  0.34575566270E+00  0.40115826977E+03  0.10566000000E+00 0.  1.
         13    1    4    4    0    0 -0.21760127601E+03  0.16204226369E+03  0.20992922583E+03  0.34304271099E+03  0.10566000000E+00 0. -1.
          4    1    3    3  502    0 -0.59685807504E+03  0.39091174792E+03 -0.73041652268E+02  0.71720752880E+03  0.00000000000E+00 0.  1.
         -4    1    4    4    0  501  0.71647214751E+03 -0.16394715480E+03 -0.23719134332E+03  0.77231518247E+03  0.00000000000E+00 0. -1.
</event>
<event>
 8    1  0.7096247E-006  0.9130249E+03  0.7818608E-02  0.8860905E-01
          2   -1    0    0  502    0  0.00000000000E+00  0.00000000000E+00  0.30613426650E+04  0.30613426650E+04  0.00000000000E+00 0. -1.
         -2   -1    0    0    0  501 -0.00000000000E+00 -0.00000000000E+00 -0.42892971957E+03  0.42892971957E+03  0.00000000000E+00 0.  1.
    9000010    2    1    2  502    0  0.36480513533E+03 -0.20508480128E+03  0.34407450163E+03  0.10536414481E+04  0.90367609017E+03 0.  0.
   -9000010    2    1    2    0  501 -0.36480513533E+03  0.20508480128E+03  0.22883384438E+04  0.24366309365E+04  0.72493787653E+03 0.  0.
        -13    1    3    3    0    0  0.99345449392E+02  0.29994734087E+03  0.36492782308E+03  0.48271135561E+03  0.10566000000E+00 0.  1.
         13    1    4    4    0    0 -0.34744259593E+03 -0.12101803876E+03  0.51174754995E+03  0.63027556610E+03  0.10566000000E+00 0. -1.
          4    1    3    3  502    0  0.26545968594E+03 -0.50503214216E+03 -0.20853321451E+02  0.57093009247E+03  0.00000000000E+00 0.  1.
         -4    1    4    4    0  501 -0.17362539395E+02  0.32610284004E+03  0.17765908939E+04  0.18063553704E+04  0.00000000000E+00 0. -1.
</event>
<event>
 8    1  0.7096247E-006  0.1285643E+04  0.7818608E-02  0.8544719E-01
         -1   -1    0    0    0  501 -0.00000000000E+00  0.00000000000E+00  0.13753493310E+04  0.13753493310E+04  0.00000000000E+00 0. -1.
          1   -1    0    0  502    0  0.00000000000E+00 -0.00000000000E+00 -0.12335550499E+04  0.12335550499E+04  0.00000000000E+00 0.  1.
    9000010    2    1    2  502    0 -0.74827247076E+03  0.10654033020E+03  0.27501238048E+03  0.12797283311E+04  0.99539452459E+03 0.  0.
   -9000010    2    1    2    0  501  0.74827247076E+03 -0.10654033020E+03 -0.13321809938E+03  0.13291760498E+04  0.10852185848E+04 0.  0.
        -13    1    3    3    0    0 -0.43654261969E+03  0.43450833837E+03 -0.17628687789E+03  0.64065905863E+03  0.10566000000E+00 0.  1.
         13    1    4    4    0    0  0.76702873538E+03 -0.40003127485E+03  0.19675307558E+03  0.88716959239E+03  0.10566000000E+00 0. -1.
          4    1    3    3  502    0 -0.31172985107E+03 -0.32796800817E+03  0.45129925837E+03  0.63906927249E+03  0.00000000000E+00 0.  1.
         -4    1    4    4    0  501 -0.18756264620E+02  0.29349094465E+03 -0.32997117497E+03  0.44200645738E+03  0.00000000000E+00 0. -1.
</event>
<event>
 8    1  0.7096247E-006  0.1278284E+04  0.7818608E-02  0.8549835E-01
         -2   -1    0    0    0  501 -0.00000000000E+00  0.00000000000E+00  0.97668907606E+03  0.97668907606E+03  0.00000000000E+00 0.  1.
          2   -1    0    0  502    0  0.00000000000E+00 -0.00000000000E+00 -0.17173408984E+04  0.17173408984E+04  0.00000000000E+00 0. -1.
    9000010    2    1    2  502    0  0.54353156211E+02  0.78433744131E+03 -0.15464593888E+03  0.12901604968E+04  0.10111672728E+04 0.  0.
   -9000010    2    1    2    0  501 -0.54353156211E+02 -0.78433744131E+03 -0.58600588342E+03  0.14038694777E+04  0.10046427860E+04 0.  0.
        -13    1    3    3    0    0  0.14744031792E+03  0.78402045240E+03  0.28014040535E+03  0.84552077148E+03  0.10566000000E+00 0.  1.
         13    1    4    4    0    0  0.22271355266E+02 -0.10029784910E+04 -0.32428113882E+03  0.10543339769E+04  0.10566000000E+00 0. -1.
          4    1    3    3  502    0 -0.93087161712E+02  0.31698890492E+00 -0.43478634423E+03  0.44463972527E+03  0.00000000000E+00 0.  1.
         -4    1    4    4    0  501 -0.76624511478E+02  0.21864104969E+03 -0.26172474461E+03  0.34953550078E+03  0.00000000000E+00 0. -1.
</event>
<event>
 8    1  0.7096247E-006  0.1073231E+04  0.7818608E-02  0.8708672E-01
         -1   -1    0    0    0  501 -0.00000000000E+00  0.00000000000E+00  0.10887567144E+04  0.10887567144E+04  0.00000000000E+00 0.  1.
          1   -1    0    0  502    0  0.00000000000E+00 -0.00000000000E+00 -0.11960980949E+04  0.11960980949E+04  0.00000000000E+00 0. -1.
    9000010    2    1    2  502    0  0.90278817816E+02  0.49478479132E+03 -0.44179149360E+03  0.11927058825E+04  0.98711972101E+03 0.  0.
   -9000010    2    1    2    0  501 -0.90278817816E+02 -0.49478479132E+03  0.33445011310E+03  0.10921489269E+04  0.90992864865E+03 0.  0.
        -13    1    3    3    0    0 -0.24989154213E+03 -0.13937635120E+03  0.87693210750E+02  0.29926854242E+03  0.10566000000E+00 0.  1.
         13    1    4    4    0    0 -0.32642706131E+03 -0.16770243644E+02 -0.16096613552E+03  0.36434321097E+03  0.10566000000E+00 0. -1.
          4    1    3    3  502    0  0.34017035995E+03  0.63416114252E+03 -0.52948470435E+03  0.89343734006E+03  0.00000000000E+00 0.  1.
         -4    1    4    4    0  501  0.23614824349E+03 -0.47801454768E+03  0.49541624862E+03  0.72780571590E+03  0.00000000000E+00 0. -1.
</event>
<event>
 8    1  0.7096247E-006  0.1785239E+04  0.7818608E-02  0.8261922E-01
         -1   -1    0    0    0  501 -0.00000000000E+00  0.00000000000E+00  0.12298212529E+04  0.12298212529E+04  0.00000000000E+00 0. -1.
          1   -1    0    0  502    0  0.00000000000E+00 -0.00000000000E+00 -0.27978512173E+04  0.27978512173E+04  0.00000000000E+00 0.  1.
    9000010    2    1    2  502    0  0.11895464583E+04 -0.88632864175E+03 -0.13294703159E+04  0.22230463015E+04  0.98683549801E+03 0.  0.
   -9000010    2    1    2    0  501 -0.11895464583E+04  0.88632864175E+03 -0.23855964845E+03  0.18046261687E+04  0.99958274552E+03 0.  0.
        -13    1    3    3    0    0  0.24795242190E+03 -0.61683950030E+03 -0.97785291503E+03  0.11824414181E+04  0.10566000000E+00 0.  1.
         13    1    4    4    0    0 -0.13530416738E+04  0.65299163690E+03 -0.22747706474E+03  0.15194952041E+04  0.10566000000E+00 0. -1.
          4    1    3    3  502    0  0.94159403643E+03 -0.26948914145E+03 -0.35161740090E+03  0.10406048834E+04  0.00000000000E+00 0.  1.
         -4    1    4    4    0  501  0.16349521551E+03  0.23333700485E+03 -0.11082583705E+02  0.28513096463E+03  0.00000000000E+00 0. -1.
</event>
<event>
 8    1  0.7096247E-006  0.1582097E+04  0.7818608E-02  0.8363759E-01
          2   -1    0    0  502    0  0.00000000000E+00  0.00000000000E+00  0.25233027201E+04  0.25233027201E+04  0.00000000000E+00 0.  1.
         -2   -1    0    0    0  501 -0.00000000000E+00 -0.00000000000E+00 -0.10218002675E+04  0.10218002675E+04  0.00000000000E+00 0. -1.
    9000010    2    1    2  502    0  0.58838379057E+03  0.10175935986E+04  0.45280660736E+03  0.16555055435E+04  0.10742311501E+04 0.  0.
   -9000010    2    1    2    0  501 -0.58838379057E+03 -0.10175935986E+04  0.10486958453E+04  0.18895974441E+04  0.10436107071E+04 0.  0.
        -13    1    3    3    0    0  0.17234993443E+03  0.20918824675E+03  0.66827146784E+03  0.72114560830E+03  0.10566000000E+00 0.  1.
         13    1    4    4    0    0 -0.51453259035E+03  0.29247842643E+02  0.43121347299E+03  0.67197045566E+03  0.10566000000E+00 0. -1.
          4    1    3    3  502    0  0.41603385615E+03  0.80840535190E+03 -0.21546486048E+03  0.93435993522E+03  0.00000000000E+00 0.  1.
         -4    1    4    4    0  501 -0.73851200224E+02 -0.10468414413E+04  0.61748237229E+03  0.12176269885E+04  0.00000000000E+00 0. -1.
</event>
<event>
 7    1  0.7096247E-006  0.1428983E+04  0.7818608E-02  0.8451579E-01
         -2   -1    0    0    0  501 -0.00000000000E+00  0.00000000000E+00  0.93156184484E+03  0.93156184484E+03  0.00000000000E+00 0. -1.
          2   -1    0    0  502    0  0.00000000000E+00 -0.00000000000E+00 -0.22553903942E+04  0.22553903942E+04  0.00000000000E+00 0.  1.
    9000010    2    1    2  502    0  0.41204068399E+03 -0.57604167204E+03 -0.42415969512E+03  0.13109091503E+04  0.10183171511E+04 0.  0.
        -13    1    3    3    0    0  0.32286836132E+03 -0.79934386038E+03 -0.56643134480E+03  0.10315226926E+04  0.10566000000E+00 0.  1.
         13    1    1    2    0    0  0.41194816154E+03 -0.15086344542E+03 -0.58852449789E+03  0.73404506860E+03  0.10566000000E+00 0. -1.
          4    1    3    3  502    0  0.89172322670E+02  0.22330218835E+03  0.14227164968E+03  0.27938645771E+03  0.00000000000E+00 0.  1.
         -4    1    1    2    0  501 -0.82398884552E+03  0.72690511746E+03 -0.31114435631E+03  0.11419980201E+04  0.00000000000E+00 0. -1.
</event>
<event>
 8    1  0.7096247E-006  0.1086594E+04  0.7818608E-02  0.8697232E-01
         -2   -1    0    0    0  501 -0.00000000000E+00  0.00000000000E+00  0.92350677247E+03  0.92350677247E+03  0.00000000000E+00 0. -1.
          2   -1    0    0  502    0  0.00000000000E+00 -0.00000000000E+00 -0.15054742960E+04  0.15054742960E+04  0.00000000000E+00 0.  1.
    9000010    2    1    2  502    0 -0.18272889165E+03  0.37546445956E+03 -0.76263795062E+03  0.13277563389E+04  0.10034723930E+04 0.  0.
   -9000010    2    1    2    0  501  0.18272889165E+03 -0.37546445956E+03  0.18067042713E+03  0.11012247295E+04  0.10028413102E+04 0.  0.
        -13    1    3    3    0    0  0.17663570421E+03  0.39591143506E+03  0.52489102454E+02  0.43669343189E+03  0.10566000000E+00 0.  1.
         13    1    4    4    0    0  0.50261084272E+03  0.97358259166E+02  0.12945961018E+03  0.52806826422E+03  0.10566000000E+00 0. -1.
          4    1    3    3  502    0 -0.35936459586E+03 -0.20446975501E+02 -0.81512705308E+03  0.89106290700E+03  0.00000000000E+00 0.  1.
         -4    1    4    4    0  501 -0.31988195107E+03 -0.47282271873E+03  0.51210816948E+02  0.57315646532E+03  0.00000000000E+00 0. -1.
</event>
<event>
 8    1  0.7096247E-006  0.1246095E+04  0.7818608E-02  0.8572637E-01
         -2   -1    0    0    0  501 -0.00000000000E+00  0.00000000000E+00  0.43419177089E+03  0.43419177089E+03  0.00000000000E+00 0. -1.
          2   -1    0    0  502    0  0.00000000000E+00 -0.00000000000E+00 -0.37163373019E+04  0.37163373019E+04  0.00000000000E+00 0.  1.
    9000010    2    1    2  502    0 -0.64450668059E+03 -0.41822239119E+03 -0.20234717851E+04  0.23682908601E+04  0.96128284238E+03 0.  0.
   -9000010    2    1    2    0  501  0.64450668059E+03  0.41822239119E+03 -0.12586737459E+04  0.17822382127E+04  0.10009068979E+04 0.  0.
        -13    1    3    3    0    0 -0.29668489662E+03 -0.47041866058E+03 -0.34747163117E+03  0.65578364553E+03  0.10566000000E+00 0.  1.
         13    1    4    4    0    0  0.56973656885E+03  0.52002930036E+03 -0.32003142444E+03  0.83513493216E+03  0.10566000000E+00 0. -1.
          4    1    3    3  502    0 -0.34782178397E+03  0.52196269393E+02 -0.16760001539E+04  0.17125072146E+04  0.00000000000E+00 0.  1.
         -4    1    4    4    0  501  0.74770111734E+02 -0.10180690917E+03 -0.93864232144E+03  0.94710328051E+03  0.00000000000E+00 0. -1.
</event>
<event>
 8    1  0.7096247E-006  0.9826556E+03  0.7818608E-02  0.8791060E-01
         -2   -1    0    0    0  501 -0.00000000000E+00  0.00000000000E+00  0.11284681627E+04  0.11284681627E+04  0.00000000000E+00 0. -1.
          2   -1    0    0  502    0  0.00000000000E+00 -0.00000000000E+00 -0.85732861514E+03  0.85732861514E+03  0.00000000000E+00 0.  1.
    9000010    2    1    2  502    0 -0.30883858563E+03 -0.19861087743E+02  0.12697158261E+03  0.10320527643E+04  0.97633774421E+03 0.  0.
   -9000010    2    1    2    0  501  0.30883858563E+03  0.19861087743E+02  0.14416796495E+03  0.95374401352E+03  0.89054337707E+03 0.  0.
        -13    1    3    3    0    0  0.31585662969E+03  0.79875137966E+02 -0.12793717384E+03  0.35001911348E+03  0.10566000000E+00 0.  1.
         13    1    4    4    0    0 -0.12457048500E+03  0.19574893276E+03  0.36813093183E+03  0.43515037004E+03  0.10566000000E+00 0. -1.
          4    1    3    3  502    0 -0.62469521532E+03 -0.99736225709E+02  0.25490875646E+03  0.68203365084E+03  0.00000000000E+00 0.  1.
         -4    1    4    4    0  501  0.43340907063E+03 -0.17588784501E+03 -0.22396296688E+03  0.51859364349E+03  0.00000000000E+00 0. -1.
</event>
<event>
 8    1  0.7096247E-006  0.1051055E+04  0.7818608E-02  0.8728045E-01
          2   -1    0    0  502    0  0.00000000000E+00  0.00000000000E+00  0.30667582926E+04  0.30667582926E+04  0.00000000000E+00 0. -1.
         -2   -1    0    0    0  501 -0.00000000000E+00 -0.00000000000E+00 -0.36054406886E+03  0.36054406886E+03  0.00000000000E+00 0.  1.
    9000010    2    1    2  502    0 -0.95961386364E+02 -0.31533885347E+03  0.13766543262E+04  0.17224725224E+04  0.98137010161E+03 0.  0.
   -9000010    2    1    2    0  501  0.95961386364E+02  0.31533885347E+03  0.13295598975E+04  0.17048298391E+04  0.10149226960E+04 0.  0.
        -13    1    3    3    0    0 -0.46011067966E+03 -0.42824817937E+03  0.10329341903E+04  0.12091531720E+04  0.10566000000E+00 0.  1.
         13    1    4    4    0    0 -0.28523173197E+03 -0.12676269812E+03  0.97058097553E+03  0.10195358570E+04  0.10566000000E+00 0. -1.
          4    1    3    3  502    0  0.36414929329E+03  0.11290932590E+03  0.34372013596E+03  0.51331935045E+03  0.00000000000E+00 0.  1.
         -4    1    4    4    0  501  0.38119311833E+03  0.44210155159E+03  0.35897892199E+03  0.68529398203E+03  0.00000000000E+00 0. -1.
</event>
<event>
 8    1  0.7096247E-006  0.1592863E+04  0.7818608E-02  0.8357974E-01
          1   -1    0    0  502    0  0.00000000000E+00  0.00000000000E+00  0.25448234107E+04  0.25448234107E+04  0.00000000000E+00 0.  1.
         -1   -1    0    0    0  501 -0.00000000000E+00 -0.00000000000E+00 -0.10363232303E+04  0.10363232303E+04  0.00000000000E+00 0. -1.
    9000010    2    1    2  502    0  0.11293678650E+04 -0.51317199086E+03  0.40966136626E+03  0.16532725679E+04  0.10132474930E+04 0.  0.
   -9000010    2    1    2    0  501 -0.11293678650E+04  0.51317199086E+03  0.10988388142E+04  0.19278740730E+04  0.98510630664E+03 0.  0.
        -13    1    3    3    0    0  0.19534464743E+03  0.13236829390E+03  0.45975384627E+03  0.51677316768E+03  0.10566000000E+00 0.  1.
         13    1    4    4    0    0 -0.51160412489E+03  0.67905171141E+03  0.94266882002E+03  0.12694386644E+04  0.10566000000E+00 0. -1.
          4    1    3    3  502    0  0.93402321753E+03 -0.64554028476E+03 -0.50092480010E+02  0.11364994002E+04  0.00000000000E+00 0.  1.
         -4    1    4    4    0  501 -0.61776374006E+03 -0.16587972055E+03  0.15616999414E+03  0.65843540860E+03  0.00000000000E+00 0. -1.
</event>
<event>
 8    1  0.7096247E-006  0.1178807E+04  0.7818608E-02  0.8622695E-01
         -4   -1    0    0    0  501 -0.00000000000E+00  0.00000000000E+00  0.31081731951E+04  0.31081731951E+04  0.00000000000E+00 0. -1.
          4   -1    0    0  502    0  0.00000000000E+00 -0.00000000000E+00 -0.44710186891E+03  0.44710186891E+03  0.00000000000E+00 0.  1.
    9000010    2    1    2  502    0  0.41951215777E+03  0.46986594297E+03  0.13161806340E+04  0.17666049090E+04  0.99589004824E+03 0.  0.
   -9000010    2    1    2    0  501 -0.41951215777E+03 -0.46986594297E+03  0.13448906922E+04  0.17886701550E+04  0.99691799798E+03 0.  0.
        -13    1    3    3    0    0  0.70883711132E+03  0.30700126284E+03  0.60308728495E+03  0.98000719906E+03  0.10566000000E+00 0.  1.
         13    1    4    4    0    0 -0.12696257662E+03  0.24963656316E+03  0.77861536862E+03  0.82745381318E+03  0.10566000000E+00 0. -1.
          4    1    3    3  502    0 -0.28932495355E+03  0.16286468013E+03  0.71309334906E+03  0.78659770992E+03  0.00000000000E+00 0.  1.
         -4    1    4    4    0  501 -0.29254958115E+03 -0.71950250613E+03  0.56627532356E+03  0.96121634185E+03  0.00000000000E+00 0. -1.
</event>
<event>
 8    1  0.7096247E-006  0.1135074E+04  0.7818608E-02  0.8657125E-01
         -2   -1    0    0    0  501 -0.00000000000E+00  0.00000000000E+00  0.57702999870E+03  0.57702999870E+03  0.00000000000E+00 0. -1.
          2   -1    0    0  502    0  0.00000000000E+00 -0.00000000000E+00 -0.22515728294E+04  0.22515728294E+04  0.00000000000E+00 0.  1.
    9000010    2    1    2  502    0 -0.51720319142E+03  0.12169568128E+03 -0.96554661553E+03  0.14893054904E+04  0.10017193205E+04 0.  0.
   -9000010    2    1    2    0  501  0.51720319142E+03 -0.12169568128E+03 -0.70899621513E+03  0.13392973376E+04  0.10043568815E+04 0.  0.
        -13    1    3    3    0    0 -0.16663102199E+03 -0.43119827338E+03 -0.52855309911E+03  0.70218675450E+03  0.10566000000E+00 0.  1.
         13    1    4    4    0    0 -0.24244085379E+03  0.62976957871E+02 -0.45129339340E+03  0.51614862482E+03  0.10566000000E+00 0. -1.
          4    1    3    3  502    0 -0.35057216943E+03  0.55289395466E+03 -0.43699351642E+03  0.78711873594E+03  0.00000000000E+00 0.  1.
         -4    1    4    4    0  501  0.75964404521E+03 -0.18467263915E+03 -0.25770282173E+03  0.82314871281E+03  0.00000000000E+00 0. -1.
</event>
<event>
 8    1  0.7096247E-006  0.1592675E+04  0.7818608E-02  0.8358075E-01
          1   -1    0    0  502    0  0.00000000000E+00  0.00000000000E+00  0.16373453734E+04  0.16373453734E+04  0.00000000000E+00 0.  1.
         -1   -1    0    0    0  501 -0.00000000000E+00 -0.00000000000E+00 -0.26541267327E+04  0.26541267327E+04  0.00000000000E+00 0. -1.
    9000010    2    1    2  502    0  0.10846728020E+04 -0.54790975309E+03 -0.18921924387E+04  0.24710382911E+04  0.10241668935E+04 0.  0.
   -9000010    2    1    2    0  501 -0.10846728020E+04  0.54790975309E+03  0.87541107942E+03  0.18204338150E+04  0.10348500046E+04 0.  0.
        -13    1    3    3    0    0  0.41686614551E+03 -0.47538686587E+03 -0.16328310998E+04  0.17509732914E+04  0.10566000000E+00 0.  1.
         13    1    4    4    0    0 -0.39799701505E+03  0.59727358164E+03  0.87535985979E+03  0.11319859763E+04  0.10566000000E+00 0. -1.
          4    1    3    3  502    0  0.66780665651E+03 -0.72522887223E+02 -0.25936133895E+03  0.72006499970E+03  0.00000000000E+00 0.  1.
         -4    1    4    4    0  501 -0.68667578696E+03 -0.49363828553E+02  0.51219627615E-01  0.68844783868E+03  0.00000000000E+00 0. -1.
</event>
<event>
 8    1  0.7096247E-006  0.1408945E+04  0.7818608E-02  0.8463908E-01
         -2   -1    0    0    0  501 -0.00000000000E+00  0.00000000000E+00  0.91307769842E+03  0.91307769842E+03  0.00000000000E+00 0.  1.
          2   -1    0    0  502    0  0.00000000000E+00 -0.00000000000E+00 -0.24064087385E+04  0.24064087385E+04  0.00000000000E+00 0. -1.
    9000010    2    1    2  502    0 -0.63402658324E+03  0.79205876059E+03 -0.12514128820E+04  0.18685168561E+04  0.94655916457E+03 0.  0.
   -9000010    2    1    2    0  501  0.63402658324E+03 -0.79205876059E+03 -0.24191815806E+03  0.14509695807E+04  0.10086830724E+04 0.  0.
        -13    1    3    3    0    0 -0.57413660891E+03  0.84613564370E+03 -0.54729194128E+03  0.11597874173E+04  0.10566000000E+00 0.  1.
         13    1    4    4    0    0 -0.88670762299E+02 -0.29732589045E+03  0.29131779986E+03  0.42559518430E+03  0.10566000000E+00 0. -1.
          4    1    3    3  502    0 -0.59889974334E+02 -0.54076883118E+02 -0.70412094070E+03  0.70872943882E+03  0.00000000000E+00 0.  1.
         -4    1    4    4    0  501  0.72269734554E+03 -0.49473287013E+03 -0.53323595791E+03  0.10253743964E+04  0.00000000000E+00 0. -1.
</event>
<event>
 8    1  0.7096247E-006  0.1297585E+04  0.7818608E-02  0.8536491E-01
         -2   -1    0    0    0  501 -0.00000000000E+00  0.00000000000E+00  0.76207907459E+03  0.76207907459E+03  0.00000000000E+00 0. -1.
          2   -1    0    0  502    0  0.00000000000E+00 -0.00000000000E+00 -0.22175749304E+04  0.22175749304E+04  0.00000000000E+00 0.  1.
    9000010    2    1    2  502    0 -0.37765184632E+03 -0.69442666329E+03 -0.76894496862E+03  0.14658635402E+04  0.96572783219E+03 0.  0.
   -9000010    2    1    2    0  501  0.37765184632E+03  0.69442666329E+03 -0.68655088715E+03  0.15137904648E+04  0.10933252686E+04 0.  0.
        -13    1    3    3    0    0  0.18564457149E+03 -0.65446212014E+03 -0.47052140874E+03  0.82714870541E+03  0.10566000000E+00 0.  1.
         13    1    4    4    0    0  0.56674937863E+02 -0.26868471296E+03 -0.34873778351E+03  0.44387112586E+03  0.10566000000E+00 0. -1.
          4    1    3    3  502    0 -0.56329641781E+03 -0.39964543156E+02 -0.29842355988E+03  0.63871483474E+03  0.00000000000E+00 0.  1.
         -4    1    4    4    0  501  0.32097690845E+03  0.96311137626E+03 -0.33781310363E+03  0.10699193389E+04  0.00000000000E+00 0. -1.
</event>
<event>
 8    1  0.7096247E-006  0.1671063E+04  0.7818608E-02  0.8317325E-01
          2   -1    0    0  502    0  0.00000000000E+00  0.00000000000E+00  0.13399108242E+04  0.13399108242E+04  0.00000000000E+00 0. -1.
         -2   -1    0    0    0  501 -0.00000000000E+00 -0.00000000000E+00 -0.25067947596E+04  0.25067947596E+04  0.00000000000E+00 0.  1.
    9000010    2    1    2  502    0 -0.88866086430E+03 -0.10221566175E+04  0.20936303055E+03  0.16736861419E+04  0.96066130389E+03 0.  0.
   -9000010    2    1    2    0  501  0.88866086430E+03  0.10221566175E+04 -0.13762469659E+04  0.21730194418E+04  0.99671234617E+03 0.  0.
        -13    1    3    3    0    0 -0.54502614819E+03 -0.10141297115E+04 -0.16770708288E+03  0.11634596042E+04  0.10566000000E+00 0.  1.
         13    1    4    4    0    0  0.10664228257E+04  0.63903374068E+03 -0.89003280569E+03  0.15289801082E+04  0.10566000000E+00 0. -1.
          4    1    3    3  502    0 -0.34363471611E+03 -0.80269060029E+01  0.37707011342E+03  0.51022653770E+03  0.00000000000E+00 0.  1.
         -4    1    4    4    0  501 -0.17776196142E+03  0.38312287679E+03 -0.48621416022E+03  0.64403933361E+03  0.00000000000E+00 0. -1.
</event>
<event>
 8    1  0.7096247E-006  0.1279851E+04  0.7818608E-02  0.8548742E-01
          2   -1    0    0  502    0  0.00000000000E+00  0.00000000000E+00  0.23550643368E+04  0.23550643368E+04  0.00000000000E+00 0. -1.
         -2   -1    0    0    0  501 -0.00000000000E+00 -0.00000000000E+00 -0.69611751593E+03  0.69611751593E+03  0.00000000000E+00 0.  1.
    9000010    2    1    2  502    0 -0.31847578108E+03 -0.74663360426E+03  0.86494474933E+03  0.15358637561E+04  0.97563286939E+03 0.  0.
   -9000010    2    1    2    0  501  0.31847578108E+03  0.74663360426E+03  0.79400207154E+03  0.15153180966E+04  0.10034246769E+04 0.  0.
        -13    1    3    3    0    0 -0.41653175023E+03  0.47737673265E+02  0.51022165169E+03  0.66038150294E+03  0.10566000000E+00 0.  1.
         13    1    4    4    0    0 -0.22984322222E+03 -0.55756717453E+02 -0.33537530525E+02  0.23887548107E+03  0.10566000000E+00 0. -1.
          4    1    3    3  502    0  0.98055969151E+02 -0.79437127753E+03  0.35472309764E+03  0.87548225319E+03  0.00000000000E+00 0.  1.
         -4    1    4    4    0  501  0.54831900330E+03  0.80239032172E+03  0.82753960206E+03  0.12764426155E+04  0.00000000000E+00 0. -1.
</event>
<event>
 8    1  0.7096247E-006  0.1266295E+04  0.7818608E-02  0.8558245E-01
          2   -1    0    0  502    0  0.00000000000E+00  0.00000000000E+00  0.13472459643E+04  0.13472459643E+04  0.00000000000E+00 0.  1.
         -2   -1    0    0    0  501 -0.00000000000E+00 -0.00000000000E+00 -0.13188940536E+04  0.13188940536E+04  0.00000000000E+00 0. -1.
    9000010    2    1    2  502    0 -0.65062192225E+03 -0.42134196112E+03 -0.40217224012E+03  0.13179189358E+04  0.98708149447E+03 0.  0.
   -9000010    2    1    2    0  501  0.65062192225E+03  0.42134196112E+03  0.43052415087E+03  0.13482210821E+04  0.10156333530E+04 0.  0.
        -13    1    3    3    0    0 -0.11223776849E+03 -0.41390569607E+03  0.23071926048E+03  0.48697703255E+03  0.10566000000E+00 0.  1.
         13    1    4    4    0    0 -0.66253798808E+02 -0.17862324588E+03 -0.15463265379E+03  0.24537134838E+03  0.10566000000E+00 0. -1.
          4    1    3    3  502    0 -0.53838415376E+03 -0.74362650474E+01 -0.63289150059E+03  0.83094190326E+03  0.00000000000E+00 0.  1.
         -4    1    4    4    0  501  0.71687572106E+03  0.59996520700E+03  0.58515680467E+03  0.11028497337E+04  0.00000000000E+00 0. -1.
</event>
<event>
 8    1  0.7096247E-006  0.1243358E+04  0.7818608E-02  0.8574609E-01
          2   -1    0    0  502    0  0.00000000000E+00  0.00000000000E+00  0.30823926791E+04  0.30823926791E+04  0.00000000000E+00 0.  1.
         -2   -1    0    0    0  501 -0.00000000000E+00 -0.00000000000E+00 -0.57266561108E+03  0.57266561108E+03  0.00000000000E+00 0. -1.
    9000010    2    1    2  502    0  0.28655885771E+03 -0.62829348581E+03  0.63339643209E+03  0.14174383246E+04  0.10635185380E+04 0.  0.
   -9000010    2    1    2    0  501 -0.28655885771E+03  0.62829348581E+03  0.18763306360E+04  0.22376199656E+04  0.10047177572E+04 0.  0.
        -13    1    3    3    0    0  0.49702136640E+03  0.10251721950E+03  0.25965462022E+03  0.57005311324E+03  0.10566000000E+00 0.  1.
         13    1    4    4    0    0  0.75644126917E+02  0.76039028842E+03  0.85904748642E+03  0.11497295420E+04  0.10566000000E+00 0. -1.
          4    1    3    3  502    0 -0.21046250869E+03 -0.73081070531E+03  0.37374181186E+03  0.84738521140E+03  0.00000000000E+00 0.  1.
         -4    1    4    4    0  501 -0.36220298462E+03 -0.13209680261E+03  0.10172831496E+04  0.10878904236E+04  0.00000000000E+00 0. -1.
</event>
<event>
 8    1  0.7096247E-006  0.1588827E+04  0.7818608E-02  0.8360137E-01
          4   -1    0    0  502    0  0.00000000000E+00  0.00000000000E+00  0.13518919182E+04  0.13518919182E+04  0.00000000000E+00 0.  1.
         -4   -1    0    0    0  501 -0.00000000000E+00 -0.00000000000E+00 -0.18691626620E+04  0.18691626620E+04  0.00000000000E+00 0. -1.
    9000010    2    1    2  502    0  0.16443990999E+03 -0.12160290322E+04 -0.20714597716E+03  0.15902946758E+04  0.99013161193E+03 0.  0.
   -9000010    2    1    2    0  501 -0.16443990999E+03  0.12160290322E+04 -0.31012476664E+03  0.16307599043E+04  0.10283158092E+04 0.  0.
        -13    1    3    3    0    0  0.22545520110E+03 -0.44838043646E+03  0.37370566268E+03  0.62572437781E+03  0.10566000000E+00 0.  1.
         13    1    4    4    0    0 -0.39038569261E+03  0.22624187229E+03 -0.41123055064E+03  0.61048910778E+03  0.10566000000E+00 0. -1.
          4    1    3    3  502    0 -0.61015291107E+02 -0.76764859577E+03 -0.58085163985E+03  0.96457029803E+03  0.00000000000E+00 0.  1.
         -4    1    4    4    0  501  0.22594578262E+03  0.98978715994E+03  0.10110578401E+03  0.10202707965E+04  0.00000000000E+00 0. -1.
</event>
<event>
 8    1  0.7096247E-006  0.1242886E+04  0.7818608E-02  0.8574950E-01
          2   -1    0    0  502    0  0.00000000000E+00  0.00000000000E+00  0.76207004609E+03  0.76207004609E+03  0.00000000000E+00 0. -1.
         -2   -1    0    0    0  501 -0.00000000000E+00 -0.00000000000E+00 -0.20533959666E+04  0.20533959666E+04  0.00000000000E+00 0.  1.
    9000010    2    1    2  502    0  0.40577256242E+02 -0.74564596354E+03 -0.49008823842E+03  0.13426380319E+04  0.10024250529E+04 0.  0.
   -9000010    2    1    2    0  501 -0.40577256242E+02  0.74564596354E+03 -0.80123768211E+03  0.14728279808E+04  0.98468574740E+03 0.  0.
        -13    1    3    3    0    0 -0.22513347282E+03 -0.86646292435E+03 -0.54149102175E+03  0.10462579116E+04  0.10566000000E+00 0.  1.
         13    1    4    4    0    0 -0.43593788806E+03  0.35001133671E+03 -0.71386508772E+03  0.90672661409E+03  0.10566000000E+00 0. -1.
          4    1    3    3  502    0  0.26571072906E+03  0.12081696081E+03  0.51402783333E+02  0.29638012027E+03  0.00000000000E+00 0.  1.
         -4    1    4    4    0  501  0.39536063182E+03  0.39563462683E+03 -0.87372594384E+02  0.56610136671E+03  0.00000000000E+00 0. -1.
</event>
<event>
 7    1  0.7096247E-006  0.1335110E+04  0.7818608E-02  0.8511222E-01
          1   -1    0    0  502    0  0.00000000000E+00  0.00000000000E+00  0.79649583535E+03  0.79649583535E+03  0.00000000000E+00 0. -1.
         -1   -1    0    0    0  501 -0.00000000000E+00 -0.00000000000E+00 -0.23657278867E+04  0.23657278867E+04  0.00000000000E+00 0.  1.
    9000010    2    1    2  502    0 -0.68747057859E+03 -0.76836013431E+03 -0.49682909071E+03  0.15269129424E+04  0.10107575851E+04 0.  0.
        -13    1    3    3    0    0 -0.29704408631E+03 -0.48694204933E+03 -0.78167432955E+03  0.96765826471E+03  0.10566000000E+00 0.  1.
         13    1    1    2    0    0  0.33006359236E+03  0.55145692634E+03 -0.20866655856E+03  0.67571329751E+03  0.10566000000E+00 0. -1.
          4    1    3    3  502    0 -0.39042649228E+03 -0.28141808498E+03  0.28484523885E+03  0.55925467769E+03  0.00000000000E+00 0.  1.
         -4    1    1    2    0  501  0.35740698624E+03  0.21690320797E+03 -0.86373640207E+03  0.95959748213E+03  0.00000000000E+00 0. -1.
</event>
<event>
 8    1  0.7096247E-006  0.1199680E+04  0.7818608E-02  0.8606803E-01
         -2   -1    0    0    0  501 -0.00000000000E+00  0.00000000000E+00  0.76399490650E+03  0.76399490650E+03  0.00000000000E+00 0.  1.
          2   -1    0    0  502    0  0.00000000000E+00 -0.00000000000E+00 -0.18841671683E+04  0.18841671683E+04  0.00000000000E+00 0. -1.
    9000010    2    1    2  502    0 -0.36545217508E+03  0.55780437629E+03 -0.57945162468E+03  0.13382799092E+04  0.10052501756E+04 0.  0.
   -9000010    2    1    2    0  501  0.36545217508E+03 -0.55780437629E+03 -0.54072063713E+03  0.13098821656E+04  0.98929847159E+03 0.  0.
        -13    1    3    3    0    0 -0.35983101158E+03  0.57576127874E+03 -0.83829271612E+03  0.10787558093E+04  0.10566000000E+00 0.  1.
         13    1    4    4    0    0  0.23887860962E+03 -0.83351663227E+03 -0.50754334023E+03  0.10046955856E+04  0.10566000000E+00 0. -1.
          4    1    3    3  502    0 -0.56211634922E+01 -0.17956902446E+02  0.25884109144E+03  0.25952409992E+03  0.00000000000E+00 0.  1.
         -4    1    4    4    0  501  0.12657356546E+03  0.27571225598E+03 -0.33177296894E+02  0.30518657998E+03  0.00000000000E+00 0. -1.
</event>
<event>
 8    1  0.7096247E-006  0.1689050E+04  0.7818608E-02  0.8308300E-01
         -1   -1    0    0    0  501 -0.00000000000E+00  0.00000000000E+00  0.27660322741E+04  0.27660322741E+04  0.00000000000E+00 0.  1.
          1   -1    0    0  502    0  0.00000000000E+00 -0.00000000000E+00 -0.10602767154E+04  0.10602767154E+04  0.00000000000E+00 0. -1.
    9000010    2    1    2  502    0  0.10814563110E+04 -0.82658692832E+03  0.53542454899E+03  0.17684702257E+04  0.99398882728E+03 0.  0.
   -9000010    2    1    2    0  501 -0.10814563110E+04  0.82658692832E+03  0.11703310098E+04  0.20578387638E+04  0.10060974122E+04 0.  0.
        -13    1    3    3    0    0  0.10999060543E+04 -0.85175574144E+03  0.16974507071E+03  0.14014615841E+04  0.10566000000E+00 0.  1.
         13    1    4    4    0    0 -0.29970178610E+03  0.31292206716E+03  0.10228955348E+04  0.11108810319E+04  0.10566000000E+00 0. -1.
          4    1    3    3  502    0 -0.18449743319E+02  0.25168813116E+02  0.36567947828E+03  0.36700864161E+03  0.00000000000E+00 0.  1.
         -4    1    4    4    0  501 -0.78175452492E+03  0.51366486116E+03  0.14743547495E+03  0.94695773195E+03  0.00000000000E+00 0. -1.
</event>
<event>
 8    1  0.7096247E-006  0.1033239E+04  0.7818608E-02  0.8743972E-01
         -2   -1    0    0    0  501 -0.00000000000E+00  0.00000000000E+00  0.68379879832E+03  0.68379879832E+03  0.00000000000E+00 0.  1.
          2   -1    0    0  502    0  0.00000000000E+00 -0.00000000000E+00 -0.16074688651E+04  0.16074688651E+04  0.00000000000E+00 0. -1.
    9000010    2    1    2  502    0  0.18654632305E+02 -0.20928880055E+03 -0.65487221822E+03  0.12209789325E+04  0.10088518890E+04 0.  0.
   -9000010    2    1    2    0  501 -0.18654632305E+02  0.20928880055E+03 -0.26879784861E+03  0.10702887310E+04  0.10144534918E+04 0.  0.
        -13    1    3    3    0    0 -0.28450526790E+03 -0.41427380311E+02 -0.79636567425E+03  0.84667453817E+03  0.10566000000E+00 0.  1.
         13    1    4    4    0    0  0.14496997833E+03  0.14185833966E+03  0.36210066667E+03  0.41503853691E+03  0.10566000000E+00 0. -1.
          4    1    3    3  502    0  0.30315990020E+03 -0.16786142024E+03  0.14149345602E+03  0.37430439430E+03  0.00000000000E+00 0.  1.
         -4    1    4    4    0  501 -0.16362461064E+03  0.67430460891E+02 -0.63089851528E+03  0.65525019409E+03  0.00000000000E+00 0. -1.
</event>
<event>
 8    1  0.7096247E-006  0.1377448E+04  0.7818608E-02  0.8483718E-01
          2   -1    0    0  502    0  0.00000000000E+00  0.00000000000E+00  0.29576799241E+04  0.29576799241E+04  0.00000000000E+00 0.  1.
         -2   -1    0    0    0  501 -0.00000000000E+00 -0.00000000000E+00 -0.71860512207E+03  0.71860512207E+03  0.00000000000E+00 0. -1.
    9000010    2    1    2  502    0 -0.82871910920E+03  0.46982767307E+03  0.17212205848E+04  0.22041795416E+04  0.99412964233E+03 0.  0.
   -9000010    2    1    2    0  501  0.82871910920E+03 -0.46982767307E+03  0.51785421721E+03  0.14721055045E+04  0.99569484377E+03 0.  0.
        -13    1    3    3    0    0 -0.30300800170E+03  0.47631038018E+03  0.15526080193E+04  0.16520523902E+04  0.10566000000E+00 0.  1.
         13    1    4    4    0    0  0.97677691427E+03 -0.60346429950E+03  0.32172496408E+03  0.11923796647E+04  0.10566000000E+00 0. -1.
          4    1    3    3  502    0 -0.52571110749E+03 -0.64827071076E+01  0.16861256552E+03  0.55212715137E+03  0.00000000000E+00 0.  1.
         -4    1    4    4    0  501 -0.14805780507E+03  0.13363662643E+03  0.19612925313E+03  0.27972583989E+03  0.00000000000E+00 0. -1.
</event>
<event>
 8    1  0.7096247E-006  0.1021645E+04  0.7818608E-02  0.8754516E-01
         -2   -1    0    0    0  501 -0.00000000000E+00  0.00000000000E+00  0.13050576617E+04  0.13050576617E+04  0.00000000000E+00 0. -1.
          2   -1    0    0  502    0  0.00000000000E+00 -0.00000000000E+00 -0.11515806621E+04  0.11515806621E+04  0.00000000000E+00 0.  1.
    9000010    2    1    2  502    0 -0.17769927280E+03 -0.12548038796E+03  0.75591723634E+03  0.12755429477E+04  0.10041297645E+04 0.  0.
   -9000010    2    1    2    0  501  0.17769927280E+03  0.12548038796E+03 -0.60244023674E+03  0.11810953761E+04  0.99233547220E+03 0.  0.
        -13    1    3    3    0    0 -0.38472864786E+03  0.32924886167E+03  0.50988502534E+03  0.71861234030E+03  0.10566000000E+00 0.  1.
         13    1    4    4    0    0 -0.31028221548E+03 -0.38866197686E+02  0.83246401973E+02  0.32359791280E+03  0.10566000000E+00 0. -1.
          4    1    3    3  502    0  0.20702937506E+03 -0.45472924964E+03  0.24603221100E+03  0.55693060740E+03  0.00000000000E+00 0.  1.
         -4    1    4    4    0  501  0.48798148828E+03  0.16434658565E+03 -0.68568663872E+03  0.85749746334E+03  0.00000000000E+00 0. -1.
</event>
<event>
 8    1  0.7096247E-006  0.1501256E+04  0.7818608E-02  0.8408777E-01
         -1   -1    0    0    0  501 -0.00000000000E+00  0.00000000000E+00  0.15198762462E+04  0.15198762462E+04  0.00000000000E+00 0.  1.
          1   -1    0    0  502    0  0.00000000000E+00 -0.00000000000E+00 -0.17762478020E+04  0.17762478020E+04  0.00000000000E+00 0. -1.
    9000010    2    1    2  502    0  0.82186526244E+03 -0.76151706899E+03  0.54204506336E+03  0.15898363011E+04  0.98913894765E+03 0.  0.
   -9000010    2    1    2    0  501 -0.82186526244E+03  0.76151706899E+03 -0.79841661915E+03  0.17062877470E+04  0.10092462643E+04 0.  0.
        -13    1    3    3    0    0  0.78219860485E+03 -0.88006108082E+03  0.71418280827E+03  0.13770981295E+04  0.10566000000E+00 0.  1.
         13    1    4    4    0    0 -0.10013298103E+04  0.79393538911E+03 -0.53375681953E+03  0.13848794694E+04  0.10566000000E+00 0. -1.
          4    1    3    3  502    0  0.39666657586E+02  0.11854401183E+03 -0.17213774491E+03  0.21273817167E+03  0.00000000000E+00 0.  1.
         -4    1    4    4    0  501  0.17946454788E+03 -0.32418320124E+02 -0.26465979961E+03  0.32140827768E+03  0.00000000000E+00 0. -1.
</event>
<event>
 8    1  0.7096247E-006  0.1154182E+04  0.7818608E-02  0.8641886E-01
         -2   -1    0    0    0  501 -0.00000000000E+00  0.00000000000E+00  0.71699530219E+03  0.71699530219E+03  0.00000000000E+00 0. -1.
          2   -1    0    0  502    0  0.00000000000E+00 -0.00000000000E+00 -0.20217854453E+04  0.20217854453E+04  0.00000000000E+00 0.  1.
    9000010    2    1    2  502    0 -0.50770221742E+03 -0.21804204738E+03 -0.26843511130E+03  0.11956413748E+04  0.10257665486E+04 0.  0.
   -9000010    2    1    2    0  501  0.50770221742E+03  0.21804204738E+03 -0.10363550318E+04  0.15431393726E+04  0.10009712761E+04 0.  0.
        -13    1    3    3    0    0 -0.50176175971E+03 -0.55852964795E+03 -0.37441548992E+03  0.83899177672E+03  0.10566000000E+00 0.  1.
         13    1    4    4    0    0  0.50190718050E+03  0.12990965476E+03 -0.12275436733E+04  0.13325354844E+04  0.10566000000E+00 0. -1.
          4    1    3    3  502    0 -0.59404577107E+01  0.34048760057E+03  0.10598037862E+03  0.35664959811E+03  0.00000000000E+00 0.  1.
         -4    1    4    4    0  501  0.57950369163E+01  0.88132392621E+02  0.19118864152E+03  0.21060388821E+03  0.00000000000E+00 0. -1.
</event>
<event>
 7    1  0.7096247E-006  0.8968590E+03  0.7818608E-02  0.8878049E-01
         -2   -1    0    0    0  501 -0.00000000000E+00  0.00000000000E+00  0.14635472781E+04  0.14635472781E+04  0.00000000000E+00 0.  1.
          2   -1    0    0  502    0  0.00000000000E+00 -0.00000000000E+00 -0.58508313852E+03  0.58508313852E+03  0.00000000000E+00 0. -1.
    9000010    2    1    2  502    0 -0.21171891006E+03 -0.26039340882E+03  0.69970298493E+03  0.12632522820E+04  0.99679106975E+03 0.  0.
        -13    1    3    3    0    0 -0.45884799982E+03  0.21977469657E+03  0.29203893547E+03  0.58662522549E+03  0.10566000000E+00 0.  1.
         13    1    1    2    0    0 -0.12143703288E+03 -0.15972363252E+03 -0.42906540725E+02  0.20518180753E+03  0.10566000000E+00 0. -1.
          4    1    3    3  502    0  0.24712908976E+03 -0.48016810539E+03  0.40766404947E+03  0.67662705656E+03  0.00000000000E+00 0.  1.
         -4    1    1    2    0  501  0.33315594294E+03  0.42011704134E+03  0.22166769538E+03  0.58019632705E+03  0.00000000000E+00 0. -1.
</event>
<event>
 8    1  0.7096247E-006  0.1506085E+04  0.7818608E-02  0.8406006E-01
         -2   -1    0    0    0  501 -0.00000000000E+00  0.00000000000E+00  0.20819964080E+04  0.20819964080E+04  0.00000000000E+00 0. -1.
          2   -1    0    0  502    0  0.00000000000E+00 -0.00000000000E+00 -0.15823751653E+04  0.15823751653E+04  0.00000000000E+00 0.  1.
    9000010    2    1    2  502    0 -0.78853296791E+03  0.76634921255E+03 -0.77464919049E+03  0.16772808425E+04  0.10020550380E+04 0.  0.
   -9000010    2    1    2    0  501  0.78853296791E+03 -0.76634921255E+03  0.12742704332E+04  0.19870907308E+04  0.10562618419E+04 0.  0.
        -13    1    3    3    0    0 -0.26096892474E+03  0.56909821656E+03 -0.90376263670E+03  0.10994382540E+04  0.10566000000E+00 0.  1.
         13    1    4    4    0    0  0.21654872495E+03 -0.96276178083E+02 -0.17254744517E+03  0.29314686549E+03  0.10566000000E+00 0. -1.
          4    1    3    3  502    0 -0.52756404317E+03  0.19725099598E+03  0.12911344620E+03  0.57784258848E+03  0.00000000000E+00 0.  1.
         -4    1    4    4    0  501  0.57198424296E+03 -0.67007303446E+03  0.14468178784E+04  0.16939438654E+04  0.00000000000E+00 0. -1.
</event>
<event>
 8    1  0.7096247E-006  0.1181093E+04  0.7818608E-02  0.8620937E-01
         -1   -1    0    0    0  501 -0.00000000000E+00  0.00000000000E+00  0.15454631934E+04  0.15454631934E+04  0.00000000000E+00 0.  1.
          1   -1    0    0  502    0  0.00000000000E+00 -0.00000000000E+00 -0.12434151570E+04  0.12434151570E+04  0.00000000000E+00 0. -1.
    9000010    2    1    2  502    0  0.34397791654E+03  0.51528474026E+03 -0.57845478816E+03  0.13200888109E+04  0.10120204326E+04 0.  0.
   -9000010    2    1    2    0  501 -0.34397791654E+03 -0.51528474026E+03  0.88050282460E+03  0.14687895395E+04  0.99910876116E+03 0.  0.
        -13    1    3    3    0    0 -0.85769968456E+02  0.69120615021E+03 -0.47865749429E+03  0.84512451010E+03  0.10566000000E+00 0.  1.
         13    1    4    4    0    0 -0.59165965079E+03 -0.32599667939E+02  0.64934060026E+03  0.87907173031E+03  0.10566000000E+00 0. -1.
          4    1    3    3  502    0  0.42974788499E+03 -0.17592140995E+03 -0.99797293875E+02  0.47496430076E+03  0.00000000000E+00 0.  1.
         -4    1    4    4    0  501  0.24768173425E+03 -0.48268507232E+03  0.23116222434E+03  0.58971780919E+03  0.00000000000E+00 0. -1.
</event>
<event>
 8    1  0.7096247E-006  0.1101431E+04  0.7818608E-02  0.8684730E-01
         -1   -1    0    0    0  501 -0.00000000000E+00  0.00000000000E+00  0.10737274952E+04  0.10737274952E+04  0.00000000000E+00 0. -1.
          1   -1    0    0  502    0  0.00000000000E+00 -0.00000000000E+00 -0.11307980080E+04  0.11307980080E+04  0.00000000000E+00 0.  1.
    9000010    2    1    2  502    0 -0.14502660236E+03  0.39668385822E+03 -0.49045644161E+01  0.10795882814E+04  0.99352705234E+03 0.  0.
   -9000010    2    1    2    0  501  0.14502660236E+03 -0.39668385822E+03 -0.52165948433E+02  0.11249372218E+04  0.10413316802E+04 0.  0.
        -13    1    3    3    0    0 -0.50465263404E+03  0.44202098477E+03  0.14665540345E+03  0.68670565058E+03  0.10566000000E+00 0.  1.
         13    1    4    4    0    0  0.25181435770E+03  0.23443356990E+03 -0.28198408241E+03  0.44484222297E+03  0.10566000000E+00 0. -1.
          4    1    3    3  502    0  0.35962603168E+03 -0.45337126553E+02 -0.15155996787E+03  0.39288263077E+03  0.00000000000E+00 0.  1.
         -4    1    4    4    0  501 -0.10678775534E+03 -0.63111742812E+03  0.22981813398E+03  0.68009499886E+03  0.00000000000E+00 0. -1.
</event>
<event>
 8    1  0.7096247E-006  0.1464240E+04  0.7818608E-02  0.8430382E-01
          2   -1    0    0  502    0  0.00000000000E+00  0.00000000000E+00  0.67785246412E+03  0.67785246412E+03  0.00000000000E+00 0. -1.
         -2   -1    0    0    0  501 -0.00000000000E+00 -0.00000000000E+00 -0.34171550750E+04  0.34171550750E+04  0.00000000000E+00 0.  1.
    9000010    2    1    2  502    0  0.73144768303E+03  0.81096419953E+03 -0.19389548417E+04  0.24375150044E+04  0.99461292600E+03 0.  0.
   -9000010    2    1    2    0  501 -0.73144768303E+03 -0.81096419953E+03 -0.80034776915E+03  0.16574925347E+04  0.95605768919E+03 0.  0.
        -13    1    3    3    0    0  0.40340450731E+03 -0.11019129787E+03 -0.99099986098E+03  0.10756198465E+04  0.10566000000E+00 0.  1.
         13    1    4    4    0    0  0.35627702951E+02  0.17832864247E+03 -0.21444353069E+02  0.18311283239E+03  0.10566000000E+00 0. -1.
          4    1    3    3  502    0  0.32804317572E+03  0.92115549740E+03 -0.94795498075E+03  0.13618951579E+04  0.00000000000E+00 0.  1.
         -4    1    4    4    0  501 -0.76707538599E+03 -0.98929284200E+03 -0.77890341608E+03  0.14743797023E+04  0.00000000000E+00 0. -1.
</event>
<event>
 8    1  0.7096247E-006  0.1235239E+04  0.7818608E-02  0.8580488E-01
          2   -1    0    0  502    0  0.00000000000E+00  0.00000000000E+00  0.10846567589E+04  0.10846567589E+04  0.00000000000E+00 0.  1.
         -2   -1    0    0    0  501 -0.00000000000E+00 -0.00000000000E+00 -0.16425628510E+04  0.16425628510E+04  0.00000000000E+00 0. -1.
    9000010    2    1    2  502    0  0.69199526823E+03 -0.28679628978E+03  0.23653015130E+03  0.12636338107E+04  0.98980519907E+03 0.  0.
   -9000010    2    1    2    0  501 -0.69199526823E+03  0.28679628978E+03 -0.79443624344E+03  0.14635857992E+04  0.97459985823E+03 0.  0.
        -13    1    3    3    0    0  0.72126878494E+03 -0.14983568558E+03 -0.23381192126E+03  0.77288253861E+03  0.10566000000E+00 0.  1.
         13    1    4    4    0    0 -0.83140231369E+03  0.19609137730E+03 -0.24371879389E+03  0.88830203035E+03  0.10566000000E+00 0. -1.
          4    1    3    3  502    0 -0.29273516702E+02 -0.13696060420E+03  0.47034207256E+03  0.49075127214E+03  0.00000000000E+00 0.  1.
         -4    1    4    4    0  501  0.13940704546E+03  0.90704912480E+02 -0.55071744955E+03  0.57528376886E+03  0.00000000000E+00 0. -1.
</event>
<event>
 8    1  0.7096247E-006  0.1646655E+04  0.7818608E-02  0.8329762E-01
         -4   -1    0    0    0  501 -0.00000000000E+00  0.00000000000E+00  0.69739989237E+03  0.69739989237E+03  0.00000000000E+00 0. -1.
          4   -1    0    0  502    0  0.00000000000E+00 -0.00000000000E+00 -0.38984110413E+04  0.38984110413E+04  0.00000000000E+00 0.  1.
    9000010    2    1    2  502    0  0.10289563729E+04 -0.81865837671E+03 -0.14831079905E+04  0.22172393309E+04  0.99377471472E+03 0.  0.
   -9000010    2    1    2    0  501 -0.10289563729E+04  0.81865837671E+03 -0.17179031584E+04  0.23785716028E+04  0.98866518742E+03 0.  0.
        -13    1    3    3    0    0  0.45328253472E+03  0.11925853618E+03 -0.78411137633E+03  0.91351974056E+03  0.10566000000E+00 0.  1.
         13    1    4    4    0    0  0.56803166072E+02  0.40304302543E+03 -0.16618674301E+03  0.43964568091E+03  0.10566000000E+00 0. -1.
          4    1    3    3  502    0  0.57567383823E+03 -0.93791691289E+03 -0.69899661419E+03  0.13037195903E+04  0.00000000000E+00 0.  1.
         -4    1    4    4    0  501 -0.10857595390E+04  0.41561535128E+03 -0.15517164154E+04  0.19389259219E+04  0.00000000000E+00 0. -1.
</event>
<event>
 8    1  0.7096247E-006  0.1357593E+04  0.7818608E-02  0.8496489E-01
          2   -1    0    0  502    0  0.00000000000E+00  0.00000000000E+00  0.26497835867E+04  0.26497835867E+04  0.00000000000E+00 0. -1.
         -2   -1    0    0    0  501 -0.00000000000E+00 -0.00000000000E+00 -0.12753834502E+04  0.12753834502E+04  0.00000000000E+00 0.  1.
    9000010    2    1    2  502    0  0.33583420025E+03  0.85759449047E+03  0.20113447995E+04  0.24283576582E+04  0.10015788004E+04 0.  0.
   -9000010    2    1    2    0  501 -0.33583420025E+03 -0.85759449047E+03 -0.63694466302E+03  0.14968093787E+04  0.99322046505E+03 0.  0.
        -13    1    3    3    0    0  0.45273956173E+03 -0.39135101660E+02  0.61276384013E+03  0.76287889070E+03  0.10566000000E+00 0.  1.
         13    1    4    4    0    0 -0.47124157419E+03 -0.24071106279E+02 -0.40305916444E+03  0.62056807894E+03  0.10566000000E+00 0. -1.
          4    1    3    3  502    0 -0.11690536149E+03  0.89672959213E+03  0.13985809594E+04  0.16654787675E+04  0.00000000000E+00 0.  1.
         -4    1    4    4    0  501  0.13540737394E+03 -0.83352338419E+03 -0.23388549858E+03  0.87624129973E+03  0.00000000000E+00 0. -1.
</event>
<event>
 8    1  0.7096247E-006  0.1396894E+04  0.7818608E-02  0.8471425E-01
          1   -1    0    0  502    0  0.00000000000E+00  0.00000000000E+00  0.90862541615E+03  0.90862541615E+03  0.00000000000E+00 0.  1.
         -1   -1    0    0    0  501 -0.00000000000E+00 -0.00000000000E+00 -0.22219153019E+04  0.22219153019E+04  0.00000000000E+00 0. -1.
    9000010    2    1    2  502    0  0.90128143869E+03  0.34675963087E+03 -0.95026504652E+03  0.17039863206E+04  0.10334482324E+04 0.  0.
   -9000010    2    1    2    0  501 -0.90128143869E+03 -0.34675963087E+03 -0.36302483925E+03  0.14265543974E+04  0.98525120734E+03 0.  0.
        -13    1    3    3    0    0  0.65799735850E+03  0.71544932382E+03 -0.67745537773E+03  0.11848097141E+04  0.10566000000E+00 0.  1.
         13    1    4    4    0    0 -0.40703775803E+03 -0.14729443472E+03  0.33568128715E+03  0.54777488502E+03  0.10566000000E+00 0. -1.
          4    1    3    3  502    0  0.24328408019E+03 -0.36868969295E+03 -0.27280966878E+03  0.51917660651E+03  0.00000000000E+00 0.  1.
         -4    1    4    4    0  501 -0.49424368066E+03 -0.19946519615E+03 -0.69870612639E+03  0.87877951240E+03  0.00000000000E+00 0. -1.
</event>
<event>
 8    1  0.7096247E-006  0.1481098E+04  0.7818608E-02  0.8420461E-01
          2   -1    0    0  502    0  0.00000000000E+00  0.00000000000E+00  0.18918899768E+04  0.18918899768E+04  0.00000000000E+00 0. -1.
         -2   -1    0    0    0  501 -0.00000000000E+00 -0.00000000000E+00 -0.12823032363E+04  0.12823032363E+04  0.00000000000E+00 0.  1.
    9000010    2    1    2  502    0 -0.10981630204E+04  0.15488607678E+03  0.79795067800E+03  0.16927017818E+04  0.99928090206E+03 0.  0.
   -9000010    2    1    2    0  501  0.10981630204E+04 -0.15488607678E+03 -0.18836393745E+03  0.14814914313E+04  0.96404573123E+03 0.  0.
        -13    1    3    3    0    0  0.10658604492E+03 -0.13207080568E+02 -0.12571066445E+03  0.16534265714E+03  0.10566000000E+00 0.  1.
         13    1    4    4    0    0  0.76037278011E+03 -0.44235421050E+03 -0.42697427900E+03  0.97782976963E+03  0.10566000000E+00 0. -1.
          4    1    3    3  502    0 -0.12047490654E+04  0.16809315735E+03  0.92366134245E+03  0.15273591246E+04  0.00000000000E+00 0.  1.
         -4    1    4    4    0  501  0.33779024032E+03  0.28746813372E+03  0.23861034155E+03  0.50366166169E+03  0.00000000000E+00 0. -1.
</event>
<event>
 8    1  0.7096247E-006  0.1135251E+04  0.7818608E-02  0.8656983E-01
         -1   -1    0    0    0  501 -0.00000000000E+00  0.00000000000E+00  0.13933722796E+04  0.13933722796E+04  0.00000000000E+00 0. -1.
          1   -1    0    0  502    0  0.00000000000E+00 -0.00000000000E+00 -0.96425538268E+03  0.96425538268E+03  0.00000000000E+00 0.  1.
    9000010    2    1    2  502    0 -0.14204844801E+03 -0.47740769611E+03  0.45518352091E+03  0.12408001009E+04  0.10412958191E+04 0.  0.
   -9000010    2    1    2    0  501  0.14204844801E+03  0.47740769611E+03 -0.26066624034E+02  0.11168275613E+04  0.99926396055E+03 0.  0.
        -13    1    3    3    0    0 -0.43430839974E+03 -0.21854078426E+02  0.53959763226E+03  0.69301298886E+03  0.10566000000E+00 0.  1.
         13    1    4    4    0    0 -0.19776321768E+02  0.45112540166E+03  0.43529313547E+03  0.62720439720E+03  0.10566000000E+00 0. -1.
          4    1    3    3  502    0  0.29225995173E+03 -0.45555361769E+03 -0.84414111350E+02  0.54778711209E+03  0.00000000000E+00 0.  1.
         -4    1    4    4    0  501  0.16182476978E+03  0.26282294456E+02 -0.46135975950E+03  0.48962316408E+03  0.00000000000E+00 0. -1.
</event>
<event>
 8    1  0.7096247E-006  0.1158034E+04  0.7818608E-02  0.8638852E-01
          2   -1    0    0  502    0  0.00000000000E+00  0.00000000000E+00  0.16120970539E+04  0.16120970539E+04  0.00000000000E+00 0. -1.
         -2   -1    0    0    0  501 -0.00000000000E+00 -0.00000000000E+00 -0.84179713344E+03  0.84179713344E+03  0.00000000000E+00 0.  1.
    9000010    2    1    2  502    0  0.55885679085E+03 -0.15825896521E+03  0.25068924594E+03  0.11812275988E+04  0.99754033976E+03 0.  0.
   -9000010    2    1    2    0  501 -0.55885679085E+03  0.15825896521E+03  0.51961067453E+03  0.12726665885E+04  0.10061402386E+04 0.  0.
        -13    1    3    3    0    0  0.75555484006E+03  0.57624752664E+02 -0.53369608226E+02  0.75962625988E+03  0.10566000000E+00 0.  1.
         13    1    4    4    0    0 -0.43876093477E+03  0.17331646941E+03 -0.22190588515E+03  0.52133673329E+03  0.10566000000E+00 0. -1.
          4    1    3    3  502    0 -0.19669804921E+03 -0.21588371787E+03  0.30405885417E+03  0.42160133895E+03  0.00000000000E+00 0.  1.
         -4    1    4    4    0  501 -0.12009585608E+03 -0.15057504206E+02  0.74151655967E+03  0.75132985522E+03  0.00000000000E+00 0. -1.
</event>
<event>
 8    1  0.7096247E-006  0.1033298E+04  0.7818608E-02  0.8743920E-01
          2   -1    0    0  502    0  0.00000000000E+00  0.00000000000E+00  0.33887851026E+04  0.33887851026E+04  0.00000000000E+00 0.  1.
         -2   -1    0    0    0  501 -0.00000000000E+00 -0.00000000000E+00 -0.33701649393E+03  0.33701649393E+03  0.00000000000E+00 0. -1.
    9000010    2    1    2  502    0 -0.21934871350E+03  0.22009950376E+02  0.19905671264E+04  0.22392961818E+04  0.10017442834E+04 0.  0.
   -9000010    2    1    2    0  501  0.21934871350E+03 -0.22009950376E+02  0.10612014822E+04  0.14865054147E+04  0.10173256440E+04 0.  0.
        -13    1    3    3    0    0  0.16026946014E+03 -0.69684567428E+02 -0.33459000839E+02  0.17793750221E+03  0.10566000000E+00 0.  1.
         13    1    4    4    0    0 -0.30898577021E+03 -0.26640044777E+03  0.67238550749E+03  0.78647548379E+03  0.10566000000E+00 0. -1.
          4    1    3    3  502    0 -0.37961817364E+03  0.91694517804E+02  0.20240261272E+04  0.20613586796E+04  0.00000000000E+00 0.  1.
         -4    1    4    4    0  501  0.52833448371E+03  0.24439049739E+03  0.38881597475E+03  0.70002993087E+03  0.00000000000E+00 0. -1.
</event>
<event>
 8    1  0.7096247E-006  0.1302601E+04  0.7818608E-02  0.8533063E-01
         -2   -1    0    0    0  501 -0.00000000000E+00  0.00000000000E+00  0.84728666626E+03  0.84728666626E+03  0.00000000000E+00 0.  1.
          2   -1    0    0  502    0  0.00000000000E+00 -0.00000000000E+00 -0.23213257157E+04  0.23213257157E+04  0.00000000000E+00 0. -1.
    9000010    2    1    2  502    0  0.27951805287E+03 -0.77539833056E+03 -0.14880817233E+03  0.13087267661E+04  0.10056087526E+04 0.  0.
   -9000010    2    1    2    0  501 -0.27951805287E+03  0.77539833056E+03 -0.13252308771E+04  0.18598856158E+04  0.10117137507E+04 0.  0.
        -13    1    3    3    0    0 -0.80104752521E+02  0.11706555753E+03  0.23362479062E+03  0.27331606263E+03  0.10566000000E+00 0.  1.
         13    1    4    4    0    0  0.22183962685E+03  0.32788998266E+03 -0.25510916155E+02  0.39670578365E+03  0.10566000000E+00 0. -1.
          4    1    3    3  502    0  0.35962280539E+03 -0.89246388810E+03 -0.38243296295E+03  0.10354107035E+04  0.00000000000E+00 0.  1.
         -4    1    4    4    0  501 -0.50135767972E+03  0.44750834790E+03 -0.12997199609E+04  0.14631798322E+04  0.00000000000E+00 0. -1.
</event>
<event>
 8    1  0.7096247E-006  0.1357642E+04  0.7818608E-02  0.8496456E-01
          2   -1    0    0  502    0  0.00000000000E+00  0.00000000000E+00  0.64850459318E+03  0.64850459318E+03  0.00000000000E+00 0. -1.
         -2   -1    0    0    0  501 -0.00000000000E+00 -0.00000000000E+00 -0.31322134356E+04  0.31322134356E+04  0.00000000000E+00 0.  1.
    9000010    2    1    2  502    0  0.86314136788E+03  0.31969788611E+03 -0.66898756242E+03  0.15160193337E+04  0.10017736780E+04 0.  0.
   -9000010    2    1    2    0  501 -0.86314136788E+03 -0.31969788611E+03 -0.18147212800E+04  0.22646986951E+04  0.99419670906E+03 0.  0.
        -13    1    3    3    0    0 -0.19141717260E+03 -0.10362746249E+03 -0.55471641864E+02  0.22462479641E+03  0.10566000000E+00 0.  1.
         13    1    4    4    0    0 -0.68555588032E+03 -0.56426677542E+03 -0.17398499473E+04  0.19533206878E+04  0.10566000000E+00 0. -1.
          4    1    3    3  502    0  0.10545585405E+04  0.42332534859E+03 -0.61351592056E+03  0.12913945373E+04  0.00000000000E+00 0.  1.
         -4    1    4    4    0  501 -0.17758548757E+03  0.24456888931E+03 -0.74871332677E+02  0.31137800737E+03  0.00000000000E+00 0. -1.
</event>
<event>
 8    1  0.7096247E-006  0.1181559E+04  0.7818608E-02  0.8620580E-01
         -2   -1    0    0    0  501 -0.00000000000E+00  0.00000000000E+00  0.54697700579E+03  0.54697700579E+03  0.00000000000E+00 0.  1.
          2   -1    0    0  502    0  0.00000000000E+00 -0.00000000000E+00 -0.26836929383E+04  0.26836929383E+04  0.00000000000E+00 0. -1.
    9000010    2    1    2  502    0  0.44303240444E+03  0.46410461331E+03 -0.72243332543E+03  0.13958942330E+04  0.10074423043E+04 0.  0.
   -9000010    2    1    2    0  501 -0.44303240444E+03 -0.46410461331E+03 -0.14142826071E+04  0.18347757112E+04  0.97700348720E+03 0.  0.
        -13    1    3    3    0    0  0.33249273222E+02 -0.28865797545E+03 -0.26342424004E+02  0.29175824826E+03  0.10566000000E+00 0.  1.
         13    1    4    4    0    0 -0.51198174900E+02 -0.11855173767E+03  0.14271449078E+03  0.19246611302E+03  0.10566000000E+00 0. -1.
          4    1    3    3  502    0  0.40978313122E+03  0.75276258876E+03 -0.69609090143E+03  0.11041359847E+04  0.00000000000E+00 0.  1.
         -4    1    4    4    0  501 -0.39183422954E+03 -0.34555287563E+03 -0.15569970979E+04  0.16423095981E+04  0.00000000000E+00 0. -1.
</event>
<event>
 8    1  0.7096247E-006  0.1409573E+04  0.7818608E-02  0.8463519E-01
          2   -1    0    0  502    0  0.00000000000E+00  0.00000000000E+00  0.30665602102E+04  0.30665602102E+04  0.00000000000E+00 0.  1.
         -2   -1    0    0    0  501 -0.00000000000E+00 -0.00000000000E+00 -0.67627732687E+03  0.67627732687E+03  0.00000000000E+00 0. -1.
    9000010    2    1    2  502    0 -0.83315302198E+03 -0.51375700666E+03  0.15703806407E+04  0.21038769743E+04  0.10010558158E+04 0.  0.
   -9000010    2    1    2    0  501  0.83315302198E+03  0.51375700666E+03  0.81990224263E+03  0.16389605628E+04  0.10275513705E+04 0.  0.
        -13    1    3    3    0    0 -0.58305533683E+03 -0.80854964015E+03  0.12688790485E+04  0.16136170851E+04  0.10566000000E+00 0.  1.
         13    1    4    4    0    0  0.10512765672E+04  0.36245687746E+03  0.80552786715E+03  0.13731105435E+04  0.10566000000E+00 0. -1.
          4    1    3    3  502    0 -0.25009768515E+03  0.29479263349E+03  0.30150159226E+03  0.49025988926E+03  0.00000000000E+00 0.  1.
         -4    1    4    4    0  501 -0.21812354523E+03  0.15130012920E+03  0.14374375481E+02  0.26585001928E+03  0.00000000000E+00 0. -1.
</event>
<event>
 8    1  0.7096247E-006  0.1030438E+04  0.7818608E-02  0.8746507E-01
          1   -1    0    0  502    0  0.00000000000E+00  0.00000000000E+00  0.82813647020E+03  0.82813647020E+03  0.00000000000E+00 0.  1.
         -1   -1    0    0    0  501 -0.00000000000E+00 -0.00000000000E+00 -0.13100494395E+04  0.13100494395E+04  0.00000000000E+00 0. -1.
    9000010    2    1    2  502    0 -0.74118280068E+02  0.26312186094E+03 -0.87023914264E+02  0.10421410197E+04  0.10018772929E+04 0.  0.
   -9000010    2    1    2    0  501  0.74118280068E+02 -0.26312186094E+03 -0.39488905509E+03  0.10960448901E+04  0.98521591645E+03 0.  0.
        -13    1    3    3    0    0 -0.12712589133E+03  0.55171436025E+03 -0.33509833846E+03  0.65790625103E+03  0.10566000000E+00 0.  1.
         13    1    4    4    0    0  0.43212588286E+02 -0.53740073221E+03  0.81708193929E+02  0.54529177042E+03  0.10566000000E+00 0. -1.
          4    1    3    3  502    0  0.53007611257E+02 -0.28859249931E+03  0.24807442419E+03  0.38423476866E+03  0.00000000000E+00 0.  1.
         -4    1    4    4    0  501  0.30905691782E+02  0.27427887127E+03 -0.47659724901E+03  0.55075311963E+03  0.00000000000E+00 0. -1.
</event>
<event>
 8    1  0.7096247E-006  0.1307033E+04  0.7818608E-02  0.8530047E-01
          2   -1    0    0  502    0  0.00000000000E+00  0.00000000000E+00  0.30033888918E+04  0.30033888918E+04  0.00000000000E+00 0. -1.
         -2   -1    0    0    0  501 -0.00000000000E+00 -0.00000000000E+00 -0.62662619986E+03  0.62662619986E+03  0.00000000000E+00 0.  1.
    9000010    2    1    2  502    0  0.81326620567E+03 -0.26881633545E+03  0.64320193064E+03  0.14633513768E+04  0.99700771557E+03 0.  0.
   -9000010    2    1    2    0  501 -0.81326620567E+03  0.26881633545E+03  0.17335607613E+04  0.21666637148E+04  0.97751449946E+03 0.  0.
        -13    1    3    3    0    0  0.88872935779E+03 -0.30855244370E+03  0.83218451501E+03  0.12560157484E+04  0.10566000000E+00 0.  1.
         13    1    4    4    0    0 -0.21440730057E+03  0.36167375999E+03  0.14267438805E+04  0.14874059671E+04  0.10566000000E+00 0. -1.
          4    1    3    3  502    0 -0.75463152118E+02  0.39736108257E+02 -0.18898258438E+03  0.20733562845E+03  0.00000000000E+00 0.  1.
         -4    1    4    4    0  501 -0.59885890511E+03 -0.92857424541E+02  0.30681688072E+03  0.67925774770E+03  0.00000000000E+00 0. -1.
</event>
<event>
 8    1  0.7096247E-006  0.1441288E+04  0.7818608E-02  0.8444111E-01
         -2   -1    0    0    0  501 -0.00000000000E+00  0.00000000000E+00  0.77711648686E+03  0.77711648686E+03  0.00000000000E+00 0. -1.
          2   -1    0    0  502    0  0.00000000000E+00 -0.00000000000E+00 -0.27453552021E+04  0.27453552021E+04  0.00000000000E+00 0.  1.
    9000010    2    1    2  502    0 -0.40498831204E+03 -0.98560645593E+03 -0.12825202921E+04  0.19449576195E+04  0.10012822895E+04 0.  0.
   -9000010    2    1    2    0  501  0.40498831204E+03  0.98560645593E+03 -0.68571842314E+03  0.15775140694E+04  0.93963038723E+03 0.  0.
        -13    1    3    3    0    0  0.29130813707E+03 -0.61714575949E+02 -0.18670193599E+03  0.35146371601E+03  0.10566000000E+00 0.  1.
         13    1    4    4    0    0  0.86321455262E+02  0.84075311107E+03 -0.84303471038E+03  0.11937439933E+04  0.10566000000E+00 0. -1.
          4    1    3    3  502    0 -0.69629644911E+03 -0.92389187998E+03 -0.10958183561E+04  0.15934939035E+04  0.00000000000E+00 0.  1.
         -4    1    4    4    0  501  0.31866685678E+03  0.14485334486E+03  0.15731628724E+03  0.38377007616E+03  0.00000000000E+00 0. -1.
</event>
<event>
 8    1  0.7096247E-006  0.1038609E+04  0.7818608E-02  0.8739137E-01
         -2   -1    0    0    0  501 -0.00000000000E+00  0.00000000000E+00  0.73257170588E+03  0.73257170588E+03  0.00000000000E+00 0.  1.
          2   -1    0    0  502    0  0.00000000000E+00 -0.00000000000E+00 -0.14908868632E+04  0.14908868632E+04  0.00000000000E+00 0. -1.
    9000010    2    1    2  502    0 -0.44169746719E+03  0.92618195731E+02 -0.28295875776E+03  0.11224527335E+04  0.98800794413E+03 0.  0.
   -9000010    2    1    2    0  501  0.44169746719E+03 -0.92618195731E+02 -0.47535639953E+03  0.11010058355E+04  0.88463289595E+03 0.  0.
        -13    1    3    3    0    0  0.29288418752E+03 -0.60977834500E+02  0.46671546150E+02  0.30278323597E+03  0.10566000000E+00 0.  1.
         13    1    4    4    0    0  0.49827785343E+03 -0.34049745902E+03 -0.50156654219E+02  0.60558652556E+03  0.10566000000E+00 0. -1.
          4    1    3    3  502    0 -0.73458165471E+03  0.15359603023E+03 -0.32963030391E+03  0.81966949754E+03  0.00000000000E+00 0.  1.
         -4    1    4    4    0  501 -0.56580386235E+02  0.24787926329E+03 -0.42519974531E+03  0.49541930997E+03  0.00000000000E+00 0. -1.
</event>
<event>
 8    1  0.7096247E-006  0.1225097E+04  0.7818608E-02  0.8587899E-01
          2   -1    0    0  502    0  0.00000000000E+00  0.00000000000E+00  0.10547072608E+04  0.10547072608E+04  0.00000000000E+00 0. -1.
         -2   -1    0    0    0  501 -0.00000000000E+00 -0.00000000000E+00 -0.14335661430E+04  0.14335661430E+04  0.00000000000E+00 0.  1.
    9000010    2    1    2  502    0  0.27077663371E+03 -0.65043824445E+03 -0.29730592684E+03  0.12721730373E+04  0.10166826091E+04 0.  0.
   -9000010    2    1    2    0  501 -0.27077663371E+03  0.65043824445E+03 -0.81552955372E+02  0.12161003665E+04  0.98785592153E+03 0.  0.
        -13    1    3    3    0    0  0.25613328379E+03 -0.92529972092E+03 -0.25776739361E+03  0.99409651090E+03  0.10566000000E+00 0.  1.
         13    1    4    4    0    0 -0.45555976588E+03  0.21336709223E+03  0.31853360585E+03  0.59541908397E+03  0.10566000000E+00 0. -1.
          4    1    3    3  502    0  0.14643349921E+02  0.27486147647E+03 -0.39538533226E+02  0.27807652644E+03  0.00000000000E+00 0.  1.
         -4    1    4    4    0  501  0.18478313217E+03  0.43707115222E+03 -0.40008656122E+03  0.62068128255E+03  0.00000000000E+00 0. -1.
</event>
<event>
 8    1  0.7096247E-006  0.1289216E+04  0.7818608E-02  0.8542247E-01
         -2   -1    0    0    0  501 -0.00000000000E+00  0.00000000000E+00  0.10019692745E+04  0.10019692745E+04  0.00000000000E+00 0.  1.
          2   -1    0    0  502    0  0.00000000000E+00 -0.00000000000E+00 -0.16690668299E+04  0.16690668299E+04  0.00000000000E+00 0. -1.
    9000010    2    1    2  502    0  0.78964085972E+03  0.11014023926E+03 -0.43671647691E+03  0.13561244066E+04  0.10063242844E+04 0.  0.
   -9000010    2    1    2    0  501 -0.78964085972E+03 -0.11014023926E+03 -0.23038107848E+03  0.13149116977E+04  0.10199283170E+04 0.  0.
        -13    1    3    3    0    0  0.89171145601E+03  0.31002793017E+03 -0.56239887457E+03  0.10988899597E+04  0.10566000000E+00 0.  1.
         13    1    4    4    0    0 -0.87369416334E+03 -0.34949814370E+03 -0.38622163931E+03  0.10171812077E+04  0.10566000000E+00 0. -1.
          4    1    3    3  502    0 -0.10207059628E+03 -0.19988769091E+03  0.12568239766E+03  0.25723444693E+03  0.00000000000E+00 0.  1.
         -4    1    4    4    0  501  0.84053303611E+02  0.23935790444E+03  0.15584056083E+03  0.29773048999E+03  0.00000000000E+00 0. -1.
</event>
<event>
 8    1  0.7096247E-006  0.1632627E+04  0.7818608E-02  0.8337011E-01
         -2   -1    0    0    0  501 -0.00000000000E+00  0.00000000000E+00  0.14901489582E+04  0.14901489582E+04  0.00000000000E+00 0.  1.
          2   -1    0    0  502    0  0.00000000000E+00 -0.00000000000E+00 -0.21116500915E+04  0.21116500915E+04  0.00000000000E+00 0. -1.
    9000010    2    1    2  502    0  0.11290487079E+04  0.63913621397E+03  0.39286117951E+03  0.16830147047E+04  0.99747305983E+03 0.  0.
   -9000010    2    1    2    0  501 -0.11290487079E+04 -0.63913621397E+03 -0.10143623128E+04  0.19187843450E+04  0.98466053866E+03 0.  0.
        -13    1    3    3    0    0  0.35328678969E+03 -0.21740139495E+03 -0.99965225287E+02  0.42669424619E+03  0.10566000000E+00 0.  1.
         13    1    4    4    0    0 -0.49574572853E+03 -0.81288936968E+03 -0.45099545829E+03  0.10535415840E+04  0.10566000000E+00 0. -1.
          4    1    3    3  502    0  0.77576191816E+03  0.85653760892E+03  0.49282640480E+03  0.12563204585E+04  0.00000000000E+00 0.  1.
         -4    1    4    4    0  501 -0.63330297932E+03  0.17375315570E+03 -0.56336685447E+03  0.86524276099E+03  0.00000000000E+00 0. -1.
</event>
<event>
 8    1  0.7096247E-006  0.1220336E+04  0.7818608E-02  0.8591405E-01
          2   -1    0    0  502    0  0.00000000000E+00  0.00000000000E+00  0.14652915745E+04  0.14652915745E+04  0.00000000000E+00 0. -1.
         -2   -1    0    0    0  501 -0.00000000000E+00 -0.00000000000E+00 -0.10413506327E+04  0.10413506327E+04  0.00000000000E+00 0.  1.
    9000010    2    1    2  502    0 -0.46282104287E+03 -0.53649934494E+03  0.40631603054E+03  0.12865952947E+04  0.99408242663E+03 0.  0.
   -9000010    2    1    2    0  501  0.46282104287E+03  0.53649934494E+03  0.17624911268E+02  0.12200469124E+04  0.99306040402E+03 0.  0.
        -13    1    3    3    0    0 -0.47198987814E+03 -0.10008772481E+03 -0.21422481658E+03  0.52790556061E+03  0.10566000000E+00 0.  1.
         13    1    4    4    0    0  0.47822296320E+03  0.71622382089E+03  0.27651888463E+03  0.90450896561E+03  0.10566000000E+00 0. -1.
          4    1    3    3  502    0  0.91688352687E+01 -0.43641162013E+03  0.62054084712E+03  0.75868973413E+03  0.00000000000E+00 0.  1.
         -4    1    4    4    0  501 -0.15401920337E+02 -0.17972447595E+03 -0.25889397336E+03  0.31553794676E+03  0.00000000000E+00 0. -1.
</event>
<event>
 8    1  0.7096247E-006  0.1745680E+04  0.7818608E-02  0.8280623E-01
          2   -1    0    0  502    0  0.00000000000E+00  0.00000000000E+00  0.31367219102E+04  0.31367219102E+04  0.00000000000E+00 0. -1.
         -2   -1    0    0    0  501 -0.00000000000E+00 -0.00000000000E+00 -0.98600367167E+03  0.98600367167E+03  0.00000000000E+00 0.  1.
    9000010    2    1    2  502    0  0.92537517466E+03 -0.10750421693E+04  0.13358433460E+04  0.22135991504E+04  0.10504803062E+04 0.  0.
   -9000010    2    1    2    0  501 -0.92537517466E+03  0.10750421693E+04  0.81487489248E+03  0.19091264315E+04  0.98422952672E+03 0.  0.
        -13    1    3    3    0    0  0.11009228735E+04 -0.64273953618E+03  0.11303290102E+04  0.17037573088E+04  0.10566000000E+00 0.  1.
         13    1    4    4    0    0 -0.40550330452E+03  0.97802375598E+03  0.87942483866E+03  0.13763544076E+04  0.10566000000E+00 0. -1.
          4    1    3    3  502    0 -0.17554769886E+03 -0.43230263313E+03  0.20551433582E+03  0.50984184157E+03  0.00000000000E+00 0.  1.
         -4    1    4    4    0  501 -0.51987187014E+03  0.97018413330E+02 -0.64549946185E+02  0.53277202389E+03  0.00000000000E+00 0. -1.
</event>
<event>
 8    1  0.7096247E-006  0.1102878E+04  0.7818608E-02  0.8683521E-01
          2   -1    0    0  502    0  0.00000000000E+00  0.00000000000E+00  0.12021906830E+04  0.12021906830E+04  0.00000000000E+00 0. -1.
         -2   -1    0    0    0  501 -0.00000000000E+00 -0.00000000000E+00 -0.10167397180E+04  0.10167397180E+04  0.00000000000E+00 0.  1.
    9000010    2    1    2  502    0  0.11525331057E+03  0.53885461848E+03  0.17054904263E+03  0.11234966197E+04  0.96411101697E+03 0.  0.
   -9000010    2    1    2    0  501 -0.11525331057E+03 -0.53885461848E+03  0.14901922401E+02  0.10954337814E+04  0.94662847868E+03 0.  0.
        -13    1    3    3    0    0  0.43214103288E+03  0.41954126447E+03  0.39225470351E+03  0.71876596224E+03  0.10566000000E+00 0.  1.
         13    1    4    4    0    0 -0.25306427490E+03 -0.10680050613E+02 -0.35496542641E+03  0.43606886592E+03  0.10566000000E+00 0. -1.
          4    1    3    3  502    0 -0.31688772232E+03  0.11931335401E+03 -0.22170566088E+03  0.40473065743E+03  0.00000000000E+00 0.  1.
         -4    1    4    4    0  501  0.13781096434E+03 -0.52817456786E+03  0.36986734881E+03  0.65936491546E+03  0.00000000000E+00 0. -1.
</event>
<event>
 8    1  0.7096247E-006  0.1179865E+04  0.7818608E-02  0.8621880E-01
         -2   -1    0    0    0  501 -0.00000000000E+00  0.00000000000E+00  0.59774955521E+03  0.59774955521E+03  0.00000000000E+00 0.  1.
          2   -1    0    0  502    0  0.00000000000E+00 -0.00000000000E+00 -0.27630623509E+04  0.27630623509E+04  0.00000000000E+00 0. -1.
    9000010    2    1    2  502    0  0.46572767961E+03  0.42795095525E+03 -0.17509986032E+04  0.21130271271E+04  0.99942145258E+03 0.  0.
   -9000010    2    1    2    0  501 -0.46572767961E+03 -0.42795095525E+03 -0.41431419255E+03  0.12477847791E+04  0.99260581957E+03 0.  0.
        -13    1    3    3    0    0 -0.24043966114E+03 -0.11149538141E+03 -0.22740637571E+03  0.34922216654E+03  0.10566000000E+00 0.  1.
         13    1    4    4    0    0  0.20642014540E+03 -0.18690616289E+03 -0.45402602102E+03  0.53261884033E+03  0.10566000000E+00 0. -1.
          4    1    3    3  502    0  0.70616734075E+03  0.53944633666E+03 -0.15235922275E+04  0.17638049606E+04  0.00000000000E+00 0.  1.
         -4    1    4    4    0  501 -0.67214782501E+03 -0.24104479236E+03  0.39711828466E+02  0.71516593872E+03  0.00000000000E+00 0. -1.
</event>
<event>
 8    1  0.7096247E-006  0.1435419E+04  0.7818608E-02  0.8447663E-01
         -2   -1    0    0    0  501 -0.00000000000E+00  0.00000000000E+00  0.14357357858E+04  0.14357357858E+04  0.00000000000E+00 0.  1.
          2   -1    0    0  502    0  0.00000000000E+00 -0.00000000000E+00 -0.14423872682E+04  0.14423872682E+04  0.00000000000E+00 0. -1.
    9000010    2    1    2  502    0  0.89249867361E+03  0.43634303538E+03 -0.10385531689E+03  0.14208397200E+04  0.10104704133E+04 0.  0.
   -9000010    2    1    2    0  501 -0.89249867361E+03 -0.43634303538E+03  0.97203834428E+02  0.14572833340E+04  0.10617330188E+04 0.  0.
        -13    1    3    3    0    0 -0.10511988777E+03  0.39194328252E+03  0.55588120609E+02  0.40958488477E+03  0.10566000000E+00 0.  1.
         13    1    4    4    0    0 -0.76141750918E+03  0.21266068309E+03  0.21374795039E+02  0.79084643417E+03  0.10566000000E+00 0. -1.
          4    1    3    3  502    0  0.99761856138E+03  0.44399752866E+02 -0.15944343749E+03  0.10112548352E+04  0.00000000000E+00 0.  1.
         -4    1    4    4    0  501 -0.13108116443E+03 -0.64900371847E+03  0.75829039390E+02  0.66643689984E+03  0.00000000000E+00 0. -1.
</event>
<event>
 8    1  0.7096247E-006  0.1020583E+04  0.7818608E-02  0.8755489E-01
          1   -1    0    0  502    0  0.00000000000E+00  0.00000000000E+00  0.15833782962E+04  0.15833782962E+04  0.00000000000E+00 0. -1.
         -1   -1    0    0    0  501 -0.00000000000E+00 -0.00000000000E+00 -0.71817426894E+03  0.71817426894E+03  0.00000000000E+00 0.  1.
    9000010    2    1    2  502    0 -0.34096938252E+02  0.40987997569E+03  0.73986545229E+03  0.12186674827E+04  0.87668999663E+03 0.  0.
   -9000010    2    1    2    0  501  0.34096938252E+02 -0.40987997569E+03  0.12533857501E+03  0.10828850825E+04  0.99386425020E+03 0.  0.
        -13    1    3    3    0    0 -0.13837432888E+03  0.61079397732E+03  0.24135373616E+03  0.67116940838E+03  0.10566000000E+00 0.  1.
         13    1    4    4    0    0 -0.74347197238E+02 -0.70415795755E+03 -0.72973924987E+02  0.71182240749E+03  0.10566000000E+00 0. -1.
          4    1    3    3  502    0  0.10427739063E+03 -0.20091400163E+03  0.49851171612E+03  0.54749807430E+03  0.00000000000E+00 0.  1.
         -4    1    4    4    0  501  0.10844413549E+03  0.29427798185E+03  0.19831249999E+03  0.37106267500E+03  0.00000000000E+00 0. -1.
</event>
<event>
 8    1  0.7096247E-006  0.1928055E+04  0.7818608E-02  0.8198330E-01
          2   -1    0    0  502    0  0.00000000000E+00  0.00000000000E+00  0.32427967408E+04  0.32427967408E+04  0.00000000000E+00 0. -1.
         -2   -1    0    0    0  501 -0.00000000000E+00 -0.00000000000E+00 -0.11515158228E+04  0.11515158228E+04  0.00000000000E+00 0.  1.
    9000010    2    1    2  502    0  0.81542230759E+02 -0.16415560675E+04  0.11897250709E+04  0.22610335996E+04  0.99773329911E+03 0.  0.
   -9000010    2    1    2    0  501 -0.81542230759E+02  0.16415560675E+04  0.90155584709E+03  0.21332789641E+04  0.10181948414E+04 0.  0.
        -13    1    3    3    0    0  0.52163906216E+03 -0.10860970614E+04  0.85417939726E+03  0.14769348638E+04  0.10566000000E+00 0.  1.
         13    1    4    4    0    0 -0.26248815287E+03  0.56895294312E+02  0.35944988852E+03  0.44871075141E+03  0.10566000000E+00 0. -1.
          4    1    3    3  502    0 -0.44009683140E+03 -0.55545900608E+03  0.33554567365E+03  0.78409873584E+03  0.00000000000E+00 0.  1.
         -4    1    4    4    0  501  0.18094592211E+03  0.15846607732E+04  0.54210595857E+03  0.16845682126E+04  0.00000000000E+00 0. -1.
</event>
<event>
 8    1  0.7096247E-006  0.1211331E+04  0.7818608E-02  0.8598078E-01
          1   -1    0    0  502    0  0.00000000000E+00  0.00000000000E+00  0.22013080109E+04  0.22013080109E+04  0.00000000000E+00 0.  1.
         -1   -1    0    0    0  501 -0.00000000000E+00 -0.00000000000E+00 -0.68473475990E+03  0.68473475990E+03  0.00000000000E+00 0. -1.
    9000010    2    1    2  502    0  0.23290576769E+02 -0.68762358055E+03  0.99391439757E+03  0.15676540048E+04  0.99815059459E+03 0.  0.
   -9000010    2    1    2    0  501 -0.23290576769E+02  0.68762358055E+03  0.52265885348E+03  0.13183887661E+04  0.99579517066E+03 0.  0.
        -13    1    3    3    0    0 -0.21162663649E+03 -0.88213889648E+03  0.75399050478E+03  0.11796001689E+04  0.10566000000E+00 0.  1.
         13    1    4    4    0    0  0.42234049416E+00  0.78999816721E+03  0.73653948164E+03  0.10800868955E+04  0.10566000000E+00 0. -1.
          4    1    3    3  502    0  0.23491721326E+03  0.19451531593E+03  0.23992389279E+03  0.38805383589E+03  0.00000000000E+00 0.  1.
         -4    1    4    4    0  501 -0.23712917263E+02 -0.10237458666E+03 -0.21388062816E+03  0.23830187062E+03  0.00000000000E+00 0. -1.
</event>
<event>
 8    1  0.7096247E-006  0.1311841E+04  0.7818608E-02  0.8526789E-01
         -2   -1    0    0    0  501 -0.00000000000E+00  0.00000000000E+00  0.10173908603E+04  0.10173908603E+04  0.00000000000E+00 0.  1.
          2   -1    0    0  502    0  0.00000000000E+00 -0.00000000000E+00 -0.19409303425E+04  0.19409303425E+04  0.00000000000E+00 0. -1.
    9000010    2    1    2  502    0 -0.41045748409E+03 -0.76026766879E+03  0.72187685463E+02  0.13011830146E+04  0.97024940151E+03 0.  0.
   -9000010    2    1    2    0  501  0.41045748409E+03  0.76026766879E+03 -0.99572716764E+03  0.16571381883E+04  0.10040677807E+04 0.  0.
        -13    1    3    3    0    0 -0.22686442933E+03  0.20774264995E+03 -0.37245761647E+02  0.30985760573E+03  0.10566000000E+00 0.  1.
         13    1    4    4    0    0  0.25542192936E+03  0.57397265210E+02  0.15175667466E+03  0.30259693905E+03  0.10566000000E+00 0. -1.
          4    1    3    3  502    0 -0.18359305477E+03 -0.96801031875E+03  0.10943344711E+03  0.99132540889E+03  0.00000000000E+00 0.  1.
         -4    1    4    4    0  501  0.15503555473E+03  0.70287040358E+03 -0.11474838423E+04  0.13545412492E+04  0.00000000000E+00 0. -1.
</event>
<event>
 8    1  0.7096247E-006  0.1203292E+04  0.7818608E-02  0.8604087E-01
         -2   -1    0    0    0  501 -0.00000000000E+00  0.00000000000E+00  0.42588610074E+04  0.42588610074E+04  0.00000000000E+00 0. -1.
          2   -1    0    0  502    0  0.00000000000E+00 -0.00000000000E+00 -0.34523569831E+03  0.34523569831E+03  0.00000000000E+00 0.  1.
    9000010    2    1    2  502    0 -0.64223038362E+03  0.10887128088E+03  0.22570489024E+04  0.25627476851E+04  0.10242524729E+04 0.  0.
   -9000010    2    1    2    0  501  0.64223038362E+03 -0.10887128088E+03  0.16565764067E+04  0.20413490207E+04  0.99927354181E+03 0.  0.
        -13    1    3    3    0    0 -0.73218660113E+03  0.18792113901E+03  0.79946509537E+03  0.11002527088E+04  0.10566000000E+00 0.  1.
         13    1    4    4    0    0 -0.16745958818E+03 -0.29905543640E+03  0.33125399731E+03  0.47666139933E+03  0.10566000000E+00 0. -1.
          4    1    3    3  502    0  0.89956217517E+02 -0.79049858127E+02  0.14575838070E+04  0.14624949763E+04  0.00000000000E+00 0.  1.
         -4    1    4    4    0  501  0.80968997179E+03  0.19018415552E+03  0.13253224094E+04  0.15646876213E+04  0.00000000000E+00 0. -1.
</event>
<event>
 8    1  0.7096247E-006  0.1111482E+04  0.7818608E-02  0.8676377E-01
          1   -1    0    0  502    0  0.00000000000E+00  0.00000000000E+00  0.28198509185E+04  0.28198509185E+04  0.00000000000E+00 0. -1.
         -1   -1    0    0    0  501 -0.00000000000E+00 -0.00000000000E+00 -0.47081272614E+03  0.47081272614E+03  0.00000000000E+00 0.  1.
    9000010    2    1    2  502    0  0.18473010826E+03  0.33086629282E+03  0.81158218823E+03  0.14281557584E+04  0.11123693206E+04 0.  0.
   -9000010    2    1    2    0  501 -0.18473010826E+03 -0.33086629282E+03  0.15374560041E+04  0.18625078862E+04  0.98059519941E+03 0.  0.
        -13    1    3    3    0    0  0.63951974226E+03  0.15616931807E+03  0.62106916894E+03  0.90504214290E+03  0.10566000000E+00 0.  1.
         13    1    4    4    0    0 -0.28820341436E+03 -0.29309183490E+03  0.16527218788E+04  0.17030718281E+04  0.10566000000E+00 0. -1.
          4    1    3    3  502    0 -0.45478963401E+03  0.17469697475E+03  0.19051301929E+03  0.52311361549E+03  0.00000000000E+00 0.  1.
         -4    1    4    4    0  501  0.10347330611E+03 -0.37774457918E+02 -0.11526587474E+03  0.15943605812E+03  0.00000000000E+00 0. -1.
</event>
<event>
 8    1  0.7096247E-006  0.1409737E+04  0.7818608E-02  0.8463417E-01
         -4   -1    0    0    0  501 -0.00000000000E+00  0.00000000000E+00  0.28251703209E+04  0.28251703209E+04  0.00000000000E+00 0. -1.
          4   -1    0    0  502    0  0.00000000000E+00 -0.00000000000E+00 -0.89035174640E+03  0.89035174640E+03  0.00000000000E+00 0.  1.
    9000010    2    1    2  502    0  0.93100222940E+03 -0.36350064148E+03  0.11594701019E+03  0.14139682292E+04  0.99346090844E+03 0.  0.
   -9000010    2    1    2    0  501 -0.93100222940E+03  0.36350064148E+03  0.18188715644E+04  0.23015538381E+04  0.99496654947E+03 0.  0.
        -13    1    3    3    0    0 -0.11313013812E+03 -0.27302652519E+03 -0.15182877301E+03  0.33225577359E+03  0.10566000000E+00 0.  1.
         13    1    4    4    0    0 -0.10855770391E+04  0.12280086967E+03  0.16168569193E+04  0.19513543681E+04  0.10566000000E+00 0. -1.
          4    1    3    3  502    0  0.10441323675E+04 -0.90474116293E+02  0.26777578320E+03  0.10817124556E+04  0.00000000000E+00 0.  1.
         -4    1    4    4    0  501  0.15457480971E+03  0.24069977181E+03  0.20201464508E+03  0.35019946998E+03  0.00000000000E+00 0. -1.
</event>
<event>
 8    1  0.7096247E-006  0.1093810E+04  0.7818608E-02  0.8691126E-01
         -2   -1    0    0    0  501 -0.00000000000E+00  0.00000000000E+00  0.12342231565E+04  0.12342231565E+04  0.00000000000E+00 0. -1.
          2   -1    0    0  502    0  0.00000000000E+00 -0.00000000000E+00 -0.10268128497E+04  0.10268128497E+04  0.00000000000E+00 0.  1.
    9000010    2    1    2  502    0 -0.26089674565E+03  0.37749102353E+03  0.37106086867E+03  0.11546758443E+04  0.99248352751E+03 0.  0.
   -9000010    2    1    2    0  501  0.26089674565E+03 -0.37749102353E+03 -0.16365056188E+03  0.11063601619E+04  0.99332004743E+03 0.  0.
        -13    1    3    3    0    0  0.17305714577E+02  0.50286845439E+03 -0.17200195366E+03  0.53175262426E+03  0.10566000000E+00 0.  1.
         13    1    4    4    0    0  0.34862523103E+03 -0.78450145787E+02  0.35344715069E+03  0.50261205375E+03  0.10566000000E+00 0. -1.
          4    1    3    3  502    0 -0.27820246023E+03 -0.12537743086E+03  0.54306282233E+03  0.62292322003E+03  0.00000000000E+00 0.  1.
         -4    1    4    4    0  501 -0.87728485371E+02 -0.29904087774E+03 -0.51709771257E+03  0.60374810811E+03  0.00000000000E+00 0. -1.
</event>
<event>
 8    1  0.7096247E-006  0.1376551E+04  0.7818608E-02  0.8484291E-01
          1   -1    0    0  502    0  0.00000000000E+00  0.00000000000E+00  0.19593898330E+04  0.19593898330E+04  0.00000000000E+00 0. -1.
         -1   -1    0    0    0  501 -0.00000000000E+00 -0.00000000000E+00 -0.10418453496E+04  0.10418453496E+04  0.00000000000E+00 0.  1.
    9000010    2    1    2  502    0  0.71353234590E+03 -0.64616456521E+03  0.56733183431E+02  0.13775459690E+04  0.98374650624E+03 0.  0.
   -9000010    2    1    2    0  501 -0.71353234590E+03  0.64616456521E+03  0.86081129991E+03  0.16236892136E+04  0.98423244937E+03 0.  0.
        -13    1    3    3    0    0  0.37266151834E+03  0.16625329505E+03  0.24591062884E+03  0.47643343072E+03  0.10566000000E+00 0.  1.
         13    1    4    4    0    0 -0.78637474838E+03  0.28741588876E+03  0.18855115067E+03  0.85822181607E+03  0.10566000000E+00 0. -1.
          4    1    3    3  502    0  0.34087082757E+03 -0.81241786025E+03 -0.18917744541E+03  0.90111253825E+03  0.00000000000E+00 0.  1.
         -4    1    4    4    0  501  0.72842402474E+02  0.35874867644E+03  0.67226014924E+03  0.76546739755E+03  0.00000000000E+00 0. -1.
</event>
<event>
 8    1  0.7096247E-006  0.1256613E+04  0.7818608E-02  0.8565108E-01
         -2   -1    0    0    0  501 -0.00000000000E+00  0.00000000000E+00  0.73544390827E+03  0.73544390827E+03  0.00000000000E+00 0.  1.
          2   -1    0    0  502    0  0.00000000000E+00 -0.00000000000E+00 -0.23679288757E+04  0.23679288757E+04  0.00000000000E+00 0. -1.
    9000010    2    1    2  502    0 -0.58395823122E+03 -0.50103177306E+03 -0.12907253799E+04  0.18021555973E+04  0.99486317511E+03 0.  0.
   -9000010    2    1    2    0  501  0.58395823122E+03  0.50103177306E+03 -0.34175958749E+03  0.13012171866E+04  0.99213229848E+03 0.  0.
        -13    1    3    3    0    0 -0.31232304849E+03  0.92161980300E+02 -0.10619866672E+04  0.11107903536E+04  0.10566000000E+00 0.  1.
         13    1    4    4    0    0 -0.12874096469E+03 -0.90822826050E+02  0.17901002671E+03  0.23846933251E+03  0.10566000000E+00 0. -1.
          4    1    3    3  502    0 -0.27163518273E+03 -0.59319375336E+03 -0.22873871274E+03  0.69136524372E+03  0.00000000000E+00 0.  1.
         -4    1    4    4    0  501  0.71269919591E+03  0.59185459911E+03 -0.52076961420E+03  0.10627478541E+04  0.00000000000E+00 0. -1.
</event>
<event>
 8    1  0.7096247E-006  0.1082295E+04  0.7818608E-02  0.8700894E-01
         -2   -1    0    0    0  501 -0.00000000000E+00  0.00000000000E+00  0.15710849537E+04  0.15710849537E+04  0.00000000000E+00 0. -1.
          2   -1    0    0  502    0  0.00000000000E+00 -0.00000000000E+00 -0.77347466341E+03  0.77347466341E+03  0.00000000000E+00 0.  1.
    9000010    2    1    2  502    0 -0.40236164410E+03 -0.55333528732E+02  0.62474883701E+03  0.12584222933E+04  0.10140803060E+04 0.  0.
   -9000010    2    1    2    0  501  0.40236164410E+03  0.55333528732E+02  0.17286145325E+03  0.10861373237E+04  0.99239937120E+03 0.  0.
        -13    1    3    3    0    0  0.66695352123E+02 -0.57135117801E+02 -0.25047752618E+03  0.26542737983E+03  0.10566000000E+00 0.  1.
         13    1    4    4    0    0  0.68596086272E+03  0.24769707703E+03  0.12951541196E+03  0.74072289033E+03  0.10566000000E+00 0. -1.
          4    1    3    3  502    0 -0.46905699622E+03  0.18015890688E+01  0.87522636319E+03  0.99299491350E+03  0.00000000000E+00 0.  1.
         -4    1    4    4    0  501 -0.28359921862E+03 -0.19236354830E+03  0.43346041294E+02  0.34541443342E+03  0.00000000000E+00 0. -1.
</event>
<event>
 8    1  0.7096247E-006  0.1229041E+04  0.7818608E-02  0.8585009E-01
         -2   -1    0    0    0  501 -0.00000000000E+00  0.00000000000E+00  0.88501901168E+03  0.88501901168E+03  0.00000000000E+00 0.  1.
          2   -1    0    0  502    0  0.00000000000E+00 -0.00000000000E+00 -0.18278855091E+04  0.18278855091E+04  0.00000000000E+00 0. -1.
    9000010    2    1    2  502    0  0.32571023998E+03  0.65584068628E+03 -0.81832113429E+03  0.14714913506E+04  0.97950148033E+03 0.  0.
   -9000010    2    1    2    0  501 -0.32571023998E+03 -0.65584068628E+03 -0.12454536314E+03  0.12414131702E+04  0.99467630178E+03 0.  0.
        -13    1    3    3    0    0 -0.13061494387E+02  0.48035198081E+03  0.87653885544E+02  0.48845863993E+03  0.10566000000E+00 0.  1.
         13    1    4    4    0    0 -0.52490013827E+03 -0.78256196344E+03  0.56370917108E+02  0.94398150048E+03  0.10566000000E+00 0. -1.
          4    1    3    3  502    0  0.33877173437E+03  0.17548870547E+03 -0.90597501984E+03  0.98303271071E+03  0.00000000000E+00 0.  1.
         -4    1    4    4    0  501  0.19918989829E+03  0.12672127716E+03 -0.18091628025E+03  0.29743166967E+03  0.00000000000E+00 0. -1.
</event>
<event>
 8    1  0.7096247E-006  0.1049517E+04  0.7818608E-02  0.8729408E-01
          2   -1    0    0  502    0  0.00000000000E+00  0.00000000000E+00  0.15283325807E+04  0.15283325807E+04  0.00000000000E+00 0.  1.
         -2   -1    0    0    0  501 -0.00000000000E+00 -0.00000000000E+00 -0.92974122802E+03  0.92974122802E+03  0.00000000000E+00 0. -1.
    9000010    2    1    2  502    0 -0.14269574045E+03  0.34937673548E+03  0.88762028122E+03  0.13975845784E+04  0.10114082817E+04 0.  0.
   -9000010    2    1    2    0  501  0.14269574045E+03 -0.34937673548E+03 -0.28902892855E+03  0.10604892304E+04  0.94798391788E+03 0.  0.
        -13    1    3    3    0    0 -0.33844383071E+03  0.47056682996E+03  0.11440003858E+03  0.59081701736E+03  0.10566000000E+00 0.  1.
         13    1    4    4    0    0 -0.22479394226E+03 -0.44688760271E+03  0.10693285173E+03  0.51154226793E+03  0.10566000000E+00 0. -1.
          4    1    3    3  502    0  0.19574809026E+03 -0.12119009448E+03  0.77322024264E+03  0.80676756100E+03  0.00000000000E+00 0.  1.
         -4    1    4    4    0  501  0.36748968271E+03  0.97510867234E+02 -0.39596178027E+03  0.54894696244E+03  0.00000000000E+00 0. -1.
</event>
<event>
 8    1  0.7096247E-006  0.1303204E+04  0.7818608E-02  0.8532652E-01
          2   -1    0    0  502    0  0.00000000000E+00  0.00000000000E+00  0.19118927180E+04  0.19118927180E+04  0.00000000000E+00 0.  1.
         -2   -1    0    0    0  501 -0.00000000000E+00 -0.00000000000E+00 -0.10795333700E+04  0.10795333700E+04  0.00000000000E+00 0. -1.
    9000010    2    1    2  502    0  0.49892800421E+03  0.67149795262E+03 -0.21258114314E+03  0.13232421709E+04  0.10029658253E+04 0.  0.
   -9000010    2    1    2    0  501 -0.49892800421E+03 -0.67149795262E+03  0.10449404911E+04  0.16681839171E+04  0.99553919939E+03 0.  0.
        -13    1    3    3    0    0  0.54533927778E+02 -0.17332447517E+03 -0.31452813021E+03  0.36323997416E+03  0.10566000000E+00 0.  1.
         13    1    4    4    0    0 -0.48189010299E+03 -0.10839513770E+02  0.85338773388E+03  0.98010519941E+03  0.10566000000E+00 0. -1.
          4    1    3    3  502    0  0.44439407644E+03  0.84482242778E+03  0.10194698707E+03  0.96000219678E+03  0.00000000000E+00 0.  1.
         -4    1    4    4    0  501 -0.17037901223E+02 -0.66065843885E+03  0.19155275719E+03  0.68807871765E+03  0.00000000000E+00 0. -1.
</event>
<event>
 8    1  0.7096247E-006  0.1046039E+04  0.7818608E-02  0.8732496E-01
         -2   -1    0    0    0  501 -0.00000000000E+00  0.00000000000E+00  0.58620260032E+03  0.58620260032E+03  0.00000000000E+00 0.  1.
          2   -1    0    0  502    0  0.00000000000E+00 -0.00000000000E+00 -0.24661418191E+04  0.24661418191E+04  0.00000000000E+00 0. -1.
    9000010    2    1    2  502    0  0.26943592784E+03 -0.45277065508E+02 -0.16957537982E+04  0.19949962550E+04  0.10147824306E+04 0.  0.
   -9000010    2    1    2    0  501 -0.26943592784E+03  0.45277065508E+02 -0.18418542053E+03  0.10573481644E+04  0.10046965411E+04 0.  0.
        -13    1    3    3    0    0 -0.10912562351E+03  0.42283366919E+03 -0.86571221720E+03  0.96961557727E+03  0.10566000000E+00 0.  1.
         13    1    4    4    0    0 -0.71963439730E+02 -0.40521568216E+03  0.17609023451E+03  0.44764524747E+03  0.10566000000E+00 0. -1.
          4    1    3    3  502    0  0.37856155135E+03 -0.46811073470E+03 -0.83004158104E+03  0.10253806778E+04  0.00000000000E+00 0.  1.
         -4    1    4    4    0  501 -0.19747248811E+03  0.45049274767E+03 -0.36027565504E+03  0.60970291690E+03  0.00000000000E+00 0. -1.
</event>
<event>
 8    1  0.7096247E-006  0.1191284E+04  0.7818608E-02  0.8613155E-01
          2   -1    0    0  502    0  0.00000000000E+00  0.00000000000E+00  0.17902450939E+04  0.17902450939E+04  0.00000000000E+00 0. -1.
         -2   -1    0    0    0  501 -0.00000000000E+00 -0.00000000000E+00 -0.90509597086E+03  0.90509597086E+03  0.00000000000E+00 0.  1.
    9000010    2    1    2  502    0  0.50730060749E+03 -0.38330476053E+03 -0.32449948416E+02  0.11912638993E+04  0.10068665417E+04 0.  0.
   -9000010    2    1    2    0  501 -0.50730060749E+03  0.38330476053E+03  0.91759907144E+03  0.15040771655E+04  0.10079601272E+04 0.  0.
        -13    1    3    3    0    0  0.39230203876E+03  0.22504730961E+03 -0.27160043479E+03  0.52755472562E+03  0.10566000000E+00 0.  1.
         13    1    4    4    0    0 -0.39095382786E+03  0.35242450683E+03 -0.50272468420E+02  0.52874876905E+03  0.10566000000E+00 0. -1.
          4    1    3    3  502    0  0.11499856873E+03 -0.60835207014E+03  0.23915048637E+03  0.66370917365E+03  0.00000000000E+00 0.  1.
         -4    1    4    4    0  501 -0.11634677964E+03  0.30880253704E+02  0.96787153986E+03  0.97532839642E+03  0.00000000000E+00 0. -1.
</event>
<event>
 8    1  0.7096247E-006  0.1354125E+04  0.7818608E-02  0.8498742E-01
          2   -1    0    0  502    0  0.00000000000E+00  0.00000000000E+00  0.90204571821E+03  0.90204571821E+03  0.00000000000E+00 0.  1.
         -2   -1    0    0    0  501 -0.00000000000E+00 -0.00000000000E+00 -0.20806643232E+04  0.20806643232E+04  0.00000000000E+00 0. -1.
    9000010    2    1    2  502    0 -0.48913002045E+03  0.78078158325E+03 -0.36487201561E+03  0.14064654088E+04  0.99807078939E+03 0.  0.
   -9000010    2    1    2    0  501  0.48913002045E+03 -0.78078158325E+03 -0.81374658942E+03  0.15762446327E+04  0.98665879238E+03 0.  0.
        -13    1    3    3    0    0 -0.33603349942E+03  0.84501215542E+02  0.27974933237E+03  0.44532984212E+03  0.10566000000E+00 0.  1.
         13    1    4    4    0    0 -0.23027837573E+03 -0.71093625445E+02  0.50848177863E+02  0.24630871333E+03  0.10566000000E+00 0. -1.
          4    1    3    3  502    0 -0.15309652103E+03  0.69628036771E+03 -0.64462134798E+03  0.96113556665E+03  0.00000000000E+00 0.  1.
         -4    1    4    4    0  501  0.71940839618E+03 -0.70968795781E+03 -0.86459476728E+03  0.13299359193E+04  0.00000000000E+00 0. -1.
</event>
<event>
 8    1  0.7096247E-006  0.1677800E+04  0.7818608E-02  0.8313932E-01
         -4   -1    0    0    0  501 -0.00000000000E+00  0.00000000000E+00  0.25495604596E+04  0.25495604596E+04  0.00000000000E+00 0. -1.
          4   -1    0    0  502    0  0.00000000000E+00 -0.00000000000E+00 -0.13601148624E+04  0.13601148624E+04  0.00000000000E+00 0.  1.
    9000010    2    1    2  502    0  0.73339770608E+03 -0.11249876362E+04 -0.25246976928E+03  0.16997481777E+04  0.10109072689E+04 0.  0.
   -9000010    2    1    2    0  501 -0.73339770608E+03  0.11249876362E+04  0.14419153665E+04  0.22099271443E+04  0.10005941646E+04 0.  0.
        -13    1    3    3    0    0  0.83357299810E+03 -0.76364300127E+03  0.16063616237E+03  0.11418399907E+04  0.10566000000E+00 0.  1.
         13    1    4    4    0    0  0.19253639477E+03  0.52106149113E+03  0.35272600436E+03  0.65802050588E+03  0.10566000000E+00 0. -1.
          4    1    3    3  502    0 -0.10017529202E+03 -0.36134463496E+03 -0.41310593165E+03  0.55790818699E+03  0.00000000000E+00 0.  1.
         -4    1    4    4    0  501 -0.92593410085E+03  0.60392614510E+03  0.10891893621E+04  0.15519066384E+04  0.00000000000E+00 0. -1.
</event>
<event>
 8    1  0.7096247E-006  0.1346100E+04  0.7818608E-02  0.8503983E-01
          2   -1    0    0  502    0  0.00000000000E+00  0.00000000000E+00  0.17896029655E+04  0.17896029655E+04  0.00000000000E+00 0. -1.
         -2   -1    0    0    0  501 -0.00000000000E+00 -0.00000000000E+00 -0.10503033851E+04  0.10503033851E+04  0.00000000000E+00 0.  1.
    9000010    2    1    2  502    0 -0.65091803957E+03  0.62691692201E+03  0.63918876655E+03  0.14907451532E+04  0.99851875859E+03 0.  0.
   -9000010    2    1    2    0  501  0.65091803957E+03 -0.62691692201E+03  0.10011081387E+03  0.13491611973E+04  0.99674201276E+03 0.  0.
        -13    1    3    3    0    0  0.10749991535E+03  0.56393933983E+03  0.37244252673E+03  0.68432248077E+03  0.10566000000E+00 0.  1.
         13    1    4    4    0    0  0.33086563229E+03 -0.11470859885E+03  0.51041680427E+03  0.61899552060E+03  0.10566000000E+00 0. -1.
          4    1    3    3  502    0 -0.75841795492E+03  0.62977582183E+02  0.26674623982E+03  0.80642267246E+03  0.00000000000E+00 0.  1.
         -4    1    4    4    0  501  0.32005240727E+03 -0.51220832317E+03 -0.41030599040E+03  0.73016567673E+03  0.00000000000E+00 0. -1.
</event>
<event>
 8    1  0.7096247E-006  0.1459077E+04  0.7818608E-02  0.8433448E-01
         -2   -1    0    0    0  501 -0.00000000000E+00  0.00000000000E+00  0.88473033862E+03  0.88473033862E+03  0.00000000000E+00 0.  1.
          2   -1    0    0  502    0  0.00000000000E+00 -0.00000000000E+00 -0.24077397468E+04  0.24077397468E+04  0.00000000000E+00 0. -1.
    9000010    2    1    2  502    0 -0.50640135384E+03 -0.97409204249E+03 -0.80423965355E+03  0.16873423192E+04  0.99750942024E+03 0.  0.
   -9000010    2    1    2    0  501  0.50640135384E+03  0.97409204249E+03 -0.71876975465E+03  0.16051277662E+04  0.92439577415E+03 0.  0.
        -13    1    3    3    0    0  0.24257329926E+03 -0.54055746842E+03 -0.17642346425E+03  0.61819853775E+03  0.10566000000E+00 0.  1.
         13    1    4    4    0    0  0.61043143017E+03  0.25487968608E+03 -0.54708798343E+03  0.85842615180E+03  0.10566000000E+00 0. -1.
          4    1    3    3  502    0 -0.74897465310E+03 -0.43353457407E+03 -0.62781618930E+03  0.10691437815E+04  0.00000000000E+00 0.  1.
         -4    1    4    4    0  501 -0.10403007634E+03  0.71921235641E+03 -0.17168177122E+03  0.74670161441E+03  0.00000000000E+00 0. -1.
</event>
<event>
 8    1  0.7096247E-006  0.1495402E+04  0.7818608E-02  0.8412150E-01
         -1   -1    0    0    0  501 -0.00000000000E+00  0.00000000000E+00  0.33046006039E+04  0.33046006039E+04  0.00000000000E+00 0.  1.
          1   -1    0    0  502    0  0.00000000000E+00 -0.00000000000E+00 -0.69126383600E+03  0.69126383600E+03  0.00000000000E+00 0. -1.
    9000010    2    1    2  502    0  0.11233979529E+03 -0.11061128337E+04  0.10461277906E+04  0.18507097604E+04  0.10462492211E+04 0.  0.
   -9000010    2    1    2    0  501 -0.11233979529E+03  0.11061128337E+04  0.15672089774E+04  0.21451546795E+04  0.95364500191E+03 0.  0.
        -13    1    3    3    0    0 -0.39807481065E+03 -0.54908562125E+03  0.81574894781E+03  0.10608510411E+04  0.10566000000E+00 0.  1.
         13    1    4    4    0    0 -0.20235404404E+03  0.83599587192E+03  0.40893387276E+03  0.95239864577E+03  0.10566000000E+00 0. -1.
          4    1    3    3  502    0  0.51041460594E+03 -0.55702721246E+03  0.23037884275E+03  0.78985871937E+03  0.00000000000E+00 0.  1.
         -4    1    4    4    0  501  0.90014248749E+02  0.27011696179E+03  0.11582751046E+04  0.11927560337E+04  0.00000000000E+00 0. -1.
</event>
<event>
 8    1  0.7096247E-006  0.1200013E+04  0.7818608E-02  0.8606553E-01
          1   -1    0    0  502    0  0.00000000000E+00  0.00000000000E+00  0.21476848092E+04  0.21476848092E+04  0.00000000000E+00 0. -1.
         -1   -1    0    0    0  501 -0.00000000000E+00 -0.00000000000E+00 -0.67941154801E+03  0.67941154801E+03  0.00000000000E+00 0.  1.
    9000010    2    1    2  502    0 -0.11808169512E+03 -0.64214860632E+03  0.57183561323E+03  0.13286280280E+04  0.10059614053E+04 0.  0.
   -9000010    2    1    2    0  501  0.11808169512E+03  0.64214860632E+03  0.89643764797E+03  0.14984683292E+04  0.10077245445E+04 0.  0.
        -13    1    3    3    0    0  0.37540824319E+03 -0.83463139262E+02 -0.73390681429E+01  0.38464440430E+03  0.10566000000E+00 0.  1.
         13    1    4    4    0    0  0.37654577071E+03 -0.12056679962E+03  0.28836308024E+03  0.48936320644E+03  0.10566000000E+00 0. -1.
          4    1    3    3  502    0 -0.49348993832E+03 -0.55868546706E+03  0.57917468137E+03  0.94398362372E+03  0.00000000000E+00 0.  1.
         -4    1    4    4    0  501 -0.25846407559E+03  0.76271540594E+03  0.60807456773E+03  0.10091051227E+04  0.00000000000E+00 0. -1.
</event>
<event>
 7    1  0.7096247E-006  0.1860196E+04  0.7818608E-02  0.8227816E-01
          2   -1    0    0  502    0  0.00000000000E+00  0.00000000000E+00  0.17423845626E+04  0.17423845626E+04  0.00000000000E+00 0.  1.
         -2   -1    0    0    0  501 -0.00000000000E+00 -0.00000000000E+00 -0.23742249992E+04  0.23742249992E+04  0.00000000000E+00 0. -1.
   -9000010    2    1    2    0  501  0.29151970876E+03  0.63255777688E+03 -0.14897352568E+03  0.12212056835E+04  0.99198645575E+03 0.  0.
        -13    1    1    2    0    0  0.11747208404E+04 -0.59517021078E+03 -0.55005184774E+03  0.14271487936E+04  0.10566000000E+00 0.  1.
         13    1    3    3    0    0  0.59324545743E+03  0.53828166203E+03 -0.31904110144E+03  0.86224970630E+03  0.10566000000E+00 0. -1.
          4    1    1    2  502    0 -0.14662405491E+04 -0.37387566095E+02  0.67184936826E+02  0.14682550847E+04  0.00000000000E+00 0.  1.
         -4    1    3    3    0  501 -0.30172574868E+03  0.94276114845E+02  0.17006757576E+03  0.35895597720E+03  0.00000000000E+00 0. -1.
</event>
<event>
 8    1  0.7096247E-006  0.1247037E+04  0.7818608E-02  0.8571960E-01
          1   -1    0    0  502    0  0.00000000000E+00  0.00000000000E+00  0.16190794517E+04  0.16190794517E+04  0.00000000000E+00 0.  1.
         -1   -1    0    0    0  501 -0.00000000000E+00 -0.00000000000E+00 -0.97007432238E+03  0.97007432238E+03  0.00000000000E+00 0. -1.
    9000010    2    1    2  502    0 -0.72657987017E+03 -0.20832295669E+03  0.19857479624E+03  0.12720494646E+04  0.10036738158E+04 0.  0.
   -9000010    2    1    2    0  501  0.72657987017E+03  0.20832295669E+03  0.45043033310E+03  0.13171043095E+04  0.98008138194E+03 0.  0.
        -13    1    3    3    0    0 -0.18962945396E+03 -0.36912910869E+03  0.48851623611E+03  0.64098654650E+03  0.10566000000E+00 0.  1.
         13    1    4    4    0    0  0.16124102980E+03  0.19081370290E+03 -0.29166931151E+03  0.38403064636E+03  0.10566000000E+00 0. -1.
          4    1    3    3  502    0 -0.53695041621E+03  0.16080615200E+03 -0.28994143987E+03  0.63106291805E+03  0.00000000000E+00 0.  1.
         -4    1    4    4    0  501  0.56533884037E+03  0.17509253792E+02  0.74209964461E+03  0.93307366318E+03  0.00000000000E+00 0. -1.
</event>
<event>
 8    1  0.7096247E-006  0.1405141E+04  0.7818608E-02  0.8466273E-01
         -2   -1    0    0    0  501 -0.00000000000E+00  0.00000000000E+00  0.13857355657E+04  0.13857355657E+04  0.00000000000E+00 0. -1.
          2   -1    0    0  502    0  0.00000000000E+00 -0.00000000000E+00 -0.19125468791E+04  0.19125468791E+04  0.00000000000E+00 0.  1.
    9000010    2    1    2  502    0  0.63074759397E+03  0.76450529122E+03 -0.10962492777E+04  0.17824241100E+04  0.99647496786E+03 0.  0.
   -9000010    2    1    2    0  501 -0.63074759397E+03 -0.76450529122E+03  0.56943796426E+03  0.15158583348E+04  0.99561841505E+03 0.  0.
        -13    1    3    3    0    0  0.52645356742E+03  0.60426040677E+03 -0.14785702345E+03  0.81495135339E+03  0.10566000000E+00 0.  1.
         13    1    4    4    0    0  0.23507338500E+03 -0.73763896460E+02 -0.43178328289E+02  0.25012994213E+03  0.10566000000E+00 0. -1.
          4    1    3    3  502    0  0.10429402655E+03  0.16024488444E+03 -0.94839225420E+03  0.96747275662E+03  0.00000000000E+00 0.  1.
         -4    1    4    4    0  501 -0.86582097897E+03 -0.69074139476E+03  0.61261629255E+03  0.12657283926E+04  0.00000000000E+00 0. -1.
</event>
<event>
 8    1  0.7096247E-006  0.1084920E+04  0.7818608E-02  0.8698656E-01
         -1   -1    0    0    0  501 -0.00000000000E+00  0.00000000000E+00  0.15129528119E+04  0.15129528119E+04  0.00000000000E+00 0.  1.
          1   -1    0    0  502    0  0.00000000000E+00 -0.00000000000E+00 -0.11443196026E+04  0.11443196026E+04  0.00000000000E+00 0. -1.
    9000010    2    1    2  502    0  0.25080041882E+03 -0.37298814666E+03 -0.56774739295E+03  0.12220280674E+04  0.98437517631E+03 0.  0.
   -9000010    2    1    2    0  501 -0.25080041882E+03  0.37298814666E+03  0.93638060220E+03  0.14352443470E+04  0.99050325386E+03 0.  0.
        -13    1    3    3    0    0 -0.24882584931E+03 -0.20870456514E+03  0.12866909001E+03  0.34932455494E+03  0.10566000000E+00 0.  1.
         13    1    4    4    0    0 -0.27617392520E+03  0.32533165194E+02 -0.13619622815E+03  0.30964474406E+03  0.10566000000E+00 0. -1.
          4    1    3    3  502    0  0.49962626813E+03 -0.16428358152E+03 -0.69641648296E+03  0.87270351249E+03  0.00000000000E+00 0.  1.
         -4    1    4    4    0  501  0.25373506374E+02  0.34045498147E+03  0.10725768303E+04  0.11255996030E+04  0.00000000000E+00 0. -1.
</event>
<event>
 8    1  0.7096247E-006  0.1371249E+04  0.7818608E-02  0.8487681E-01
          2   -1    0    0  502    0  0.00000000000E+00  0.00000000000E+00  0.12010232332E+04  0.12010232332E+04  0.00000000000E+00 0.  1.
         -2   -1    0    0    0  501 -0.00000000000E+00 -0.00000000000E+00 -0.15859971742E+04  0.15859971742E+04  0.00000000000E+00 0. -1.
    9000010    2    1    2  502    0  0.19120211273E+03  0.89647336424E+03 -0.35167888650E+03  0.14269407186E+04  0.10354994131E+04 0.  0.
   -9000010    2    1    2    0  501 -0.19120211273E+03 -0.89647336424E+03 -0.33295054471E+02  0.13600796887E+04  0.10042337668E+04 0.  0.
        -13    1    3    3    0    0  0.20741486405E+03  0.62824009241E+02 -0.53148032665E+03  0.57396788303E+03  0.10566000000E+00 0.  1.
         13    1    4    4    0    0  0.25592734134E+03 -0.35917410264E+02  0.23982599473E+03  0.35256968576E+03  0.10566000000E+00 0. -1.
          4    1    3    3  502    0 -0.16212751325E+02  0.83364935499E+03  0.17980144014E+03  0.85297283560E+03  0.00000000000E+00 0.  1.
         -4    1    4    4    0  501 -0.44712945407E+03 -0.86055595397E+03 -0.27312104920E+03  0.10075100030E+04  0.00000000000E+00 0. -1.
</event>
<event>
 8    1  0.7096247E-006  0.1400200E+04  0.7818608E-02  0.8469355E-01
         -2   -1    0    0    0  501 -0.00000000000E+00  0.00000000000E+00  0.78031456897E+03  0.78031456897E+03  0.00000000000E+00 0. -1.
          2   -1    0    0  502    0  0.00000000000E+00 -0.00000000000E+00 -0.25163206939E+04  0.25163206939E+04  0.00000000000E+00 0.  1.
    9000010    2    1    2  502    0 -0.97025681118E+03  0.17192885883E+03 -0.80325884410E+03  0.16131863019E+04  0.99306971656E+03 0.  0.
   -9000010    2    1    2    0  501  0.97025681118E+03 -0.17192885883E+03 -0.93274728083E+03  0.16834489610E+04  0.99650644860E+03 0.  0.
        -13    1    3    3    0    0  0.62310082375E+02  0.22930106808E+03 -0.47000864665E+03  0.52665896487E+03  0.10566000000E+00 0.  1.
         13    1    4    4    0    0  0.19526291834E+03 -0.30511721077E+03  0.10894413899E+03  0.37827629608E+03  0.10566000000E+00 0. -1.
          4    1    3    3  502    0 -0.10325668936E+04 -0.57372209242E+02 -0.33325019744E+03  0.10865273370E+04  0.00000000000E+00 0.  1.
         -4    1    4    4    0  501  0.77499389284E+03  0.13318835194E+03 -0.10416914198E+04  0.13051726649E+04  0.00000000000E+00 0. -1.
</event>
<event>
 8    1  0.7096247E-006  0.1443960E+04  0.7818608E-02  0.8442499E-01
          2   -1    0    0  502    0  0.00000000000E+00  0.00000000000E+00  0.46437175801E+04  0.46437175801E+04  0.00000000000E+00 0. -1.
         -2   -1    0    0    0  501 -0.00000000000E+00 -0.00000000000E+00 -0.45841700486E+03  0.45841700486E+03  0.00000000000E+00 0.  1.
    9000010    2    1    2  502    0 -0.74011152511E+02 -0.10294421600E+04  0.17167192743E+04  0.22385058830E+04  0.99927709377E+03 0.  0.
   -9000010    2    1    2    0  501  0.74011152511E+02  0.10294421600E+04  0.24685813010E+04  0.28636287020E+04  0.10204150586E+04 0.  0.
        -13    1    3    3    0    0  0.16936853522E+02 -0.11610265476E+04  0.17237894283E+04  0.20783934915E+04  0.10566000000E+00 0.  1.
         13    1    4    4    0    0 -0.40028505842E+03  0.51061762003E+03  0.17123402949E+04  0.18311383833E+04  0.10566000000E+00 0. -1.
          4    1    3    3  502    0 -0.90948006033E+02  0.13158438756E+03 -0.70701540010E+01  0.16011239155E+03  0.00000000000E+00 0.  1.
         -4    1    4    4    0  501  0.47429621093E+03  0.51882453997E+03  0.75624100604E+03  0.10324903187E+04  0.00000000000E+00 0. -1.
</event>
<event>
 8    1  0.7096247E-006  0.1134591E+04  0.7818608E-02  0.8657514E-01
          2   -1    0    0  502    0  0.00000000000E+00  0.00000000000E+00  0.31593868840E+04  0.31593868840E+04  0.00000000000E+00 0.  1.
         -2   -1    0    0    0  501 -0.00000000000E+00 -0.00000000000E+00 -0.45776373617E+03  0.45776373617E+03  0.00000000000E+00 0. -1.
    9000010    2    1    2  502    0  0.19798691722E+03 -0.51323198524E+03  0.19554834589E+04  0.22632401730E+04  0.99786503725E+03 0.  0.
   -9000010    2    1    2    0  501 -0.19798691722E+03  0.51323198524E+03  0.74613968892E+03  0.13539104472E+04  0.98678425883E+03 0.  0.
        -13    1    3    3    0    0 -0.10514270146E+02  0.21021635583E+03  0.11156661917E+04  0.11353468759E+04  0.10566000000E+00 0.  1.
         13    1    4    4    0    0 -0.12101837313E+01 -0.29634281465E+03  0.18295269199E+03  0.34827033610E+03  0.10566000000E+00 0. -1.
          4    1    3    3  502    0  0.20850118737E+03 -0.72344834107E+03  0.83981726714E+03  0.11278932970E+04  0.00000000000E+00 0.  1.
         -4    1    4    4    0  501 -0.19677673349E+03  0.80957479988E+03  0.56318699693E+03  0.10056401111E+04  0.00000000000E+00 0. -1.
</event>
<event>
 8    1  0.7096247E-006  0.1188346E+04  0.7818608E-02  0.8615390E-01
         -2   -1    0    0    0  501 -0.00000000000E+00  0.00000000000E+00  0.74069857685E+03  0.74069857685E+03  0.00000000000E+00 0. -1.
          2   -1    0    0  502    0  0.00000000000E+00 -0.00000000000E+00 -0.23015962399E+04  0.23015962399E+04  0.00000000000E+00 0.  1.
    9000010    2    1    2  502    0  0.53939815663E+03  0.37476112954E+03 -0.14140498080E+04  0.18511584292E+04  0.99792504481E+03 0.  0.
   -9000010    2    1    2    0  501 -0.53939815663E+03 -0.37476112954E+03 -0.14684785509E+03  0.11911363875E+04  0.98277430043E+03 0.  0.
        -13    1    3    3    0    0  0.79501808859E+03  0.21881524268E+03 -0.12811086596E+04  0.15235397207E+04  0.10566000000E+00 0.  1.
         13    1    4    4    0    0 -0.48631967623E+03 -0.68258905502E+03  0.17238994869E+02  0.83829102323E+03  0.10566000000E+00 0. -1.
          4    1    3    3  502    0 -0.25561993196E+03  0.15594588686E+03 -0.13294114831E+03  0.32761870849E+03  0.00000000000E+00 0.  1.
         -4    1    4    4    0  501 -0.53078480399E+02  0.30782792548E+03 -0.16408684996E+03  0.35284536431E+03  0.00000000000E+00 0. -1.
</event>
<event>
 8    1  0.7096247E-006  0.1065375E+04  0.7818608E-02  0.8715479E-01
          2   -1    0    0  502    0  0.00000000000E+00  0.00000000000E+00  0.20052836026E+04  0.20052836026E+04  0.00000000000E+00 0. -1.
         -2   -1    0    0    0  501 -0.00000000000E+00 -0.00000000000E+00 -0.59014331731E+03  0.59014331731E+03  0.00000000000E+00 0.  1.
    9000010    2    1    2  502    0  0.16911225844E+03  0.32239489302E+03  0.44753302777E+03  0.11589171834E+04  0.10051197959E+04 0.  0.
   -9000010    2    1    2    0  501 -0.16911225844E+03 -0.32239489302E+03  0.96760725749E+03  0.14365097364E+04  0.99737605501E+03 0.  0.
        -13    1    3    3    0    0  0.49347815101E+03 -0.11970787287E+03  0.12570718061E+03  0.52311850165E+03  0.10566000000E+00 0.  1.
         13    1    4    4    0    0  0.87852559784E+02  0.27273401586E+03  0.65892801267E+03  0.71853187314E+03  0.10566000000E+00 0. -1.
          4    1    3    3  502    0 -0.32436589257E+03  0.44210276589E+03  0.32182584716E+03  0.63579868179E+03  0.00000000000E+00 0.  1.
         -4    1    4    4    0  501 -0.25696481823E+03 -0.59512890888E+03  0.30867924483E+03  0.71797786330E+03  0.00000000000E+00 0. -1.
</event>
<event>
 8    1  0.7096247E-006  0.1184467E+04  0.7818608E-02  0.8618351E-01
         -2   -1    0    0    0  501 -0.00000000000E+00  0.00000000000E+00  0.10216101295E+04  0.10216101295E+04  0.00000000000E+00 0. -1.
          2   -1    0    0  502    0  0.00000000000E+00 -0.00000000000E+00 -0.19811988205E+04  0.19811988205E+04  0.00000000000E+00 0.  1.
    9000010    2    1    2  502    0  0.58887993883E+03  0.18849283992E+03 -0.13139117710E+04  0.17750140798E+04  0.10207848492E+04 0.  0.
   -9000010    2    1    2    0  501 -0.58887993883E+03 -0.18849283992E+03  0.35432308004E+03  0.12277948701E+04  0.99981311502E+03 0.  0.
        -13    1    3    3    0    0  0.44580896879E+03 -0.38833111739E+03 -0.55320998792E+03  0.80968388602E+03  0.10566000000E+00 0.  1.
         13    1    4    4    0    0 -0.19156247624E+03 -0.55511805638E+03  0.10953129383E+02  0.58734335872E+03  0.10566000000E+00 0. -1.
          4    1    3    3  502    0  0.14307097003E+03  0.57682395730E+03 -0.76070178313E+03  0.96533019379E+03  0.00000000000E+00 0.  1.
         -4    1    4    4    0  501 -0.39731746259E+03  0.36662521647E+03  0.34336995066E+03  0.64045151139E+03  0.00000000000E+00 0. -1.
</event>
<event>
 8    1  0.7096247E-006  0.1113435E+04  0.7818608E-02  0.8674764E-01
          2   -1    0    0  502    0  0.00000000000E+00  0.00000000000E+00  0.37145979930E+04  0.37145979930E+04  0.00000000000E+00 0. -1.
         -2   -1    0    0    0  501 -0.00000000000E+00 -0.00000000000E+00 -0.43475401438E+03  0.43475401438E+03  0.00000000000E+00 0.  1.
    9000010    2    1    2  502    0 -0.24628447597E+03 -0.42863857886E+03  0.63796634831E+03  0.12817557477E+04  0.99574578122E+03 0.  0.
   -9000010    2    1    2    0  501  0.24628447597E+03  0.42863857886E+03  0.26418776303E+04  0.28675962597E+04  0.99960183097E+03 0.  0.
        -13    1    3    3    0    0  0.86673072768E+02 -0.64740682173E+03  0.18575512260E+03  0.67908231541E+03  0.10566000000E+00 0.  1.
         13    1    4    4    0    0  0.55085328875E+03  0.28645086614E+03  0.89875171378E+03  0.10923589605E+04  0.10566000000E+00 0. -1.
          4    1    3    3  502    0 -0.33295754874E+03  0.21876824286E+03  0.45221122571E+03  0.60267343230E+03  0.00000000000E+00 0.  1.
         -4    1    4    4    0  501 -0.30456881279E+03  0.14218771273E+03  0.17431259165E+04  0.17752372991E+04  0.00000000000E+00 0. -1.
</event>
<event>
 8    1  0.7096247E-006  0.1530537E+04  0.7818608E-02  0.8392139E-01
          2   -1    0    0  502    0  0.00000000000E+00  0.00000000000E+00  0.17634886289E+04  0.17634886289E+04  0.00000000000E+00 0. -1.
         -2   -1    0    0    0  501 -0.00000000000E+00 -0.00000000000E+00 -0.13334963756E+04  0.13334963756E+04  0.00000000000E+00 0.  1.
    9000010    2    1    2  502    0  0.11441065556E+04  0.12407551500E+03  0.31094812747E+03  0.15606266347E+04  0.10072200410E+04 0.  0.
   -9000010    2    1    2    0  501 -0.11441065556E+04 -0.12407551500E+03  0.11904412579E+03  0.15363583698E+04  0.10108664562E+04 0.  0.
        -13    1    3    3    0    0  0.61021555179E+03 -0.41897017101E+03  0.30089804513E+03  0.79902357197E+03  0.10566000000E+00 0.  1.
         13    1    4    4    0    0 -0.81127221594E+03 -0.46136719700E+03  0.36542020228E+03  0.10022745304E+04  0.10566000000E+00 0. -1.
          4    1    3    3  502    0  0.53389100385E+03  0.54304568600E+03  0.10050082338E+02  0.76160306277E+03  0.00000000000E+00 0.  1.
         -4    1    4    4    0  501 -0.33283433969E+03  0.33729168200E+03 -0.24637607649E+03  0.53408383939E+03  0.00000000000E+00 0. -1.
</event>
<event>
 8    1  0.7096247E-006  0.1797925E+04  0.7818608E-02  0.8256031E-01
         -1   -1    0    0    0  501 -0.00000000000E+00  0.00000000000E+00  0.83463764560E+03  0.83463764560E+03  0.00000000000E+00 0. -1.
          1   -1    0    0  502    0  0.00000000000E+00 -0.00000000000E+00 -0.45720494667E+04  0.45720494667E+04  0.00000000000E+00 0.  1.
    9000010    2    1    2  502    0  0.11876300886E+03 -0.14886306327E+04 -0.81586303880E+03  0.19787368246E+04  0.10097728012E+04 0.  0.
   -9000010    2    1    2    0  501 -0.11876300886E+03  0.14886306327E+04 -0.29215487823E+04  0.34279502878E+04  0.99260771459E+03 0.  0.
        -13    1    3    3    0    0 -0.42661603190E+03 -0.91733166046E+03 -0.49401938874E+03  0.11258569099E+04  0.10566000000E+00 0.  1.
         13    1    4    4    0    0  0.70560348929E+01 -0.99008860342E+02  0.14090810674E+01  0.99270029355E+02  0.10566000000E+00 0. -1.
          4    1    3    3  502    0  0.54537904076E+03 -0.57129897221E+03 -0.32184365006E+03  0.85287991466E+03  0.00000000000E+00 0.  1.
         -4    1    4    4    0  501 -0.12581904375E+03  0.15876394930E+04 -0.29229578634E+04  0.33286802584E+04  0.00000000000E+00 0. -1.
</event>
<event>
 8    1  0.7096247E-006  0.1475161E+04  0.7818608E-02  0.8423939E-01
          2   -1    0    0  502    0  0.00000000000E+00  0.00000000000E+00  0.36273732949E+04  0.36273732949E+04  0.00000000000E+00 0. -1.
         -2   -1    0    0    0  501 -0.00000000000E+00 -0.00000000000E+00 -0.60686080354E+03  0.60686080354E+03  0.00000000000E+00 0.  1.
    9000010    2    1    2  502    0 -0.51601826707E+03  0.95746927612E+03  0.17329199630E+04  0.22733099438E+04  0.99091081124E+03 0.  0.
   -9000010    2    1    2    0  501  0.51601826707E+03 -0.95746927612E+03  0.12875925284E+04  0.19609241547E+04  0.10021510637E+04 0.  0.
        -13    1    3    3    0    0  0.15090399737E+03  0.65119293961E+03  0.11734688116E+04  0.13505011381E+04  0.10566000000E+00 0.  1.
         13    1    4    4    0    0 -0.90038098149E+02  0.15586111405E+03  0.44295560861E+02  0.18536896684E+03  0.10566000000E+00 0. -1.
          4    1    3    3  502    0 -0.66692226444E+03  0.30627633651E+03  0.55945115137E+03  0.92280880570E+03  0.00000000000E+00 0.  1.
         -4    1    4    4    0  501  0.60605636522E+03 -0.11133303902E+04  0.12432969676E+04  0.17755551878E+04  0.00000000000E+00 0. -1.
</event>
<event>
 8    1  0.7096247E-006  0.1860976E+04  0.7818608E-02  0.8227470E-01
         -2   -1    0    0    0  501 -0.00000000000E+00  0.00000000000E+00  0.10872237813E+04  0.10872237813E+04  0.00000000000E+00 0. -1.
          2   -1    0    0  502    0  0.00000000000E+00 -0.00000000000E+00 -0.31855989913E+04  0.31855989913E+04  0.00000000000E+00 0.  1.
    9000010    2    1    2  502    0  0.21158266824E+03 -0.15770794581E+04 -0.10552366424E+04  0.21524072786E+04  0.99367292344E+03 0.  0.
   -9000010    2    1    2    0  501 -0.21158266824E+03  0.15770794581E+04 -0.10431385677E+04  0.21204154940E+04  0.93598982527E+03 0.  0.
        -13    1    3    3    0    0 -0.16350395830E+02 -0.33344968349E+03  0.18469327985E+03  0.38153328249E+03  0.10566000000E+00 0.  1.
         13    1    4    4    0    0  0.75375475731E+02  0.15473772787E+04 -0.80243015457E+03  0.17446925429E+04  0.10566000000E+00 0. -1.
          4    1    3    3  502    0  0.22793306407E+03 -0.12436297747E+04 -0.12399299222E+04  0.17708739961E+04  0.00000000000E+00 0.  1.
         -4    1    4    4    0  501 -0.28695814397E+03  0.29702179421E+02 -0.24070841314E+03  0.37572295114E+03  0.00000000000E+00 0. -1.
</event>
<event>
 8    1  0.7096247E-006  0.1283855E+04  0.7818608E-02  0.8545958E-01
         -2   -1    0    0    0  501 -0.00000000000E+00  0.00000000000E+00  0.59459477557E+03  0.59459477557E+03  0.00000000000E+00 0. -1.
          2   -1    0    0  502    0  0.00000000000E+00 -0.00000000000E+00 -0.28484548681E+04  0.28484548681E+04  0.00000000000E+00 0.  1.
    9000010    2    1    2  502    0 -0.73605342122E+03 -0.35868639527E+03 -0.14112927985E+04  0.19099093206E+04  0.99276164333E+03 0.  0.
   -9000010    2    1    2    0  501  0.73605342122E+03  0.35868639527E+03 -0.84256729402E+03  0.15331403232E+04  0.98497159171E+03 0.  0.
        -13    1    3    3    0    0 -0.59450967556E+03  0.24274141761E+03 -0.52469489016E+03  0.82925863823E+03  0.10566000000E+00 0.  1.
         13    1    4    4    0    0  0.97250200188E+02 -0.32699831320E+03 -0.26857010863E+03  0.43418361633E+03  0.10566000000E+00 0. -1.
          4    1    3    3  502    0 -0.14154374566E+03 -0.60142781288E+03 -0.88659790839E+03  0.10806506823E+04  0.00000000000E+00 0.  1.
         -4    1    4    4    0  501  0.63880322103E+03  0.68568470848E+03 -0.57399718539E+03  0.10989567068E+04  0.00000000000E+00 0. -1.
</event>
<event>
 8    1  0.7096247E-006  0.1278629E+04  0.7818608E-02  0.8549594E-01
          1   -1    0    0  502    0  0.00000000000E+00  0.00000000000E+00  0.23338275839E+04  0.23338275839E+04  0.00000000000E+00 0. -1.
         -1   -1    0    0    0  501 -0.00000000000E+00 -0.00000000000E+00 -0.79821438705E+03  0.79821438705E+03  0.00000000000E+00 0.  1.
    9000010    2    1    2  502    0 -0.83742603775E+03 -0.21396314405E+03  0.13341377376E+04  0.18754648630E+04  0.99517955845E+03 0.  0.
   -9000010    2    1    2    0  501  0.83742603775E+03  0.21396314405E+03  0.20147545921E+03  0.12565771080E+04  0.88956791301E+03 0.  0.
        -13    1    3    3    0    0 -0.22005170254E+03 -0.14285659875E+03  0.12146066094E+04  0.12426181981E+04  0.10566000000E+00 0.  1.
         13    1    4    4    0    0  0.43657959756E+03 -0.23347344646E+03 -0.20008764600E+03  0.53399126627E+03  0.10566000000E+00 0. -1.
          4    1    3    3  502    0 -0.61737433521E+03 -0.71106545301E+02  0.11953112822E+03  0.63284666482E+03  0.00000000000E+00 0.  1.
         -4    1    4    4    0  501  0.40084644019E+03  0.44743659051E+03  0.40156310521E+03  0.72258584169E+03  0.00000000000E+00 0. -1.
</event>
<event>
 8    1  0.7096247E-006  0.1550403E+04  0.7818608E-02  0.8381068E-01
          4   -1    0    0  502    0  0.00000000000E+00  0.00000000000E+00  0.28419796976E+04  0.28419796976E+04  0.00000000000E+00 0.  1.
         -4   -1    0    0    0  501 -0.00000000000E+00 -0.00000000000E+00 -0.86035403289E+03  0.86035403289E+03  0.00000000000E+00 0. -1.
    9000010    2    1    2  502    0  0.11575599861E+04 -0.26699286099E+03  0.12277563846E+04  0.19730429525E+04  0.98705746706E+03 0.  0.
   -9000010    2    1    2    0  501 -0.11575599861E+04  0.26699286099E+03  0.75386928013E+03  0.17292907780E+04  0.10054339332E+04 0.  0.
        -13    1    3    3    0    0  0.21730653653E+03  0.23163775458E+03  0.73405306376E+03  0.79982003710E+03  0.10566000000E+00 0.  1.
         13    1    4    4    0    0 -0.23911678521E+03 -0.14670560376E+03  0.66056096600E+03  0.71766299341E+03  0.10566000000E+00 0. -1.
          4    1    3    3  502    0  0.94025344958E+03 -0.49863061558E+03  0.49370332082E+03  0.11732229154E+04  0.00000000000E+00 0.  1.
         -4    1    4    4    0  501 -0.91844320091E+03  0.41369846475E+03  0.93308314129E+02  0.10116277846E+04  0.00000000000E+00 0. -1.
</event>
<event>
 8    1  0.7096247E-006  0.1455027E+04  0.7818608E-02  0.8435861E-01
         -2   -1    0    0    0  501 -0.00000000000E+00  0.00000000000E+00  0.83016791315E+03  0.83016791315E+03  0.00000000000E+00 0.  1.
          2   -1    0    0  502    0  0.00000000000E+00 -0.00000000000E+00 -0.25505862276E+04  0.25505862276E+04  0.00000000000E+00 0. -1.
    9000010    2    1    2  502    0  0.44945582091E+03 -0.94905223127E+03 -0.86307993797E+03  0.16792735290E+04  0.98607399989E+03 0.  0.
   -9000010    2    1    2    0  501 -0.44945582091E+03  0.94905223127E+03 -0.85733837647E+03  0.17014806117E+04  0.10282492440E+04 0.  0.
        -13    1    3    3    0    0  0.21118486655E+03 -0.35639834555E+03 -0.94831608809E+03  0.10348537301E+04  0.10566000000E+00 0.  1.
         13    1    4    4    0    0 -0.24349326705E+03  0.10601535295E+04 -0.95539046254E+03  0.14477518518E+04  0.10566000000E+00 0. -1.
          4    1    3    3  502    0  0.23827095436E+03 -0.59265388572E+03  0.85236150125E+02  0.64441979892E+03  0.00000000000E+00 0.  1.
         -4    1    4    4    0  501 -0.20596255386E+03 -0.11110129823E+03  0.98052086070E+02  0.25372875999E+03  0.00000000000E+00 0. -1.
</event>
<event>
 8    1  0.7096247E-006  0.1202371E+04  0.7818608E-02  0.8604779E-01
          2   -1    0    0  502    0  0.00000000000E+00  0.00000000000E+00  0.13539197160E+04  0.13539197160E+04  0.00000000000E+00 0.  1.
         -2   -1    0    0    0  501 -0.00000000000E+00 -0.00000000000E+00 -0.10856407400E+04  0.10856407400E+04  0.00000000000E+00 0. -1.
    9000010    2    1    2  502    0 -0.48456203105E+03 -0.49558711500E+03 -0.21087397205E+02  0.12112761982E+04  0.99314570912E+03 0.  0.
   -9000010    2    1    2    0  501  0.48456203105E+03  0.49558711500E+03  0.28936637322E+03  0.12282842577E+04  0.97187569646E+03 0.  0.
        -13    1    3    3    0    0 -0.70343301110E+02 -0.34615149591E+03  0.44627074994E+03  0.56914552756E+03  0.10566000000E+00 0.  1.
         13    1    4    4    0    0 -0.24246214510E+03  0.28115765966E+03 -0.88005999830E+02  0.38155286470E+03  0.10566000000E+00 0. -1.
          4    1    3    3  502    0 -0.41421872994E+03 -0.14943561909E+03 -0.46735814714E+03  0.64213067065E+03  0.00000000000E+00 0.  1.
         -4    1    4    4    0  501  0.72702417615E+03  0.21442945533E+03  0.37737237305E+03  0.84673139304E+03  0.00000000000E+00 0. -1.
</event>
<event>
 8    1  0.7096247E-006  0.1346620E+04  0.7818608E-02  0.8503642E-01
         -2   -1    0    0    0  501 -0.00000000000E+00  0.00000000000E+00  0.17281966234E+04  0.17281966234E+04  0.00000000000E+00 0. -1.
          2   -1    0    0  502    0  0.00000000000E+00 -0.00000000000E+00 -0.14489170517E+04  0.14489170517E+04  0.00000000000E+00 0.  1.
    9000010    2    1    2  502    0  0.70214945088E+02 -0.10032943183E+04 -0.69585478317E+03  0.14498591140E+04  0.77868346813E+03 0.  0.
   -9000010    2    1    2    0  501 -0.70214945088E+02  0.10032943183E+04  0.97513435488E+03  0.17272545611E+04  0.10104413300E+04 0.  0.
        -13    1    3    3    0    0 -0.29559551722E+03 -0.13035294178E+03 -0.13886799252E+03  0.35164318527E+03  0.10566000000E+00 0.  1.
         13    1    4    4    0    0 -0.53404805268E+03  0.41479687063E+03  0.45052127628E+03  0.81254735124E+03  0.10566000000E+00 0. -1.
          4    1    3    3  502    0  0.36581046231E+03 -0.87294137652E+03 -0.55698679064E+03  0.10982159287E+04  0.00000000000E+00 0.  1.
         -4    1    4    4    0  501  0.46383310760E+03  0.58849744767E+03  0.52461307859E+03  0.91470720990E+03  0.00000000000E+00 0. -1.
</event>
<event>
 8    1  0.7096247E-006  0.1551022E+04  0.7818608E-02  0.8380726E-01
          2   -1    0    0  502    0  0.00000000000E+00  0.00000000000E+00  0.17633368598E+04  0.17633368598E+04  0.00000000000E+00 0. -1.
         -2   -1    0    0    0  501 -0.00000000000E+00 -0.00000000000E+00 -0.14822332891E+04  0.14822332891E+04  0.00000000000E+00 0.  1.
    9000010    2    1    2  502    0  0.11818154660E+04 -0.27427869426E+01 -0.31636346510E+03  0.15921289955E+04  0.10188687736E+04 0.  0.
   -9000010    2    1    2    0  501 -0.11818154660E+04  0.27427869426E+01  0.59746703577E+03  0.16534411534E+04  0.99005326643E+03 0.  0.
        -13    1    3    3    0    0  0.10370907682E+04  0.39500211090E+03 -0.35983194440E+03  0.11666460339E+04  0.10566000000E+00 0.  1.
         13    1    4    4    0    0 -0.33319925605E+03 -0.32936002363E+03 -0.13133414475E+03  0.48656802006E+03  0.10566000000E+00 0. -1.
          4    1    3    3  502    0  0.14472469780E+03 -0.39774489785E+03  0.43468479302E+02  0.42548296160E+03  0.00000000000E+00 0.  1.
         -4    1    4    4    0  501 -0.84861620993E+03  0.33210281058E+03  0.72880118052E+03  0.11668731333E+04  0.00000000000E+00 0. -1.
</event>
<event>
 8    1  0.7096247E-006  0.1528032E+04  0.7818608E-02  0.8393547E-01
          1   -1    0    0  502    0  0.00000000000E+00  0.00000000000E+00  0.17454120613E+04  0.17454120613E+04  0.00000000000E+00 0. -1.
         -1   -1    0    0    0  501 -0.00000000000E+00 -0.00000000000E+00 -0.13728415040E+04  0.13728415040E+04  0.00000000000E+00 0.  1.
    9000010    2    1    2  502    0  0.26222113298E+03  0.11042242216E+04 -0.61431636249E+02  0.15408074793E+04  0.10403089870E+04 0.  0.
   -9000010    2    1    2    0  501 -0.26222113298E+03 -0.11042242216E+04  0.43400219360E+03  0.15774460860E+04  0.10059359801E+04 0.  0.
        -13    1    3    3    0    0 -0.37218767741E+03  0.68340386716E+03 -0.40298257153E+02  0.77922299348E+03  0.10566000000E+00 0.  1.
         13    1    4    4    0    0  0.25907567893E+03  0.21252748401E+01  0.21129741932E+03  0.33432220204E+03  0.10566000000E+00 0. -1.
          4    1    3    3  502    0  0.63440881039E+03  0.42082035440E+03 -0.21133379097E+02  0.76158448586E+03  0.00000000000E+00 0.  1.
         -4    1    4    4    0  501 -0.52129681191E+03 -0.11063494964E+04  0.22270477429E+03  0.12431238839E+04  0.00000000000E+00 0. -1.
</event>
<event>
 8    1  0.7096247E-006  0.1367814E+04  0.7818608E-02  0.8489887E-01
         -2   -1    0    0    0  501 -0.00000000000E+00  0.00000000000E+00  0.20563164880E+04  0.20563164880E+04  0.00000000000E+00 0. -1.
          2   -1    0    0  502    0  0.00000000000E+00 -0.00000000000E+00 -0.12997488032E+04  0.12997488032E+04  0.00000000000E+00 0.  1.
    9000010    2    1    2  502    0 -0.90799066291E+03 -0.14877753017E+03 -0.53770861011E+03  0.14838237588E+04  0.10324827361E+04 0.  0.
   -9000010    2    1    2    0  501  0.90799066291E+03  0.14877753017E+03  0.12942762950E+04  0.18722415324E+04  0.99174363149E+03 0.  0.
        -13    1    3    3    0    0 -0.69478167693E+03  0.33134224356E+03 -0.57178286630E+02  0.77186697596E+03  0.10566000000E+00 0.  1.
         13    1    4    4    0    0 -0.15305267456E+03  0.22702927288E+03  0.16018245757E+03  0.31721576697E+03  0.10566000000E+00 0. -1.
          4    1    3    3  502    0 -0.21320898598E+03 -0.48011977373E+03 -0.48053032348E+03  0.71195678283E+03  0.00000000000E+00 0.  1.
         -4    1    4    4    0  501  0.10610433375E+04 -0.78251742705E+02  0.11340938374E+04  0.15550257655E+04  0.00000000000E+00 0. -1.
</event>
<event>
 8    1  0.7096247E-006  0.1067675E+04  0.7818608E-02  0.8713480E-01
          1   -1    0    0  502    0  0.00000000000E+00  0.00000000000E+00  0.13338677760E+04  0.13338677760E+04  0.00000000000E+00 0. -1.
         -1   -1    0    0    0  501 -0.00000000000E+00 -0.00000000000E+00 -0.94370834639E+03  0.94370834639E+03  0.00000000000E+00 0.  1.
    9000010    2    1    2  502    0  0.40013319247E+03  0.29195338260E+02  0.54724992136E+03  0.12142201931E+04  0.10069206828E+04 0.  0.
   -9000010    2    1    2    0  501 -0.40013319247E+03 -0.29195338260E+02 -0.15709049176E+03  0.10633559292E+04  0.97215712216E+03 0.  0.
        -13    1    3    3    0    0 -0.24557415215E+03 -0.27356117216E+03  0.23031268851E+03  0.43380447758E+03  0.10566000000E+00 0.  1.
         13    1    4    4    0    0  0.29389070906E+03 -0.17025055014E+03 -0.93593359923E+02  0.35230203928E+03  0.10566000000E+00 0. -1.
          4    1    3    3  502    0  0.64570734462E+03  0.30275651042E+03  0.31693723285E+03  0.78041571554E+03  0.00000000000E+00 0.  1.
         -4    1    4    4    0  501 -0.69402390153E+03  0.14105521188E+03 -0.63497131842E+02  0.71105388997E+03  0.00000000000E+00 0. -1.
</event>
<event>
 8    1  0.7096247E-006  0.1152392E+04  0.7818608E-02  0.8643301E-01
          1   -1    0    0  502    0  0.00000000000E+00  0.00000000000E+00  0.20661708966E+04  0.20661708966E+04  0.00000000000E+00 0.  1.
         -1   -1    0    0    0  501 -0.00000000000E+00 -0.00000000000E+00 -0.10334315508E+04  0.10334315508E+04  0.00000000000E+00 0. -1.
    9000010    2    1    2  502    0 -0.44306662044E+03 -0.35099232092E+03 -0.43209901971E+03  0.12451376063E+04  0.10218387624E+04 0.  0.
   -9000010    2    1    2    0  501  0.44306662044E+03  0.35099232092E+03  0.14648383655E+04  0.18544648410E+04  0.98680533553E+03 0.  0.
        -13    1    3    3    0    0  0.30470321652E+02  0.13963582138E+03  0.24535199243E+03  0.28394403404E+03  0.10566000000E+00 0.  1.
         13    1    4    4    0    0 -0.31267990036E+03  0.16282518978E+03  0.54655305016E+03  0.65038527837E+03  0.10566000000E+00 0. -1.
          4    1    3    3  502    0 -0.47353694210E+03 -0.49062814230E+03 -0.67745101214E+03  0.96119357228E+03  0.00000000000E+00 0.  1.
         -4    1    4    4    0  501  0.75574652080E+03  0.18816713115E+03  0.91828531531E+03  0.12040795627E+04  0.00000000000E+00 0. -1.
</event>
<event>
 7    1  0.7096247E-006  0.9112804E+03  0.7818608E-02  0.8862737E-01
          2   -1    0    0  502    0  0.00000000000E+00  0.00000000000E+00  0.14357932148E+04  0.14357932148E+04  0.00000000000E+00 0. -1.
         -2   -1    0    0    0  501 -0.00000000000E+00 -0.00000000000E+00 -0.73943882796E+03  0.73943882796E+03  0.00000000000E+00 0.  1.
   -9000010    2    1    2    0  501  0.27908272659E+03 -0.16315813390E+03 -0.61357077411E+02  0.11092544471E+04  0.10593266694E+04 0.  0.
        -13    1    1    2    0    0  0.74316888604E+02  0.50078179272E+02 -0.98293548602E+02  0.13301299497E+03  0.10566000000E+00 0.  1.
         13    1    3    3    0    0  0.86917655919E+02  0.19296655484E+03  0.42607285144E+03  0.47574032422E+03  0.10566000000E+00 0. -1.
          4    1    1    2  502    0 -0.35339961519E+03  0.11307995463E+03  0.85600501281E+03  0.93296460068E+03  0.00000000000E+00 0.  1.
         -4    1    3    3    0  501  0.19216507067E+03 -0.35612468874E+03 -0.48742992885E+03  0.63351412285E+03  0.00000000000E+00 0. -1.
</event>
<event>
 8    1  0.7096247E-006  0.1308011E+04  0.7818608E-02  0.8529383E-01
          2   -1    0    0  502    0  0.00000000000E+00  0.00000000000E+00  0.16912088722E+04  0.16912088722E+04  0.00000000000E+00 0.  1.
         -2   -1    0    0    0  501 -0.00000000000E+00 -0.00000000000E+00 -0.10563850573E+04  0.10563850573E+04  0.00000000000E+00 0. -1.
    9000010    2    1    2  502    0 -0.19801315446E+03  0.80735303916E+03  0.60229014997E+03  0.14491677350E+04  0.10228907861E+04 0.  0.
   -9000010    2    1    2    0  501  0.19801315446E+03 -0.80735303916E+03  0.32533664847E+02  0.12984261945E+04  0.99690721935E+03 0.  0.
        -13    1    3    3    0    0  0.69400730998E+01 -0.87847072037E+02  0.51967915110E+03  0.52709743306E+03  0.10566000000E+00 0.  1.
         13    1    4    4    0    0  0.18504577612E+03  0.13329448772E+03  0.24424263463E+03  0.33416139132E+03  0.10566000000E+00 0. -1.
          4    1    3    3  502    0 -0.20495322756E+03  0.89520011120E+03  0.82610998868E+02  0.92207030194E+03  0.00000000000E+00 0.  1.
         -4    1    4    4    0  501  0.12967378340E+02 -0.94064752689E+03 -0.21170896978E+03  0.96426480316E+03  0.00000000000E+00 0. -1.
</event>
<event>
 8    1  0.7096247E-006  0.1384987E+04  0.7818608E-02  0.8478928E-01
         -2   -1    0    0    0  501 -0.00000000000E+00  0.00000000000E+00  0.94069424562E+03  0.94069424562E+03  0.00000000000E+00 0. -1.
          2   -1    0    0  502    0  0.00000000000E+00 -0.00000000000E+00 -0.22870167313E+04  0.22870167313E+04  0.00000000000E+00 0.  1.
    9000010    2    1    2  502    0  0.70618256694E+03 -0.66399598612E+03 -0.12070948393E+04  0.18418148077E+04  0.99780726958E+03 0.  0.
   -9000010    2    1    2    0  501 -0.70618256694E+03  0.66399598612E+03 -0.13922764638E+03  0.13858961693E+04  0.98068311247E+03 0.  0.
        -13    1    3    3    0    0  0.80929710394E+03 -0.38297710676E+03 -0.12519225270E+04  0.15391371906E+04  0.10566000000E+00 0.  1.
         13    1    4    4    0    0  0.12958601541E+03  0.10097085374E+03 -0.32223068125E+03  0.36169085114E+03  0.10566000000E+00 0. -1.
          4    1    3    3  502    0 -0.10311453699E+03 -0.28101887936E+03  0.44827687665E+02  0.30267761708E+03  0.00000000000E+00 0.  1.
         -4    1    4    4    0  501 -0.83576858236E+03  0.56302513238E+03  0.18300303486E+03  0.10242053181E+04  0.00000000000E+00 0. -1.
</event>
<event>
 8    1  0.7096247E-006  0.1089229E+04  0.7818608E-02  0.8694997E-01
         -2   -1    0    0    0  501 -0.00000000000E+00  0.00000000000E+00  0.77015931322E+03  0.77015931322E+03  0.00000000000E+00 0. -1.
          2   -1    0    0  502    0  0.00000000000E+00 -0.00000000000E+00 -0.16011724482E+04  0.16011724482E+04  0.00000000000E+00 0.  1.
    9000010    2    1    2  502    0  0.98325571250E+02 -0.27977452037E+03 -0.21196670208E+03  0.11638147729E+04  0.11052570935E+04 0.  0.
   -9000010    2    1    2    0  501 -0.98325571250E+02  0.27977452037E+03 -0.61904643291E+03  0.12075169885E+04  0.99344707520E+03 0.  0.
        -13    1    3    3    0    0 -0.46075524248E+02 -0.52590935150E+03 -0.52201549463E+03  0.74243099863E+03  0.10566000000E+00 0.  1.
         13    1    4    4    0    0 -0.34015188321E+03  0.18810602081E+03 -0.80166020795E+03  0.89092439573E+03  0.10566000000E+00 0. -1.
          4    1    3    3  502    0  0.14440109550E+03  0.24613483114E+03  0.31004879254E+03  0.42138377429E+03  0.00000000000E+00 0.  1.
         -4    1    4    4    0  501  0.24182631197E+03  0.91668499553E+02  0.18261377504E+03  0.31659259278E+03  0.00000000000E+00 0. -1.
</event>
<event>
 8    1  0.7096247E-006  0.1455655E+04  0.7818608E-02  0.8435487E-01
          2   -1    0    0  502    0  0.00000000000E+00  0.00000000000E+00  0.32949902036E+04  0.32949902036E+04  0.00000000000E+00 0.  1.
         -2   -1    0    0    0  501 -0.00000000000E+00 -0.00000000000E+00 -0.64321268354E+03  0.64321268354E+03  0.00000000000E+00 0. -1.
    9000010    2    1    2  502    0 -0.58256154835E+03 -0.86210517777E+03  0.12917938921E+04  0.19354856730E+04  0.99738158979E+03 0.  0.
   -9000010    2    1    2    0  501  0.58256154835E+03  0.86210517777E+03  0.13599836279E+04  0.20027172141E+04  0.10386132467E+04 0.  0.
        -13    1    3    3    0    0  0.36455787251E+02  0.53857105308E+02 -0.12350999634E+03  0.13958632661E+03  0.10566000000E+00 0.  1.
         13    1    4    4    0    0  0.86222646094E+02  0.88135723585E+03  0.52024945934E+03  0.10270756705E+04  0.10566000000E+00 0. -1.
          4    1    3    3  502    0 -0.61901733561E+03 -0.91596228308E+03  0.14153038885E+04  0.17958993464E+04  0.00000000000E+00 0.  1.
         -4    1    4    4    0  501  0.49633890226E+03 -0.19252058081E+02  0.83973416861E+03  0.97564154358E+03  0.00000000000E+00 0. -1.
</event>
<event>
 8    1  0.7096247E-006  0.1150606E+04  0.7818608E-02  0.8644715E-01
          1   -1    0    0  502    0  0.00000000000E+00  0.00000000000E+00  0.15563208361E+04  0.15563208361E+04  0.00000000000E+00 0.  1.
         -1   -1    0    0    0  501 -0.00000000000E+00 -0.00000000000E+00 -0.91577111126E+03  0.91577111126E+03  0.00000000000E+00 0. -1.
    9000010    2    1    2  502    0 -0.56986099836E+03 -0.87792875271E+02 -0.94608484999E+01  0.11500952591E+04  0.99507811299E+03 0.  0.
   -9000010    2    1    2    0  501  0.56986099836E+03  0.87792875271E+02  0.65001057338E+03  0.13219966883E+04  0.99634951295E+03 0.  0.
        -13    1    3    3    0    0 -0.74986774166E+03 -0.30239146617E+03  0.15788431083E+03  0.82381411469E+03  0.10566000000E+00 0.  1.
         13    1    4    4    0    0  0.14950481208E+03 -0.19351991052E+03 -0.21127695346E+03  0.32317117265E+03  0.10566000000E+00 0. -1.
          4    1    3    3  502    0  0.18000674329E+03  0.21459859090E+03 -0.16734515933E+03  0.32628114441E+03  0.00000000000E+00 0.  1.
         -4    1    4    4    0  501  0.42035618628E+03  0.28131278579E+03  0.86128752684E+03  0.99882551564E+03  0.00000000000E+00 0. -1.
</event>
<event>
 7    1  0.7096247E-006  0.1740016E+04  0.7818608E-02  0.8283343E-01
          2   -1    0    0  502    0  0.00000000000E+00  0.00000000000E+00  0.11469306052E+04  0.11469306052E+04  0.00000000000E+00 0. -1.
         -2   -1    0    0    0  501 -0.00000000000E+00 -0.00000000000E+00 -0.27664358438E+04  0.27664358438E+04  0.00000000000E+00 0.  1.
   -9000010    2    1    2    0  501  0.10349016221E+04 -0.71238815349E+03 -0.11321382257E+04  0.19617991038E+04  0.99418333976E+03 0.  0.
        -13    1    1    2    0    0 -0.13049872195E+04  0.57409198195E+03 -0.59367168369E+02  0.14269189601E+04  0.10566000000E+00 0.  1.
         13    1    3    3    0    0  0.38648953851E+03 -0.51269595838E+03 -0.14173975414E+00  0.64205244364E+03  0.10566000000E+00 0. -1.
          4    1    1    2  502    0  0.27008559741E+03  0.13829617154E+03 -0.42799984459E+03  0.52464838507E+03  0.00000000000E+00 0.  1.
         -4    1    3    3    0  501  0.64841208358E+03 -0.19969219510E+03 -0.11319964859E+04  0.13197466602E+04  0.00000000000E+00 0. -1.
</event>
<event>
 8    1  0.7096247E-006  0.1253947E+04  0.7818608E-02  0.8567010E-01
         -1   -1    0    0    0  501 -0.00000000000E+00  0.00000000000E+00  0.68132525142E+03  0.68132525142E+03  0.00000000000E+00 0.  1.
          1   -1    0    0  502    0  0.00000000000E+00 -0.00000000000E+00 -0.23595237748E+04  0.23595237748E+04  0.00000000000E+00 0. -1.
    9000010    2    1    2  502    0  0.63644624399E+03 -0.44534904081E+03 -0.60876149717E+03  0.13863409857E+04  0.97362784403E+03 0.  0.
   -9000010    2    1    2    0  501 -0.63644624399E+03  0.44534904081E+03 -0.10694370262E+04  0.16545080404E+04  0.99513904219E+03 0.  0.
        -13    1    3    3    0    0  0.53967601808E+03 -0.36435381738E+02 -0.76595687353E+03  0.93769274541E+03  0.10566000000E+00 0.  1.
         13    1    4    4    0    0 -0.65334431464E+03 -0.26031753427E+02 -0.97423009600E+03  0.11733118668E+04  0.10566000000E+00 0. -1.
          4    1    3    3  502    0  0.96770225906E+02 -0.40891365907E+03  0.15719537636E+03  0.44864824032E+03  0.00000000000E+00 0.  1.
         -4    1    4    4    0  501  0.16898070650E+02  0.47138079424E+03 -0.95206930161E+02  0.48119617363E+03  0.00000000000E+00 0. -1.
</event>
<event>
 8    1  0.7096247E-006  0.1773137E+04  0.7818608E-02  0.8267590E-01
          2   -1    0    0  502    0  0.00000000000E+00  0.00000000000E+00  0.96570564502E+03  0.96570564502E+03  0.00000000000E+00 0. -1.
         -2   -1    0    0    0  501 -0.00000000000E+00 -0.00000000000E+00 -0.41707136257E+04  0.41707136257E+04  0.00000000000E+00 0.  1.
    9000010    2    1    2  502    0 -0.13061526752E+04 -0.59222995197E+03 -0.40779902341E+03  0.18307005825E+04  0.10622586560E+04 0.  0.
   -9000010    2    1    2    0  501  0.13061526752E+04  0.59222995197E+03 -0.27972089572E+04  0.33057186882E+04  0.10230478815E+04 0.  0.
        -13    1    3    3    0    0 -0.19788910472E+03 -0.59374051070E+03  0.57992406321E+02  0.62853084425E+03  0.10566000000E+00 0.  1.
         13    1    4    4    0    0  0.11106471232E+04  0.18392816581E+03 -0.11991941960E+04  0.16448201523E+04  0.10566000000E+00 0. -1.
          4    1    3    3  502    0 -0.11082635705E+04  0.15105587343E+01 -0.46579142973E+03  0.12021697382E+04  0.00000000000E+00 0.  1.
         -4    1    4    4    0  501  0.19550555205E+03  0.40830178615E+03 -0.15980147612E+04  0.16608985359E+04  0.00000000000E+00 0. -1.
</event>
<event>
 8    1  0.7096247E-006  0.1177573E+04  0.7818608E-02  0.8623645E-01
          2   -1    0    0  502    0  0.00000000000E+00  0.00000000000E+00  0.11238161072E+04  0.11238161072E+04  0.00000000000E+00 0. -1.
         -2   -1    0    0    0  501 -0.00000000000E+00 -0.00000000000E+00 -0.17462898282E+04  0.17462898282E+04  0.00000000000E+00 0.  1.
    9000010    2    1    2  502    0  0.46648287787E+03  0.45434129130E+03 -0.10868933246E+04  0.15961782366E+04  0.97078091223E+03 0.  0.
   -9000010    2    1    2    0  501 -0.46648287787E+03 -0.45434129130E+03  0.46441960369E+03  0.12739276987E+04  0.99155127402E+03 0.  0.
        -13    1    3    3    0    0 -0.26121657415E+03  0.90870808155E+02 -0.54589445892E+02  0.28190711441E+03  0.10566000000E+00 0.  1.
         13    1    4    4    0    0 -0.68225841076E+03 -0.61286569512E+03  0.33323952219E+03  0.97577122811E+03  0.10566000000E+00 0. -1.
          4    1    3    3  502    0  0.72769945202E+03  0.36347048315E+03 -0.10323038787E+04  0.13142711222E+04  0.00000000000E+00 0.  1.
         -4    1    4    4    0  501  0.21577553289E+03  0.15852440381E+03  0.13118008149E+03  0.29815647063E+03  0.00000000000E+00 0. -1.
</event>
<event>
 8    1  0.7096247E-006  0.1101945E+04  0.7818608E-02  0.8684300E-01
          2   -1    0    0  502    0  0.00000000000E+00  0.00000000000E+00  0.13650106143E+04  0.13650106143E+04  0.00000000000E+00 0. -1.
         -2   -1    0    0    0  501 -0.00000000000E+00 -0.00000000000E+00 -0.89123239130E+03  0.89123239130E+03  0.00000000000E+00 0.  1.
    9000010    2    1    2  502    0 -0.48727759623E+03 -0.21563225226E+03  0.20621077797E+03  0.11515211028E+04  0.99977059426E+03 0.  0.
   -9000010    2    1    2    0  501  0.48727759623E+03  0.21563225226E+03  0.26756744507E+03  0.11047219029E+04  0.92999001126E+03 0.  0.
        -13    1    3    3    0    0 -0.36232828707E+03 -0.97305583252E+02  0.60799877601E+03  0.71443172308E+03  0.10566000000E+00 0.  1.
         13    1    4    4    0    0  0.15419210199E+03  0.14698773347E+03  0.59539457979E+03  0.63235695214E+03  0.10566000000E+00 0. -1.
          4    1    3    3  502    0 -0.12494930916E+03 -0.11832666901E+03 -0.40178799804E+03  0.43708937968E+03  0.00000000000E+00 0.  1.
         -4    1    4    4    0  501  0.33308549424E+03  0.68644518793E+02 -0.32782713472E+03  0.47236495075E+03  0.00000000000E+00 0. -1.
</event>
<event>
 8    1  0.7096247E-006  0.1067752E+04  0.7818608E-02  0.8713412E-01
         -2   -1    0    0    0  501 -0.00000000000E+00  0.00000000000E+00  0.34444191791E+03  0.34444191791E+03  0.00000000000E+00 0. -1.
          2   -1    0    0  502    0  0.00000000000E+00 -0.00000000000E+00 -0.33354568609E+04  0.33354568609E+04  0.00000000000E+00 0.  1.
    9000010    2    1    2  502    0  0.38321145355E+03  0.44981896411E+02 -0.13306961306E+04  0.17042884098E+04  0.99245775868E+03 0.  0.
   -9000010    2    1    2    0  501 -0.38321145355E+03 -0.44981896411E+02 -0.16603188124E+04  0.19756103690E+04  0.99875091094E+03 0.  0.
        -13    1    3    3    0    0  0.36238241317E+03  0.37985776624E+03 -0.26710828407E+03  0.58903292143E+03  0.10566000000E+00 0.  1.
         13    1    4    4    0    0 -0.59813067206E+03  0.52009065496E+02 -0.47085370947E+03  0.76299965310E+03  0.10566000000E+00 0. -1.
          4    1    3    3  502    0  0.20829040380E+02 -0.33487586983E+03 -0.10635878465E+04  0.11152554884E+04  0.00000000000E+00 0.  1.
         -4    1    4    4    0  501  0.21491921851E+03 -0.96990961907E+02 -0.11894651029E+04  0.12126107159E+04  0.00000000000E+00 0. -1.
</event>
<event>
 8    1  0.7096247E-006  0.1289386E+04  0.7818608E-02  0.8542130E-01
         -2   -1    0    0    0  501 -0.00000000000E+00  0.00000000000E+00  0.53770157833E+03  0.53770157833E+03  0.00000000000E+00 0.  1.
          2   -1    0    0  502    0  0.00000000000E+00 -0.00000000000E+00 -0.31832005094E+04  0.31832005094E+04  0.00000000000E+00 0. -1.
    9000010    2    1    2  502    0 -0.10314643532E+03 -0.76063858944E+03 -0.10430905493E+04  0.16838806473E+04  0.10761997443E+04 0.  0.
   -9000010    2    1    2    0  501  0.10314643532E+03  0.76063858944E+03 -0.16024083817E+04  0.20370214404E+04  0.99625974315E+03 0.  0.
        -13    1    3    3    0    0 -0.62472941550E+02 -0.95168584341E+03 -0.44073345789E+03  0.10506449472E+04  0.10566000000E+00 0.  1.
         13    1    4    4    0    0 -0.36293623434E+03  0.47228038890E+03 -0.12521237939E+04  0.13865732877E+04  0.10566000000E+00 0. -1.
          4    1    3    3  502    0 -0.40673493766E+02  0.19104725397E+03 -0.60235709145E+03  0.63323570016E+03  0.00000000000E+00 0.  1.
         -4    1    4    4    0  501  0.46608266965E+03  0.28835820054E+03 -0.35028458786E+03  0.65044815263E+03  0.00000000000E+00 0. -1.
</event>
<event>
 8    1  0.7096247E-006  0.1314909E+04  0.7818608E-02  0.8524718E-01
          2   -1    0    0  502    0  0.00000000000E+00  0.00000000000E+00  0.10936768904E+04  0.10936768904E+04  0.00000000000E+00 0. -1.
         -2   -1    0    0    0  501 -0.00000000000E+00 -0.00000000000E+00 -0.17170775168E+04  0.17170775168E+04  0.00000000000E+00 0.  1.
    9000010    2    1    2  502    0 -0.70993618040E+03  0.46180952065E+03 -0.70795794195E+03  0.14953078098E+04  0.10086939997E+04 0.  0.
   -9000010    2    1    2    0  501  0.70993618040E+03 -0.46180952065E+03  0.84557315520E+02  0.13154465974E+04  0.10029817533E+04 0.  0.
        -13    1    3    3    0    0 -0.63190797568E+02  0.10339662028E+03  0.25434245438E+03  0.28173397602E+03  0.10566000000E+00 0.  1.
         13    1    4    4    0    0  0.28252102220E+03 -0.66166642184E+02  0.51507215235E+03  0.59118143223E+03  0.10566000000E+00 0. -1.
          4    1    3    3  502    0 -0.64674538283E+03  0.35841290037E+03 -0.96230039632E+03  0.12135738338E+04  0.00000000000E+00 0.  1.
         -4    1    4    4    0  501  0.42741515820E+03 -0.39564287847E+03 -0.43051483683E+03  0.72426516516E+03  0.00000000000E+00 0. -1.
</event>
<event>
 8    1  0.7096247E-006  0.1101521E+04  0.7818608E-02  0.8684655E-01
          2   -1    0    0  502    0  0.00000000000E+00  0.00000000000E+00  0.13079593363E+04  0.13079593363E+04  0.00000000000E+00 0.  1.
         -2   -1    0    0    0  501 -0.00000000000E+00 -0.00000000000E+00 -0.11517369154E+04  0.11517369154E+04  0.00000000000E+00 0. -1.
    9000010    2    1    2  502    0  0.49993150458E+03 -0.17886038793E+03 -0.46508825294E+03  0.11719848662E+04  0.93558478817E+03 0.  0.
   -9000010    2    1    2    0  501 -0.49993150458E+03  0.17886038793E+03  0.62131067381E+03  0.12877113855E+04  0.99511361729E+03 0.  0.
        -13    1    3    3    0    0 -0.11699073336E+03 -0.28331075434E+03  0.10651804282E+03  0.32449640957E+03  0.10566000000E+00 0.  1.
         13    1    4    4    0    0 -0.75069606221E+03  0.16829749600E+03  0.68354143081E+03  0.10291246396E+04  0.10566000000E+00 0. -1.
          4    1    3    3  502    0  0.61692223794E+03  0.10445036640E+03 -0.57160629576E+03  0.84748845659E+03  0.00000000000E+00 0.  1.
         -4    1    4    4    0  501  0.25076455763E+03  0.10562891931E+02 -0.62230757000E+02  0.25858674592E+03  0.00000000000E+00 0. -1.
</event>
<event>
 8    1  0.7096247E-006  0.1147835E+04  0.7818608E-02  0.8646914E-01
         -1   -1    0    0    0  501 -0.00000000000E+00  0.00000000000E+00  0.35380484993E+04  0.35380484993E+04  0.00000000000E+00 0.  1.
          1   -1    0    0  502    0  0.00000000000E+00 -0.00000000000E+00 -0.38569814650E+03  0.38569814650E+03  0.00000000000E+00 0. -1.
    9000010    2    1    2  502    0 -0.32587622782E+03  0.38055537606E+03  0.12494695274E+04  0.17148236733E+04  0.10622751152E+04 0.  0.
   -9000010    2    1    2    0  501  0.32587622782E+03 -0.38055537606E+03  0.19028808253E+04  0.22089229725E+04  0.10036770162E+04 0.  0.
        -13    1    3    3    0    0  0.34211254675E+03 -0.92325121660E+02  0.42083792955E+03  0.55015406646E+03  0.10566000000E+00 0.  1.
         13    1    4    4    0    0  0.45261786842E+03  0.20285163417E+03  0.11154644810E+04  0.12207672750E+04  0.10566000000E+00 0. -1.
          4    1    3    3  502    0 -0.66798877456E+03  0.47288049772E+03  0.82863159789E+03  0.11646696068E+04  0.00000000000E+00 0.  1.
         -4    1    4    4    0  501 -0.12674164060E+03 -0.58340701023E+03  0.78741634435E+03  0.98815569745E+03  0.00000000000E+00 0. -1.
</event>
<event>
 8    1  0.7096247E-006  0.1122850E+04  0.7818608E-02  0.8667039E-01
          1   -1    0    0  502    0  0.00000000000E+00  0.00000000000E+00  0.24162896750E+04  0.24162896750E+04  0.00000000000E+00 0.  1.
         -1   -1    0    0    0  501 -0.00000000000E+00 -0.00000000000E+00 -0.52185903864E+03  0.52185903864E+03  0.00000000000E+00 0. -1.
    9000010    2    1    2  502    0 -0.50589796891E+03 -0.12271430837E+03  0.96437762451E+03  0.14802328061E+04  0.99502432191E+03 0.  0.
   -9000010    2    1    2    0  501  0.50589796891E+03  0.12271430837E+03  0.93005301182E+03  0.14579159075E+04  0.99475053764E+03 0.  0.
        -13    1    3    3    0    0 -0.73340178657E+03  0.14087471253E+03  0.49561812301E+03  0.89630418955E+03  0.10566000000E+00 0.  1.
         13    1    4    4    0    0 -0.99306682900E+02 -0.30975353124E+03  0.50644720470E+03  0.60191182883E+03  0.10566000000E+00 0. -1.
          4    1    3    3  502    0  0.22750381767E+03 -0.26358902090E+03  0.46875950149E+03  0.58392861656E+03  0.00000000000E+00 0.  1.
         -4    1    4    4    0  501  0.60520465181E+03  0.43246783961E+03  0.42360580712E+03  0.85600407867E+03  0.00000000000E+00 0. -1.
</event>
<event>
 8    1  0.7096247E-006  0.1506951E+04  0.7818608E-02  0.8405510E-01
          4   -1    0    0  502    0  0.00000000000E+00  0.00000000000E+00  0.16184019885E+04  0.16184019885E+04  0.00000000000E+00 0.  1.
         -4   -1    0    0    0  501 -0.00000000000E+00 -0.00000000000E+00 -0.14523465106E+04  0.14523465106E+04  0.00000000000E+00 0. -1.
    9000010    2    1    2  502    0 -0.11043402104E+04 -0.26792269294E+02 -0.19972411544E+03  0.14971847233E+04  0.99064991156E+03 0.  0.
   -9000010    2    1    2    0  501  0.11043402104E+04  0.26792269294E+02  0.36577959331E+03  0.15735637758E+04  0.10592559273E+04 0.  0.
        -13    1    3    3    0    0 -0.92223051155E+03 -0.39593149392E+03  0.68377529392E+02  0.10059554473E+04  0.10566000000E+00 0.  1.
         13    1    4    4    0    0  0.33324450766E+03 -0.49366040340E+03  0.20215843997E+03  0.62898373730E+03  0.10566000000E+00 0. -1.
          4    1    3    3  502    0 -0.18210969886E+03  0.36913922463E+03 -0.26810164483E+03  0.49122927594E+03  0.00000000000E+00 0.  1.
         -4    1    4    4    0  501  0.77109570275E+03  0.52045267269E+03  0.16362115334E+03  0.94458003850E+03  0.00000000000E+00 0. -1.
</event>
<event>
 8    1  0.7096247E-006  0.1464543E+04  0.7818608E-02  0.8430202E-01
          1   -1    0    0  502    0  0.00000000000E+00  0.00000000000E+00  0.12524590693E+04  0.12524590693E+04  0.00000000000E+00 0. -1.
         -1   -1    0    0    0  501 -0.00000000000E+00 -0.00000000000E+00 -0.18679580123E+04  0.18679580123E+04  0.00000000000E+00 0.  1.
    9000010    2    1    2  502    0  0.18531368679E+03 -0.10489513703E+04  0.14382227002E+03  0.14632361654E+04  0.99284192637E+03 0.  0.
   -9000010    2    1    2    0  501 -0.18531368679E+03  0.10489513703E+04 -0.75932121303E+03  0.16571809162E+04  0.10173690308E+04 0.  0.
        -13    1    3    3    0    0 -0.31633084044E+03 -0.71051630158E+03  0.30753825520E+03  0.83634825581E+03  0.10566000000E+00 0.  1.
         13    1    4    4    0    0 -0.62410414196E+02  0.12280004239E+04 -0.52289895650E+03  0.13361524729E+04  0.10566000000E+00 0. -1.
          4    1    3    3  502    0  0.50164452723E+03 -0.33843506869E+03 -0.16371598518E+03  0.62688790962E+03  0.00000000000E+00 0.  1.
         -4    1    4    4    0  501 -0.12290327260E+03 -0.17904905366E+03 -0.23642225653E+03  0.32102844331E+03  0.00000000000E+00 0. -1.
</event>
<event>
 8    1  0.7096247E-006  0.1270295E+04  0.7818608E-02  0.8555429E-01
          2   -1    0    0  502    0  0.00000000000E+00  0.00000000000E+00  0.25325384912E+04  0.25325384912E+04  0.00000000000E+00 0. -1.
         -2   -1    0    0    0  501 -0.00000000000E+00 -0.00000000000E+00 -0.81642575128E+03  0.81642575128E+03  0.00000000000E+00 0.  1.
    9000010    2    1    2  502    0  0.32327729740E+03  0.50734149957E+03  0.15638604723E+04  0.19446766779E+04  0.98701782996E+03 0.  0.
   -9000010    2    1    2    0  501 -0.32327729740E+03 -0.50734149957E+03  0.15225226761E+03  0.14042875645E+04  0.12597377516E+04 0.  0.
        -13    1    3    3    0    0  0.13036993308E+03 -0.19939500548E+03  0.97810773629E+03  0.10067022612E+04  0.10566000000E+00 0.  1.
         13    1    4    4    0    0  0.72340004096E+02  0.19934765825E+03 -0.37999076823E+03  0.43516153339E+03  0.10566000000E+00 0. -1.
          4    1    3    3  502    0  0.19290736433E+03  0.70673650505E+03  0.58575273601E+03  0.93797441678E+03  0.00000000000E+00 0.  1.
         -4    1    4    4    0  501 -0.39561730150E+03 -0.70668915782E+03  0.53224303584E+03  0.96912603114E+03  0.00000000000E+00 0. -1.
</event>
<event>
 8    1  0.7096247E-006  0.1234780E+04  0.7818608E-02  0.8580822E-01
         -2   -1    0    0    0  501 -0.00000000000E+00  0.00000000000E+00  0.50709720652E+03  0.50709720652E+03  0.00000000000E+00 0. -1.
          2   -1    0    0  502    0  0.00000000000E+00 -0.00000000000E+00 -0.32399164485E+04  0.32399164485E+04  0.00000000000E+00 0.  1.
    9000010    2    1    2  502    0 -0.23598033463E+03  0.71405250499E+03 -0.86377280045E+03  0.15069369032E+04  0.97938637994E+03 0.  0.
   -9000010    2    1    2    0  501  0.23598033463E+03 -0.71405250499E+03 -0.18690464416E+04  0.22400767519E+04  0.97931177633E+03 0.  0.
        -13    1    3    3    0    0  0.12371326278E+02  0.80065965635E+03 -0.24950352568E+03  0.83872579280E+03  0.10566000000E+00 0.  1.
         13    1    4    4    0    0 -0.20919660285E+03 -0.31874088494E+03 -0.13140084176E+03  0.40326810283E+03  0.10566000000E+00 0. -1.
          4    1    3    3  502    0 -0.24835166091E+03 -0.86607151351E+02 -0.61426927477E+03  0.66821111040E+03  0.00000000000E+00 0.  1.
         -4    1    4    4    0  501  0.44517693749E+03 -0.39531162005E+03 -0.17376455998E+04  0.18368086490E+04  0.00000000000E+00 0. -1.
</event>
<event>
 7    1  0.7096247E-006  0.1077749E+04  0.7818608E-02  0.8704785E-01
          1   -1    0    0  502    0  0.00000000000E+00  0.00000000000E+00  0.16623586901E+04  0.16623586901E+04  0.00000000000E+00 0.  1.
         -1   -1    0    0    0  501 -0.00000000000E+00 -0.00000000000E+00 -0.77388600012E+03  0.77388600012E+03  0.00000000000E+00 0. -1.
    9000010    2    1    2  502    0  0.18734003217E+03 -0.67952337378E+03  0.84424944902E+03  0.14702169019E+04  0.97567018159E+03 0.  0.
        -13    1    3    3    0    0 -0.37105313276E+03 -0.71177605679E+02  0.27239082375E+03  0.46577188720E+03  0.10566000000E+00 0.  1.
         13    1    1    2    0    0  0.16762634330E+03  0.97481982737E+02 -0.16317982404E+03  0.25343439795E+03  0.10566000000E+00 0. -1.
          4    1    3    3  502    0  0.55839316493E+03 -0.60834576810E+03  0.57185862527E+03  0.10044450147E+04  0.00000000000E+00 0.  1.
         -4    1    1    2    0  501 -0.35496637547E+03  0.58204139105E+03  0.20740306496E+03  0.71259339034E+03  0.00000000000E+00 0. -1.
</event>
<event>
 8    1  0.7096247E-006  0.1350088E+04  0.7818608E-02  0.8501374E-01
         -2   -1    0    0    0  501 -0.00000000000E+00  0.00000000000E+00  0.22856749690E+04  0.22856749690E+04  0.00000000000E+00 0. -1.
          2   -1    0    0  502    0  0.00000000000E+00 -0.00000000000E+00 -0.87634532338E+03  0.87634532338E+03  0.00000000000E+00 0.  1.
    9000010    2    1    2  502    0 -0.73185542070E+03 -0.49460125852E+03  0.22851195735E+03  0.13654888722E+04  0.10159229221E+04 0.  0.
   -9000010    2    1    2    0  501  0.73185542070E+03  0.49460125852E+03  0.11808176882E+04  0.17965314201E+04  0.10261344790E+04 0.  0.
        -13    1    3    3    0    0  0.98082172352E+02  0.22121184600E+03 -0.16175512165E+02  0.24252103353E+03  0.10566000000E+00 0.  1.
         13    1    4    4    0    0  0.30987559188E+03 -0.44892920557E+02 -0.11277609454E+03  0.33280131523E+03  0.10566000000E+00 0. -1.
          4    1    3    3  502    0 -0.82993759305E+03 -0.71581310453E+03  0.24468746951E+03  0.11229678387E+04  0.00000000000E+00 0.  1.
         -4    1    4    4    0  501  0.42197982882E+03  0.53949417908E+03  0.12935937828E+04  0.14637301049E+04  0.00000000000E+00 0. -1.
</event>
<event>
 8    1  0.7096247E-006  0.1756351E+04  0.7818608E-02  0.8275529E-01
         -1   -1    0    0    0  501 -0.00000000000E+00  0.00000000000E+00  0.31349152517E+04  0.31349152517E+04  0.00000000000E+00 0.  1.
          1   -1    0    0  502    0  0.00000000000E+00 -0.00000000000E+00 -0.10342594049E+04  0.10342594049E+04  0.00000000000E+00 0. -1.
    9000010    2    1    2  502    0 -0.15507072871E+03 -0.13901952743E+04  0.57026193165E+03  0.18085392992E+04  0.99444753230E+03 0.  0.
   -9000010    2    1    2    0  501  0.15507072871E+03  0.13901952743E+04  0.15303939152E+04  0.23606353575E+04  0.11286292234E+04 0.  0.
        -13    1    3    3    0    0 -0.37570180279E+03 -0.19909527306E+03  0.40273126450E+03  0.58564772257E+03  0.10566000000E+00 0.  1.
         13    1    4    4    0    0  0.43917756931E+03  0.12656483183E+04  0.78370910651E+03  0.15520768595E+04  0.10566000000E+00 0. -1.
          4    1    3    3  502    0  0.22063107408E+03 -0.11911000012E+04  0.16753066715E+03  0.12228915766E+04  0.00000000000E+00 0.  1.
         -4    1    4    4    0  501 -0.28410684060E+03  0.12454695593E+03  0.74668480866E+03  0.80855849794E+03  0.00000000000E+00 0. -1.
</event>
<event>
 8    1  0.7096247E-006  0.1031841E+04  0.7818608E-02  0.8745236E-01
         -1   -1    0    0    0  501 -0.00000000000E+00  0.00000000000E+00  0.56522576719E+03  0.56522576719E+03  0.00000000000E+00 0. -1.
          1   -1    0    0  502    0  0.00000000000E+00 -0.00000000000E+00 -0.18893142981E+04  0.18893142981E+04  0.00000000000E+00 0.  1.
    9000010    2    1    2  502    0 -0.16919030922E+03  0.80869916798E+02 -0.73232609350E+03  0.12697595800E+04  0.10202071258E+04 0.  0.
   -9000010    2    1    2    0  501  0.16919030922E+03 -0.80869916798E+02 -0.59176243745E+03  0.11847804854E+04  0.10091366171E+04 0.  0.
        -13    1    3    3    0    0  0.76428347818E+02 -0.26617642876E+03 -0.79329250213E+03  0.84024055405E+03  0.10566000000E+00 0.  1.
         13    1    4    4    0    0  0.59387840958E+03  0.40015389699E-02 -0.33050386695E+03  0.67965019136E+03  0.10566000000E+00 0. -1.
          4    1    3    3  502    0 -0.24561865704E+03  0.34704634555E+03  0.60966408630E+02  0.42951902592E+03  0.00000000000E+00 0.  1.
         -4    1    4    4    0  501 -0.42468810036E+03 -0.80873918337E+02 -0.26125857050E+03  0.50513029400E+03  0.00000000000E+00 0. -1.
</event>
<event>
 8    1  0.7096247E-006  0.1103227E+04  0.7818608E-02  0.8683231E-01
         -4   -1    0    0    0  501 -0.00000000000E+00  0.00000000000E+00  0.41903656644E+03  0.41903656644E+03  0.00000000000E+00 0. -1.
          4   -1    0    0  502    0  0.00000000000E+00 -0.00000000000E+00 -0.29490908746E+04  0.29490908746E+04  0.00000000000E+00 0.  1.
    9000010    2    1    2  502    0 -0.42501991911E+03 -0.13152024247E+03 -0.14717001772E+04  0.18391317225E+04  0.10092396026E+04 0.  0.
   -9000010    2    1    2    0  501  0.42501991911E+03  0.13152024247E+03 -0.10583541310E+04  0.15289957186E+04  0.10098390639E+04 0.  0.
        -13    1    3    3    0    0  0.47814135402E+02 -0.47908766930E+03 -0.44012528805E+03  0.65232006467E+03  0.10566000000E+00 0.  1.
         13    1    4    4    0    0 -0.30517493455E+03 -0.10744094971E+03 -0.21668947805E+03  0.38939650668E+03  0.10566000000E+00 0. -1.
          4    1    3    3  502    0 -0.47283405451E+03  0.34756742682E+03 -0.10315748891E+04  0.11868116578E+04  0.00000000000E+00 0.  1.
         -4    1    4    4    0  501  0.73019485366E+03  0.23896119219E+03 -0.84166465296E+03  0.11395992119E+04  0.00000000000E+00 0. -1.
</event>
<event>
 8    1  0.7096247E-006  0.1317410E+04  0.7818608E-02  0.8523033E-01
          1   -1    0    0  502    0  0.00000000000E+00  0.00000000000E+00  0.32412734550E+04  0.32412734550E+04  0.00000000000E+00 0.  1.
         -1   -1    0    0    0  501 -0.00000000000E+00 -0.00000000000E+00 -0.53646742912E+03  0.53646742912E+03  0.00000000000E+00 0. -1.
    9000010    2    1    2  502    0 -0.12288577949E+03 -0.90915397375E+03  0.13566913586E+04  0.19253429367E+04  0.10122608946E+04 0.  0.
   -9000010    2    1    2    0  501  0.12288577949E+03  0.90915397375E+03  0.13481146673E+04  0.18523979474E+04  0.87880779270E+03 0.  0.
        -13    1    3    3    0    0  0.40322970986E+03 -0.13656871290E+03  0.50817592641E+03  0.66293890789E+03  0.10566000000E+00 0.  1.
         13    1    4    4    0    0 -0.17609523013E+03  0.17833953477E+03 -0.41571753388E+02  0.25405263545E+03  0.10566000000E+00 0. -1.
          4    1    3    3  502    0 -0.52611548935E+03 -0.77258526085E+03  0.84851543215E+03  0.12624040288E+04  0.00000000000E+00 0.  1.
         -4    1    4    4    0  501  0.29898100962E+03  0.73081443898E+03  0.13896864207E+04  0.15983453120E+04  0.00000000000E+00 0. -1.
</event>
<event>
 8    1  0.7096247E-006  0.1038200E+04  0.7818608E-02  0.8739505E-01
          1   -1    0    0  502    0  0.00000000000E+00  0.00000000000E+00  0.24103603394E+04  0.24103603394E+04  0.00000000000E+00 0.  1.
         -1   -1    0    0    0  501 -0.00000000000E+00 -0.00000000000E+00 -0.47805672328E+03  0.47805672328E+03  0.00000000000E+00 0. -1.
    9000010    2    1    2  502    0 -0.91138970244E+02  0.41494930504E+03  0.13733805649E+04  0.17565356196E+04  0.10093334282E+04 0.  0.
   -9000010    2    1    2    0  501  0.91138970244E+02 -0.41494930504E+03  0.55892305117E+03  0.11318814430E+04  0.88784648799E+03 0.  0.
        -13    1    3    3    0    0  0.35717191407E+03 -0.44106135861E+02  0.18184751744E+03  0.40321911932E+03  0.10566000000E+00 0.  1.
         13    1    4    4    0    0  0.39635470922E+03 -0.43699198860E+03  0.57715465684E+03  0.82532815455E+03  0.10566000000E+00 0. -1.
          4    1    3    3  502    0 -0.44831088432E+03  0.45905544090E+03  0.11915330475E+04  0.13533165003E+04  0.00000000000E+00 0.  1.
         -4    1    4    4    0  501 -0.30521573897E+03  0.22042683561E+02 -0.18231605667E+02  0.30655328845E+03  0.00000000000E+00 0. -1.
</event>
<event>
 8    1  0.7096247E-006  0.1081080E+04  0.7818608E-02  0.8701932E-01
         -2   -1    0    0    0  501 -0.00000000000E+00  0.00000000000E+00  0.16818844695E+04  0.16818844695E+04  0.00000000000E+00 0.  1.
          2   -1    0    0  502    0  0.00000000000E+00 -0.00000000000E+00 -0.69693721718E+03  0.69693721718E+03  0.00000000000E+00 0. -1.
    9000010    2    1    2  502    0  0.29546563804E+03  0.26781341722E+03  0.42408480075E+03  0.11505007215E+04  0.99236083267E+03 0.  0.
   -9000010    2    1    2    0  501 -0.29546563804E+03 -0.26781341722E+03  0.56086245159E+03  0.12283209652E+04  0.10174388111E+04 0.  0.
        -13    1    3    3    0    0 -0.83323608032E+02 -0.22144100983E+03 -0.17108009059E+03  0.29197149356E+03  0.10566000000E+00 0.  1.
         13    1    4    4    0    0  0.23704707092E+03 -0.31928744140E+03  0.56789210106E+03  0.69328005429E+03  0.10566000000E+00 0. -1.
          4    1    3    3  502    0  0.37878924607E+03  0.48925442705E+03  0.59516489134E+03  0.85852922793E+03  0.00000000000E+00 0.  1.
         -4    1    4    4    0  501 -0.53251270897E+03  0.51474024175E+02 -0.70296494671E+01  0.53504091091E+03  0.00000000000E+00 0. -1.
</event>
<event>
 8    1  0.7096247E-006  0.1191643E+04  0.7818608E-02  0.8612882E-01
          2   -1    0    0  502    0  0.00000000000E+00  0.00000000000E+00  0.14771930240E+04  0.14771930240E+04  0.00000000000E+00 0.  1.
         -2   -1    0    0    0  501 -0.00000000000E+00 -0.00000000000E+00 -0.10658961867E+04  0.10658961867E+04  0.00000000000E+00 0. -1.
    9000010    2    1    2  502    0 -0.26807586767E+03 -0.64644752488E+03 -0.19484727963E+03  0.11915185736E+04  0.94445326813E+03 0.  0.
   -9000010    2    1    2    0  501  0.26807586767E+03  0.64644752488E+03  0.60614411695E+03  0.13515706371E+04  0.98466919487E+03 0.  0.
        -13    1    3    3    0    0 -0.41945126754E+02 -0.76937423724E+03  0.12540642845E+03  0.78065542594E+03  0.10566000000E+00 0.  1.
         13    1    4    4    0    0  0.12127810691E+03 -0.24274826140E+03  0.11033658100E+02  0.27158212460E+03  0.10566000000E+00 0. -1.
          4    1    3    3  502    0 -0.22613074092E+03  0.12292671236E+03 -0.32025370808E+03  0.41086314770E+03  0.00000000000E+00 0.  1.
         -4    1    4    4    0  501  0.14679776076E+03  0.88919578628E+03  0.59511045885E+03  0.10799885125E+04  0.00000000000E+00 0. -1.
</event>
<event>
 8    1  0.7096247E-006  0.1314232E+04  0.7818608E-02  0.8525174E-01
         -1   -1    0    0    0  501 -0.00000000000E+00  0.00000000000E+00  0.12731047774E+04  0.12731047774E+04  0.00000000000E+00 0. -1.
          1   -1    0    0  502    0  0.00000000000E+00 -0.00000000000E+00 -0.13856470643E+04  0.13856470643E+04  0.00000000000E+00 0.  1.
    9000010    2    1    2  502    0  0.58210527799E+03 -0.53349495311E+03 -0.23699310104E+03  0.14088430541E+04  0.11424577023E+04 0.  0.
   -9000010    2    1    2    0  501 -0.58210527799E+03  0.53349495311E+03  0.12445081416E+03  0.12499087876E+04  0.96089570329E+03 0.  0.
        -13    1    3    3    0    0  0.71179836097E+03 -0.74023112535E+03  0.54856425700E+02  0.10284008286E+04  0.10566000000E+00 0.  1.
         13    1    4    4    0    0 -0.46044006343E+03  0.44172704353E+03  0.52185061025E+03  0.82429115219E+03  0.10566000000E+00 0. -1.
          4    1    3    3  502    0 -0.12969308298E+03  0.20673617224E+03 -0.29184952674E+03  0.38044222550E+03  0.00000000000E+00 0.  1.
         -4    1    4    4    0  501 -0.12166521456E+03  0.91767909583E+02 -0.39739979609E+03  0.42561763544E+03  0.00000000000E+00 0. -1.
</event>
<event>
 8    1  0.7096247E-006  0.1494843E+04  0.7818608E-02  0.8412473E-01
         -2   -1    0    0    0  501 -0.00000000000E+00  0.00000000000E+00  0.70845938382E+03  0.70845938382E+03  0.00000000000E+00 0. -1.
          2   -1    0    0  502    0  0.00000000000E+00 -0.00000000000E+00 -0.31817658643E+04  0.31817658643E+04  0.00000000000E+00 0.  1.
    9000010    2    1    2  502    0  0.10407737480E+04 -0.42028916884E+03 -0.10628634675E+04  0.18413737341E+04  0.10005625908E+04 0.  0.
   -9000010    2    1    2    0  501 -0.10407737480E+04  0.42028916884E+03 -0.14104430130E+04  0.20488515140E+04  0.97395587872E+03 0.  0.
        -13    1    3    3    0    0  0.73529469804E+03  0.34248104843E+02 -0.10639007549E+04  0.12937217835E+04  0.10566000000E+00 0.  1.
         13    1    4    4    0    0 -0.11650202176E+04  0.27575637785E+03 -0.14208267740E+04  0.18579726640E+04  0.10566000000E+00 0. -1.
          4    1    3    3  502    0  0.30547904994E+03 -0.45453727368E+03  0.10372873104E+01  0.54765195068E+03  0.00000000000E+00 0.  1.
         -4    1    4    4    0  501  0.12424646962E+03  0.14453279098E+03  0.10383761035E+02  0.19087884999E+03  0.00000000000E+00 0. -1.
</event>
<event>
 8    1  0.7096247E-006  0.1378839E+04  0.7818608E-02  0.8482832E-01
          1   -1    0    0  502    0  0.00000000000E+00  0.00000000000E+00  0.16216058809E+04  0.16216058809E+04  0.00000000000E+00 0. -1.
         -1   -1    0    0    0  501 -0.00000000000E+00 -0.00000000000E+00 -0.13560919826E+04  0.13560919826E+04  0.00000000000E+00 0.  1.
    9000010    2    1    2  502    0  0.34737658942E+03 -0.88882700553E+03 -0.41526877467E+03  0.14389953490E+04  0.99376834255E+03 0.  0.
   -9000010    2    1    2    0  501 -0.34737658942E+03  0.88882700553E+03  0.68078267299E+03  0.15387025145E+04  0.99672284998E+03 0.  0.
        -13    1    3    3    0    0  0.39929661884E+03 -0.10801028610E+04 -0.24414109320E+03  0.11771426696E+04  0.10566000000E+00 0.  1.
         13    1    4    4    0    0 -0.32261753941E+03  0.10590849561E+04  0.34202726966E+03  0.11587604089E+04  0.10566000000E+00 0. -1.
          4    1    3    3  502    0 -0.51920029421E+02  0.19127585546E+03 -0.17112768147E+03  0.26185267938E+03  0.00000000000E+00 0.  1.
         -4    1    4    4    0  501 -0.24759050012E+02 -0.17025795058E+03  0.33875540333E+03  0.37994210556E+03  0.00000000000E+00 0. -1.
</event>
<event>
 8    1  0.7096247E-006  0.1549529E+04  0.7818608E-02  0.8381552E-01
          2   -1    0    0  502    0  0.00000000000E+00  0.00000000000E+00  0.31460155611E+04  0.31460155611E+04  0.00000000000E+00 0.  1.
         -2   -1    0    0    0  501 -0.00000000000E+00 -0.00000000000E+00 -0.79198718480E+03  0.79198718480E+03  0.00000000000E+00 0. -1.
    9000010    2    1    2  502    0 -0.53661551337E+03  0.10735064283E+04  0.80671641757E+03  0.17530137876E+04  0.99090549526E+03 0.  0.
   -9000010    2    1    2    0  501  0.53661551337E+03 -0.10735064283E+04  0.15473119587E+04  0.21849889582E+04  0.96934523748E+03 0.  0.
        -13    1    3    3    0    0 -0.73432345076E+03  0.53103600393E+03  0.74350134225E+03  0.11721878795E+04  0.10566000000E+00 0.  1.
         13    1    4    4    0    0 -0.13379846877E+03 -0.31154200665E+03  0.54778820212E+01  0.33910244840E+03  0.10566000000E+00 0. -1.
          4    1    3    3  502    0  0.19770793739E+03  0.54247042433E+03  0.63215075323E+02  0.58082590811E+03  0.00000000000E+00 0.  1.
         -4    1    4    4    0  501  0.67041398214E+03 -0.76196442161E+03  0.15418340767E+04  0.18458865098E+04  0.00000000000E+00 0. -1.
</event>
<event>
 8    1  0.7096247E-006  0.1649279E+04  0.7818608E-02  0.8328414E-01
         -1   -1    0    0    0  501 -0.00000000000E+00  0.00000000000E+00  0.28934466743E+04  0.28934466743E+04  0.00000000000E+00 0. -1.
          1   -1    0    0  502    0  0.00000000000E+00 -0.00000000000E+00 -0.10065511051E+04  0.10065511051E+04  0.00000000000E+00 0.  1.
    9000010    2    1    2  502    0 -0.12684557342E+04  0.33184842455E+03  0.44163933612E+03  0.17060005270E+04  0.99814285972E+03 0.  0.
   -9000010    2    1    2    0  501  0.12684557342E+04 -0.33184842455E+03  0.14452562331E+04  0.21939972524E+04  0.10028733909E+04 0.  0.
        -13    1    3    3    0    0 -0.43124600174E+03  0.48763994353E+03  0.54391677180E+03  0.84829905950E+03  0.10566000000E+00 0.  1.
         13    1    4    4    0    0  0.89347435146E+03 -0.68999348713E+03  0.10536210464E+04  0.15441841696E+04  0.10566000000E+00 0. -1.
          4    1    3    3  502    0 -0.83720973243E+03 -0.15579151898E+03 -0.10227743567E+03  0.85770146747E+03  0.00000000000E+00 0.  1.
         -4    1    4    4    0  501  0.37498138271E+03  0.35814506259E+03  0.39163518670E+03  0.64981308289E+03  0.00000000000E+00 0. -1.
</event>
<event>
 8    1  0.7096247E-006  0.1115797E+04  0.7818608E-02  0.8672818E-01
         -1   -1    0    0    0  501 -0.00000000000E+00  0.00000000000E+00  0.12416148185E+04  0.12416148185E+04  0.00000000000E+00 0. -1.
          1   -1    0    0  502    0  0.00000000000E+00 -0.00000000000E+00 -0.10994405672E+04  0.10994405672E+04  0.00000000000E+00 0.  1.
    9000010    2    1    2  502    0  0.12241179398E+03  0.49912597510E+03  0.41657477558E+03  0.11733591410E+04  0.96908500335E+03 0.  0.
   -9000010    2    1    2    0  501 -0.12241179398E+03 -0.49912597510E+03 -0.27440052422E+03  0.11676962447E+04  0.10119819593E+04 0.  0.
        -13    1    3    3    0    0  0.33943828658E+03  0.15588442493E+03 -0.20863327635E+03  0.42783894107E+03  0.10566000000E+00 0.  1.
         13    1    4    4    0    0 -0.39382309243E+03 -0.43539475918E+03 -0.52891490658E+03  0.79020011011E+03  0.10566000000E+00 0. -1.
          4    1    3    3  502    0 -0.21702649260E+03  0.34324155017E+03  0.62520805193E+03  0.74552019990E+03  0.00000000000E+00 0.  1.
         -4    1    4    4    0  501  0.27141129845E+03 -0.63731215920E+02  0.25451438236E+03  0.37749613460E+03  0.00000000000E+00 0. -1.
</event>
<event>
 8    1  0.7096247E-006  0.1381457E+04  0.7818608E-02  0.8481167E-01
         -2   -1    0    0    0  501 -0.00000000000E+00  0.00000000000E+00  0.89282779015E+03  0.89282779015E+03  0.00000000000E+00 0. -1.
          2   -1    0    0  502    0  0.00000000000E+00 -0.00000000000E+00 -0.21858285802E+04  0.21858285802E+04  0.00000000000E+00 0.  1.
    9000010    2    1    2  502    0 -0.80089555008E+03  0.54630288525E+03 -0.87290713242E+03  0.16297217441E+04  0.97680375549E+03 0.  0.
   -9000010    2    1    2    0  501  0.80089555008E+03 -0.54630288525E+03 -0.42009365759E+03  0.14489346262E+04  0.99148996230E+03 0.  0.
        -13    1    3    3    0    0  0.12579818420E+03  0.65582029292E+01  0.11578166372E+03  0.17109528921E+03  0.10566000000E+00 0.  1.
         13    1    4    4    0    0  0.57467858078E+03 -0.81520189961E+03 -0.15637658386E+03  0.10095856851E+04  0.10566000000E+00 0. -1.
          4    1    3    3  502    0 -0.92669373428E+03  0.53974468232E+03 -0.98868879614E+03  0.14586264549E+04  0.00000000000E+00 0.  1.
         -4    1    4    4    0  501  0.22621696930E+03  0.26889901436E+03 -0.26371707373E+03  0.43934894116E+03  0.00000000000E+00 0. -1.
</event>
<event>
 8    1  0.7096247E-006  0.1132290E+04  0.7818608E-02  0.8659372E-01
          2   -1    0    0  502    0  0.00000000000E+00  0.00000000000E+00  0.12904993947E+04  0.12904993947E+04  0.00000000000E+00 0.  1.
         -2   -1    0    0    0  501 -0.00000000000E+00 -0.00000000000E+00 -0.99558529062E+03  0.99558529062E+03  0.00000000000E+00 0. -1.
    9000010    2    1    2  502    0 -0.42889284691E+03  0.38177732719E+03  0.19648868948E+03  0.11750140643E+04  0.10061546821E+04 0.  0.
   -9000010    2    1    2    0  501  0.42889284691E+03 -0.38177732719E+03  0.98425414627E+02  0.11110706211E+04  0.94609056708E+03 0.  0.
        -13    1    3    3    0    0  0.10361887693E+03  0.27935261458E+03 -0.31215267109E+03  0.43152526711E+03  0.10566000000E+00 0.  1.
         13    1    4    4    0    0  0.91413659208E+02 -0.53735840203E+03  0.36300419784E+03  0.65489126436E+03  0.10566000000E+00 0. -1.
          4    1    3    3  502    0 -0.53251172384E+03  0.10242471262E+03  0.50864136057E+03  0.74348879714E+03  0.00000000000E+00 0.  1.
         -4    1    4    4    0  501  0.33747918770E+03  0.15558107484E+03 -0.26457878322E+03  0.45617935673E+03  0.00000000000E+00 0. -1.
</event>
<event>
 8    1  0.7096247E-006  0.1200920E+04  0.7818608E-02  0.8605870E-01
          2   -1    0    0  502    0  0.00000000000E+00  0.00000000000E+00  0.15173942814E+04  0.15173942814E+04  0.00000000000E+00 0.  1.
         -2   -1    0    0    0  501 -0.00000000000E+00 -0.00000000000E+00 -0.97193059811E+03  0.97193059811E+03  0.00000000000E+00 0. -1.
    9000010    2    1    2  502    0 -0.27261730653E+03 -0.58816216821E+03  0.85212130213E+02  0.11904172226E+04  0.99477491166E+03 0.  0.
   -9000010    2    1    2    0  501  0.27261730653E+03  0.58816216821E+03  0.46025155310E+03  0.12989076569E+04  0.10271682808E+04 0.  0.
        -13    1    3    3    0    0 -0.56281306256E+03 -0.92806151602E+02 -0.11597800342E+03  0.58208455881E+03  0.10566000000E+00 0.  1.
         13    1    4    4    0    0  0.35724561445E+03  0.15373163320E+02  0.60437573278E+03  0.70223272548E+03  0.10566000000E+00 0. -1.
          4    1    3    3  502    0  0.29019575603E+03 -0.49535601661E+03  0.20119013364E+03  0.60833266383E+03  0.00000000000E+00 0.  1.
         -4    1    4    4    0  501 -0.84628307922E+02  0.57278900489E+03 -0.14412417968E+03  0.59667493143E+03  0.00000000000E+00 0. -1.
</event>
<event>
 8    1  0.7096247E-006  0.1244769E+04  0.7818608E-02  0.8573592E-01
         -2   -1    0    0    0  501 -0.00000000000E+00  0.00000000000E+00  0.73388535491E+03  0.73388535491E+03  0.00000000000E+00 0.  1.
          2   -1    0    0  502    0  0.00000000000E+00 -0.00000000000E+00 -0.21483210280E+04  0.21483210280E+04  0.00000000000E+00 0. -1.
    9000010    2    1    2  502    0 -0.63804771820E+02  0.64134055261E+03 -0.91522520141E+03  0.15861052361E+04  0.11237009822E+04 0.  0.
   -9000010    2    1    2    0  501  0.63804771820E+02 -0.64134055261E+03 -0.49921047165E+03  0.12961011468E+04  0.10076102095E+04 0.  0.
        -13    1    3    3    0    0 -0.51290411293E+03  0.32028742993E+03 -0.11752808661E+03  0.61600935799E+03  0.10566000000E+00 0.  1.
         13    1    4    4    0    0 -0.39679248558E+03 -0.17133117247E+02 -0.51658399699E+02  0.40050770497E+03  0.10566000000E+00 0. -1.
          4    1    3    3  502    0  0.44909934111E+03  0.32105312268E+03 -0.79769711480E+03  0.97009587811E+03  0.00000000000E+00 0.  1.
         -4    1    4    4    0  501  0.46059725740E+03 -0.62420743536E+03 -0.44755207196E+03  0.89559344180E+03  0.00000000000E+00 0. -1.
</event>
<event>
 8    1  0.7096247E-006  0.1293150E+04  0.7818608E-02  0.8539536E-01
         -2   -1    0    0    0  501 -0.00000000000E+00  0.00000000000E+00  0.11815718532E+04  0.11815718532E+04  0.00000000000E+00 0. -1.
          2   -1    0    0  502    0  0.00000000000E+00 -0.00000000000E+00 -0.19600625415E+04  0.19600625415E+04  0.00000000000E+00 0.  1.
    9000010    2    1    2  502    0 -0.18914062499E+03 -0.79116435998E+03 -0.12170282597E+04  0.17745625892E+04  0.10030948995E+04 0.  0.
   -9000010    2    1    2    0  501  0.18914062499E+03  0.79116435998E+03  0.43853757133E+03  0.13670718055E+04  0.10074000692E+04 0.  0.
        -13    1    3    3    0    0  0.40836527021E+03 -0.30134801326E+03 -0.36984460478E+03  0.62797918903E+03  0.10566000000E+00 0.  1.
         13    1    4    4    0    0  0.32776915764E+03 -0.10068333321E+03 -0.40496472107E+02  0.34526762041E+03  0.10566000000E+00 0. -1.
          4    1    3    3  502    0 -0.59750589520E+03 -0.48981634673E+03 -0.84718365492E+03  0.11465834001E+04  0.00000000000E+00 0.  1.
         -4    1    4    4    0  501 -0.13862853265E+03  0.89184769319E+03  0.47903404344E+03  0.10218041851E+04  0.00000000000E+00 0. -1.
</event>
<event>
 8    1  0.7096247E-006  0.1126531E+04  0.7818608E-02  0.8664039E-01
          2   -1    0    0  502    0  0.00000000000E+00  0.00000000000E+00  0.36844245359E+04  0.36844245359E+04  0.00000000000E+00 0. -1.
         -2   -1    0    0    0  501 -0.00000000000E+00 -0.00000000000E+00 -0.34889439890E+03  0.34889439890E+03  0.00000000000E+00 0.  1.
    9000010    2    1    2  502    0 -0.32331252456E+03 -0.41140295148E+03  0.14413739636E+04  0.18299710465E+04  0.99872506273E+03 0.  0.
   -9000010    2    1    2    0  501  0.32331252456E+03  0.41140295148E+03  0.18941561734E+04  0.22033478883E+04  0.99655954704E+03 0.  0.
        -13    1    3    3    0    0 -0.48644323172E+03  0.16565332263E+03  0.80956475041E+03  0.95888640477E+03  0.10566000000E+00 0.  1.
         13    1    4    4    0    0 -0.13639111870E+03  0.38277131630E+03  0.16137265049E+04  0.16641002558E+04  0.10566000000E+00 0. -1.
          4    1    3    3  502    0  0.16313070716E+03 -0.57705627411E+03  0.63180921318E+03  0.87108464168E+03  0.00000000000E+00 0.  1.
         -4    1    4    4    0  501  0.45970364326E+03  0.28631635178E+02  0.28042966854E+03  0.53924763250E+03  0.00000000000E+00 0. -1.
</event>
<event>
 8    1  0.7096247E-006  0.1653620E+04  0.7818608E-02  0.8326191E-01
          4   -1    0    0  502    0  0.00000000000E+00  0.00000000000E+00  0.37588041676E+04  0.37588041676E+04  0.00000000000E+00 0.  1.
         -4   -1    0    0    0  501 -0.00000000000E+00 -0.00000000000E+00 -0.85711542452E+03  0.85711542452E+03  0.00000000000E+00 0. -1.
    9000010    2    1    2  502    0 -0.12946097742E+04 -0.29707951754E+03  0.23523747110E+04  0.28785239642E+04  0.99396314038E+03 0.  0.
   -9000010    2    1    2    0  501  0.12946097742E+04  0.29707951754E+03  0.54931403208E+03  0.17373956279E+04  0.97597487404E+03 0.  0.
        -13    1    3    3    0    0 -0.13254697328E+04 -0.52737625268E+03  0.20336295340E+04  0.24840782631E+04  0.10566000000E+00 0.  1.
         13    1    4    4    0    0  0.92802273726E+03 -0.26551921290E+03  0.42414157514E+03  0.10543352125E+04  0.10566000000E+00 0. -1.
          4    1    3    3  502    0  0.30859958639E+02  0.23029673513E+03  0.31874517697E+03  0.39444570108E+03  0.00000000000E+00 0.  1.
         -4    1    4    4    0  501  0.36658703693E+03  0.56259873045E+03  0.12517245694E+03  0.68306041543E+03  0.00000000000E+00 0. -1.
</event>
<event>
 8    1  0.7096247E-006  0.1512532E+04  0.7818608E-02  0.8402323E-01
         -2   -1    0    0    0  501 -0.00000000000E+00  0.00000000000E+00  0.88311965705E+03  0.88311965705E+03  0.00000000000E+00 0. -1.
          2   -1    0    0  502    0  0.00000000000E+00 -0.00000000000E+00 -0.26327139111E+04  0.26327139111E+04  0.00000000000E+00 0.  1.
    9000010    2    1    2  502    0 -0.30351880337E+02  0.11218895582E+04 -0.64039892622E+03  0.16206409350E+04  0.97816605848E+03 0.  0.
   -9000010    2    1    2    0  501  0.30351880337E+02 -0.11218895582E+04 -0.11091953279E+04  0.18951926332E+04  0.10497063514E+04 0.  0.
        -13    1    3    3    0    0  0.13508874723E+03  0.21616336487E+03  0.23755231237E+03  0.34843461685E+03  0.10566000000E+00 0.  1.
         13    1    4    4    0    0  0.20875840388E+03 -0.32257692713E+03  0.13361376645E+03  0.40680289436E+03  0.10566000000E+00 0. -1.
          4    1    3    3  502    0 -0.16544062757E+03  0.90572619333E+03 -0.87795123859E+03  0.12722063181E+04  0.00000000000E+00 0.  1.
         -4    1    4    4    0  501 -0.17840652354E+03 -0.79931263107E+03 -0.12428090943E+04  0.14883897389E+04  0.00000000000E+00 0. -1.
</event>
<event>
 8    1  0.7096247E-006  0.1187158E+04  0.7818608E-02  0.8616296E-01
          2   -1    0    0  502    0  0.00000000000E+00  0.00000000000E+00  0.28707272628E+04  0.28707272628E+04  0.00000000000E+00 0. -1.
         -2   -1    0    0    0  501 -0.00000000000E+00 -0.00000000000E+00 -0.69809409990E+03  0.69809409990E+03  0.00000000000E+00 0.  1.
    9000010    2    1    2  502    0 -0.36680968944E+03 -0.55998476547E+03  0.20613638163E+04  0.23811249679E+04  0.98610498600E+03 0.  0.
   -9000010    2    1    2    0  501  0.36680968944E+03  0.55998476547E+03  0.11126934659E+03  0.11876963949E+04  0.97473564266E+03 0.  0.
        -13    1    3    3    0    0  0.28191015032E+02 -0.68743339969E+03  0.16880897793E+04  0.18229115520E+04  0.10566000000E+00 0.  1.
         13    1    4    4    0    0 -0.14283035535E+03  0.63297106517E+03 -0.42805213000E+02  0.65029622264E+03  0.10566000000E+00 0. -1.
          4    1    3    3  502    0 -0.39500070447E+03  0.12744863422E+03  0.37327403705E+03  0.55821341585E+03  0.00000000000E+00 0.  1.
         -4    1    4    4    0  501  0.50964004479E+03 -0.72986299698E+02  0.15407455959E+03  0.53740017223E+03  0.00000000000E+00 0. -1.
</event>
<event>
 8    1  0.7096247E-006  0.1036122E+04  0.7818608E-02  0.8741373E-01
         -2   -1    0    0    0  501 -0.00000000000E+00  0.00000000000E+00  0.55116171545E+03  0.55116171545E+03  0.00000000000E+00 0. -1.
          2   -1    0    0  502    0  0.00000000000E+00 -0.00000000000E+00 -0.20007853075E+04  0.20007853075E+04  0.00000000000E+00 0.  1.
    9000010    2    1    2  502    0 -0.14737067796E+03 -0.14994194273E+03 -0.51159820290E+03  0.11479117987E+04  0.10058668269E+04 0.  0.
   -9000010    2    1    2    0  501  0.14737067796E+03  0.14994194273E+03 -0.93802538914E+03  0.14040352242E+04  0.10233389357E+04 0.  0.
        -13    1    3    3    0    0  0.31031044011E+03  0.34763125410E+02  0.13018086393E+03  0.33830180701E+03  0.10566000000E+00 0.  1.
         13    1    4    4    0    0  0.19274919460E+03  0.33596272317E+01 -0.11367403655E+04  0.11529710356E+04  0.10566000000E+00 0. -1.
          4    1    3    3  502    0 -0.45768111807E+03 -0.18470506814E+03 -0.64177906683E+03  0.80960999170E+03  0.00000000000E+00 0.  1.
         -4    1    4    4    0  501 -0.45378516640E+02  0.14658231550E+03  0.19871497638E+03  0.25106418866E+03  0.00000000000E+00 0. -1.
</event>
<event>
 8    1  0.7096247E-006  0.1481496E+04  0.7818608E-02  0.8420228E-01
          2   -1    0    0  502    0  0.00000000000E+00  0.00000000000E+00  0.52559736064E+04  0.52559736064E+04  0.00000000000E+00 0.  1.
         -2   -1    0    0    0  501 -0.00000000000E+00 -0.00000000000E+00 -0.45219259625E+03  0.45219259625E+03  0.00000000000E+00 0. -1.
    9000010    2    1    2  502    0 -0.48764687441E+03 -0.97147172211E+03  0.32000884908E+04  0.35288480056E+04  0.10152069330E+04 0.  0.
   -9000010    2    1    2    0  501  0.48764687441E+03  0.97147172211E+03  0.16036925194E+04  0.21793181971E+04  0.99801870043E+03 0.  0.
        -13    1    3    3    0    0 -0.55577487472E+03 -0.94276536976E+03  0.16679745945E+04  0.19949515064E+04  0.10566000000E+00 0.  1.
         13    1    4    4    0    0 -0.93071410703E+02 -0.10004880694E+03 -0.31174333500E+02  0.14015670335E+03  0.10566000000E+00 0. -1.
          4    1    3    3  502    0  0.68128000308E+02 -0.28706352342E+02  0.15321138963E+04  0.15338964992E+04  0.00000000000E+00 0.  1.
         -4    1    4    4    0  501  0.58071828511E+03  0.10715205290E+04  0.16348668529E+04  0.20391614938E+04  0.00000000000E+00 0. -1.
</event>
<event>
 8    1  0.7096247E-006  0.1800191E+04  0.7818608E-02  0.8254983E-01
         -2   -1    0    0    0  501 -0.00000000000E+00  0.00000000000E+00  0.18207636929E+04  0.18207636929E+04  0.00000000000E+00 0.  1.
          2   -1    0    0  502    0  0.00000000000E+00 -0.00000000000E+00 -0.22999293656E+04  0.22999293656E+04  0.00000000000E+00 0. -1.
    9000010    2    1    2  502    0  0.29892116770E+03 -0.14728701164E+04 -0.12197191623E+04  0.21776366576E+04  0.99784083567E+03 0.  0.
   -9000010    2    1    2    0  501 -0.29892116770E+03  0.14728701164E+04  0.74055348962E+03  0.19430564009E+04  0.98404698146E+03 0.  0.
        -13    1    3    3    0    0  0.53495976628E+03 -0.13889152337E+04 -0.12240699645E+04  0.19270741468E+04  0.10566000000E+00 0.  1.
         13    1    4    4    0    0 -0.28672996793E+03  0.12424339530E+04  0.98175082688E+03  0.16092516582E+04  0.10566000000E+00 0. -1.
          4    1    3    3  502    0 -0.23603859858E+03 -0.83954882718E+02  0.43508022305E+01  0.25056251083E+03  0.00000000000E+00 0.  1.
         -4    1    4    4    0  501 -0.12191199769E+02  0.23043616339E+03 -0.24119733726E+03  0.33380474270E+03  0.00000000000E+00 0. -1.
</event>
<event>
 8    1  0.7096247E-006  0.1145424E+04  0.7818608E-02  0.8648833E-01
          1   -1    0    0  502    0  0.00000000000E+00  0.00000000000E+00  0.12002049868E+04  0.12002049868E+04  0.00000000000E+00 0.  1.
         -1   -1    0    0    0  501 -0.00000000000E+00 -0.00000000000E+00 -0.10932098952E+04  0.10932098952E+04  0.00000000000E+00 0. -1.
    9000010    2    1    2  502    0  0.22912683292E+03 -0.52288277546E+03  0.62127743463E+02  0.11498452129E+04  0.99618203890E+03 0.  0.
   -9000010    2    1    2    0  501 -0.22912683292E+03  0.52288277546E+03  0.44867348129E+02  0.11435696692E+04  0.98986514581E+03 0.  0.
        -13    1    3    3    0    0  0.54592504581E+03 -0.37652049751E+03  0.29962667734E+03  0.72772109879E+03  0.10566000000E+00 0.  1.
         13    1    4    4    0    0 -0.42700892249E+03 -0.13734007529E+03 -0.33965544829E+02  0.44983617637E+03  0.10566000000E+00 0. -1.
          4    1    3    3  502    0 -0.31679821289E+03 -0.14636227796E+03 -0.23749893388E+03  0.42212411409E+03  0.00000000000E+00 0.  1.
         -4    1    4    4    0  501  0.19788208957E+03  0.66022285075E+03  0.78832892958E+02  0.69373349281E+03  0.00000000000E+00 0. -1.
</event>
<event>
 8    1  0.7096247E-006  0.1320141E+04  0.7818608E-02  0.8521198E-01
         -2   -1    0    0    0  501 -0.00000000000E+00  0.00000000000E+00  0.66913949576E+03  0.66913949576E+03  0.00000000000E+00 0.  1.
          2   -1    0    0  502    0  0.00000000000E+00 -0.00000000000E+00 -0.26136306874E+04  0.26136306874E+04  0.00000000000E+00 0. -1.
    9000010    2    1    2  502    0  0.87749410616E+03 -0.26812784214E+03 -0.10372224995E+04  0.16541132439E+04  0.90463896881E+03 0.  0.
   -9000010    2    1    2    0  501 -0.87749410616E+03  0.26812784214E+03 -0.90726869215E+03  0.16286569393E+04  0.99372959111E+03 0.  0.
        -13    1    3    3    0    0  0.10073581859E+04 -0.38829149426E+03 -0.10035821508E+04  0.14740142279E+04  0.10566000000E+00 0.  1.
         13    1    4    4    0    0 -0.10287338142E+04  0.30991997124E+02 -0.86462360240E+03  0.13441829300E+04  0.10566000000E+00 0. -1.
          4    1    3    3  502    0 -0.12986407977E+03  0.12016365212E+03 -0.33640348694E+02  0.18009901600E+03  0.00000000000E+00 0.  1.
         -4    1    4    4    0  501  0.15123970807E+03  0.23713584502E+03 -0.42645089744E+02  0.28447400930E+03  0.00000000000E+00 0. -1.
</event>
<event>
 8    1  0.7096247E-006  0.1493720E+04  0.7818608E-02  0.8413123E-01
          1   -1    0    0  502    0  0.00000000000E+00  0.00000000000E+00  0.14686991096E+04  0.14686991096E+04  0.00000000000E+00 0.  1.
         -1   -1    0    0    0  501 -0.00000000000E+00 -0.00000000000E+00 -0.15355248691E+04  0.15355248691E+04  0.00000000000E+00 0. -1.
    9000010    2    1    2  502    0 -0.87712636643E+03  0.69016896551E+03 -0.18834894214E+03  0.15023721492E+04  0.98790833942E+03 0.  0.
   -9000010    2    1    2    0  501  0.87712636643E+03 -0.69016896551E+03  0.12152318261E+03  0.15018518294E+04  0.99755058519E+03 0.  0.
        -13    1    3    3    0    0 -0.19013228055E+03 -0.31798133908E+02  0.32762458881E+03  0.38013061937E+03  0.10566000000E+00 0.  1.
         13    1    4    4    0    0  0.10669616736E+04 -0.64805818251E+03 -0.40107422199E+02  0.12489976930E+04  0.10566000000E+00 0. -1.
          4    1    3    3  502    0 -0.68699408588E+03  0.72196709941E+03 -0.51597353094E+03  0.11222415298E+04  0.00000000000E+00 0.  1.
         -4    1    4    4    0  501 -0.18983530712E+03 -0.42110782999E+02  0.16163060481E+03  0.25285413639E+03  0.00000000000E+00 0. -1.
</event>
<event>
 8    1  0.7096247E-006  0.1673101E+04  0.7818608E-02  0.8316297E-01
         -2   -1    0    0    0  501 -0.00000000000E+00  0.00000000000E+00  0.11786139892E+04  0.11786139892E+04  0.00000000000E+00 0. -1.
          2   -1    0    0  502    0  0.00000000000E+00 -0.00000000000E+00 -0.25186807940E+04  0.25186807940E+04  0.00000000000E+00 0.  1.
    9000010    2    1    2  502    0 -0.13887648946E+04 -0.30712150428E+03 -0.21547281034E+03  0.16470048067E+04  0.80200046791E+03 0.  0.
   -9000010    2    1    2    0  501  0.13887648946E+04  0.30712150428E+03 -0.11245939945E+04  0.20502899765E+04  0.95707146242E+03 0.  0.
        -13    1    3    3    0    0 -0.94746438435E+03 -0.43152343758E+03 -0.44741935991E+03  0.11331748901E+04  0.10566000000E+00 0.  1.
         13    1    4    4    0    0  0.12556614268E+04  0.10207743888E+02 -0.51087309584E+03  0.13556478702E+04  0.10566000000E+00 0. -1.
          4    1    3    3  502    0 -0.44130051025E+03  0.12440193330E+03  0.23194654957E+03  0.51382991662E+03  0.00000000000E+00 0.  1.
         -4    1    4    4    0  501  0.13310346776E+03  0.29691376039E+03 -0.61372089868E+03  0.69464210621E+03  0.00000000000E+00 0. -1.
</event>
<event>
 8    1  0.7096247E-006  0.1232194E+04  0.7818608E-02  0.8582706E-01
         -1   -1    0    0    0  501 -0.00000000000E+00  0.00000000000E+00  0.17174705517E+04  0.17174705517E+04  0.00000000000E+00 0. -1.
          1   -1    0    0  502    0  0.00000000000E+00 -0.00000000000E+00 -0.88704793213E+03  0.88704793213E+03  0.00000000000E+00 0.  1.
    9000010    2    1    2  502    0 -0.57321524874E+03 -0.43321930700E+03  0.48619013809E+03  0.13138477160E+04  0.98669158358E+03 0.  0.
   -9000010    2    1    2    0  501  0.57321524874E+03  0.43321930700E+03  0.34423248145E+03  0.12906707678E+04  0.10154212624E+04 0.  0.
        -13    1    3    3    0    0  0.25345509817E+03 -0.98344998959E+02  0.29594126997E+03  0.40186125969E+03  0.10566000000E+00 0.  1.
         13    1    4    4    0    0  0.53066966410E+03  0.53998991869E+03 -0.15973225680E+03  0.77376599157E+03  0.10566000000E+00 0. -1.
          4    1    3    3  502    0 -0.82667034691E+03 -0.33487430805E+03  0.19024886812E+03  0.91198645630E+03  0.00000000000E+00 0.  1.
         -4    1    4    4    0  501  0.42545584639E+02 -0.10677061169E+03  0.50396473824E+03  0.51690477622E+03  0.00000000000E+00 0. -1.
</event>
<event>
 8    1  0.7096247E-006  0.1152366E+04  0.7818608E-02  0.8643322E-01
         -1   -1    0    0    0  501 -0.00000000000E+00  0.00000000000E+00  0.19506704654E+04  0.19506704654E+04  0.00000000000E+00 0. -1.
          1   -1    0    0  502    0  0.00000000000E+00 -0.00000000000E+00 -0.69741022142E+03  0.69741022142E+03  0.00000000000E+00 0.  1.
    9000010    2    1    2  502    0 -0.49255280950E+03 -0.35003445607E+03  0.42688520387E+03  0.12369965422E+04  0.99136122453E+03 0.  0.
   -9000010    2    1    2    0  501  0.49255280950E+03  0.35003445607E+03  0.82637504015E+03  0.14110841447E+04  0.97114899259E+03 0.  0.
        -13    1    3    3    0    0 -0.25708728825E+03  0.21959095051E+03  0.51324579878E+03  0.61460175760E+03  0.10566000000E+00 0.  1.
         13    1    4    4    0    0  0.22941697005E+03 -0.33665844171E+03  0.32327904180E+03  0.52007730440E+03  0.10566000000E+00 0. -1.
          4    1    3    3  502    0 -0.23546552125E+03 -0.56962540658E+03 -0.86360594910E+02  0.62239478458E+03  0.00000000000E+00 0.  1.
         -4    1    4    4    0  501  0.26313583945E+03  0.68669289778E+03  0.50309599834E+03  0.89100684028E+03  0.00000000000E+00 0. -1.
</event>
<event>
 8    1  0.7096247E-006  0.1317361E+04  0.7818608E-02  0.8523066E-01
         -2   -1    0    0    0  501 -0.00000000000E+00  0.00000000000E+00  0.67973707162E+03  0.67973707162E+03  0.00000000000E+00 0. -1.
          2   -1    0    0  502    0  0.00000000000E+00 -0.00000000000E+00 -0.32438726768E+04  0.32438726768E+04  0.00000000000E+00 0.  1.
    9000010    2    1    2  502    0 -0.47280675876E+03 -0.74877807660E+03 -0.36652682683E+03  0.13543114571E+04  0.95687134404E+03 0.  0.
   -9000010    2    1    2    0  501  0.47280675876E+03  0.74877807660E+03 -0.21976087783E+04  0.25692982912E+04  0.99377790662E+03 0.  0.
        -13    1    3    3    0    0 -0.58248811469E+03 -0.88853521635E+03 -0.14803501966E+03  0.10727076082E+04  0.10566000000E+00 0.  1.
         13    1    4    4    0    0 -0.19678139684E+03  0.27941774955E+02 -0.46861729451E+02  0.20420502878E+03  0.10566000000E+00 0. -1.
          4    1    3    3  502    0  0.10968135593E+03  0.13975713975E+03 -0.21849180717E+03  0.28160384896E+03  0.00000000000E+00 0.  1.
         -4    1    4    4    0  501  0.66958815560E+03  0.72083630164E+03 -0.21507470489E+04  0.23650932625E+04  0.00000000000E+00 0. -1.
</event>
<event>
 8    1  0.7096247E-006  0.1408915E+04  0.7818608E-02  0.8463927E-01
          2   -1    0    0  502    0  0.00000000000E+00  0.00000000000E+00  0.37011876954E+04  0.37011876954E+04  0.00000000000E+00 0. -1.
         -2   -1    0    0    0  501 -0.00000000000E+00 -0.00000000000E+00 -0.64280455977E+03  0.64280455977E+03  0.00000000000E+00 0.  1.
    9000010    2    1    2  502    0  0.82591911911E+03  0.56316081862E+03  0.24083578300E+04  0.27875368438E+04  0.98533330358E+03 0.  0.
   -9000010    2    1    2    0  501 -0.82591911911E+03 -0.56316081862E+03  0.65002530566E+03  0.15564554114E+04  0.10003639592E+04 0.  0.
        -13    1    3    3    0    0  0.61062625242E+03 -0.92079964938E+02  0.16534390170E+04  0.17649939757E+04  0.10566000000E+00 0.  1.
         13    1    4    4    0    0 -0.45309935963E+03  0.24349723843E+03  0.14545239143E+03  0.53455247092E+03  0.10566000000E+00 0. -1.
          4    1    3    3  502    0  0.21529286670E+03  0.65524078356E+03  0.75491881303E+03  0.10225428681E+04  0.00000000000E+00 0.  1.
         -4    1    4    4    0  501 -0.37281975948E+03 -0.80665805705E+03  0.50457291423E+03  0.10219029405E+04  0.00000000000E+00 0. -1.
</event>
<event>
 8    1  0.7096247E-006  0.1179203E+04  0.7818608E-02  0.8622390E-01
         -2   -1    0    0    0  501 -0.00000000000E+00  0.00000000000E+00  0.51227289864E+03  0.51227289864E+03  0.00000000000E+00 0.  1.
          2   -1    0    0  502    0  0.00000000000E+00 -0.00000000000E+00 -0.27209343596E+04  0.27209343596E+04  0.00000000000E+00 0. -1.
    9000010    2    1    2  502    0 -0.52996030838E+03 -0.29581869300E+03 -0.10180928494E+04  0.15514954167E+04  0.10011285385E+04 0.  0.
   -9000010    2    1    2    0  501  0.52996030838E+03  0.29581869300E+03 -0.11905686116E+04  0.16817118415E+04  0.10209478299E+04 0.  0.
        -13    1    3    3    0    0 -0.42839742644E+03 -0.48293552052E+03 -0.11371115565E+04  0.13075831809E+04  0.10566000000E+00 0.  1.
         13    1    4    4    0    0 -0.27599997258E+03 -0.20583380149E+02 -0.51059792603E+03  0.58078387859E+03  0.10566000000E+00 0. -1.
          4    1    3    3  502    0 -0.10156288194E+03  0.18711682751E+03  0.11901870711E+03  0.24391223579E+03  0.00000000000E+00 0.  1.
         -4    1    4    4    0  501  0.80596028096E+03  0.31640207315E+03 -0.67997068558E+03  0.11009279630E+04  0.00000000000E+00 0. -1.
</event>
<event>
 8    1  0.7096247E-006  0.1609876E+04  0.7818608E-02  0.8348928E-01
         -2   -1    0    0    0  501 -0.00000000000E+00  0.00000000000E+00  0.35525504806E+04  0.35525504806E+04  0.00000000000E+00 0.  1.
          2   -1    0    0  502    0  0.00000000000E+00 -0.00000000000E+00 -0.87956950689E+03  0.87956950689E+03  0.00000000000E+00 0. -1.
    9000010    2    1    2  502    0  0.12529708980E+04 -0.13216516474E+03  0.22475468856E+04  0.27611133065E+04  0.99240918279E+03 0.  0.
   -9000010    2    1    2    0  501 -0.12529708980E+04  0.13216516474E+03  0.42543408811E+03  0.16710066810E+04  0.10118623734E+04 0.  0.
        -13    1    3    3    0    0  0.12615339165E+04 -0.38397202537E+03  0.20644239861E+04  0.24496425748E+04  0.10566000000E+00 0.  1.
         13    1    4    4    0    0 -0.86426858374E+03  0.56109772260E+03  0.19918390602E+03  0.10495070646E+04  0.10566000000E+00 0. -1.
          4    1    3    3  502    0 -0.85630185355E+01  0.25180686064E+03  0.18312289958E+03  0.31147073169E+03  0.00000000000E+00 0.  1.
         -4    1    4    4    0  501 -0.38870231425E+03 -0.42893255786E+03  0.22625018210E+03  0.62149961641E+03  0.00000000000E+00 0. -1.
</event>
<event>
 8    1  0.7096247E-006  0.1158700E+04  0.7818608E-02  0.8638328E-01
         -1   -1    0    0    0  501 -0.00000000000E+00  0.00000000000E+00  0.90854388351E+03  0.90854388351E+03  0.00000000000E+00 0.  1.
          1   -1    0    0  502    0  0.00000000000E+00 -0.00000000000E+00 -0.15171095253E+04  0.15171095253E+04  0.00000000000E+00 0. -1.
    9000010    2    1    2  502    0 -0.69273778497E+02  0.60182899715E+03 -0.50342457748E+03  0.12803471613E+04  0.10093837476E+04 0.  0.
   -9000010    2    1    2    0  501  0.69273778497E+02 -0.60182899715E+03 -0.10514106426E+03  0.11453062475E+04  0.96626847148E+03 0.  0.
        -13    1    3    3    0    0  0.44015391516E+03  0.21534060825E+03 -0.42002520164E+02  0.49180409662E+03  0.10566000000E+00 0.  1.
         13    1    4    4    0    0  0.32875502341E+03 -0.35630801265E+03 -0.44071476955E+03  0.65518301608E+03  0.10566000000E+00 0. -1.
          4    1    3    3  502    0 -0.50942769365E+03  0.38648838891E+03 -0.46142205732E+03  0.78854306464E+03  0.00000000000E+00 0.  1.
         -4    1    4    4    0  501 -0.25948124492E+03 -0.24552098450E+03  0.33557370529E+03  0.49012323142E+03  0.00000000000E+00 0. -1.
</event>
<event>
 8    1  0.7096247E-006  0.1100827E+04  0.7818608E-02  0.8685235E-01
          2   -1    0    0  502    0  0.00000000000E+00  0.00000000000E+00  0.25482061173E+04  0.25482061173E+04  0.00000000000E+00 0. -1.
         -2   -1    0    0    0  501 -0.00000000000E+00 -0.00000000000E+00 -0.68280592359E+03  0.68280592359E+03  0.00000000000E+00 0.  1.
    9000010    2    1    2  502    0 -0.43184386034E+03 -0.20822114432E+03  0.18291924025E+04  0.21407088887E+04  0.10034164322E+04 0.  0.
   -9000010    2    1    2    0  501  0.43184386034E+03  0.20822114432E+03  0.36207791198E+02  0.10903031521E+04  0.97857283569E+03 0.  0.
        -13    1    3    3    0    0  0.92152589609E+02  0.22598753779E+03  0.69114358410E+02  0.25365187307E+03  0.10566000000E+00 0.  1.
         13    1    4    4    0    0  0.19265501275E+03 -0.35987109328E+03  0.19705398090E+03  0.45326972132E+03  0.10566000000E+00 0. -1.
          4    1    3    3  502    0 -0.52399644994E+03 -0.43420868211E+03  0.17600780441E+04  0.18870570157E+04  0.00000000000E+00 0.  1.
         -4    1    4    4    0  501  0.23918884759E+03  0.56809223760E+03 -0.16084618970E+03  0.63703343081E+03  0.00000000000E+00 0. -1.
</event>
<event>
 8    1  0.7096247E-006  0.1168310E+04  0.7818608E-02  0.8630815E-01
          1   -1    0    0  502    0  0.00000000000E+00  0.00000000000E+00  0.12248306015E+04  0.12248306015E+04  0.00000000000E+00 0.  1.
         -1   -1    0    0    0  501 -0.00000000000E+00 -0.00000000000E+00 -0.11948353840E+04  0.11948353840E+04  0.00000000000E+00 0. -1.
    9000010    2    1    2  502    0  0.15310106684E+03 -0.56445847848E+03 -0.29891493567E+03  0.12053863767E+04  0.10107189855E+04 0.  0.
   -9000010    2    1    2    0  501 -0.15310106684E+03  0.56445847848E+03  0.32891015317E+03  0.12142796088E+04  0.10120473156E+04 0.  0.
        -13    1    3    3    0    0 -0.58618126463E+01  0.18151104779E+03  0.21820545595E+03  0.28389127054E+03  0.10566000000E+00 0.  1.
         13    1    4    4    0    0 -0.58807595100E+03  0.31409072330E+03  0.17393614006E+03  0.68901385951E+03  0.10566000000E+00 0. -1.
          4    1    3    3  502    0  0.15896287949E+03 -0.74596952627E+03 -0.51712039162E+03  0.92149510612E+03  0.00000000000E+00 0.  1.
         -4    1    4    4    0  501  0.43497488416E+03  0.25036775518E+03  0.15497401311E+03  0.52526574933E+03  0.00000000000E+00 0. -1.
</event>
<event>
 8    1  0.7096247E-006  0.1026649E+04  0.7818608E-02  0.8749948E-01
          2   -1    0    0  502    0  0.00000000000E+00  0.00000000000E+00  0.28249543973E+04  0.28249543973E+04  0.00000000000E+00 0. -1.
         -2   -1    0    0    0  501 -0.00000000000E+00 -0.00000000000E+00 -0.38159443945E+03  0.38159443945E+03  0.00000000000E+00 0.  1.
    9000010    2    1    2  502    0  0.23757519223E+03  0.11887809558E+03  0.14629661558E+04  0.17883345252E+04  0.99362791194E+03 0.  0.
   -9000010    2    1    2    0  501 -0.23757519223E+03 -0.11887809558E+03  0.98039380208E+03  0.14182143116E+04  0.98974029565E+03 0.  0.
        -13    1    3    3    0    0 -0.17211098658E+03 -0.35746024273E+03  0.63925698834E+03  0.75236262875E+03  0.10566000000E+00 0.  1.
         13    1    4    4    0    0  0.37333382027E+03  0.72089707829E+02  0.30237192938E+03  0.48580228712E+03  0.10566000000E+00 0. -1.
          4    1    3    3  502    0  0.40968617882E+03  0.47633833830E+03  0.82370916742E+03  0.10359718964E+04  0.00000000000E+00 0.  1.
         -4    1    4    4    0  501 -0.61090901250E+03 -0.19096780341E+03  0.67802187270E+03  0.93241202445E+03  0.00000000000E+00 0. -1.
</event>
<event>
 8    1  0.7096247E-006  0.1742690E+04  0.7818608E-02  0.8282057E-01
          2   -1    0    0  502    0  0.00000000000E+00  0.00000000000E+00  0.23351967345E+04  0.23351967345E+04  0.00000000000E+00 0. -1.
         -2   -1    0    0    0  501 -0.00000000000E+00 -0.00000000000E+00 -0.17269832520E+04  0.17269832520E+04  0.00000000000E+00 0.  1.
    9000010    2    1    2  502    0  0.12424661636E+04 -0.69450993928E+03  0.13127429491E+04  0.21777877122E+04  0.99669405810E+03 0.  0.
   -9000010    2    1    2    0  501 -0.12424661636E+04  0.69450993928E+03 -0.70452946658E+03  0.18843922743E+04  0.10141529721E+04 0.  0.
        -13    1    3    3    0    0  0.99781666573E+02 -0.23011957336E+03 -0.12765731281E+03  0.28143880277E+03  0.10566000000E+00 0.  1.
         13    1    4    4    0    0 -0.61217487149E+03  0.89140587655E+03 -0.36091794260E+03  0.11400106502E+04  0.10566000000E+00 0. -1.
          4    1    3    3  502    0  0.11426844970E+04 -0.46439036593E+03  0.14404002619E+04  0.18963489094E+04  0.00000000000E+00 0.  1.
         -4    1    4    4    0  501 -0.63029129210E+03 -0.19689593727E+03 -0.34361152398E+03  0.74438162418E+03  0.00000000000E+00 0. -1.
</event>
<event>
 8    1  0.7096247E-006  0.1259690E+04  0.7818608E-02  0.8562921E-01
         -1   -1    0    0    0  501 -0.00000000000E+00  0.00000000000E+00  0.66726113536E+03  0.66726113536E+03  0.00000000000E+00 0. -1.
          1   -1    0    0  502    0  0.00000000000E+00 -0.00000000000E+00 -0.24705542526E+04  0.24705542526E+04  0.00000000000E+00 0.  1.
    9000010    2    1    2  502    0  0.73262725274E+03  0.28306058866E+03 -0.59620637502E+03  0.13910779772E+04  0.98120839212E+03 0.  0.
   -9000010    2    1    2    0  501 -0.73262725274E+03 -0.28306058866E+03 -0.12070867423E+04  0.17467374108E+04  0.98851767338E+03 0.  0.
        -13    1    3    3    0    0  0.10498647583E+03  0.55316265618E+03 -0.35915226941E+03  0.66783339845E+03  0.10566000000E+00 0.  1.
         13    1    4    4    0    0 -0.49960398771E+03  0.32716915321E+03 -0.45629143020E+03  0.75156215963E+03  0.10566000000E+00 0. -1.
          4    1    3    3  502    0  0.62764077691E+03 -0.27010206752E+03 -0.23705410561E+03  0.72324457876E+03  0.00000000000E+00 0.  1.
         -4    1    4    4    0  501 -0.23302326503E+03 -0.61022974187E+03 -0.75079531205E+03  0.99517525115E+03  0.00000000000E+00 0. -1.
</event>
<event>
 8    1  0.7096247E-006  0.1297535E+04  0.7818608E-02  0.8536526E-01
          1   -1    0    0  502    0  0.00000000000E+00  0.00000000000E+00  0.16132146741E+04  0.16132146741E+04  0.00000000000E+00 0. -1.
         -1   -1    0    0    0  501 -0.00000000000E+00 -0.00000000000E+00 -0.10732311637E+04  0.10732311637E+04  0.00000000000E+00 0.  1.
    9000010    2    1    2  502    0  0.54364201488E+03  0.59935406570E+03  0.43998403122E+02  0.12800150427E+04  0.99082325043E+03 0.  0.
   -9000010    2    1    2    0  501 -0.54364201488E+03 -0.59935406570E+03  0.49598510726E+03  0.14064307952E+04  0.10379183102E+04 0.  0.
        -13    1    3    3    0    0  0.46096498166E+03  0.75536786061E+03  0.32954966479E+03  0.94428402077E+03  0.10566000000E+00 0.  1.
         13    1    4    4    0    0  0.65241762437E+02 -0.23922171765E+03  0.63836473604E+03  0.68483068356E+03  0.10566000000E+00 0. -1.
          4    1    3    3  502    0  0.82677033228E+02 -0.15601379491E+03 -0.28555126167E+03  0.33573102190E+03  0.00000000000E+00 0.  1.
         -4    1    4    4    0  501 -0.60888377732E+03 -0.36013234805E+03 -0.14237962878E+03  0.72160011162E+03  0.00000000000E+00 0. -1.
</event>
<event>
 8    1  0.7096247E-006  0.1138244E+04  0.7818608E-02  0.8654575E-01
         -2   -1    0    0    0  501 -0.00000000000E+00  0.00000000000E+00  0.12105278025E+04  0.12105278025E+04  0.00000000000E+00 0. -1.
          2   -1    0    0  502    0  0.00000000000E+00 -0.00000000000E+00 -0.11401739376E+04  0.11401739376E+04  0.00000000000E+00 0.  1.
    9000010    2    1    2  502    0  0.19068107103E+03  0.68613586053E+03  0.30599593940E+03  0.10897302846E+04  0.76598752492E+03 0.  0.
   -9000010    2    1    2    0  501 -0.19068107103E+03 -0.68613586053E+03 -0.23564207444E+03  0.12609714555E+04  0.10135976195E+04 0.  0.
        -13    1    3    3    0    0 -0.18871898450E+03  0.42509029705E+03 -0.10007247024E+03  0.47574271010E+03  0.10566000000E+00 0.  1.
         13    1    4    4    0    0  0.19185528894E+03 -0.70891815310E+03 -0.40871282396E+03  0.84048770563E+03  0.10566000000E+00 0. -1.
          4    1    3    3  502    0  0.37940005553E+03  0.26104556349E+03  0.40606840964E+03  0.61398757452E+03  0.00000000000E+00 0.  1.
         -4    1    4    4    0  501 -0.38253635997E+03  0.22782292565E+02  0.17307074952E+03  0.42048374985E+03  0.00000000000E+00 0. -1.
</event>
<event>
 8    1  0.7096247E-006  0.1564247E+04  0.7818608E-02  0.8373456E-01
          4   -1    0    0  502    0  0.00000000000E+00  0.00000000000E+00  0.37288330844E+04  0.37288330844E+04  0.00000000000E+00 0. -1.
         -4   -1    0    0    0  501 -0.00000000000E+00 -0.00000000000E+00 -0.68311990017E+03  0.68311990017E+03  0.00000000000E+00 0.  1.
    9000010    2    1    2  502    0 -0.12042422457E+04 -0.48950707494E+02  0.19707484755E+04  0.25229555936E+04  0.10143272724E+04 0.  0.
   -9000010    2    1    2    0  501  0.12042422457E+04  0.48950707494E+02  0.10749647088E+04  0.18889973910E+04  0.97988083959E+03 0.  0.
        -13    1    3    3    0    0 -0.12175620853E+03  0.35181711295E+03  0.24119330897E+03  0.44359224377E+03  0.10566000000E+00 0.  1.
         13    1    4    4    0    0  0.21738366912E+03  0.40911768937E+03  0.14352764210E+03  0.48500839020E+03  0.10566000000E+00 0. -1.
          4    1    3    3  502    0 -0.10824860372E+04 -0.40076782044E+03  0.17295551665E+04  0.20793633498E+04  0.00000000000E+00 0.  1.
         -4    1    4    4    0  501  0.98685857663E+03 -0.36016698188E+03  0.93143706667E+03  0.14039890008E+04  0.00000000000E+00 0. -1.
</event>
<event>
 8    1  0.7096247E-006  0.1104572E+04  0.7818608E-02  0.8682110E-01
          1   -1    0    0  502    0  0.00000000000E+00  0.00000000000E+00  0.10300462012E+04  0.10300462012E+04  0.00000000000E+00 0.  1.
         -1   -1    0    0    0  501 -0.00000000000E+00 -0.00000000000E+00 -0.12345744122E+04  0.12345744122E+04  0.00000000000E+00 0. -1.
    9000010    2    1    2  502    0 -0.46183262294E+03 -0.40880592520E+02 -0.33099229821E+03  0.11628172852E+04  0.10137196569E+04 0.  0.
   -9000010    2    1    2    0  501  0.46183262294E+03  0.40880592520E+02  0.12646408718E+03  0.11018033283E+04  0.99147204416E+03 0.  0.
        -13    1    3    3    0    0 -0.22226614475E+03 -0.23782280562E+03 -0.64437194141E+03  0.72192599068E+03  0.10566000000E+00 0.  1.
         13    1    4    4    0    0  0.78692906919E+02  0.48204236119E+03 -0.51147592996E+02  0.49109418548E+03  0.10566000000E+00 0. -1.
          4    1    3    3  502    0 -0.23956647820E+03  0.19694221310E+03  0.31337964320E+03  0.44089129448E+03  0.00000000000E+00 0.  1.
         -4    1    4    4    0  501  0.38313971603E+03 -0.44116176867E+03  0.17761168018E+03  0.61070914278E+03  0.00000000000E+00 0. -1.
</event>
<event>
 8    1  0.7096247E-006  0.1083665E+04  0.7818608E-02  0.8699725E-01
         -2   -1    0    0    0  501 -0.00000000000E+00  0.00000000000E+00  0.57628597780E+03  0.57628597780E+03  0.00000000000E+00 0.  1.
          2   -1    0    0  502    0  0.00000000000E+00 -0.00000000000E+00 -0.20673209291E+04  0.20673209291E+04  0.00000000000E+00 0. -1.
    9000010    2    1    2  502    0  0.25236189655E+03 -0.32283351448E+03 -0.57895806317E+03  0.12165076516E+04  0.98832708275E+03 0.  0.
   -9000010    2    1    2    0  501 -0.25236189655E+03  0.32283351448E+03 -0.91207688813E+03  0.14270992553E+04  0.10182436004E+04 0.  0.
        -13    1    3    3    0    0  0.12930800459E+03 -0.55572719215E+03  0.10719879633E+02  0.57067346103E+03  0.10566000000E+00 0.  1.
         13    1    4    4    0    0 -0.11391109883E+03 -0.18344963767E+03 -0.87463011454E+03  0.90089253322E+03  0.10566000000E+00 0. -1.
          4    1    3    3  502    0  0.12305389196E+03  0.23289367767E+03 -0.58967794280E+03  0.64583419053E+03  0.00000000000E+00 0.  1.
         -4    1    4    4    0  501 -0.13845079772E+03  0.50628315215E+03 -0.37446773596E+02  0.52620672211E+03  0.00000000000E+00 0. -1.
</event>
<event>
 8    1  0.7096247E-006  0.1603389E+04  0.7818608E-02  0.8352364E-01
          2   -1    0    0  502    0  0.00000000000E+00  0.00000000000E+00  0.17510325454E+04  0.17510325454E+04  0.00000000000E+00 0. -1.
         -2   -1    0    0    0  501 -0.00000000000E+00 -0.00000000000E+00 -0.14905834255E+04  0.14905834255E+04  0.00000000000E+00 0.  1.
    9000010    2    1    2  502    0  0.11746319478E+04 -0.43144617972E+03 -0.67966529666E+02  0.16097219659E+04  0.10102867611E+04 0.  0.
   -9000010    2    1    2    0  501 -0.11746319478E+04  0.43144617972E+03  0.32841564951E+03  0.16318940050E+04  0.99464324566E+03 0.  0.
        -13    1    3    3    0    0  0.89204807582E+03 -0.47208470262E+03  0.38007145878E+03  0.10784563324E+04  0.10566000000E+00 0.  1.
         13    1    4    4    0    0 -0.50164288727E+03  0.69940557286E+03  0.72943402230E+02  0.86379076911E+03  0.10566000000E+00 0. -1.
          4    1    3    3  502    0  0.28258387194E+03  0.40638522905E+02 -0.44803798844E+03  0.53126563347E+03  0.00000000000E+00 0.  1.
         -4    1    4    4    0  501 -0.67298906048E+03 -0.26795939315E+03  0.25547224728E+03  0.76810323592E+03  0.00000000000E+00 0. -1.
</event>
<event>
 8    1  0.7096247E-006  0.1683282E+04  0.7818608E-02  0.8311181E-01
         -2   -1    0    0    0  501 -0.00000000000E+00  0.00000000000E+00  0.80202088693E+03  0.80202088693E+03  0.00000000000E+00 0.  1.
          2   -1    0    0  502    0  0.00000000000E+00 -0.00000000000E+00 -0.37227987611E+04  0.37227987611E+04  0.00000000000E+00 0. -1.
    9000010    2    1    2  502    0 -0.10394939832E+04  0.86982981988E+03 -0.19647266594E+04  0.25820353515E+04  0.98468474834E+03 0.  0.
   -9000010    2    1    2    0  501  0.10394939832E+04 -0.86982981988E+03 -0.95605121481E+03  0.19427842965E+04  0.10115459657E+04 0.  0.
        -13    1    3    3    0    0 -0.10303954405E+04  0.50737185777E+03 -0.18903485048E+04  0.22119128479E+04  0.10566000000E+00 0.  1.
         13    1    4    4    0    0  0.43589837096E+03 -0.54924874462E+03 -0.10398901536E+04  0.12542141428E+04  0.10566000000E+00 0. -1.
          4    1    3    3  502    0 -0.90985426978E+01  0.36245796211E+03 -0.74378154534E+02  0.37012250357E+03  0.00000000000E+00 0.  1.
         -4    1    4    4    0  501  0.60359561228E+03 -0.32058107526E+03  0.83838938779E+02  0.68857015375E+03  0.00000000000E+00 0. -1.
</event>
<event>
 8    1  0.7096247E-006  0.1290577E+04  0.7818608E-02  0.8541309E-01
         -4   -1    0    0    0  501 -0.00000000000E+00  0.00000000000E+00  0.35250516766E+04  0.35250516766E+04  0.00000000000E+00 0. -1.
          4   -1    0    0  502    0  0.00000000000E+00 -0.00000000000E+00 -0.59895050687E+03  0.59895050687E+03  0.00000000000E+00 0.  1.
    9000010    2    1    2  502    0  0.11238894996E+03  0.81057999596E+03  0.51238683499E+03  0.13852115874E+04  0.99327723592E+03 0.  0.
   -9000010    2    1    2    0  501 -0.11238894996E+03 -0.81057999596E+03  0.24137143348E+04  0.27387905961E+04  0.10026394333E+04 0.  0.
        -13    1    3    3    0    0 -0.18354946880E+03 -0.15117437160E+03 -0.33959449699E+02  0.24020273419E+03  0.10566000000E+00 0.  1.
         13    1    4    4    0    0 -0.21505797543E+02 -0.10396637990E+04  0.20613150276E+04  0.23087622157E+04  0.10566000000E+00 0. -1.
          4    1    3    3  502    0  0.29593841876E+03  0.96175436756E+03  0.54634628469E+03  0.11450088532E+04  0.00000000000E+00 0.  1.
         -4    1    4    4    0  501 -0.90883152414E+02  0.22908380309E+03  0.35239930713E+03  0.43002838034E+03  0.00000000000E+00 0. -1.
</event>
<event>
 8    1  0.7096247E-006  0.1275277E+04  0.7818608E-02  0.8551935E-01
          2   -1    0    0  502    0  0.00000000000E+00  0.00000000000E+00  0.26678488682E+04  0.26678488682E+04  0.00000000000E+00 0. -1.
         -2   -1    0    0    0  501 -0.00000000000E+00 -0.00000000000E+00 -0.61001988677E+03  0.61001988677E+03  0.00000000000E+00 0.  1.
    9000010    2    1    2  502    0  0.53740877713E+03  0.53894155375E+03  0.99182798973E+03  0.16204538872E+04  0.10309616130E+04 0.  0.
   -9000010    2    1    2    0  501 -0.53740877713E+03 -0.53894155375E+03  0.10660009917E+04  0.16574148677E+04  0.10155785234E+04 0.  0.
        -13    1    3    3    0    0  0.48886449180E+03 -0.34910777547E+02  0.19652443455E+02  0.49050329605E+03  0.10566000000E+00 0.  1.
         13    1    4    4    0    0 -0.28425639996E+03 -0.68637557576E+03  0.23954643121E+03  0.78057391436E+03  0.10566000000E+00 0. -1.
          4    1    3    3  502    0  0.48544285328E+02  0.57385233130E+03  0.97217554628E+03  0.11299505912E+04  0.00000000000E+00 0.  1.
         -4    1    4    4    0  501 -0.25315237718E+03  0.14743402201E+03  0.82645456046E+03  0.87684095332E+03  0.00000000000E+00 0. -1.
</event>
<event>
 8    1  0.7096247E-006  0.1202284E+04  0.7818608E-02  0.8604845E-01
         -2   -1    0    0    0  501 -0.00000000000E+00  0.00000000000E+00  0.16379294194E+04  0.16379294194E+04  0.00000000000E+00 0. -1.
          2   -1    0    0  502    0  0.00000000000E+00 -0.00000000000E+00 -0.15383781714E+04  0.15383781714E+04  0.00000000000E+00 0.  1.
    9000010    2    1    2  502    0  0.17290594548E+03 -0.63742420257E+03  0.10867455161E+04  0.16203752466E+04  0.10041882508E+04 0.  0.
   -9000010    2    1    2    0  501 -0.17290594548E+03  0.63742420257E+03 -0.98719426812E+03  0.15559323443E+04  0.10050705731E+04 0.  0.
        -13    1    3    3    0    0 -0.35893243720E+03 -0.51002157305E+02  0.14596743713E+03  0.39081993090E+03  0.10566000000E+00 0.  1.
         13    1    4    4    0    0  0.33217465924E+03  0.50742714212E+01 -0.82950535844E+02  0.34241284297E+03  0.10566000000E+00 0. -1.
          4    1    3    3  502    0  0.53183838267E+03 -0.58642204526E+03  0.94077807896E+03  0.12295553157E+04  0.00000000000E+00 0.  1.
         -4    1    4    4    0  501 -0.50508060472E+03  0.63234993115E+03 -0.90424373228E+03  0.12135195013E+04  0.00000000000E+00 0. -1.
</event>
<event>
 8    1  0.7096247E-006  0.1123950E+04  0.7818608E-02  0.8666141E-01
         -1   -1    0    0    0  501 -0.00000000000E+00  0.00000000000E+00  0.14622256285E+04  0.14622256285E+04  0.00000000000E+00 0. -1.
          1   -1    0    0  502    0  0.00000000000E+00 -0.00000000000E+00 -0.89375128959E+03  0.89375128959E+03  0.00000000000E+00 0.  1.
    9000010    2    1    2  502    0  0.33005930863E+03  0.30223949094E+03  0.50456238411E+03  0.12611919938E+04  0.10657083038E+04 0.  0.
   -9000010    2    1    2    0  501 -0.33005930863E+03 -0.30223949094E+03  0.63911954785E+02  0.10947849243E+04  0.99708647335E+03 0.  0.
        -13    1    3    3    0    0 -0.21089980446E+03  0.42076555697E+03 -0.55068825587E+02  0.47387231209E+03  0.10566000000E+00 0.  1.
         13    1    4    4    0    0 -0.17483905617E+03 -0.65388188752E+03 -0.85823520328E+02  0.68227260402E+03  0.10566000000E+00 0. -1.
          4    1    3    3  502    0  0.54095911309E+03 -0.11852606602E+03  0.55963120970E+03  0.78731968172E+03  0.00000000000E+00 0.  1.
         -4    1    4    4    0  501 -0.15522025247E+03  0.35164239658E+03  0.14973547511E+03  0.41251232025E+03  0.00000000000E+00 0. -1.
</event>
<event>
 8    1  0.7096247E-006  0.1186245E+04  0.7818608E-02  0.8616993E-01
         -2   -1    0    0    0  501 -0.00000000000E+00  0.00000000000E+00  0.12682719533E+04  0.12682719533E+04  0.00000000000E+00 0. -1.
          2   -1    0    0  502    0  0.00000000000E+00 -0.00000000000E+00 -0.14270429716E+04  0.14270429716E+04  0.00000000000E+00 0.  1.
    9000010    2    1    2  502    0 -0.61797048460E+03 -0.14005065425E+03  0.55687612393E+03  0.12967455310E+04  0.98485341512E+03 0.  0.
   -9000010    2    1    2    0  501  0.61797048460E+03  0.14005065425E+03 -0.71564714221E+03  0.13985693938E+04  0.10209524042E+04 0.  0.
        -13    1    3    3    0    0  0.15059398069E+03 -0.52706732442E+02  0.49578447494E+03  0.52082511789E+03  0.10566000000E+00 0.  1.
         13    1    4    4    0    0  0.46624217597E+03  0.40690721709E+03  0.11179033810E+01  0.61883480093E+03  0.10566000000E+00 0. -1.
          4    1    3    3  502    0 -0.76856446528E+03 -0.87343921803E+02  0.61091648989E+02  0.77592041315E+03  0.00000000000E+00 0.  1.
         -4    1    4    4    0  501  0.15172830862E+03 -0.26685656284E+03 -0.71676504559E+03  0.77973459289E+03  0.00000000000E+00 0. -1.
</event>
<event>
 8    1  0.7096247E-006  0.1173909E+04  0.7818608E-02  0.8626473E-01
          1   -1    0    0  502    0  0.00000000000E+00  0.00000000000E+00  0.15533404700E+04  0.15533404700E+04  0.00000000000E+00 0.  1.
         -1   -1    0    0    0  501 -0.00000000000E+00 -0.00000000000E+00 -0.93421111096E+03  0.93421111096E+03  0.00000000000E+00 0. -1.
    9000010    2    1    2  502    0  0.51563120111E+03 -0.33490600125E+03  0.58978612272E+03  0.13177996677E+04  0.10053411006E+04 0.  0.
   -9000010    2    1    2    0  501 -0.51563120111E+03  0.33490600125E+03  0.29343236313E+02  0.11697519132E+04  0.99469640983E+03 0.  0.
        -13    1    3    3    0    0  0.12633930608E+03 -0.24065194851E+02  0.77553727838E+03  0.78612901942E+03  0.10566000000E+00 0.  1.
         13    1    4    4    0    0  0.17059850636E+03 -0.21033729853E+03  0.10400176888E+03  0.29010689172E+03  0.10566000000E+00 0. -1.
          4    1    3    3  502    0  0.38929189502E+03 -0.31084080640E+03 -0.18575115566E+03  0.53167064832E+03  0.00000000000E+00 0.  1.
         -4    1    4    4    0  501 -0.68622970747E+03  0.54524329978E+03 -0.74658532567E+02  0.87964502150E+03  0.00000000000E+00 0. -1.
</event>
<event>
 8    1  0.7096247E-006  0.1153402E+04  0.7818608E-02  0.8642503E-01
          2   -1    0    0  502    0  0.00000000000E+00  0.00000000000E+00  0.21541306094E+04  0.21541306094E+04  0.00000000000E+00 0. -1.
         -2   -1    0    0    0  501 -0.00000000000E+00 -0.00000000000E+00 -0.61936112391E+03  0.61936112391E+03  0.00000000000E+00 0.  1.
    9000010    2    1    2  502    0  0.15427455197E+02 -0.58845973066E+03  0.69795697233E+03  0.13540824468E+04  0.99993623628E+03 0.  0.
   -9000010    2    1    2    0  501 -0.15427455197E+02  0.58845973066E+03  0.83681251313E+03  0.14194092864E+04  0.98384179589E+03 0.  0.
        -13    1    3    3    0    0  0.46476698927E+03 -0.25247206138E+03  0.10780459889E+03  0.53978916143E+03  0.10566000000E+00 0.  1.
         13    1    4    4    0    0  0.38962325963E+03  0.61668098996E+03  0.62946395925E+03  0.96349707575E+03  0.10566000000E+00 0. -1.
          4    1    3    3  502    0 -0.44933953407E+03 -0.33598766928E+03  0.59015237344E+03  0.81429328541E+03  0.00000000000E+00 0.  1.
         -4    1    4    4    0  501 -0.40505071483E+03 -0.28221259306E+02  0.20734855388E+03  0.45591221069E+03  0.00000000000E+00 0. -1.
</event>
<event>
 8    1  0.7096247E-006  0.1881607E+04  0.7818608E-02  0.8218375E-01
          1   -1    0    0  502    0  0.00000000000E+00  0.00000000000E+00  0.23299716898E+04  0.23299716898E+04  0.00000000000E+00 0.  1.
         -1   -1    0    0    0  501 -0.00000000000E+00 -0.00000000000E+00 -0.15264380765E+04  0.15264380765E+04  0.00000000000E+00 0. -1.
    9000010    2    1    2  502    0  0.12546045086E+04 -0.10096726264E+04  0.27082168307E+03  0.18949159263E+04  0.96119233166E+03 0.  0.
   -9000010    2    1    2    0  501 -0.12546045086E+04  0.10096726264E+04  0.53271193023E+03  0.19614938399E+04  0.98498974512E+03 0.  0.
        -13    1    3    3    0    0  0.10625786883E+04 -0.11939568028E+04  0.15890020021E+03  0.16061928902E+04  0.10566000000E+00 0.  1.
         13    1    4    4    0    0 -0.19157579524E+03  0.74947794152E+03  0.36112497611E+03  0.85371525094E+03  0.10566000000E+00 0. -1.
          4    1    3    3  502    0  0.19202582024E+03  0.18428417632E+03  0.11192148286E+03  0.28872303616E+03  0.00000000000E+00 0.  1.
         -4    1    4    4    0  501 -0.10630287133E+04  0.26019468491E+03  0.17158695411E+03  0.11077785890E+04  0.00000000000E+00 0. -1.
</event>
<event>
 8    1  0.7096247E-006  0.1347052E+04  0.7818608E-02  0.8503359E-01
         -2   -1    0    0    0  501 -0.00000000000E+00  0.00000000000E+00  0.10890355925E+04  0.10890355925E+04  0.00000000000E+00 0. -1.
          2   -1    0    0  502    0  0.00000000000E+00 -0.00000000000E+00 -0.17294016490E+04  0.17294016490E+04  0.00000000000E+00 0.  1.
    9000010    2    1    2  502    0 -0.36067283756E+02  0.88108870422E+03 -0.47747697252E+02  0.13326716349E+04  0.99805595543E+03 0.  0.
   -9000010    2    1    2    0  501  0.36067283756E+02 -0.88108870422E+03 -0.59261835929E+03  0.14857656066E+04  0.10385974987E+04 0.  0.
        -13    1    3    3    0    0  0.43710241641E+03  0.15435975939E+03  0.87465861296E+01  0.46363991598E+03  0.10566000000E+00 0.  1.
         13    1    4    4    0    0 -0.49270798717E+03 -0.30604657883E+03 -0.22128360050E+03  0.62079957478E+03  0.10566000000E+00 0. -1.
          4    1    3    3  502    0 -0.47316970017E+03  0.72672894482E+03 -0.56494283381E+02  0.86903171890E+03  0.00000000000E+00 0.  1.
         -4    1    4    4    0  501  0.52877527092E+03 -0.57504212539E+03 -0.37133475879E+03  0.86496603182E+03  0.00000000000E+00 0. -1.
</event>
<event>
 8    1  0.7096247E-006  0.1146725E+04  0.7818608E-02  0.8647797E-01
          1   -1    0    0  502    0  0.00000000000E+00  0.00000000000E+00  0.90367962051E+03  0.90367962051E+03  0.00000000000E+00 0.  1.
         -1   -1    0    0    0  501 -0.00000000000E+00 -0.00000000000E+00 -0.14849473815E+04  0.14849473815E+04  0.00000000000E+00 0. -1.
    9000010    2    1    2  502    0 -0.86402464929E+02  0.57967560798E+03 -0.46240128319E+03  0.12478310742E+04  0.99988911711E+03 0.  0.
   -9000010    2    1    2    0  501  0.86402464929E+02 -0.57967560798E+03 -0.11886647779E+03  0.11407959278E+04  0.97149210650E+03 0.  0.
        -13    1    3    3    0    0 -0.21767769714E+03  0.31799946352E+03  0.26234483877E+03  0.46618887183E+03  0.10566000000E+00 0.  1.
         13    1    4    4    0    0 -0.30603646384E+03 -0.32796044262E+03 -0.39605266254E+03  0.59839292425E+03  0.10566000000E+00 0. -1.
          4    1    3    3  502    0  0.13127523221E+03  0.26167614446E+03 -0.72474612196E+03  0.78164220233E+03  0.00000000000E+00 0.  1.
         -4    1    4    4    0  501  0.39243892877E+03 -0.25171516536E+03  0.27718618475E+03  0.54240300358E+03  0.00000000000E+00 0. -1.
</event>
<event>
 8    1  0.7096247E-006  0.1076053E+04  0.7818608E-02  0.8706242E-01
          2   -1    0    0  502    0  0.00000000000E+00  0.00000000000E+00  0.21484193589E+04  0.21484193589E+04  0.00000000000E+00 0.  1.
         -2   -1    0    0    0  501 -0.00000000000E+00 -0.00000000000E+00 -0.85111105394E+03  0.85111105394E+03  0.00000000000E+00 0. -1.
    9000010    2    1    2  502    0 -0.38487054094E+03 -0.17484573521E+03 -0.25920993219E+03  0.11078905418E+04  0.99072463341E+03 0.  0.
   -9000010    2    1    2    0  501  0.38487054094E+03  0.17484573521E+03  0.15565182372E+04  0.18916398711E+04  0.98836026568E+03 0.  0.
        -13    1    3    3    0    0 -0.20648722275E+03  0.27797225993E+03  0.23168138566E+03  0.41663152314E+03  0.10566000000E+00 0.  1.
         13    1    4    4    0    0  0.29003392639E+03  0.43119622149E+03  0.15313866573E+04  0.16171564443E+04  0.10566000000E+00 0. -1.
          4    1    3    3  502    0 -0.17838331819E+03 -0.45281799514E+03 -0.49089131784E+03  0.69125901865E+03  0.00000000000E+00 0.  1.
         -4    1    4    4    0  501  0.94836614545E+02 -0.25635048628E+03  0.25131579836E+02  0.27448342678E+03  0.00000000000E+00 0. -1.
</event>
<event>
 8    1  0.7096247E-006  0.1203689E+04  0.7818608E-02  0.8603790E-01
         -2   -1    0    0    0  501 -0.00000000000E+00  0.00000000000E+00  0.68004633251E+03  0.68004633251E+03  0.00000000000E+00 0. -1.
          2   -1    0    0  502    0  0.00000000000E+00 -0.00000000000E+00 -0.23677036674E+04  0.23677036674E+04  0.00000000000E+00 0.  1.
    9000010    2    1    2  502    0  0.60723899527E+03 -0.44130907518E+03 -0.33765382063E+03  0.12099396237E+04  0.88682066576E+03 0.  0.
   -9000010    2    1    2    0  501 -0.60723899527E+03  0.44130907518E+03 -0.13500035143E+04  0.18378103762E+04  0.99576332186E+03 0.  0.
        -13    1    3    3    0    0  0.80850499480E+03 -0.47379325002E+03 -0.36206012784E+03  0.10046133175E+04  0.10566000000E+00 0.  1.
         13    1    4    4    0    0 -0.51634516627E+03  0.45736104129E+03 -0.24960709330E+03  0.73354970180E+03  0.10566000000E+00 0. -1.
          4    1    3    3  502    0 -0.20126599953E+03  0.32484174848E+02  0.24406307210E+02  0.20532630620E+03  0.00000000000E+00 0.  1.
         -4    1    4    4    0  501 -0.90893828998E+02 -0.16051966116E+02 -0.11003964210E+04  0.11042606744E+04  0.00000000000E+00 0. -1.
</event>
<event>
 8    1  0.7096247E-006  0.2006354E+04  0.7818608E-02  0.8165810E-01
         -2   -1    0    0    0  501 -0.00000000000E+00  0.00000000000E+00  0.39402504822E+04  0.39402504822E+04  0.00000000000E+00 0. -1.
          2   -1    0    0  502    0  0.00000000000E+00 -0.00000000000E+00 -0.13327569719E+04  0.13327569719E+04  0.00000000000E+00 0.  1.
    9000010    2    1    2  502    0  0.11016323508E+04 -0.13500769538E+04  0.29230517524E+02  0.20052718526E+04  0.99194715699E+03 0.  0.
   -9000010    2    1    2    0  501 -0.11016323508E+04  0.13500769538E+04  0.25782629928E+04  0.32677356016E+04  0.99717314660E+03 0.  0.
        -13    1    3    3    0    0  0.77232849272E+03 -0.28376883775E+03  0.26540655334E+03  0.86455578401E+03  0.10566000000E+00 0.  1.
         13    1    4    4    0    0 -0.12841919477E+04  0.11841830832E+04  0.21169856740E+04  0.27446433080E+04  0.10566000000E+00 0. -1.
          4    1    3    3  502    0  0.32930385806E+03 -0.10663081160E+04 -0.23617603582E+03  0.11407160686E+04  0.00000000000E+00 0.  1.
         -4    1    4    4    0  501  0.18255959695E+03  0.16589387053E+03  0.46127731878E+03  0.52309229352E+03  0.00000000000E+00 0. -1.
</event>
<event>
 8    1  0.7096247E-006  0.1589093E+04  0.7818608E-02  0.8359994E-01
          1   -1    0    0  502    0  0.00000000000E+00  0.00000000000E+00  0.20100482934E+04  0.20100482934E+04  0.00000000000E+00 0. -1.
         -1   -1    0    0    0  501 -0.00000000000E+00 -0.00000000000E+00 -0.15585570197E+04  0.15585570197E+04  0.00000000000E+00 0.  1.
    9000010    2    1    2  502    0  0.74157935655E+03 -0.94133049321E+03  0.10101525251E+04  0.18736482468E+04  0.10266969316E+04 0.  0.
   -9000010    2    1    2    0  501 -0.74157935655E+03  0.94133049321E+03 -0.55866125136E+03  0.16949570663E+04  0.10605347817E+04 0.  0.
        -13    1    3    3    0    0  0.10756895262E+03 -0.81640170391E+03  0.89692280918E+03  0.12176014777E+04  0.10566000000E+00 0.  1.
         13    1    4    4    0    0 -0.88377294979E+03  0.10818851155E+04 -0.52413399772E+03  0.14920611544E+04  0.10566000000E+00 0. -1.
          4    1    3    3  502    0  0.63401040394E+03 -0.12492878929E+03  0.11322971588E+03  0.65604676910E+03  0.00000000000E+00 0.  1.
         -4    1    4    4    0  501  0.14219359324E+03 -0.14055462225E+03 -0.34527253644E+02  0.20289591184E+03  0.00000000000E+00 0. -1.
</event>
<event>
 8    1  0.7096247E-006  0.1086091E+04  0.7818608E-02  0.8697660E-01
         -2   -1    0    0    0  501 -0.00000000000E+00  0.00000000000E+00  0.75080382203E+03  0.75080382203E+03  0.00000000000E+00 0.  1.
          2   -1    0    0  502    0  0.00000000000E+00 -0.00000000000E+00 -0.15847081908E+04  0.15847081908E+04  0.00000000000E+00 0. -1.
    9000010    2    1    2  502    0  0.40157362046E+03 -0.14368328506E+03 -0.30728477403E+03  0.11247509146E+04  0.99435126008E+03 0.  0.
   -9000010    2    1    2    0  501 -0.40157362046E+03  0.14368328506E+03 -0.52661959477E+03  0.12107610983E+04  0.10033483844E+04 0.  0.
        -13    1    3    3    0    0  0.74056057752E+02 -0.55244911589E+03 -0.13707542789E+03  0.57399826605E+03  0.10566000000E+00 0.  1.
         13    1    4    4    0    0 -0.22419654991E+03 -0.36427756094E+03  0.39731589997E+02  0.42958217468E+03  0.10566000000E+00 0. -1.
          4    1    3    3  502    0  0.32751756271E+03  0.40876583083E+03 -0.17020934614E+03  0.55075264852E+03  0.00000000000E+00 0.  1.
         -4    1    4    4    0  501 -0.17737707054E+03  0.50796084599E+03 -0.56635118477E+03  0.78117892362E+03  0.00000000000E+00 0. -1.
</event>
<event>
 8    1  0.7096247E-006  0.1083155E+04  0.7818608E-02  0.8700160E-01
         -1   -1    0    0    0  501 -0.00000000000E+00  0.00000000000E+00  0.78125922051E+03  0.78125922051E+03  0.00000000000E+00 0.  1.
          1   -1    0    0  502    0  0.00000000000E+00 -0.00000000000E+00 -0.17485355820E+04  0.17485355820E+04  0.00000000000E+00 0. -1.
    9000010    2    1    2  502    0 -0.17244928824E+03 -0.41962165912E+03 -0.33912612624E+01  0.10695022590E+04  0.96850528519E+03 0.  0.
   -9000010    2    1    2    0  501  0.17244928824E+03  0.41962165912E+03 -0.96388510022E+03  0.14602925435E+04  0.99877862037E+03 0.  0.
        -13    1    3    3    0    0  0.43962404462E+02  0.78369191801E+02  0.38921372713E+03  0.39945182410E+03  0.10566000000E+00 0.  1.
         13    1    4    4    0    0  0.41468054341E+03  0.63829146458E+03 -0.75929863290E+03  0.10751327229E+04  0.10566000000E+00 0. -1.
          4    1    3    3  502    0 -0.21641169270E+03 -0.49799085092E+03 -0.39260498839E+03  0.67005043485E+03  0.00000000000E+00 0.  1.
         -4    1    4    4    0  501 -0.24223125517E+03 -0.21866980546E+03 -0.20458646731E+03  0.38515982061E+03  0.00000000000E+00 0. -1.
</event>
<event>
 8    1  0.7096247E-006  0.1164049E+04  0.7818608E-02  0.8634137E-01
          4   -1    0    0  502    0  0.00000000000E+00  0.00000000000E+00  0.10641380849E+04  0.10641380849E+04  0.00000000000E+00 0.  1.
         -4   -1    0    0    0  501 -0.00000000000E+00 -0.00000000000E+00 -0.18200158460E+04  0.18200158460E+04  0.00000000000E+00 0. -1.
    9000010    2    1    2  502    0  0.56406953802E+03 -0.11570317313E+03  0.41110957309E+03  0.12397846877E+04  0.10180831611E+04 0.  0.
   -9000010    2    1    2    0  501 -0.56406953802E+03  0.11570317313E+03 -0.11669873342E+04  0.16443692432E+04  0.10052507657E+04 0.  0.
        -13    1    3    3    0    0  0.55203979134E+03  0.13012682910E+03  0.67318205001E+03  0.88025848845E+03  0.10566000000E+00 0.  1.
         13    1    4    4    0    0  0.24877372983E+03  0.18767152917E+03 -0.50585303146E+03  0.59413489387E+03  0.10566000000E+00 0. -1.
          4    1    3    3  502    0  0.12029746673E+02 -0.24583000223E+03 -0.26207247692E+03  0.35952619927E+03  0.00000000000E+00 0.  1.
         -4    1    4    4    0  501 -0.81284326785E+03 -0.71968356037E+02 -0.66113430272E+03  0.10502343494E+04  0.00000000000E+00 0. -1.
</event>
<event>
 8    1  0.7096247E-006  0.1225090E+04  0.7818608E-02  0.8587905E-01
          4   -1    0    0  502    0  0.00000000000E+00  0.00000000000E+00  0.72514060935E+03  0.72514060935E+03  0.00000000000E+00 0.  1.
         -4   -1    0    0    0  501 -0.00000000000E+00 -0.00000000000E+00 -0.21174613692E+04  0.21174613692E+04  0.00000000000E+00 0. -1.
    9000010    2    1    2  502    0 -0.48131161700E+03  0.52540676719E+03 -0.48290466281E+03  0.13170570184E+04  0.99685963538E+03 0.  0.
   -9000010    2    1    2    0  501  0.48131161700E+03 -0.52540676719E+03 -0.90941609704E+03  0.15255449602E+04  0.99626133330E+03 0.  0.
        -13    1    3    3    0    0 -0.14082174263E+03  0.51332311950E+03 -0.72476768651E+03  0.89923278342E+03  0.10566000000E+00 0.  1.
         13    1    4    4    0    0  0.63319029950E+03 -0.55786644216E+03 -0.29838622275E+03  0.89508618119E+03  0.10566000000E+00 0. -1.
          4    1    3    3  502    0 -0.34048987437E+03  0.12083647690E+02  0.24186302370E+03  0.41782423497E+03  0.00000000000E+00 0.  1.
         -4    1    4    4    0  501 -0.15187868249E+03  0.32459674971E+02 -0.61102987429E+03  0.63045877896E+03  0.00000000000E+00 0. -1.
</event>
<event>
 8    1  0.7096247E-006  0.1348337E+04  0.7818608E-02  0.8502518E-01
         -2   -1    0    0    0  501 -0.00000000000E+00  0.00000000000E+00  0.72923991725E+03  0.72923991725E+03  0.00000000000E+00 0.  1.
          2   -1    0    0  502    0  0.00000000000E+00 -0.00000000000E+00 -0.28419028725E+04  0.28419028725E+04  0.00000000000E+00 0. -1.
    9000010    2    1    2  502    0 -0.70472690010E+03 -0.55170999039E+03 -0.16808955058E+04  0.21539026907E+04  0.10064110405E+04 0.  0.
   -9000010    2    1    2    0  501  0.70472690010E+03  0.55170999039E+03 -0.43176744944E+03  0.14172400990E+04  0.10105060369E+04 0.  0.
        -13    1    3    3    0    0 -0.77848176094E+03 -0.77934658409E+03 -0.14539397333E+04  0.18241040841E+04  0.10566000000E+00 0.  1.
         13    1    4    4    0    0  0.88077440164E+03  0.44137428346E+03 -0.59685379110E+03  0.11518720692E+04  0.10566000000E+00 0. -1.
          4    1    3    3  502    0  0.73754860844E+02  0.22763659370E+03 -0.22695577243E+03  0.32979860662E+03  0.00000000000E+00 0.  1.
         -4    1    4    4    0  501 -0.17604750154E+03  0.11033570693E+03  0.16508634167E+03  0.26536802978E+03  0.00000000000E+00 0. -1.
</event>
<event>
 8    1  0.7096247E-006  0.1456037E+04  0.7818608E-02  0.8435259E-01
          1   -1    0    0  502    0  0.00000000000E+00  0.00000000000E+00  0.79457487039E+03  0.79457487039E+03  0.00000000000E+00 0. -1.
         -1   -1    0    0    0  501 -0.00000000000E+00 -0.00000000000E+00 -0.28277895632E+04  0.28277895632E+04  0.00000000000E+00 0.  1.
    9000010    2    1    2  502    0 -0.87917103776E+03 -0.60480000457E+03 -0.14506594941E+04  0.20594148285E+04  0.99902537940E+03 0.  0.
   -9000010    2    1    2    0  501  0.87917103776E+03  0.60480000457E+03 -0.58255519877E+03  0.15629496052E+04  0.98219964852E+03 0.  0.
        -13    1    3    3    0    0 -0.10366131842E+04 -0.44208517395E+03 -0.14455688190E+04  0.18329417384E+04  0.10566000000E+00 0.  1.
         13    1    4    4    0    0  0.41498654511E+03  0.90348866150E+02  0.23968946431E+03  0.48767591770E+03  0.10566000000E+00 0. -1.
          4    1    3    3  502    0  0.15744214640E+03 -0.16271483061E+03 -0.50906750931E+01  0.22647309009E+03  0.00000000000E+00 0.  1.
         -4    1    4    4    0  501  0.46418449265E+03  0.51445113842E+03 -0.82224466307E+03  0.10752736875E+04  0.00000000000E+00 0. -1.
</event>
<event>
 8    1  0.7096247E-006  0.1147652E+04  0.7818608E-02  0.8647060E-01
         -2   -1    0    0    0  501 -0.00000000000E+00  0.00000000000E+00  0.46773145837E+03  0.46773145837E+03  0.00000000000E+00 0. -1.
          2   -1    0    0  502    0  0.00000000000E+00 -0.00000000000E+00 -0.28192434928E+04  0.28192434928E+04  0.00000000000E+00 0.  1.
    9000010    2    1    2  502    0 -0.56409727762E+03 -0.15898160822E+03 -0.12427305156E+04  0.17013249075E+04  0.10033177045E+04 0.  0.
   -9000010    2    1    2    0  501  0.56409727762E+03  0.15898160822E+03 -0.11087815189E+04  0.15856500437E+04  0.97026218835E+03 0.  0.
        -13    1    3    3    0    0 -0.50814912277E+03 -0.53008261246E+03 -0.10448067713E+04  0.12770373164E+04  0.10566000000E+00 0.  1.
         13    1    4    4    0    0  0.28746274425E+03  0.20155815920E+03  0.83565190244E+02  0.36089288308E+03  0.10566000000E+00 0. -1.
          4    1    3    3  502    0 -0.55948154849E+02  0.37110100424E+03 -0.19792374425E+03  0.42428759105E+03  0.00000000000E+00 0.  1.
         -4    1    4    4    0  501  0.27663453336E+03 -0.42576550982E+02 -0.11923467091E+04  0.12247571606E+04  0.00000000000E+00 0. -1.
</event>
<event>
 8    1  0.7096247E-006  0.1660184E+04  0.7818608E-02  0.8322841E-01
         -1   -1    0    0    0  501 -0.00000000000E+00  0.00000000000E+00  0.89367700327E+03  0.89367700327E+03  0.00000000000E+00 0.  1.
          1   -1    0    0  502    0  0.00000000000E+00 -0.00000000000E+00 -0.36823793882E+04  0.36823793882E+04  0.00000000000E+00 0. -1.
    9000010    2    1    2  502    0  0.13120042286E+04 -0.26055837038E+03 -0.23186226287E+04  0.28534036175E+04  0.98825884767E+03 0.  0.
   -9000010    2    1    2    0  501 -0.13120042286E+04  0.26055837038E+03 -0.47007975617E+03  0.17226527739E+04  0.97842314059E+03 0.  0.
        -13    1    3    3    0    0  0.10805591114E+04  0.41680863783E+02 -0.22054020997E+04  0.24562458591E+04  0.10566000000E+00 0.  1.
         13    1    4    4    0    0 -0.18046625309E+03  0.46676220454E+03 -0.21426086136E+03  0.54437372453E+03  0.10566000000E+00 0. -1.
          4    1    3    3  502    0  0.23144511719E+03 -0.30223923416E+03 -0.11322052903E+03  0.39715775849E+03  0.00000000000E+00 0.  1.
         -4    1    4    4    0  501 -0.11315379755E+04 -0.20620383416E+03 -0.25581889481E+03  0.11782790494E+04  0.00000000000E+00 0. -1.
</event>
<event>
 8    1  0.7096247E-006  0.1738812E+04  0.7818608E-02  0.8283922E-01
         -2   -1    0    0    0  501 -0.00000000000E+00  0.00000000000E+00  0.27713353589E+04  0.27713353589E+04  0.00000000000E+00 0. -1.
          2   -1    0    0  502    0  0.00000000000E+00 -0.00000000000E+00 -0.10920724742E+04  0.10920724742E+04  0.00000000000E+00 0.  1.
    9000010    2    1    2  502    0 -0.28039261740E+03  0.13952727437E+04  0.89834272081E+03  0.19531014510E+04  0.99104973880E+03 0.  0.
   -9000010    2    1    2    0  501  0.28039261740E+03 -0.13952727437E+04  0.78092016387E+03  0.19103063821E+04  0.10069896335E+04 0.  0.
        -13    1    3    3    0    0 -0.50992224406E+02  0.12790706613E+04  0.31897621438E+03  0.13192300027E+04  0.10566000000E+00 0.  1.
         13    1    4    4    0    0  0.96681738196E+02 -0.64220866689E+03  0.91661436928E+03  0.11233704836E+04  0.10566000000E+00 0. -1.
          4    1    3    3  502    0 -0.22940039299E+03  0.11620208244E+03  0.57936650643E+03  0.63387144836E+03  0.00000000000E+00 0.  1.
         -4    1    4    4    0  501  0.18371087920E+03 -0.75306407682E+03 -0.13569420541E+03  0.78693589848E+03  0.00000000000E+00 0. -1.
</event>
<event>
 8    1  0.7096247E-006  0.1281757E+04  0.7818608E-02  0.8547416E-01
          2   -1    0    0  502    0  0.00000000000E+00  0.00000000000E+00  0.18264661851E+04  0.18264661851E+04  0.00000000000E+00 0.  1.
         -2   -1    0    0    0  501 -0.00000000000E+00 -0.00000000000E+00 -0.96779685412E+03  0.96779685412E+03  0.00000000000E+00 0. -1.
    9000010    2    1    2  502    0  0.58221409426E+03  0.55415536123E+03  0.53343199766E+02  0.12659776603E+04  0.97662302009E+03 0.  0.
   -9000010    2    1    2    0  501 -0.58221409426E+03 -0.55415536123E+03  0.80532613126E+03  0.15282853790E+04  0.10203159344E+04 0.  0.
        -13    1    3    3    0    0  0.43071914309E+03 -0.20371635477E+03 -0.75613557531E+02  0.48242797874E+03  0.10566000000E+00 0.  1.
         13    1    4    4    0    0 -0.58715411992E+03 -0.55909534190E+02  0.10154026551E+02  0.58989740801E+03  0.10566000000E+00 0. -1.
          4    1    3    3  502    0  0.15149495117E+03  0.75787171600E+03  0.12895675730E+03  0.78354968152E+03  0.00000000000E+00 0.  1.
         -4    1    4    4    0  501  0.49400256658E+01 -0.49824582704E+03  0.79517210471E+03  0.93838797101E+03  0.00000000000E+00 0. -1.
</event>
<event>
 8    1  0.7096247E-006  0.1253851E+04  0.7818608E-02  0.8567078E-01
          2   -1    0    0  502    0  0.00000000000E+00  0.00000000000E+00  0.23895620824E+04  0.23895620824E+04  0.00000000000E+00 0. -1.
         -2   -1    0    0    0  501 -0.00000000000E+00 -0.00000000000E+00 -0.66491255645E+03  0.66491255645E+03  0.00000000000E+00 0.  1.
    9000010    2    1    2  502    0 -0.23798315950E+03  0.74998227112E+03  0.72328065870E+03  0.14670499350E+04  0.10049831886E+04 0.  0.
   -9000010    2    1    2    0  501  0.23798315950E+03 -0.74998227112E+03  0.10013688672E+04  0.15874247038E+04  0.94766459830E+03 0.  0.
        -13    1    3    3    0    0 -0.19052748433E+03  0.46002143269E+03  0.96545598432E+03  0.10862898829E+04  0.10566000000E+00 0.  1.
         13    1    4    4    0    0  0.48926736168E+03 -0.81993302753E+03  0.67347047721E+03  0.11684328032E+04  0.10566000000E+00 0. -1.
          4    1    3    3  502    0 -0.47455675171E+02  0.28996083843E+03 -0.24217532563E+03  0.38076005210E+03  0.00000000000E+00 0.  1.
         -4    1    4    4    0  501 -0.25128420218E+03  0.69950756408E+02  0.32789839000E+03  0.41899190058E+03  0.00000000000E+00 0. -1.
</event>
<event>
 8    1  0.7096247E-006  0.1105075E+04  0.7818608E-02  0.8681691E-01
          2   -1    0    0  502    0  0.00000000000E+00  0.00000000000E+00  0.20073587956E+04  0.20073587956E+04  0.00000000000E+00 0. -1.
         -2   -1    0    0    0  501 -0.00000000000E+00 -0.00000000000E+00 -0.71603937478E+03  0.71603937478E+03  0.00000000000E+00 0.  1.
    9000010    2    1    2  502    0  0.30136835637E+03  0.22918887483E+03  0.11893279823E+04  0.16477917023E+04  0.10758094711E+04 0.  0.
   -9000010    2    1    2    0  501 -0.30136835637E+03 -0.22918887483E+03  0.10199143855E+03  0.10756064681E+04  0.10015870377E+04 0.  0.
        -13    1    3    3    0    0  0.27536173809E+03  0.65185205665E+03  0.84384524810E+03  0.11012765341E+04  0.10566000000E+00 0.  1.
         13    1    4    4    0    0 -0.47993294271E+02  0.25975404220E+03 -0.29556725841E+03  0.39640324688E+03  0.10566000000E+00 0. -1.
          4    1    3    3  502    0  0.26006618283E+02 -0.42266318183E+03  0.34548273417E+03  0.54651516820E+03  0.00000000000E+00 0.  1.
         -4    1    4    4    0  501 -0.25337506210E+03 -0.48894291703E+03  0.39755869695E+03  0.67920322123E+03  0.00000000000E+00 0. -1.
</event>
<event>
 8    1  0.7096247E-006  0.1312863E+04  0.7818608E-02  0.8526098E-01
         -2   -1    0    0    0  501 -0.00000000000E+00  0.00000000000E+00  0.10042773247E+04  0.10042773247E+04  0.00000000000E+00 0.  1.
          2   -1    0    0  502    0  0.00000000000E+00 -0.00000000000E+00 -0.17413074291E+04  0.17413074291E+04  0.00000000000E+00 0. -1.
    9000010    2    1    2  502    0 -0.80559770979E+03 -0.21108520042E+03 -0.53729421417E+03  0.14369690081E+04  0.10405047938E+04 0.  0.
   -9000010    2    1    2    0  501  0.80559770979E+03  0.21108520042E+03 -0.19973589025E+03  0.13086157458E+04  0.98946253711E+03 0.  0.
        -13    1    3    3    0    0 -0.26339765854E+03 -0.58257774880E+03 -0.98997336036E+02  0.64697422177E+03  0.10566000000E+00 0.  1.
         13    1    4    4    0    0 -0.12646042382E+03  0.16391368924E+03  0.20502699798E+03  0.29136921144E+03  0.10566000000E+00 0. -1.
          4    1    3    3  502    0 -0.54220005125E+03  0.37149254838E+03 -0.43829687813E+03  0.78999478635E+03  0.00000000000E+00 0.  1.
         -4    1    4    4    0  501  0.93205813361E+03  0.47171511181E+02 -0.40476288823E+03  0.10172465343E+04  0.00000000000E+00 0. -1.
</event>
<event>
 8    1  0.7096247E-006  0.1376603E+04  0.7818608E-02  0.8484257E-01
          1   -1    0    0  502    0  0.00000000000E+00  0.00000000000E+00  0.37321279709E+04  0.37321279709E+04  0.00000000000E+00 0.  1.
         -1   -1    0    0    0  501 -0.00000000000E+00 -0.00000000000E+00 -0.51475414145E+03  0.51475414145E+03  0.00000000000E+00 0. -1.
    9000010    2    1    2  502    0  0.49667713268E+03  0.85472108970E+03  0.18534283034E+04  0.23073366617E+04  0.95465683836E+03 0.  0.
   -9000010    2    1    2    0  501 -0.49667713268E+03 -0.85472108970E+03  0.13639455260E+04  0.19395454507E+04  0.96138069566E+03 0.  0.
        -13    1    3    3    0    0 -0.16291732110E+03  0.37174847034E+03  0.17819876347E+03  0.44327619966E+03  0.10566000000E+00 0.  1.
         13    1    4    4    0    0 -0.13344913490E+03 -0.55330373231E+03  0.13525239717E+04  0.14674041015E+04  0.10566000000E+00 0. -1.
          4    1    3    3  502    0  0.65959445378E+03  0.48297261936E+03  0.16752295400E+04  0.18640604620E+04  0.00000000000E+00 0.  1.
         -4    1    4    4    0  501 -0.36322799778E+03 -0.30141735739E+03  0.11421554276E+02  0.47214134918E+03  0.00000000000E+00 0. -1.
</event>
<event>
 8    1  0.7096247E-006  0.1277036E+04  0.7818608E-02  0.8550706E-01
          2   -1    0    0  502    0  0.00000000000E+00  0.00000000000E+00  0.17445278488E+04  0.17445278488E+04  0.00000000000E+00 0. -1.
         -2   -1    0    0    0  501 -0.00000000000E+00 -0.00000000000E+00 -0.94881134491E+03  0.94881134491E+03  0.00000000000E+00 0.  1.
    9000010    2    1    2  502    0 -0.57628384346E+03 -0.54109851603E+03  0.23699511323E+03  0.13067153124E+04  0.10131374791E+04 0.  0.
   -9000010    2    1    2    0  501  0.57628384346E+03  0.54109851603E+03  0.55872139065E+03  0.13866238814E+04  0.99280689143E+03 0.  0.
        -13    1    3    3    0    0 -0.52494889889E+03 -0.16601395487E+03  0.57723871933E+03  0.79770704518E+03  0.10566000000E+00 0.  1.
         13    1    4    4    0    0 -0.20353733526E+03  0.38008714738E+03  0.37034689947E+03  0.56837533687E+03  0.10566000000E+00 0. -1.
          4    1    3    3  502    0 -0.51334944565E+02 -0.37508456117E+03 -0.34024360610E+03  0.50900826718E+03  0.00000000000E+00 0.  1.
         -4    1    4    4    0  501  0.77982117872E+03  0.16101136865E+03  0.18837449118E+03  0.81824854448E+03  0.00000000000E+00 0. -1.
</event>
<event>
 8    1  0.7096247E-006  0.1053261E+04  0.7818608E-02  0.8726096E-01
         -2   -1    0    0    0  501 -0.00000000000E+00  0.00000000000E+00  0.77742697801E+03  0.77742697801E+03  0.00000000000E+00 0.  1.
          2   -1    0    0  502    0  0.00000000000E+00 -0.00000000000E+00 -0.15059262070E+04  0.15059262070E+04  0.00000000000E+00 0. -1.
    9000010    2    1    2  502    0  0.29722706336E+03  0.65849598062E+02 -0.62773345730E+03  0.12317972925E+04  0.10151823381E+04 0.  0.
   -9000010    2    1    2    0  501 -0.29722706336E+03 -0.65849598062E+02 -0.10076577169E+03  0.10515558925E+04  0.10014669029E+04 0.  0.
        -13    1    3    3    0    0  0.42910752030E+03 -0.12694161807E+03 -0.81675859161E+03  0.93131200277E+03  0.10566000000E+00 0.  1.
         13    1    4    4    0    0 -0.57127454944E+03 -0.15552922462E+03  0.20945174169E+03  0.62802387997E+03  0.10566000000E+00 0. -1.
          4    1    3    3  502    0 -0.13188045694E+03  0.19279121613E+03  0.18902513431E+03  0.30048528972E+03  0.00000000000E+00 0.  1.
         -4    1    4    4    0  501  0.27404748608E+03  0.89679626557E+02 -0.31021751339E+03  0.42353201256E+03  0.00000000000E+00 0. -1.
</event>
<event>
 8    1  0.7096247E-006  0.2039905E+04  0.7818608E-02  0.8152336E-01
         -1   -1    0    0    0  501 -0.00000000000E+00  0.00000000000E+00  0.33462655953E+04  0.33462655953E+04  0.00000000000E+00 0.  1.
          1   -1    0    0  502    0  0.00000000000E+00 -0.00000000000E+00 -0.12700140373E+04  0.12700140373E+04  0.00000000000E+00 0. -1.
    9000010    2    1    2  502    0 -0.17298260740E+04 -0.40713589873E+03  0.13711650301E+04  0.24575490245E+04  0.10006976474E+04 0.  0.
   -9000010    2    1    2    0  501  0.17298260740E+04  0.40713589873E+03  0.70508652792E+03  0.21587306082E+04  0.10024534604E+04 0.  0.
        -13    1    3    3    0    0 -0.37599631609E+03 -0.10354476247E+03  0.91891843234E+03  0.99825139320E+03  0.10566000000E+00 0.  1.
         13    1    4    4    0    0  0.25988241329E+03 -0.21496402903E+03 -0.12492378467E+03  0.35965867938E+03  0.10566000000E+00 0. -1.
          4    1    3    3  502    0 -0.13538297580E+04 -0.30359113626E+03  0.45224659771E+03  0.14592976313E+04  0.00000000000E+00 0.  1.
         -4    1    4    4    0  501  0.14699436608E+04  0.62209992776E+03  0.83001031258E+03  0.17990719288E+04  0.00000000000E+00 0. -1.
</event>
<event>
 8    1  0.7096247E-006  0.1098679E+04  0.7818608E-02  0.8687033E-01
         -2   -1    0    0    0  501 -0.00000000000E+00  0.00000000000E+00  0.10163570667E+04  0.10163570667E+04  0.00000000000E+00 0.  1.
          2   -1    0    0  502    0  0.00000000000E+00 -0.00000000000E+00 -0.30303459766E+04  0.30303459766E+04  0.00000000000E+00 0. -1.
    9000010    2    1    2  502    0 -0.43865750164E+03 -0.60337942929E+02  0.57182342225E+03  0.12360365840E+04  0.10023688641E+04 0.  0.
   -9000010    2    1    2    0  501  0.43865750164E+03  0.60337942929E+02 -0.25858123321E+04  0.28106664593E+04  0.10086423831E+04 0.  0.
        -13    1    3    3    0    0 -0.48822379980E+03 -0.18945597353E+03 -0.11437512384E+03  0.53603892089E+03  0.10566000000E+00 0.  1.
         13    1    4    4    0    0  0.37227700015E+03  0.38027101343E+03 -0.61641987646E+03  0.81435230935E+03  0.10566000000E+00 0. -1.
          4    1    3    3  502    0  0.49566298157E+02  0.12911803060E+03  0.68619854609E+03  0.69999766314E+03  0.00000000000E+00 0.  1.
         -4    1    4    4    0  501  0.66380501491E+02 -0.31993307050E+03 -0.19693924557E+04  0.19963141499E+04  0.00000000000E+00 0. -1.
</event>
<event>
 8    1  0.7096247E-006  0.1696373E+04  0.7818608E-02  0.8304659E-01
          2   -1    0    0  502    0  0.00000000000E+00  0.00000000000E+00  0.23472181331E+04  0.23472181331E+04  0.00000000000E+00 0.  1.
         -2   -1    0    0    0  501 -0.00000000000E+00 -0.00000000000E+00 -0.14498781086E+04  0.14498781086E+04  0.00000000000E+00 0. -1.
    9000010    2    1    2  502    0 -0.64397388815E+03  0.12080153126E+04  0.11930868008E+04  0.20681299262E+04  0.98979892580E+03 0.  0.
   -9000010    2    1    2    0  501  0.64397388815E+03 -0.12080153126E+04 -0.29574677627E+03  0.17289663154E+04  0.10138318402E+04 0.  0.
        -13    1    3    3    0    0 -0.17732221908E+03  0.80835660088E+03  0.12643374277E+03  0.83717923173E+03  0.10566000000E+00 0.  1.
         13    1    4    4    0    0  0.39684901672E+03 -0.90451959327E+03  0.28554679857E+03  0.10281934750E+04  0.10566000000E+00 0. -1.
          4    1    3    3  502    0 -0.46665166907E+03  0.39965871168E+03  0.10666530580E+04  0.12309506945E+04  0.00000000000E+00 0.  1.
         -4    1    4    4    0  501  0.24712487143E+03 -0.30349571929E+03 -0.58129357485E+03  0.70077284042E+03  0.00000000000E+00 0. -1.
</event>
<event>
 8    1  0.7096247E-006  0.1115642E+04  0.7818608E-02  0.8672946E-01
          1   -1    0    0  502    0  0.00000000000E+00  0.00000000000E+00  0.84119298994E+03  0.84119298994E+03  0.00000000000E+00 0. -1.
         -1   -1    0    0    0  501 -0.00000000000E+00 -0.00000000000E+00 -0.25807351424E+04  0.25807351424E+04  0.00000000000E+00 0.  1.
    9000010    2    1    2  502    0 -0.12264577866E+03 -0.45989790924E+03  0.24170219050E+03  0.11546459504E+04  0.10238355571E+04 0.  0.
   -9000010    2    1    2    0  501  0.12264577866E+03  0.45989790924E+03 -0.19812443430E+04  0.22672821820E+04  0.99432955914E+03 0.  0.
        -13    1    3    3    0    0 -0.11215337742E+02 -0.61943219227E+03  0.52424394596E+03  0.81157485833E+03  0.10566000000E+00 0.  1.
         13    1    4    4    0    0  0.53862242019E+03  0.41748958675E+03 -0.13046442430E+04  0.14719063417E+04  0.10566000000E+00 0. -1.
          4    1    3    3  502    0 -0.11143044092E+03  0.15953428303E+03 -0.28254175546E+03  0.34307109205E+03  0.00000000000E+00 0.  1.
         -4    1    4    4    0  501 -0.41597664153E+03  0.42408322499E+02 -0.67660009997E+03  0.79537584034E+03  0.00000000000E+00 0. -1.
</event>
<event>
 8    1  0.7096247E-006  0.1223723E+04  0.7818608E-02  0.8588909E-01
          2   -1    0    0  502    0  0.00000000000E+00  0.00000000000E+00  0.13311313689E+04  0.13311313689E+04  0.00000000000E+00 0.  1.
         -2   -1    0    0    0  501 -0.00000000000E+00 -0.00000000000E+00 -0.12072836099E+04  0.12072836099E+04  0.00000000000E+00 0. -1.
    9000010    2    1    2  502    0  0.56840649690E+03 -0.33841536419E+03  0.39135591630E+03  0.12629980889E+04  0.10021944995E+04 0.  0.
   -9000010    2    1    2    0  501 -0.56840649690E+03  0.33841536419E+03 -0.26750815723E+03  0.12754168899E+04  0.10571266360E+04 0.  0.
        -13    1    3    3    0    0 -0.21119161066E+03  0.11943693526E+02  0.34793370118E+03  0.40718843281E+03  0.10566000000E+00 0.  1.
         13    1    4    4    0    0  0.27433602650E+03  0.72271322613E+01 -0.24774714260E+03  0.36971765539E+03  0.10566000000E+00 0. -1.
          4    1    3    3  502    0  0.77959810757E+03 -0.35035905772E+03  0.43422215117E+02  0.85580965606E+03  0.00000000000E+00 0.  1.
         -4    1    4    4    0  501 -0.84274252341E+03  0.33118823193E+03 -0.19761014635E+02  0.90569923453E+03  0.00000000000E+00 0. -1.
</event>
<event>
 8    1  0.7096247E-006  0.1803960E+04  0.7818608E-02  0.8253245E-01
          2   -1    0    0  502    0  0.00000000000E+00  0.00000000000E+00  0.28085999952E+04  0.28085999952E+04  0.00000000000E+00 0.  1.
         -2   -1    0    0    0  501 -0.00000000000E+00 -0.00000000000E+00 -0.11642164976E+04  0.11642164976E+04  0.00000000000E+00 0. -1.
    9000010    2    1    2  502    0  0.14556945646E+04  0.48476909016E+03  0.67859910147E+03  0.19109456250E+04  0.91496923727E+03 0.  0.
   -9000010    2    1    2    0  501 -0.14556945646E+04 -0.48476909016E+03  0.96578439618E+03  0.20618708678E+04  0.98210194967E+03 0.  0.
        -13    1    3    3    0    0  0.10506791021E+04 -0.54881220098E+02  0.64772408348E+03  0.12355100256E+04  0.10566000000E+00 0.  1.
         13    1    4    4    0    0 -0.19609719904E+03 -0.16313776927E+03 -0.19339631122E+03  0.32010964932E+03  0.10566000000E+00 0. -1.
          4    1    3    3  502    0  0.40501546247E+03  0.53965031025E+03  0.30875017987E+02  0.67543559940E+03  0.00000000000E+00 0.  1.
         -4    1    4    4    0  501 -0.12595973655E+04 -0.32163132089E+03  0.11591807074E+04  0.17417612185E+04  0.00000000000E+00 0. -1.
</event>
<event>
 8    1  0.7096247E-006  0.1403470E+04  0.7818608E-02  0.8467313E-01
         -1   -1    0    0    0  501 -0.00000000000E+00  0.00000000000E+00  0.32718813698E+04  0.32718813698E+04  0.00000000000E+00 0.  1.
          1   -1    0    0  502    0  0.00000000000E+00 -0.00000000000E+00 -0.89197337319E+03  0.89197337319E+03  0.00000000000E+00 0. -1.
    9000010    2    1    2  502    0 -0.70736297296E+03  0.64170054872E+03  0.41715435214E+01  0.14056241716E+04  0.10313195141E+04 0.  0.
   -9000010    2    1    2    0  501  0.70736297296E+03 -0.64170054872E+03  0.23757364531E+04  0.27582305714E+04  0.10254609796E+04 0.  0.
        -13    1    3    3    0    0 -0.18995541383E+02  0.21332724431E+03  0.43692071242E+03  0.48658921470E+03  0.10566000000E+00 0.  1.
         13    1    4    4    0    0 -0.12540107733E+03 -0.54712062834E+03  0.88317062114E+03  0.10464496019E+04  0.10566000000E+00 0. -1.
          4    1    3    3  502    0 -0.68836743158E+03  0.42837330442E+03 -0.43274916889E+03  0.91903495688E+03  0.00000000000E+00 0.  1.
         -4    1    4    4    0  501  0.83276405029E+03 -0.94579920387E+02  0.14925658320E+04  0.17117809695E+04  0.00000000000E+00 0. -1.
</event>
<event>
 8    1  0.7096247E-006  0.1043114E+04  0.7818608E-02  0.8735104E-01
          2   -1    0    0  502    0  0.00000000000E+00  0.00000000000E+00  0.15270847243E+04  0.15270847243E+04  0.00000000000E+00 0.  1.
         -2   -1    0    0    0  501 -0.00000000000E+00 -0.00000000000E+00 -0.76835577773E+03  0.76835577773E+03  0.00000000000E+00 0. -1.
    9000010    2    1    2  502    0 -0.25805835154E+03  0.13046312614E+03  0.68977574306E+02  0.10423549749E+04  0.99906518699E+03 0.  0.
   -9000010    2    1    2    0  501  0.25805835154E+03 -0.13046312614E+03  0.68975137229E+03  0.12530855272E+04  0.10054111809E+04 0.  0.
        -13    1    3    3    0    0 -0.99082271061E+02  0.56518018708E+03 -0.36910002629E+01  0.57381144547E+03  0.10566000000E+00 0.  1.
         13    1    4    4    0    0  0.50313127077E+02  0.59549553582E+02 -0.25532722654E+03  0.26696360026E+03  0.10566000000E+00 0. -1.
          4    1    3    3  502    0 -0.15897608048E+03 -0.43471706094E+03  0.72668574569E+02  0.46854352943E+03  0.00000000000E+00 0.  1.
         -4    1    4    4    0  501  0.20774522447E+03 -0.19001267972E+03  0.94507859883E+03  0.98612192690E+03  0.00000000000E+00 0. -1.
</event>
<event>
 8    1  0.7096247E-006  0.2008449E+04  0.7818608E-02  0.8164961E-01
         -1   -1    0    0    0  501 -0.00000000000E+00  0.00000000000E+00  0.26500552976E+04  0.26500552976E+04  0.00000000000E+00 0. -1.
          1   -1    0    0  502    0  0.00000000000E+00 -0.00000000000E+00 -0.15592727452E+04  0.15592727452E+04  0.00000000000E+00 0.  1.
    9000010    2    1    2  502    0  0.16066226716E+04  0.66102170512E+03  0.22041456660E+03  0.20190940296E+04  0.10049736394E+04 0.  0.
   -9000010    2    1    2    0  501 -0.16066226716E+04 -0.66102170512E+03  0.87036798581E+03  0.21902340132E+04  0.10106426165E+04 0.  0.
        -13    1    3    3    0    0  0.31818131062E+03  0.59092806974E+03 -0.12641910550E+03  0.68294738556E+03  0.10566000000E+00 0.  1.
         13    1    4    4    0    0 -0.52702609858E+03 -0.22508904460E+03  0.85076764881E+03  0.10257812584E+04  0.10566000000E+00 0. -1.
          4    1    3    3  502    0  0.12884413610E+04  0.70093635372E+02  0.34683367210E+03  0.13361466441E+04  0.00000000000E+00 0.  1.
         -4    1    4    4    0  501 -0.10795965730E+04 -0.43593266051E+03  0.19600337002E+02  0.11644527548E+04  0.00000000000E+00 0. -1.
</event>
<event>
 8    1  0.7096247E-006  0.1110147E+04  0.7818608E-02  0.8677481E-01
          1   -1    0    0  502    0  0.00000000000E+00  0.00000000000E+00  0.10449529035E+04  0.10449529035E+04  0.00000000000E+00 0.  1.
         -1   -1    0    0    0  501 -0.00000000000E+00 -0.00000000000E+00 -0.12164611131E+04  0.12164611131E+04  0.00000000000E+00 0. -1.
    9000010    2    1    2  502    0 -0.13502696714E+03 -0.41397878231E+03 -0.28336807916E+03  0.11499198415E+04  0.10258691240E+04 0.  0.
   -9000010    2    1    2    0  501  0.13502696714E+03  0.41397878231E+03  0.11185986952E+03  0.11114941750E+04  0.10165116608E+04 0.  0.
        -13    1    3    3    0    0 -0.88111935546E+02 -0.83367013926E+02  0.38452449418E+03  0.40320326137E+03  0.10566000000E+00 0.  1.
         13    1    4    4    0    0  0.53731380324E+03  0.83927711877E+02  0.20815601777E+03  0.58230483672E+03  0.10566000000E+00 0. -1.
          4    1    3    3  502    0 -0.46915031598E+02 -0.33061176839E+03 -0.66789257333E+03  0.74671658017E+03  0.00000000000E+00 0.  1.
         -4    1    4    4    0  501 -0.40228683610E+03  0.33005107044E+03 -0.96296148243E+02  0.52918933829E+03  0.00000000000E+00 0. -1.
</event>
<event>
 8    1  0.7096247E-006  0.1391558E+04  0.7818608E-02  0.8474778E-01
          2   -1    0    0  502    0  0.00000000000E+00  0.00000000000E+00  0.22016090949E+04  0.22016090949E+04  0.00000000000E+00 0.  1.
         -2   -1    0    0    0  501 -0.00000000000E+00 -0.00000000000E+00 -0.87958147452E+03  0.87958147452E+03  0.00000000000E+00 0. -1.
    9000010    2    1    2  502    0 -0.13554277961E+03  0.96746446816E+03  0.65426985948E+03  0.15403225488E+04  0.99507043126E+03 0.  0.
   -9000010    2    1    2    0  501  0.13554277961E+03 -0.96746446816E+03  0.66775776088E+03  0.15408680206E+04  0.98692172301E+03 0.  0.
        -13    1    3    3    0    0 -0.49165988809E+03  0.85581722531E+03  0.61994189295E+03  0.11655387297E+04  0.10566000000E+00 0.  1.
         13    1    4    4    0    0  0.48431487829E+03 -0.16750586574E+03  0.30037514899E+03  0.59400703504E+03  0.10566000000E+00 0. -1.
          4    1    3    3  502    0  0.35611710847E+03  0.11164724285E+03  0.34327966537E+02  0.37478381911E+03  0.00000000000E+00 0.  1.
         -4    1    4    4    0  501 -0.34877209868E+03 -0.79995860241E+03  0.36738261189E+03  0.94686098553E+03  0.00000000000E+00 0. -1.
</event>
<event>
 8    1  0.7096247E-006  0.1029477E+04  0.7818608E-02  0.8747378E-01
          2   -1    0    0  502    0  0.00000000000E+00  0.00000000000E+00  0.24498292959E+04  0.24498292959E+04  0.00000000000E+00 0.  1.
         -2   -1    0    0    0  501 -0.00000000000E+00 -0.00000000000E+00 -0.54181106971E+03  0.54181106971E+03  0.00000000000E+00 0. -1.
    9000010    2    1    2  502    0 -0.17258567386E+02  0.25982880345E+03  0.16296424536E+04  0.19305871845E+04  0.10018101045E+04 0.  0.
   -9000010    2    1    2    0  501  0.17258567386E+02 -0.25982880345E+03  0.27837577260E+03  0.10610531810E+04  0.99021811585E+03 0.  0.
        -13    1    3    3    0    0  0.26831338576E+03 -0.27669527295E+03  0.38139197320E+03  0.54222891424E+03  0.10566000000E+00 0.  1.
         13    1    4    4    0    0 -0.41929431258E+03  0.10110524392E+03  0.23934856532E+03  0.49327247824E+03  0.10566000000E+00 0. -1.
          4    1    3    3  502    0 -0.28557195315E+03  0.53652407640E+03  0.12482504804E+04  0.13883582703E+04  0.00000000000E+00 0.  1.
         -4    1    4    4    0  501  0.43655287997E+03 -0.36093404737E+03  0.39027207279E+02  0.56778070279E+03  0.00000000000E+00 0. -1.
</event>
<event>
 8    1  0.7096247E-006  0.1922579E+04  0.7818608E-02  0.8200662E-01
         -2   -1    0    0    0  501 -0.00000000000E+00  0.00000000000E+00  0.10077917519E+04  0.10077917519E+04  0.00000000000E+00 0.  1.
          2   -1    0    0  502    0  0.00000000000E+00 -0.00000000000E+00 -0.40188855290E+04  0.40188855290E+04  0.00000000000E+00 0. -1.
    9000010    2    1    2  502    0 -0.15476831064E+04  0.52867265582E+03 -0.76671991441E+03  0.20751130001E+04  0.10214777341E+04 0.  0.
   -9000010    2    1    2    0  501  0.15476831064E+04 -0.52867265582E+03 -0.22443738627E+04  0.29515642807E+04  0.99984993513E+03 0.  0.
        -13    1    3    3    0    0  0.65726856251E+02  0.42659289531E+02 -0.32338808740E+03  0.33274569997E+03  0.10566000000E+00 0.  1.
         13    1    4    4    0    0 -0.32262256489E+02  0.62613066052E+00  0.83092380167E+02  0.89138095331E+02  0.10566000000E+00 0. -1.
          4    1    3    3  502    0 -0.16134099627E+04  0.48601336629E+03 -0.44333182701E+03  0.17423673002E+04  0.00000000000E+00 0.  1.
         -4    1    4    4    0  501  0.15799453629E+04 -0.52929878649E+03 -0.23274662429E+04  0.28624261854E+04  0.00000000000E+00 0. -1.
</event>
<event>
 8    1  0.7096247E-006  0.1184387E+04  0.7818608E-02  0.8618413E-01
          2   -1    0    0  502    0  0.00000000000E+00  0.00000000000E+00  0.10355492197E+04  0.10355492197E+04  0.00000000000E+00 0.  1.
         -2   -1    0    0    0  501 -0.00000000000E+00 -0.00000000000E+00 -0.13561718092E+04  0.13561718092E+04  0.00000000000E+00 0. -1.
    9000010    2    1    2  502    0  0.12939613069E+03  0.60273163518E+03 -0.20114113968E+03  0.12081406415E+04  0.10193710164E+04 0.  0.
   -9000010    2    1    2    0  501 -0.12939613069E+03 -0.60273163518E+03 -0.11948144980E+03  0.11835803873E+04  0.10032736086E+04 0.  0.
        -13    1    3    3    0    0 -0.38907934720E+02  0.74906983899E+03  0.17557556116E+03  0.77035461958E+03  0.10566000000E+00 0.  1.
         13    1    4    4    0    0 -0.51521985730E+03 -0.49748756123E+03 -0.25663733026E+03  0.76079439100E+03  0.10566000000E+00 0. -1.
          4    1    3    3  502    0  0.16830406541E+03 -0.14633820381E+03 -0.37671670084E+03  0.43778602195E+03  0.00000000000E+00 0.  1.
         -4    1    4    4    0  501  0.38582372661E+03 -0.10524407395E+03  0.13715588046E+03  0.42278599630E+03  0.00000000000E+00 0. -1.
</event>
<event>
 8    1  0.7096247E-006  0.1100164E+04  0.7818608E-02  0.8685789E-01
          2   -1    0    0  502    0  0.00000000000E+00  0.00000000000E+00  0.99718215006E+03  0.99718215006E+03  0.00000000000E+00 0.  1.
         -2   -1    0    0    0  501 -0.00000000000E+00 -0.00000000000E+00 -0.12370980990E+04  0.12370980990E+04  0.00000000000E+00 0. -1.
    9000010    2    1    2  502    0 -0.13540599489E+03  0.42962910459E+03  0.32075980103E+02  0.11102575760E+04  0.10142618329E+04 0.  0.
   -9000010    2    1    2    0  501  0.13540599489E+03 -0.42962910459E+03 -0.27199192905E+03  0.11240226730E+04  0.99324287518E+03 0.  0.
        -13    1    3    3    0    0  0.32586810430E+03 -0.86531374857E+02  0.20781160623E+03  0.39605981250E+03  0.10566000000E+00 0.  1.
         13    1    4    4    0    0  0.67749285878E+02 -0.62844816762E+03 -0.50594010402E+03  0.80963724293E+03  0.10566000000E+00 0. -1.
          4    1    3    3  502    0 -0.46127409919E+03  0.51616047944E+03 -0.17573562612E+03  0.71419776351E+03  0.00000000000E+00 0.  1.
         -4    1    4    4    0  501  0.67656709009E+02  0.19881906303E+03  0.23394817497E+03  0.31438543012E+03  0.00000000000E+00 0. -1.
</event>
<event>
 8    1  0.7096247E-006  0.1142784E+04  0.7818608E-02  0.8650939E-01
          1   -1    0    0  502    0  0.00000000000E+00  0.00000000000E+00  0.14587817558E+04  0.14587817558E+04  0.00000000000E+00 0.  1.
         -1   -1    0    0    0  501 -0.00000000000E+00 -0.00000000000E+00 -0.93197287255E+03  0.93197287255E+03  0.00000000000E+00 0. -1.
    9000010    2    1    2  502    0  0.49729547029E+03 -0.29792695926E+03  0.50370178378E+03  0.12637460399E+04  0.10036310620E+04 0.  0.
   -9000010    2    1    2    0  501 -0.49729547029E+03  0.29792695926E+03  0.23107099473E+02  0.11270085884E+04  0.96620451383E+03 0.  0.
        -13    1    3    3    0    0  0.21768681549E+03  0.10900903694E+03  0.69334020150E+03  0.73484091200E+03  0.10566000000E+00 0.  1.
         13    1    4    4    0    0 -0.17197835580E+03 -0.53916911628E+02  0.45030876850E+03  0.48503771645E+03  0.10566000000E+00 0. -1.
          4    1    3    3  502    0  0.27960865481E+03 -0.40693599620E+03 -0.18963841772E+03  0.52890512790E+03  0.00000000000E+00 0.  1.
         -4    1    4    4    0  501 -0.32531711449E+03  0.35184387089E+03 -0.42720166903E+03  0.64197087199E+03  0.00000000000E+00 0. -1.
</event>
<event>
 8    1  0.7096247E-006  0.1304913E+04  0.7818608E-02  0.8531488E-01
          2   -1    0    0  502    0  0.00000000000E+00  0.00000000000E+00  0.11344388470E+04  0.11344388470E+04  0.00000000000E+00 0.  1.
         -2   -1    0    0    0  501 -0.00000000000E+00 -0.00000000000E+00 -0.16432277542E+04  0.16432277542E+04  0.00000000000E+00 0. -1.
    9000010    2    1    2  502    0 -0.21189283233E+03 -0.80682024952E+03  0.15398337405E+03  0.13151386462E+04  0.10049981551E+04 0.  0.
   -9000010    2    1    2    0  501  0.21189283233E+03  0.80682024952E+03 -0.66277228120E+03  0.14625279550E+04  0.10019298553E+04 0.  0.
        -13    1    3    3    0    0  0.17440168802E+03 -0.67935386681E+03 -0.24733265672E+03  0.74371438024E+03  0.10566000000E+00 0.  1.
         13    1    4    4    0    0  0.14609066520E+03 -0.61079232618E+02  0.18772947250E+03  0.24559218458E+03  0.10566000000E+00 0. -1.
          4    1    3    3  502    0 -0.38629452035E+03 -0.12746638271E+03  0.40131603077E+03  0.57142426596E+03  0.00000000000E+00 0.  1.
         -4    1    4    4    0  501  0.65802167128E+02  0.86789948214E+03 -0.85050175370E+03  0.12169357704E+04  0.00000000000E+00 0. -1.
</event>
<event>
 8    1  0.7096247E-006  0.1313609E+04  0.7818608E-02  0.8525595E-01
         -1   -1    0    0    0  501 -0.00000000000E+00  0.00000000000E+00  0.93124498919E+03  0.93124498919E+03  0.00000000000E+00 0.  1.
          1   -1    0    0  502    0  0.00000000000E+00 -0.00000000000E+00 -0.18967870714E+04  0.18967870714E+04  0.00000000000E+00 0. -1.
    9000010    2    1    2  502    0 -0.81395886827E+03 -0.24939775872E+03 -0.69820009501E+03  0.14889076356E+04  0.10023144683E+04 0.  0.
   -9000010    2    1    2    0  501  0.81395886827E+03  0.24939775872E+03 -0.26734198720E+03  0.13391244250E+04  0.99852601681E+03 0.  0.
        -13    1    3    3    0    0 -0.82710640642E+03 -0.28252793342E+03 -0.91723971725E+03  0.12669868787E+04  0.10566000000E+00 0.  1.
         13    1    4    4    0    0  0.55798547755E+03  0.61207672822E+03 -0.32851821796E+03  0.89101624288E+03  0.10566000000E+00 0. -1.
          4    1    3    3  502    0  0.13147538153E+02  0.33130174707E+02  0.21903962224E+03  0.22192075691E+03  0.00000000000E+00 0.  1.
         -4    1    4    4    0  501  0.25597339072E+03 -0.36267896950E+03  0.61176230761E+02  0.44810818212E+03  0.00000000000E+00 0. -1.
</event>
<event>
 8    1  0.7096247E-006  0.1068936E+04  0.7818608E-02  0.8712386E-01
         -2   -1    0    0    0  501 -0.00000000000E+00  0.00000000000E+00  0.28615786084E+03  0.28615786084E+03  0.00000000000E+00 0. -1.
          2   -1    0    0  502    0  0.00000000000E+00 -0.00000000000E+00 -0.42464884830E+04  0.42464884830E+04  0.00000000000E+00 0.  1.
    9000010    2    1    2  502    0  0.23239251908E+03  0.34243086237E+03 -0.25314074475E+04  0.27472906517E+04  0.98403103680E+03 0.  0.
   -9000010    2    1    2    0  501 -0.23239251908E+03 -0.34243086237E+03 -0.14289231747E+04  0.17853556921E+04  0.98712123361E+03 0.  0.
        -13    1    3    3    0    0 -0.24498297740E+03  0.28844985940E+02 -0.12988235253E+03  0.27877971428E+03  0.10566000000E+00 0.  1.
         13    1    4    4    0    0 -0.15931645630E+03  0.33891314082E+03 -0.62911311483E+03  0.73213876600E+03  0.10566000000E+00 0. -1.
          4    1    3    3  502    0  0.47737549648E+03  0.31358587643E+03 -0.24015250949E+04  0.24685109374E+04  0.00000000000E+00 0.  1.
         -4    1    4    4    0  501 -0.73076062779E+02 -0.68134400320E+03 -0.79981005987E+03  0.10532169261E+04  0.00000000000E+00 0. -1.
</event>
<event>
 8    1  0.7096247E-006  0.1044476E+04  0.7818608E-02  0.8733889E-01
         -2   -1    0    0    0  501 -0.00000000000E+00  0.00000000000E+00  0.10237875087E+04  0.10237875087E+04  0.00000000000E+00 0. -1.
          2   -1    0    0  502    0  0.00000000000E+00 -0.00000000000E+00 -0.16146809123E+04  0.16146809123E+04  0.00000000000E+00 0.  1.
    9000010    2    1    2  502    0  0.16702384121E+03  0.21432766225E+03  0.47530795882E+03  0.11402597265E+04  0.10002206146E+04 0.  0.
   -9000010    2    1    2    0  501 -0.16702384121E+03 -0.21432766225E+03 -0.10662013624E+04  0.14982086945E+04  0.10168631356E+04 0.  0.
        -13    1    3    3    0    0  0.96477756079E+02  0.19188783311E+03  0.78912419838E+03  0.81783000039E+03  0.10566000000E+00 0.  1.
         13    1    4    4    0    0 -0.41102661139E+03 -0.43221154583E+03 -0.10001295672E+04  0.11644779337E+04  0.10566000000E+00 0. -1.
          4    1    3    3  502    0  0.70546085126E+02  0.22439829141E+02 -0.31381623956E+03  0.32242972609E+03  0.00000000000E+00 0.  1.
         -4    1    4    4    0  501  0.24400277019E+03  0.21788388358E+03 -0.66071795204E+02  0.33373076080E+03  0.00000000000E+00 0. -1.
</event>
<event>
 8    1  0.7096247E-006  0.1151417E+04  0.7818608E-02  0.8644073E-01
         -2   -1    0    0    0  501 -0.00000000000E+00  0.00000000000E+00  0.62532353309E+03  0.62532353309E+03  0.00000000000E+00 0.  1.
          2   -1    0    0  502    0  0.00000000000E+00 -0.00000000000E+00 -0.23405243315E+04  0.23405243315E+04  0.00000000000E+00 0. -1.
    9000010    2    1    2  502    0 -0.57786453649E+03 -0.32093495650E+02 -0.40745594931E+03  0.12281518790E+04  0.10036828545E+04 0.  0.
   -9000010    2    1    2    0  501  0.57786453649E+03  0.32093495650E+02 -0.13077448491E+04  0.17376959855E+04  0.98713389811E+03 0.  0.
        -13    1    3    3    0    0 -0.40931012663E+03  0.94045552920E+02 -0.73046591935E+03  0.84259113233E+03  0.10566000000E+00 0.  1.
         13    1    4    4    0    0  0.46693887056E+03  0.47282927950E+03 -0.94977030843E+03  0.11591648228E+04  0.10566000000E+00 0. -1.
          4    1    3    3  502    0 -0.16855440986E+03 -0.12613904857E+03  0.32300997004E+03  0.38556074671E+03  0.00000000000E+00 0.  1.
         -4    1    4    4    0  501  0.11092566593E+03 -0.44073578385E+03 -0.35797454064E+03  0.57853116275E+03  0.00000000000E+00 0. -1.
</event>
<event>
 8    1  0.7096247E-006  0.1418032E+04  0.7818608E-02  0.8458291E-01
         -2   -1    0    0    0  501 -0.00000000000E+00  0.00000000000E+00  0.80750873229E+03  0.80750873229E+03  0.00000000000E+00 0.  1.
          2   -1    0    0  502    0  0.00000000000E+00 -0.00000000000E+00 -0.25119287328E+04  0.25119287328E+04  0.00000000000E+00 0. -1.
    9000010    2    1    2  502    0  0.87215145502E+03 -0.17245177531E+03 -0.10233139964E+04  0.18151386277E+04  0.12071325226E+04 0.  0.
   -9000010    2    1    2    0  501 -0.87215145502E+03  0.17245177531E+03 -0.68110600412E+03  0.15042988374E+04  0.10043016619E+04 0.  0.
        -13    1    3    3    0    0  0.33297161727E+03  0.71975316173E+02 -0.11588002975E+04  0.12078363650E+04  0.10566000000E+00 0.  1.
         13    1    4    4    0    0 -0.36738377044E+03 -0.93676065485E+02 -0.83178094159E+03  0.91411464597E+03  0.10566000000E+00 0. -1.
          4    1    3    3  502    0  0.53917983775E+03 -0.24442709149E+03  0.13548630107E+03  0.60730226269E+03  0.00000000000E+00 0.  1.
         -4    1    4    4    0  501 -0.50476768458E+03  0.26612784080E+03  0.15067493747E+03  0.59018419144E+03  0.00000000000E+00 0. -1.
</event>
<event>
 8    1  0.7096247E-006  0.1319376E+04  0.7818608E-02  0.8521712E-01
         -2   -1    0    0    0  501 -0.00000000000E+00  0.00000000000E+00  0.30119374462E+04  0.30119374462E+04  0.00000000000E+00 0. -1.
          2   -1    0    0  502    0  0.00000000000E+00 -0.00000000000E+00 -0.80747316739E+03  0.80747316739E+03  0.00000000000E+00 0.  1.
    9000010    2    1    2  502    0  0.57588389317E+03  0.55793745439E+03  0.21002729837E+04  0.24636277590E+04  0.10076599959E+04 0.  0.
   -9000010    2    1    2    0  501 -0.57588389317E+03 -0.55793745439E+03  0.10419129511E+03  0.13557828546E+04  0.10882806906E+04 0.  0.
        -13    1    3    3    0    0 -0.21710989262E+03 -0.11662473979E+03  0.41984333649E+03  0.48683310669E+03  0.10566000000E+00 0.  1.
         13    1    4    4    0    0 -0.80616344547E+03 -0.20395979079E+03 -0.17469125986E+03  0.84971533145E+03  0.10566000000E+00 0. -1.
          4    1    3    3  502    0  0.79299378579E+03  0.67456219418E+03  0.16804296472E+04  0.19767946523E+04  0.00000000000E+00 0.  1.
         -4    1    4    4    0  501  0.23027955229E+03 -0.35397766360E+03  0.27888255497E+03  0.50606752316E+03  0.00000000000E+00 0. -1.
</event>
<event>
 8    1  0.7096247E-006  0.1469558E+04  0.7818608E-02  0.8427238E-01
          2   -1    0    0  502    0  0.00000000000E+00  0.00000000000E+00  0.10339734859E+04  0.10339734859E+04  0.00000000000E+00 0.  1.
         -2   -1    0    0    0  501 -0.00000000000E+00 -0.00000000000E+00 -0.22223787695E+04  0.22223787695E+04  0.00000000000E+00 0. -1.
    9000010    2    1    2  502    0 -0.55870559697E+03  0.91617284134E+03 -0.19488026760E+03  0.14826509339E+04  0.10043658964E+04 0.  0.
   -9000010    2    1    2    0  501  0.55870559697E+03 -0.91617284134E+03 -0.99352501603E+03  0.17737013215E+04  0.10036930811E+04 0.  0.
        -13    1    3    3    0    0 -0.83492390341E+03  0.82399899957E+03 -0.20710372779E+03  0.11912028547E+04  0.10566000000E+00 0.  1.
         13    1    4    4    0    0  0.17888359395E+03 -0.87528096215E+03 -0.10596623974E+04  0.13860016272E+04  0.10566000000E+00 0. -1.
          4    1    3    3  502    0  0.27621830645E+03  0.92173841767E+02  0.12223460184E+02  0.29144807925E+03  0.00000000000E+00 0.  1.
         -4    1    4    4    0  501  0.37982200302E+03 -0.40891879188E+02  0.66137381353E+02  0.38769969431E+03  0.00000000000E+00 0. -1.
</event>
<event>
 8    1  0.7096247E-006  0.1087415E+04  0.7818608E-02  0.8696534E-01
          1   -1    0    0  502    0  0.00000000000E+00  0.00000000000E+00  0.14514223832E+04  0.14514223832E+04  0.00000000000E+00 0.  1.
         -1   -1    0    0    0  501 -0.00000000000E+00 -0.00000000000E+00 -0.11018253551E+04  0.11018253551E+04  0.00000000000E+00 0. -1.
    9000010    2    1    2  502    0  0.25334008585E+03 -0.33075938046E+03 -0.47632259256E+03  0.11914175916E+04  0.10094601025E+04 0.  0.
   -9000010    2    1    2    0  501 -0.25334008585E+03  0.33075938046E+03  0.82591962069E+03  0.13618301466E+04  0.99942741687E+03 0.  0.
        -13    1    3    3    0    0 -0.20661176954E+03 -0.37106274984E+03  0.11613047868E+03  0.44029795239E+03  0.10566000000E+00 0.  1.
         13    1    4    4    0    0 -0.37863652726E+03  0.41887120329E+02  0.94988873644E+03  0.10234299064E+04  0.10566000000E+00 0. -1.
          4    1    3    3  502    0  0.45995185538E+03  0.40303369388E+02 -0.59245307124E+03  0.75111963926E+03  0.00000000000E+00 0.  1.
         -4    1    4    4    0  501  0.12529644141E+03  0.28887226013E+03 -0.12396911575E+03  0.33840024019E+03  0.00000000000E+00 0. -1.
</event>
<event>
 8    1  0.7096247E-006  0.1534518E+04  0.7818608E-02  0.8389906E-01
          2   -1    0    0  502    0  0.00000000000E+00  0.00000000000E+00  0.62887106397E+03  0.62887106397E+03  0.00000000000E+00 0.  1.
         -2   -1    0    0    0  501 -0.00000000000E+00 -0.00000000000E+00 -0.37637371639E+04  0.37637371639E+04  0.00000000000E+00 0. -1.
    9000010    2    1    2  502    0  0.11827284074E+04 -0.19095256885E+03 -0.17524077140E+04  0.23529825902E+04  0.10150295091E+04 0.  0.
   -9000010    2    1    2    0  501 -0.11827284074E+04  0.19095256885E+03 -0.13824583859E+04  0.20396256377E+04  0.90198236338E+03 0.  0.
        -13    1    3    3    0    0  0.27473198691E+03  0.39776982925E+03 -0.45949099394E+03  0.66695613527E+03  0.10566000000E+00 0.  1.
         13    1    4    4    0    0 -0.23735373020E+03 -0.28463388668E+03 -0.11413154693E+03  0.38778765305E+03  0.10566000000E+00 0. -1.
          4    1    3    3  502    0  0.90799642049E+03 -0.58872239810E+03 -0.12929167201E+04  0.16860264549E+04  0.00000000000E+00 0.  1.
         -4    1    4    4    0  501 -0.94537467720E+03  0.47558645553E+03 -0.12683268390E+04  0.16518379846E+04  0.00000000000E+00 0. -1.
</event>
<event>
 8    1  0.7096247E-006  0.1261943E+04  0.7818608E-02  0.8561323E-01
          2   -1    0    0  502    0  0.00000000000E+00  0.00000000000E+00  0.22868922722E+04  0.22868922722E+04  0.00000000000E+00 0. -1.
         -2   -1    0    0    0  501 -0.00000000000E+00 -0.00000000000E+00 -0.71984515345E+03  0.71984515345E+03  0.00000000000E+00 0.  1.
    9000010    2    1    2  502    0  0.15815259302E+03 -0.76698730843E+03  0.10507930594E+04  0.16368596133E+04  0.98074541338E+03 0.  0.
   -9000010    2    1    2    0  501 -0.15815259302E+03  0.76698730843E+03  0.51625405926E+03  0.13698778123E+04  0.99838128638E+03 0.  0.
        -13    1    3    3    0    0  0.25743810441E+03  0.15481231571E+03  0.41644332940E+03  0.51348445786E+03  0.10566000000E+00 0.  1.
         13    1    4    4    0    0 -0.35825734699E+03  0.89767571397E+03  0.57383861833E+03  0.11240377152E+04  0.10566000000E+00 0. -1.
          4    1    3    3  502    0 -0.99285511398E+02 -0.92179962413E+03  0.63434973005E+03  0.11233751554E+04  0.00000000000E+00 0.  1.
         -4    1    4    4    0  501  0.20010475397E+03 -0.13068840555E+03 -0.57584559070E+02  0.24584009712E+03  0.00000000000E+00 0. -1.
</event>
<event>
 8    1  0.7096247E-006  0.1154619E+04  0.7818608E-02  0.8641542E-01
         -2   -1    0    0    0  501 -0.00000000000E+00  0.00000000000E+00  0.11242943875E+04  0.11242943875E+04  0.00000000000E+00 0. -1.
          2   -1    0    0  502    0  0.00000000000E+00 -0.00000000000E+00 -0.23675782907E+04  0.23675782907E+04  0.00000000000E+00 0.  1.
    9000010    2    1    2  502    0 -0.26558664432E+03  0.50013915624E+03 -0.18568121615E+04  0.21897953118E+04  0.10132998881E+04 0.  0.
   -9000010    2    1    2    0  501  0.26558664432E+03 -0.50013915624E+03  0.61352825828E+03  0.13020773664E+04  0.99915619556E+03 0.  0.
        -13    1    3    3    0    0 -0.59381262792E+03  0.22785902687E+03 -0.64809955262E+03  0.90805628376E+03  0.10566000000E+00 0.  1.
         13    1    4    4    0    0  0.53818623954E+03 -0.44096842443E+02  0.54355202236E+03  0.76618390228E+03  0.10566000000E+00 0. -1.
          4    1    3    3  502    0  0.32822598359E+03  0.27228012937E+03 -0.12087126089E+04  0.12817390280E+04  0.00000000000E+00 0.  1.
         -4    1    4    4    0  501 -0.27259959522E+03 -0.45604231379E+03  0.69976235919E+02  0.53589346411E+03  0.00000000000E+00 0. -1.
</event>
<event>
 8    1  0.7096247E-006  0.1670624E+04  0.7818608E-02  0.8317547E-01
         -2   -1    0    0    0  501 -0.00000000000E+00  0.00000000000E+00  0.13250443969E+04  0.13250443969E+04  0.00000000000E+00 0. -1.
          2   -1    0    0  502    0  0.00000000000E+00 -0.00000000000E+00 -0.23848187664E+04  0.23848187664E+04  0.00000000000E+00 0.  1.
    9000010    2    1    2  502    0  0.92086075666E+03 -0.99134097208E+03  0.10044044192E+03  0.16858070231E+04  0.10005576348E+04 0.  0.
   -9000010    2    1    2    0  501 -0.92086075666E+03  0.99134097208E+03 -0.11602148114E+04  0.20240561403E+04  0.95914722247E+03 0.  0.
        -13    1    3    3    0    0  0.10935308720E+03 -0.85106279100E+03  0.19296768173E+02  0.85827638225E+03  0.10566000000E+00 0.  1.
         13    1    4    4    0    0  0.16346329362E+03  0.30952945776E+02 -0.28982171652E+03  0.33417805395E+03  0.10566000000E+00 0. -1.
          4    1    3    3  502    0  0.81150766947E+03 -0.14027818108E+03  0.81143673749E+02  0.82753064081E+03  0.00000000000E+00 0.  1.
         -4    1    4    4    0  501 -0.10843240503E+04  0.96038802631E+03 -0.87039309491E+03  0.16898780864E+04  0.00000000000E+00 0. -1.
</event>
<event>
 8    1  0.7096247E-006  0.2065653E+04  0.7818608E-02  0.8142173E-01
          2   -1    0    0  502    0  0.00000000000E+00  0.00000000000E+00  0.40348222058E+04  0.40348222058E+04  0.00000000000E+00 0. -1.
         -2   -1    0    0    0  501 -0.00000000000E+00 -0.00000000000E+00 -0.13293569444E+04  0.13293569444E+04  0.00000000000E+00 0.  1.
    9000010    2    1    2  502    0  0.91212732563E+03 -0.15592242347E+04  0.25650005534E+04  0.32926627748E+04  0.99962184737E+03 0.  0.
   -9000010    2    1    2    0  501 -0.91212732563E+03  0.15592242347E+04  0.14046470804E+03  0.20715163754E+04  0.10041380817E+04 0.  0.
        -13    1    3    3    0    0  0.10033620936E+04 -0.16360281501E+04  0.25143043019E+04  0.31630759922E+04  0.10566000000E+00 0.  1.
         13    1    4    4    0    0  0.10174157561E+01 -0.72449509847E+02  0.18760548123E+03  0.20111139789E+03  0.10566000000E+00 0. -1.
          4    1    3    3  502    0 -0.91234767985E+02  0.76803915417E+02  0.50696251461E+02  0.12958678260E+03  0.00000000000E+00 0.  1.
         -4    1    4    4    0  501 -0.91314474139E+03  0.16316737445E+04 -0.47140773190E+02  0.18704049775E+04  0.00000000000E+00 0. -1.
</event>
<event>
 8    1  0.7096247E-006  0.1954975E+04  0.7818608E-02  0.8186974E-01
         -2   -1    0    0    0  501 -0.00000000000E+00  0.00000000000E+00  0.21415089389E+04  0.21415089389E+04  0.00000000000E+00 0. -1.
          2   -1    0    0  502    0  0.00000000000E+00 -0.00000000000E+00 -0.18014993873E+04  0.18014993873E+04  0.00000000000E+00 0.  1.
    9000010    2    1    2  502    0  0.32754549502E+03 -0.16772927824E+04  0.35697593940E+03  0.19644403020E+04  0.90055357956E+03 0.  0.
   -9000010    2    1    2    0  501 -0.32754549502E+03  0.16772927824E+04 -0.16966387837E+02  0.19785680243E+04  0.99691847172E+03 0.  0.
        -13    1    3    3    0    0  0.20464558527E+03 -0.17671534080E+04  0.34107072373E+03  0.18113641910E+04  0.10566000000E+00 0.  1.
         13    1    4    4    0    0 -0.34137995534E+03  0.49601797578E+03  0.40325492398E+03  0.72469900723E+03  0.10566000000E+00 0. -1.
          4    1    3    3  502    0  0.12289990976E+03  0.89860625606E+02  0.15905215669E+02  0.15307611093E+03  0.00000000000E+00 0.  1.
         -4    1    4    4    0  501  0.13834460322E+02  0.11812748066E+04 -0.42022131182E+03  0.12538690170E+04  0.00000000000E+00 0. -1.
</event>
<event>
 8    1  0.7096247E-006  0.2044219E+04  0.7818608E-02  0.8150622E-01
         -2   -1    0    0    0  501 -0.00000000000E+00  0.00000000000E+00  0.14019507413E+04  0.14019507413E+04  0.00000000000E+00 0.  1.
          2   -1    0    0  502    0  0.00000000000E+00 -0.00000000000E+00 -0.29884661405E+04  0.29884661405E+04  0.00000000000E+00 0. -1.
    9000010    2    1    2  502    0 -0.53179366263E+03  0.16926201360E+04 -0.90669903603E+03  0.22406535061E+04  0.10250158866E+04 0.  0.
   -9000010    2    1    2    0  501  0.53179366263E+03 -0.16926201360E+04 -0.67981636318E+03  0.21497633758E+04  0.10057658077E+04 0.  0.
        -13    1    3    3    0    0 -0.48968942627E+03  0.92579490244E+03  0.66390105621E+01  0.10473471360E+04  0.10566000000E+00 0.  1.
         13    1    4    4    0    0  0.73386930345E+03 -0.11779849073E+04 -0.17099292815E+03  0.13983744810E+04  0.10566000000E+00 0. -1.
          4    1    3    3  502    0 -0.42104236358E+02  0.76682523357E+03 -0.91333804659E+03  0.11933063701E+04  0.00000000000E+00 0.  1.
         -4    1    4    4    0  501 -0.20207564083E+03 -0.51463522867E+03 -0.50882343503E+03  0.75138889480E+03  0.00000000000E+00 0. -1.
</event>
<event>
 8    1  0.7096247E-006  0.1323119E+04  0.7818608E-02  0.8519203E-01
         -2   -1    0    0    0  501 -0.00000000000E+00  0.00000000000E+00  0.13651832182E+04  0.13651832182E+04  0.00000000000E+00 0.  1.
          2   -1    0    0  502    0  0.00000000000E+00 -0.00000000000E+00 -0.14529554379E+04  0.14529554379E+04  0.00000000000E+00 0. -1.
    9000010    2    1    2  502    0  0.36454320583E+02 -0.88404176521E+03  0.43851476237E+03  0.14039647968E+04  0.99797955580E+03 0.  0.
   -9000010    2    1    2    0  501 -0.36454320583E+02  0.88404176521E+03 -0.52628698200E+03  0.14141738593E+04  0.96956225005E+03 0.  0.
        -13    1    3    3    0    0  0.49680990147E+03 -0.55575417783E+03  0.37658229465E+03  0.83516287046E+03  0.10566000000E+00 0.  1.
         13    1    4    4    0    0 -0.48124154985E+02  0.41508624288E+03  0.26462527172E+03  0.49461001700E+03  0.10566000000E+00 0. -1.
          4    1    3    3  502    0 -0.46035558089E+03 -0.32828758737E+03  0.61932467713E+02  0.56880192637E+03  0.00000000000E+00 0.  1.
         -4    1    4    4    0  501  0.11669834402E+02  0.46895552233E+03 -0.79091225371E+03  0.91956384228E+03  0.00000000000E+00 0. -1.
</event>
<event>
 7    1  0.7096247E-006  0.1038763E+04  0.7818608E-02  0.8738999E-01
         -2   -1    0    0    0  501 -0.00000000000E+00  0.00000000000E+00  0.55863526427E+03  0.55863526427E+03  0.00000000000E+00 0. -1.
          2   -1    0    0  502    0  0.00000000000E+00 -0.00000000000E+00 -0.19934523979E+04  0.19934523979E+04  0.00000000000E+00 0.  1.
   -9000010    2    1    2    0  501  0.66254921859E+03 -0.20857990398E+03 -0.68097552503E+03  0.13766445273E+04  0.97413830925E+03 0.  0.
        -13    1    1    2    0    0 -0.52613032498E+03  0.16848181923E+03 -0.84279470049E+03  0.10077212713E+04  0.10566000000E+00 0.  1.
         13    1    3    3    0    0 -0.16285660155E+03 -0.10702883520E+03  0.11433110609E+03  0.22594038421E+03  0.10566000000E+00 0. -1.
          4    1    1    2  502    0 -0.13641889362E+03  0.40098084755E+02  0.88953091927E+02  0.16772186351E+03  0.00000000000E+00 0.  1.
         -4    1    3    3    0  501  0.82540582015E+03 -0.10155106879E+03 -0.79530663112E+03  0.11507041431E+04  0.00000000000E+00 0. -1.
</event>
<event>
 8    1  0.7096247E-006  0.1220846E+04  0.7818608E-02  0.8591028E-01
          1   -1    0    0  502    0  0.00000000000E+00  0.00000000000E+00  0.95988483900E+03  0.95988483900E+03  0.00000000000E+00 0. -1.
         -1   -1    0    0    0  501 -0.00000000000E+00 -0.00000000000E+00 -0.17853236499E+04  0.17853236499E+04  0.00000000000E+00 0.  1.
    9000010    2    1    2  502    0  0.66937001776E+03  0.12282132376E+03 -0.89900582511E+03  0.14941493939E+04  0.98037219430E+03 0.  0.
   -9000010    2    1    2    0  501 -0.66937001776E+03 -0.12282132376E+03  0.73567014247E+02  0.12510590950E+04  0.10471845374E+04 0.  0.
        -13    1    3    3    0    0  0.41088775716E+02 -0.23238102461E+03 -0.70983158031E+03  0.74803082267E+03  0.10566000000E+00 0.  1.
         13    1    4    4    0    0 -0.40099456553E+02  0.35917429840E+03 -0.19934516294E+03  0.41273798977E+03  0.10566000000E+00 0. -1.
          4    1    3    3  502    0  0.62828124204E+03  0.35520234837E+03 -0.18917424479E+03  0.74611857120E+03  0.00000000000E+00 0.  1.
         -4    1    4    4    0  501 -0.62927056121E+03 -0.48199562216E+03  0.27291217719E+03  0.83832110521E+03  0.00000000000E+00 0. -1.
</event>
<event>
 8    1  0.7096247E-006  0.1345096E+04  0.7818608E-02  0.8504641E-01
         -1   -1    0    0    0  501 -0.00000000000E+00  0.00000000000E+00  0.76923353394E+03  0.76923353394E+03  0.00000000000E+00 0. -1.
          1   -1    0    0  502    0  0.00000000000E+00 -0.00000000000E+00 -0.23827756072E+04  0.23827756072E+04  0.00000000000E+00 0.  1.
    9000010    2    1    2  502    0  0.32135210996E+03 -0.80330677185E+03 -0.97618605612E+03  0.16502035855E+04  0.10107738170E+04 0.  0.
   -9000010    2    1    2    0  501 -0.32135210996E+03  0.80330677185E+03 -0.63735601714E+03  0.15018055557E+04  0.10491083291E+04 0.  0.
        -13    1    3    3    0    0  0.30186411988E+03 -0.76980592185E+03 -0.17136013868E+03  0.84444503225E+03  0.10566000000E+00 0.  1.
         13    1    4    4    0    0 -0.67529721461E+03  0.39768085703E+03 -0.54754936315E+03  0.95602652074E+03  0.10566000000E+00 0. -1.
          4    1    3    3  502    0  0.19487990078E+02 -0.33500849992E+02 -0.80482591744E+03  0.80575855322E+03  0.00000000000E+00 0.  1.
         -4    1    4    4    0  501  0.35394510465E+03  0.40562591481E+03 -0.89806653990E+02  0.54577903493E+03  0.00000000000E+00 0. -1.
</event>
<event>
 8    1  0.7096247E-006  0.1115992E+04  0.7818608E-02  0.8672658E-01
         -2   -1    0    0    0  501 -0.00000000000E+00  0.00000000000E+00  0.10905958632E+04  0.10905958632E+04  0.00000000000E+00 0.  1.
          2   -1    0    0  502    0  0.00000000000E+00 -0.00000000000E+00 -0.11424298725E+04  0.11424298725E+04  0.00000000000E+00 0. -1.
    9000010    2    1    2  502    0 -0.37458773046E+03 -0.30870975053E+03 -0.47653355721E+02  0.11131393876E+04  0.10005952109E+04 0.  0.
   -9000010    2    1    2    0  501  0.37458773046E+03  0.30870975053E+03 -0.41806535543E+01  0.11198863481E+04  0.10092127015E+04 0.  0.
        -13    1    3    3    0    0 -0.40415521547E+03  0.23574081155E+03  0.20666429216E+03  0.51149321524E+03  0.10566000000E+00 0.  1.
         13    1    4    4    0    0  0.33533973895E+03  0.18931345766E+03  0.48244718687E+03  0.61729055157E+03  0.10566000000E+00 0. -1.
          4    1    3    3  502    0  0.29567485007E+02 -0.54445056208E+03 -0.25431764788E+03  0.60164617239E+03  0.00000000000E+00 0.  1.
         -4    1    4    4    0  501  0.39247991510E+02  0.11939629287E+03 -0.48662784042E+03  0.50259579651E+03  0.00000000000E+00 0. -1.
</event>
<event>
 8    1  0.7096247E-006  0.1877035E+04  0.7818608E-02  0.8220380E-01
          2   -1    0    0  502    0  0.00000000000E+00  0.00000000000E+00  0.22830041418E+04  0.22830041418E+04  0.00000000000E+00 0.  1.
         -2   -1    0    0    0  501 -0.00000000000E+00 -0.00000000000E+00 -0.16160606892E+04  0.16160606892E+04  0.00000000000E+00 0. -1.
    9000010    2    1    2  502    0  0.14777149674E+04  0.58121864559E+03 -0.79873364908E+02  0.18813202600E+04  0.10057482426E+04 0.  0.
   -9000010    2    1    2    0  501 -0.14777149674E+04 -0.58121864559E+03  0.74681681754E+03  0.20177445710E+04  0.99604274810E+03 0.  0.
        -13    1    3    3    0    0  0.73499510984E+03  0.64401942666E+03  0.32905655558E+03  0.10311435697E+04  0.10566000000E+00 0.  1.
         13    1    4    4    0    0 -0.91811734727E+03 -0.83189497703E+03  0.35025127155E+03  0.12875032740E+04  0.10566000000E+00 0. -1.
          4    1    3    3  502    0  0.74271985754E+03 -0.62800781071E+02 -0.40892992049E+03  0.85017669032E+03  0.00000000000E+00 0.  1.
         -4    1    4    4    0  501 -0.55959762012E+03  0.25067633145E+03  0.39656554598E+03  0.73024129700E+03  0.00000000000E+00 0. -1.
</event>
<event>
 8    1  0.7096247E-006  0.1073341E+04  0.7818608E-02  0.8708577E-01
         -2   -1    0    0    0  501 -0.00000000000E+00  0.00000000000E+00  0.42622172179E+03  0.42622172179E+03  0.00000000000E+00 0.  1.
          2   -1    0    0  502    0  0.00000000000E+00 -0.00000000000E+00 -0.27049828897E+04  0.27049828897E+04  0.00000000000E+00 0. -1.
    9000010    2    1    2  502    0 -0.41119361846E+03  0.82257943649E+01 -0.10965536210E+04  0.15344287043E+04  0.99140998040E+03 0.  0.
   -9000010    2    1    2    0  501  0.41119361846E+03 -0.82257943649E+01 -0.11822075469E+04  0.15967759072E+04  0.99142864511E+03 0.  0.
        -13    1    3    3    0    0 -0.20910817510E+03 -0.23867167725E+03 -0.11655713018E+04  0.12079929094E+04  0.10566000000E+00 0.  1.
         13    1    4    4    0    0  0.58322980187E+03 -0.13544719773E+03 -0.26470381652E+03  0.65465339440E+03  0.10566000000E+00 0. -1.
          4    1    3    3  502    0 -0.20208544336E+03  0.24689747161E+03  0.69017680812E+02  0.32643579486E+03  0.00000000000E+00 0.  1.
         -4    1    4    4    0  501 -0.17203618341E+03  0.12722140336E+03 -0.91750373038E+03  0.94212251281E+03  0.00000000000E+00 0. -1.
</event>
<event>
 8    1  0.7096247E-006  0.1393374E+04  0.7818608E-02  0.8473635E-01
         -1   -1    0    0    0  501 -0.00000000000E+00  0.00000000000E+00  0.11401350996E+04  0.11401350996E+04  0.00000000000E+00 0. -1.
          1   -1    0    0  502    0  0.00000000000E+00 -0.00000000000E+00 -0.17680757021E+04  0.17680757021E+04  0.00000000000E+00 0.  1.
    9000010    2    1    2  502    0  0.90443720726E+03  0.40018200451E+03 -0.31219723880E+02  0.13744221362E+04  0.95389162846E+03 0.  0.
   -9000010    2    1    2    0  501 -0.90443720726E+03 -0.40018200451E+03 -0.59672087867E+03  0.15337886655E+04  0.10090983920E+04 0.  0.
        -13    1    3    3    0    0 -0.72095848087E+02  0.30285601125E+03 -0.21185375045E+03  0.37656552897E+03  0.10566000000E+00 0.  1.
         13    1    4    4    0    0 -0.70653658506E+03 -0.30345137503E+02 -0.79992295841E+03  0.10677038559E+04  0.10566000000E+00 0. -1.
          4    1    3    3  502    0  0.97653305535E+03  0.97325993254E+02  0.18063402656E+03  0.99785660728E+03  0.00000000000E+00 0.  1.
         -4    1    4    4    0  501 -0.19790062220E+03 -0.36983686701E+03  0.20320207974E+03  0.46608480953E+03  0.00000000000E+00 0. -1.
</event>
<event>
 8    1  0.7096247E-006  0.1321343E+04  0.7818608E-02  0.8520392E-01
         -1   -1    0    0    0  501 -0.00000000000E+00  0.00000000000E+00  0.12575226503E+04  0.12575226503E+04  0.00000000000E+00 0.  1.
          1   -1    0    0  502    0  0.00000000000E+00 -0.00000000000E+00 -0.14093458921E+04  0.14093458921E+04  0.00000000000E+00 0. -1.
    9000010    2    1    2  502    0  0.62796039588E+03 -0.59213733546E+03 -0.23866602946E+03  0.13476131496E+04  0.10070446090E+04 0.  0.
   -9000010    2    1    2    0  501 -0.62796039588E+03  0.59213733546E+03  0.86842787678E+02  0.13192553929E+04  0.99394780496E+03 0.  0.
        -13    1    3    3    0    0  0.78424849030E+03 -0.73745954713E+03 -0.75854192038E+02  0.10791877259E+04  0.10566000000E+00 0.  1.
         13    1    4    4    0    0 -0.51525380424E+03  0.73718521744E+03  0.37750331297E+03  0.97541647006E+03  0.10566000000E+00 0. -1.
          4    1    3    3  502    0 -0.15628809443E+03  0.14532221167E+03 -0.16281183742E+03  0.26842542366E+03  0.00000000000E+00 0.  1.
         -4    1    4    4    0  501 -0.11270659164E+03 -0.14504788198E+03 -0.29066052530E+03  0.34383892280E+03  0.00000000000E+00 0. -1.
</event>
<event>
 8    1  0.7096247E-006  0.1205657E+04  0.7818608E-02  0.8602314E-01
         -1   -1    0    0    0  501 -0.00000000000E+00  0.00000000000E+00  0.49885927218E+03  0.49885927218E+03  0.00000000000E+00 0.  1.
          1   -1    0    0  502    0  0.00000000000E+00 -0.00000000000E+00 -0.29415671480E+04  0.29415671480E+04  0.00000000000E+00 0. -1.
    9000010    2    1    2  502    0 -0.57900482300E+03  0.37394428558E+03 -0.13935236421E+04  0.18462383419E+04  0.99579463768E+03 0.  0.
   -9000010    2    1    2    0  501  0.57900482300E+03 -0.37394428558E+03 -0.10491842338E+04  0.15941880783E+04  0.98263276901E+03 0.  0.
        -13    1    3    3    0    0 -0.85255387217E+03  0.19430107426E+03 -0.11114751798E+04  0.14142058192E+04  0.10566000000E+00 0.  1.
         13    1    4    4    0    0  0.64427377017E+03 -0.24984709400E+03 -0.18042793309E+03  0.71418940871E+03  0.10566000000E+00 0. -1.
          4    1    3    3  502    0  0.27354904917E+03  0.17964321132E+03 -0.28204846222E+03  0.43203252275E+03  0.00000000000E+00 0.  1.
         -4    1    4    4    0  501 -0.65268947171E+02 -0.12409719158E+03 -0.86875630073E+03  0.87999866959E+03  0.00000000000E+00 0. -1.
</event>
<event>
 8    1  0.7096247E-006  0.1672055E+04  0.7818608E-02  0.8316825E-01
         -2   -1    0    0    0  501 -0.00000000000E+00  0.00000000000E+00  0.99141003889E+03  0.99141003889E+03  0.00000000000E+00 0.  1.
          2   -1    0    0  502    0  0.00000000000E+00 -0.00000000000E+00 -0.30023482592E+04  0.30023482592E+04  0.00000000000E+00 0. -1.
    9000010    2    1    2  502    0  0.13440255706E+04  0.25382639081E+02 -0.51336555257E+03  0.17491411686E+04  0.99443532938E+03 0.  0.
   -9000010    2    1    2    0  501 -0.13440255706E+04 -0.25382639081E+02 -0.14975726677E+04  0.22446171294E+04  0.99425004393E+03 0.  0.
        -13    1    3    3    0    0  0.10679819967E+04  0.12630551041E+03  0.88789851285E+02  0.10790839986E+04  0.10566000000E+00 0.  1.
         13    1    4    4    0    0 -0.77216176211E+03 -0.46015834688E+03 -0.11101638245E+04  0.14284408352E+04  0.10566000000E+00 0. -1.
          4    1    3    3  502    0  0.27604357394E+03 -0.10092287133E+03 -0.60215540386E+03  0.67005717000E+03  0.00000000000E+00 0.  1.
         -4    1    4    4    0  501 -0.57186380852E+03  0.43477570780E+03 -0.38740884316E+03  0.81617629428E+03  0.00000000000E+00 0. -1.
</event>
<event>
 8    1  0.7096247E-006  0.1423271E+04  0.7818608E-02  0.8455073E-01
          4   -1    0    0  502    0  0.00000000000E+00  0.00000000000E+00  0.74886523948E+03  0.74886523948E+03  0.00000000000E+00 0.  1.
         -4   -1    0    0    0  501 -0.00000000000E+00 -0.00000000000E+00 -0.27051032526E+04  0.27051032526E+04  0.00000000000E+00 0. -1.
    9000010    2    1    2  502    0  0.94156223102E+03  0.40426248776E+03 -0.97080094564E+03  0.17167124234E+04  0.97707700550E+03 0.  0.
   -9000010    2    1    2    0  501 -0.94156223102E+03 -0.40426248776E+03 -0.98543706751E+03  0.17372560687E+04  0.99850129712E+03 0.  0.
        -13    1    3    3    0    0  0.16400889949E+03 -0.11544968547E+03 -0.72142633829E+03  0.74878803524E+03  0.10566000000E+00 0.  1.
         13    1    4    4    0    0 -0.95887684100E+02 -0.45039470247E+03 -0.71076350727E+03  0.84689704829E+03  0.10566000000E+00 0. -1.
          4    1    3    3  502    0  0.77755333153E+03  0.51971217323E+03 -0.24937460735E+03  0.96792438815E+03  0.00000000000E+00 0.  1.
         -4    1    4    4    0  501 -0.84567454692E+03  0.46132214710E+02 -0.27467356024E+03  0.89035902042E+03  0.00000000000E+00 0. -1.
</event>
<event>
 8    1  0.7096247E-006  0.1199420E+04  0.7818608E-02  0.8606999E-01
         -2   -1    0    0    0  501 -0.00000000000E+00  0.00000000000E+00  0.48806059460E+03  0.48806059460E+03  0.00000000000E+00 0.  1.
          2   -1    0    0  502    0  0.00000000000E+00 -0.00000000000E+00 -0.29992014077E+04  0.29992014077E+04  0.00000000000E+00 0. -1.
    9000010    2    1    2  502    0  0.55469044501E+03 -0.34214574072E+03 -0.10266706404E+04  0.15786701432E+04  0.10066785085E+04 0.  0.
   -9000010    2    1    2    0  501 -0.55469044501E+03  0.34214574072E+03 -0.14844701727E+04  0.19085918591E+04  0.10071375245E+04 0.  0.
        -13    1    3    3    0    0  0.28863974890E+02  0.33726165414E+03 -0.25391492524E+03  0.42314460037E+03  0.10566000000E+00 0.  1.
         13    1    4    4    0    0  0.16568035073E+03  0.16019894495E+03 -0.98911827253E+03  0.10156124501E+04  0.10566000000E+00 0. -1.
          4    1    3    3  502    0  0.52582647012E+03 -0.67940739486E+03 -0.77275571517E+03  0.11555255429E+04  0.00000000000E+00 0.  1.
         -4    1    4    4    0  501 -0.72037079574E+03  0.18194679577E+03 -0.49535190014E+03  0.89297940895E+03  0.00000000000E+00 0. -1.
</event>
<event>
 8    1  0.7096247E-006  0.1101596E+04  0.7818608E-02  0.8684592E-01
          1   -1    0    0  502    0  0.00000000000E+00  0.00000000000E+00  0.99266133967E+03  0.99266133967E+03  0.00000000000E+00 0.  1.
         -1   -1    0    0    0  501 -0.00000000000E+00 -0.00000000000E+00 -0.14945243314E+04  0.14945243314E+04  0.00000000000E+00 0. -1.
    9000010    2    1    2  502    0 -0.26580200501E+03  0.43556127125E+03  0.27505132144E+03  0.11566709176E+04  0.10009345910E+04 0.  0.
   -9000010    2    1    2    0  501  0.26580200501E+03 -0.43556127125E+03 -0.77691431320E+03  0.13305147534E+04  0.95200280053E+03 0.  0.
        -13    1    3    3    0    0  0.17608455318E+01  0.72442778929E+03  0.12409422020E+03  0.73498170666E+03  0.10566000000E+00 0.  1.
         13    1    4    4    0    0  0.31738167409E+03 -0.50844927436E+03 -0.95717420568E+03  0.11293512575E+04  0.10566000000E+00 0. -1.
          4    1    3    3  502    0 -0.26756285054E+03 -0.28886651804E+03  0.15095710125E+03  0.42168921098E+03  0.00000000000E+00 0.  1.
         -4    1    4    4    0  501 -0.51579669075E+02  0.72888003112E+02  0.18025989249E+03  0.20116349594E+03  0.00000000000E+00 0. -1.
</event>
<event>
 8    1  0.7096247E-006  0.1176892E+04  0.7818608E-02  0.8624169E-01
         -2   -1    0    0    0  501 -0.00000000000E+00  0.00000000000E+00  0.65452088620E+03  0.65452088620E+03  0.00000000000E+00 0.  1.
          2   -1    0    0  502    0  0.00000000000E+00 -0.00000000000E+00 -0.21182521502E+04  0.21182521502E+04  0.00000000000E+00 0. -1.
    9000010    2    1    2  502    0  0.42848519943E+03  0.45600765464E+03 -0.77799238341E+03  0.14148173308E+04  0.10024437060E+04 0.  0.
   -9000010    2    1    2    0  501 -0.42848519943E+03 -0.45600765464E+03 -0.68573888061E+03  0.13579557056E+04  0.99109199311E+03 0.  0.
        -13    1    3    3    0    0 -0.11526857096E+03  0.17852272978E+03 -0.77577115717E+03  0.80434949366E+03  0.10566000000E+00 0.  1.
         13    1    4    4    0    0  0.15507169372E+03  0.19507894121E+03 -0.33118723319E+03  0.41447318138E+03  0.10566000000E+00 0. -1.
          4    1    3    3  502    0  0.54375377039E+03  0.27748492486E+03 -0.22212262360E+01  0.61046783714E+03  0.00000000000E+00 0.  1.
         -4    1    4    4    0  501 -0.58355689315E+03 -0.65108659585E+03 -0.35455164742E+03  0.94348252423E+03  0.00000000000E+00 0. -1.
</event>
<event>
 8    1  0.7096247E-006  0.1127925E+04  0.7818608E-02  0.8662907E-01
         -2   -1    0    0    0  501 -0.00000000000E+00  0.00000000000E+00  0.67823707849E+03  0.67823707849E+03  0.00000000000E+00 0.  1.
          2   -1    0    0  502    0  0.00000000000E+00 -0.00000000000E+00 -0.25923807832E+04  0.25923807832E+04  0.00000000000E+00 0. -1.
    9000010    2    1    2  502    0  0.30472292013E+03 -0.40045036127E+03 -0.98203854131E+02  0.11336871085E+04  0.10111310069E+04 0.  0.
   -9000010    2    1    2    0  501 -0.30472292013E+03  0.40045036127E+03 -0.18159398506E+04  0.21369307532E+04  0.10077792185E+04 0.  0.
        -13    1    3    3    0    0 -0.95091543177E+02 -0.33671322915E+02 -0.46691921052E+03  0.47769207644E+03  0.10566000000E+00 0.  1.
         13    1    4    4    0    0 -0.50453335489E+03  0.63213965259E+03 -0.11717694064E+04  0.14237970359E+04  0.10566000000E+00 0. -1.
          4    1    3    3  502    0  0.39981446330E+03 -0.36677903835E+03  0.36871535639E+03  0.65599503205E+03  0.00000000000E+00 0.  1.
         -4    1    4    4    0  501  0.19981043476E+03 -0.23168929133E+03 -0.64417044420E+03  0.71313371729E+03  0.00000000000E+00 0. -1.
</event>
<event>
 8    1  0.7096247E-006  0.1265965E+04  0.7818608E-02  0.8558478E-01
          2   -1    0    0  502    0  0.00000000000E+00  0.00000000000E+00  0.33140631702E+04  0.33140631702E+04  0.00000000000E+00 0.  1.
         -2   -1    0    0    0  501 -0.00000000000E+00 -0.00000000000E+00 -0.48377999298E+03  0.48377999298E+03  0.00000000000E+00 0. -1.
    9000010    2    1    2  502    0 -0.30523866063E+03  0.71304158245E+03  0.14589669906E+04  0.19367378806E+04  0.10103316289E+04 0.  0.
   -9000010    2    1    2    0  501  0.30523866063E+03 -0.71304158245E+03  0.13713161866E+04  0.18611052826E+04  0.99076023883E+03 0.  0.
        -13    1    3    3    0    0 -0.65845862870E+03  0.35134614631E+03  0.10403257185E+04  0.12803474106E+04  0.10566000000E+00 0.  1.
         13    1    4    4    0    0  0.45560955218E+03  0.18233873586E+02  0.26789993575E+03  0.52885056956E+03  0.10566000000E+00 0. -1.
          4    1    3    3  502    0  0.35321996807E+03  0.36169543613E+03  0.41864127212E+03  0.65639046998E+03  0.00000000000E+00 0.  1.
         -4    1    4    4    0  501 -0.15037089155E+03 -0.73127545603E+03  0.11034162509E+04  0.13322547130E+04  0.00000000000E+00 0. -1.
</event>
<event>
 8    1  0.7096247E-006  0.2010902E+04  0.7818608E-02  0.8163968E-01
          2   -1    0    0  502    0  0.00000000000E+00  0.00000000000E+00  0.38235375145E+04  0.38235375145E+04  0.00000000000E+00 0.  1.
         -2   -1    0    0    0  501 -0.00000000000E+00 -0.00000000000E+00 -0.12294101823E+04  0.12294101823E+04  0.00000000000E+00 0. -1.
    9000010    2    1    2  502    0 -0.96539954946E+03  0.14790598153E+04  0.36697789754E+03  0.20689287584E+04  0.10130050359E+04 0.  0.
   -9000010    2    1    2    0  501  0.96539954946E+03 -0.14790598153E+04  0.22271494346E+04  0.29840189384E+04  0.90805296811E+03 0.  0.
        -13    1    3    3    0    0 -0.57808263877E+03  0.12864892052E+03  0.29650994100E+03  0.66230524555E+03  0.10566000000E+00 0.  1.
         13    1    4    4    0    0  0.77277080203E+03 -0.12070483602E+04  0.22298109827E+04  0.26506975471E+04  0.10566000000E+00 0. -1.
          4    1    3    3  502    0 -0.38731691068E+03  0.13504108948E+04  0.70467956541E+02  0.14066235129E+04  0.00000000000E+00 0.  1.
         -4    1    4    4    0  501  0.19262874742E+03 -0.27201145514E+03 -0.26615480569E+01  0.33332139130E+03  0.00000000000E+00 0. -1.
</event>
<event>
 8    1  0.7096247E-006  0.1743148E+04  0.7818608E-02  0.8281837E-01
         -2   -1    0    0    0  501 -0.00000000000E+00  0.00000000000E+00  0.83738692106E+03  0.83738692106E+03  0.00000000000E+00 0. -1.
          2   -1    0    0  502    0  0.00000000000E+00 -0.00000000000E+00 -0.36723031643E+04  0.36723031643E+04  0.00000000000E+00 0.  1.
    9000010    2    1    2  502    0 -0.81788424093E+03  0.11743915521E+04 -0.11732572022E+04  0.21029553752E+04  0.99887872058E+03 0.  0.
   -9000010    2    1    2    0  501  0.81788424093E+03 -0.11743915521E+04 -0.16616590410E+04  0.24067347102E+04  0.99152965030E+03 0.  0.
        -13    1    3    3    0    0 -0.38164745929E+03  0.71824253786E+01  0.13810156384E+02  0.38196479158E+03  0.10566000000E+00 0.  1.
         13    1    4    4    0    0  0.63760340960E+02 -0.92244691456E+03 -0.10790622376E+04  0.14210380062E+04  0.10566000000E+00 0. -1.
          4    1    3    3  502    0 -0.43623678163E+03  0.11672091267E+04 -0.11870673586E+04  0.17209905836E+04  0.00000000000E+00 0.  1.
         -4    1    4    4    0  501  0.75412389997E+03 -0.25194463749E+03 -0.58259680339E+03  0.98569670395E+03  0.00000000000E+00 0. -1.
</event>
<event>
 8    1  0.7096247E-006  0.1290842E+04  0.7818608E-02  0.8541125E-01
         -1   -1    0    0    0  501 -0.00000000000E+00  0.00000000000E+00  0.72387429733E+03  0.72387429733E+03  0.00000000000E+00 0. -1.
          1   -1    0    0  502    0  0.00000000000E+00 -0.00000000000E+00 -0.26591981263E+04  0.26591981263E+04  0.00000000000E+00 0.  1.
    9000010    2    1    2  502    0  0.31676093139E+03  0.75356044029E+03 -0.15954128291E+04  0.20599318578E+04  0.10147838877E+04 0.  0.
   -9000010    2    1    2    0  501 -0.31676093139E+03 -0.75356044029E+03 -0.33991099985E+03  0.13231405658E+04  0.98334665518E+03 0.  0.
        -13    1    3    3    0    0  0.20523630459E+03  0.33933134989E+03 -0.15817810658E+04  0.16307357410E+04  0.10566000000E+00 0.  1.
         13    1    4    4    0    0  0.20639640505E+03 -0.43610131235E+03 -0.49563776605E+03  0.69169403420E+03  0.10566000000E+00 0. -1.
          4    1    3    3  502    0  0.11152462680E+03  0.41422909040E+03 -0.13631763342E+02  0.42919611681E+03  0.00000000000E+00 0.  1.
         -4    1    4    4    0  501 -0.52315733644E+03 -0.31745912794E+03  0.15572676620E+03  0.63144653162E+03  0.00000000000E+00 0. -1.
</event>
<event>
 8    1  0.7096247E-006  0.1383707E+04  0.7818608E-02  0.8479739E-01
         -2   -1    0    0    0  501 -0.00000000000E+00  0.00000000000E+00  0.14872885897E+04  0.14872885897E+04  0.00000000000E+00 0.  1.
          2   -1    0    0  502    0  0.00000000000E+00 -0.00000000000E+00 -0.14105859573E+04  0.14105859573E+04  0.00000000000E+00 0. -1.
    9000010    2    1    2  502    0  0.83972684579E+03 -0.37856438095E+03  0.46664008200E+03  0.14793523729E+04  0.10593763783E+04 0.  0.
   -9000010    2    1    2    0  501 -0.83972684579E+03  0.37856438095E+03 -0.38993744960E+03  0.14185221742E+04  0.10058338720E+04 0.  0.
        -13    1    3    3    0    0  0.34932730636E+03 -0.58057327552E+03 -0.12042695201E+03  0.68818424651E+03  0.10566000000E+00 0.  1.
         13    1    4    4    0    0 -0.94501390781E+03  0.25260012254E+03  0.18456560580E+02  0.97836535285E+03  0.10566000000E+00 0. -1.
          4    1    3    3  502    0  0.49039953943E+03  0.20200889456E+03  0.58706703401E+03  0.79116812637E+03  0.00000000000E+00 0.  1.
         -4    1    4    4    0  501  0.10528706202E+03  0.12596425841E+03 -0.40839401018E+03  0.44015682135E+03  0.00000000000E+00 0. -1.
</event>
<event>
 8    1  0.7096247E-006  0.1022945E+04  0.7818608E-02  0.8753326E-01
         -2   -1    0    0    0  501 -0.00000000000E+00  0.00000000000E+00  0.90624725464E+03  0.90624725464E+03  0.00000000000E+00 0. -1.
          2   -1    0    0  502    0  0.00000000000E+00 -0.00000000000E+00 -0.12666020445E+04  0.12666020445E+04  0.00000000000E+00 0.  1.
    9000010    2    1    2  502    0  0.14486087939E+03 -0.58651141618E+02  0.14136626565E+03  0.10407586571E+04  0.10192004368E+04 0.  0.
   -9000010    2    1    2    0  501 -0.14486087939E+03  0.58651141618E+02 -0.50172105548E+03  0.11320906421E+04  0.10027365424E+04 0.  0.
        -13    1    3    3    0    0 -0.52006545490E+02  0.81627346597E+02  0.55407586691E+03  0.56246580513E+03  0.10566000000E+00 0.  1.
         13    1    4    4    0    0 -0.26848215647E+03  0.96784351700E+02 -0.77709369776E+03  0.82784328550E+03  0.10566000000E+00 0. -1.
          4    1    3    3  502    0  0.19686742488E+03 -0.14027848822E+03 -0.41270960126E+03  0.47829285193E+03  0.00000000000E+00 0.  1.
         -4    1    4    4    0  501  0.12362127708E+03 -0.38133210081E+02  0.27537264228E+03  0.30424735656E+03  0.00000000000E+00 0. -1.
</event>
<event>
 8    1  0.7096247E-006  0.1100834E+04  0.7818608E-02  0.8685229E-01
          2   -1    0    0  502    0  0.00000000000E+00  0.00000000000E+00  0.19922862414E+04  0.19922862414E+04  0.00000000000E+00 0.  1.
         -2   -1    0    0    0  501 -0.00000000000E+00 -0.00000000000E+00 -0.60854280868E+03  0.60854280868E+03  0.00000000000E+00 0. -1.
    9000010    2    1    2  502    0  0.17066723745E+02 -0.38057513139E+03  0.68227240687E+03  0.13092473789E+04  0.10504781569E+04 0.  0.
   -9000010    2    1    2    0  501 -0.17066723745E+02  0.38057513139E+03  0.70147102584E+03  0.12915816712E+04  0.10153782101E+04 0.  0.
        -13    1    3    3    0    0  0.25407430204E+03  0.12989110027E+03  0.68969497662E+03  0.74639441371E+03  0.10566000000E+00 0.  1.
         13    1    4    4    0    0 -0.81036535479E+02  0.72696361029E+03  0.49622259249E+03  0.88390038083E+03  0.10566000000E+00 0. -1.
          4    1    3    3  502    0 -0.23700757830E+03 -0.51046623166E+03 -0.74225697498E+01  0.56285296515E+03  0.00000000000E+00 0.  1.
         -4    1    4    4    0  501  0.63969811734E+02 -0.34638847890E+03  0.20524843335E+03  0.40768129038E+03  0.00000000000E+00 0. -1.
</event>
<event>
 8    1  0.7096247E-006  0.1483498E+04  0.7818608E-02  0.8419060E-01
         -1   -1    0    0    0  501 -0.00000000000E+00  0.00000000000E+00  0.79630031451E+03  0.79630031451E+03  0.00000000000E+00 0. -1.
          1   -1    0    0  502    0  0.00000000000E+00 -0.00000000000E+00 -0.27835959133E+04  0.27835959133E+04  0.00000000000E+00 0.  1.
    9000010    2    1    2  502    0  0.52383847974E+03 -0.95298648020E+03 -0.11464515930E+04  0.18768367515E+04  0.10127067454E+04 0.  0.
   -9000010    2    1    2    0  501 -0.52383847974E+03  0.95298648020E+03 -0.84084400576E+03  0.17030594763E+04  0.10053869671E+04 0.  0.
        -13    1    3    3    0    0  0.15811513230E+03 -0.10680584010E+04 -0.98264202552E+03  0.14599090740E+04  0.10566000000E+00 0.  1.
         13    1    4    4    0    0 -0.14702660151E+03  0.10351748365E+04 -0.79743164817E+03  0.13149528540E+04  0.10566000000E+00 0. -1.
          4    1    3    3  502    0  0.36572334744E+03  0.11507192077E+03 -0.16380956751E+03  0.41692767745E+03  0.00000000000E+00 0.  1.
         -4    1    4    4    0  501 -0.37681187823E+03 -0.82188356277E+02 -0.43412357588E+02  0.38810662230E+03  0.00000000000E+00 0. -1.
</event>
<event>
 8    1  0.7096247E-006  0.1329057E+04  0.7818608E-02  0.8515240E-01
          1   -1    0    0  502    0  0.00000000000E+00  0.00000000000E+00  0.23150553544E+04  0.23150553544E+04  0.00000000000E+00 0.  1.
         -1   -1    0    0    0  501 -0.00000000000E+00 -0.00000000000E+00 -0.85030964129E+03  0.85030964129E+03  0.00000000000E+00 0. -1.
    9000010    2    1    2  502    0 -0.70465883667E+03  0.55524306853E+03  0.12288900174E+04  0.17953651836E+04  0.95306165939E+03 0.  0.
   -9000010    2    1    2    0  501  0.70465883667E+03 -0.55524306853E+03  0.23585569578E+03  0.13699998121E+04  0.10081828379E+04 0.  0.
        -13    1    3    3    0    0  0.21132999041E+03  0.13627496542E+03  0.72283057268E+02  0.26164113320E+03  0.10566000000E+00 0.  1.
         13    1    4    4    0    0  0.64650241335E+03 -0.77500994975E+03 -0.43056577077E+02  0.10101780401E+04  0.10566000000E+00 0. -1.
          4    1    3    3  502    0 -0.91598882708E+03  0.41896810311E+03  0.11566069601E+04  0.15337240504E+04  0.00000000000E+00 0.  1.
         -4    1    4    4    0  501  0.58156423314E+02  0.21976688122E+03  0.27891227285E+03  0.35982177200E+03  0.00000000000E+00 0. -1.
</event>
<event>
 8    1  0.7096247E-006  0.1124744E+04  0.7818608E-02  0.8665494E-01
         -2   -1    0    0    0  501 -0.00000000000E+00  0.00000000000E+00  0.40329020011E+03  0.40329020011E+03  0.00000000000E+00 0.  1.
          2   -1    0    0  502    0  0.00000000000E+00 -0.00000000000E+00 -0.35123916609E+04  0.35123916609E+04  0.00000000000E+00 0. -1.
    9000010    2    1    2  502    0  0.34102349743E+03 -0.34941154186E+03 -0.22137065113E+04  0.24903092135E+04  0.10309015518E+04 0.  0.
   -9000010    2    1    2    0  501 -0.34102349743E+03  0.34941154186E+03 -0.89539494954E+03  0.14253726475E+04  0.99577588704E+03 0.  0.
        -13    1    3    3    0    0  0.68593385502E+03 -0.66548448977E+02 -0.14604555278E+04  0.16148883272E+04  0.10566000000E+00 0.  1.
         13    1    4    4    0    0  0.32825391408E+03 -0.13086809259E+01 -0.13977576712E+03  0.35677671027E+03  0.10566000000E+00 0. -1.
          4    1    3    3  502    0 -0.34491035759E+03 -0.28286309288E+03 -0.75325098347E+03  0.87542088631E+03  0.00000000000E+00 0.  1.
         -4    1    4    4    0  501 -0.66927741151E+03  0.35072022278E+03 -0.75561918242E+03  0.10685959372E+04  0.00000000000E+00 0. -1.
</event>
<event>
 8    1  0.7096247E-006  0.1200573E+04  0.7818608E-02  0.8606131E-01
          2   -1    0    0  502    0  0.00000000000E+00  0.00000000000E+00  0.17809894658E+04  0.17809894658E+04  0.00000000000E+00 0. -1.
         -2   -1    0    0    0  501 -0.00000000000E+00 -0.00000000000E+00 -0.81224050685E+03  0.81224050685E+03  0.00000000000E+00 0.  1.
    9000010    2    1    2  502    0  0.28284786652E+03 -0.62395344888E+03  0.56697349860E+03  0.13438606471E+04  0.10075622406E+04 0.  0.
   -9000010    2    1    2    0  501 -0.28284786652E+03  0.62395344888E+03  0.40177546031E+03  0.12493693255E+04  0.96445807018E+03 0.  0.
        -13    1    3    3    0    0 -0.17584581736E+03 -0.40067029197E+03  0.69188834957E+03  0.81863785265E+03  0.10566000000E+00 0.  1.
         13    1    4    4    0    0 -0.51266136235E+03  0.39380111204E+03 -0.97232488132E+02  0.65372406733E+03  0.10566000000E+00 0. -1.
          4    1    3    3  502    0  0.45869368388E+03 -0.22328315691E+03 -0.12491485097E+03  0.52522279442E+03  0.00000000000E+00 0.  1.
         -4    1    4    4    0  501  0.22981349583E+03  0.23015233683E+03  0.49900794844E+03  0.59564525821E+03  0.00000000000E+00 0. -1.
</event>
<event>
 8    1  0.7096247E-006  0.1402952E+04  0.7818608E-02  0.8467636E-01
         -1   -1    0    0    0  501 -0.00000000000E+00  0.00000000000E+00  0.10612214541E+04  0.10612214541E+04  0.00000000000E+00 0.  1.
          1   -1    0    0  502    0  0.00000000000E+00 -0.00000000000E+00 -0.18811479354E+04  0.18811479354E+04  0.00000000000E+00 0. -1.
    9000010    2    1    2  502    0 -0.90762801097E+03 -0.32234374158E+03 -0.23304946540E+03  0.14123874007E+04  0.10063955595E+04 0.  0.
   -9000010    2    1    2    0  501  0.90762801097E+03  0.32234374158E+03 -0.58687701588E+03  0.15299819889E+04  0.10337921263E+04 0.  0.
        -13    1    3    3    0    0 -0.80509007069E+03  0.96936643371E+02 -0.45202584020E+03  0.92838252144E+03  0.10566000000E+00 0.  1.
         13    1    4    4    0    0  0.48976694457E+02 -0.32045918856E+02  0.26391716626E+03  0.27032931644E+03  0.10566000000E+00 0. -1.
          4    1    3    3  502    0 -0.10253794028E+03 -0.41928038495E+03  0.21897637480E+03  0.48400487923E+03  0.00000000000E+00 0.  1.
         -4    1    4    4    0  501  0.85865131651E+03  0.35438966043E+03 -0.85079418214E+03  0.12596526724E+04  0.00000000000E+00 0. -1.
</event>
<event>
 8    1  0.7096247E-006  0.1289521E+04  0.7818608E-02  0.8542037E-01
          2   -1    0    0  502    0  0.00000000000E+00  0.00000000000E+00  0.32595089952E+04  0.32595089952E+04  0.00000000000E+00 0. -1.
         -2   -1    0    0    0  501 -0.00000000000E+00 -0.00000000000E+00 -0.52437129942E+03  0.52437129942E+03  0.00000000000E+00 0.  1.
    9000010    2    1    2  502    0 -0.24392548268E+03  0.87396263691E+03  0.10150156616E+04  0.16047911666E+04  0.84958081616E+03 0.  0.
   -9000010    2    1    2    0  501  0.24392548268E+03 -0.87396263691E+03  0.17201220342E+04  0.21790891280E+04  0.98300523076E+03 0.  0.
        -13    1    3    3    0    0 -0.14430294807E+03  0.48245197744E+03 -0.93334977374E+01  0.50365700303E+03  0.10566000000E+00 0.  1.
         13    1    4    4    0    0  0.22275391460E+03 -0.82840923240E+03  0.57466547247E+03  0.10325316359E+04  0.10566000000E+00 0. -1.
          4    1    3    3  502    0 -0.99622534612E+02  0.39151065946E+03  0.10243491593E+04  0.11011341635E+04  0.00000000000E+00 0.  1.
         -4    1    4    4    0  501  0.21171568074E+02 -0.45553404506E+02  0.11454565617E+04  0.11465574921E+04  0.00000000000E+00 0. -1.
</event>
<event>
 8    1  0.7096247E-006  0.1404959E+04  0.7818608E-02  0.8466386E-01
          2   -1    0    0  502    0  0.00000000000E+00  0.00000000000E+00  0.17749742993E+04  0.17749742993E+04  0.00000000000E+00 0.  1.
         -2   -1    0    0    0  501 -0.00000000000E+00 -0.00000000000E+00 -0.11741965032E+04  0.11741965032E+04  0.00000000000E+00 0. -1.
    9000010    2    1    2  502    0 -0.91251862759E+03 -0.35597007939E+03  0.63815211016E+03  0.15371244249E+04  0.99805232266E+03 0.  0.
   -9000010    2    1    2    0  501  0.91251862759E+03  0.35597007939E+03 -0.37374314063E+02  0.14120463776E+04  0.10164020808E+04 0.  0.
        -13    1    3    3    0    0 -0.80351773136E+03  0.19759214662E+03  0.45292501223E+03  0.94330508261E+03  0.10566000000E+00 0.  1.
         13    1    4    4    0    0 -0.70686286577E+02 -0.14104299413E+03  0.22950041655E+03  0.27849619326E+03  0.10566000000E+00 0. -1.
          4    1    3    3  502    0 -0.10900089622E+03 -0.55356222601E+03  0.18522709793E+03  0.59381934227E+03  0.00000000000E+00 0.  1.
         -4    1    4    4    0  501  0.98320491416E+03  0.49701307352E+03 -0.26687473061E+03  0.11335501843E+04  0.00000000000E+00 0. -1.
</event>
<event>
 8    1  0.7096247E-006  0.1268269E+04  0.7818608E-02  0.8556854E-01
         -2   -1    0    0    0  501 -0.00000000000E+00  0.00000000000E+00  0.24232912638E+04  0.24232912638E+04  0.00000000000E+00 0.  1.
          2   -1    0    0  502    0  0.00000000000E+00 -0.00000000000E+00 -0.77327687923E+03  0.77327687923E+03  0.00000000000E+00 0. -1.
    9000010    2    1    2  502    0  0.65187963935E+03 -0.44444515684E+03  0.14274662523E+04  0.19106842634E+04  0.99527679132E+03 0.  0.
   -9000010    2    1    2    0  501 -0.65187963935E+03  0.44444515684E+03  0.22254813224E+03  0.12858838796E+04  0.99070233623E+03 0.  0.
        -13    1    3    3    0    0  0.25129970545E+03  0.24007442058E+03  0.95428072734E+02  0.36040782124E+03  0.10566000000E+00 0.  1.
         13    1    4    4    0    0 -0.19611196111E+03  0.13672212499E+03 -0.39328901302E+03  0.46024895402E+03  0.10566000000E+00 0. -1.
          4    1    3    3  502    0  0.40057993390E+03 -0.68451957742E+03  0.13320381796E+04  0.15502764422E+04  0.00000000000E+00 0.  1.
         -4    1    4    4    0  501 -0.45576767824E+03  0.30772303185E+03  0.61583714526E+03  0.82563492558E+03  0.00000000000E+00 0. -1.
</event>
<event>
 8    1  0.7096247E-006  0.1175368E+04  0.7818608E-02  0.8625346E-01
          2   -1    0    0  502    0  0.00000000000E+00  0.00000000000E+00  0.17423106062E+04  0.17423106062E+04  0.00000000000E+00 0. -1.
         -2   -1    0    0    0  501 -0.00000000000E+00 -0.00000000000E+00 -0.80095483494E+03  0.80095483494E+03  0.00000000000E+00 0.  1.
    9000010    2    1    2  502    0  0.44010781585E+03  0.33428648761E+03  0.35262704590E+03  0.12458575524E+04  0.10594210032E+04 0.  0.
   -9000010    2    1    2    0  501 -0.44010781585E+03 -0.33428648761E+03  0.58872872532E+03  0.12974078887E+04  0.10154916899E+04 0.  0.
        -13    1    3    3    0    0  0.27626112752E+03  0.67178071628E+03  0.45483429211E+03  0.85702029485E+03  0.10566000000E+00 0.  1.
         13    1    4    4    0    0  0.24461774717E+03  0.17548264238E+03  0.18231232570E+03  0.35195141039E+03  0.10566000000E+00 0. -1.
          4    1    3    3  502    0  0.16384668833E+03 -0.33749422868E+03 -0.10220724621E+03  0.38883725753E+03  0.00000000000E+00 0.  1.
         -4    1    4    4    0  501 -0.68472556302E+03 -0.50976912998E+03  0.40641639962E+03  0.94545647833E+03  0.00000000000E+00 0. -1.
</event>
<event>
 8    1  0.7096247E-006  0.1036091E+04  0.7818608E-02  0.8741401E-01
          4   -1    0    0  502    0  0.00000000000E+00  0.00000000000E+00  0.21104939343E+04  0.21104939343E+04  0.00000000000E+00 0.  1.
         -4   -1    0    0    0  501 -0.00000000000E+00 -0.00000000000E+00 -0.52215087090E+03  0.52215087090E+03  0.00000000000E+00 0. -1.
    9000010    2    1    2  502    0 -0.25731963153E+03  0.86948959981E+02  0.10095596859E+04  0.14502299635E+04  0.10050784414E+04 0.  0.
   -9000010    2    1    2    0  501  0.25731963153E+03 -0.86948959981E+02  0.57878337758E+03  0.11824148417E+04  0.99465629507E+03 0.  0.
        -13    1    3    3    0    0 -0.16153597508E+03  0.45309037201E+03  0.13859758615E+03  0.50059370601E+03  0.10566000000E+00 0.  1.
         13    1    4    4    0    0  0.39709032182E+03  0.37005546743E+03  0.22389551387E+03  0.58715499228E+03  0.10566000000E+00 0. -1.
          4    1    3    3  502    0 -0.95783656450E+02 -0.36614141203E+03  0.87096209971E+03  0.94963625751E+03  0.00000000000E+00 0.  1.
         -4    1    4    4    0  501 -0.13977069029E+03 -0.45700442741E+03  0.35488786371E+03  0.59525984943E+03  0.00000000000E+00 0. -1.
</event>
<event>
 8    1  0.7096247E-006  0.1914987E+04  0.7818608E-02  0.8203910E-01
          2   -1    0    0  502    0  0.00000000000E+00  0.00000000000E+00  0.27860204805E+04  0.27860204805E+04  0.00000000000E+00 0. -1.
         -2   -1    0    0    0  501 -0.00000000000E+00 -0.00000000000E+00 -0.13888593803E+04  0.13888593803E+04  0.00000000000E+00 0.  1.
    9000010    2    1    2  502    0  0.85712192100E+03 -0.13919651795E+04  0.22105146860E+03  0.19267472275E+04  0.99562346216E+03 0.  0.
   -9000010    2    1    2    0  501 -0.85712192100E+03  0.13919651795E+04  0.11761096316E+04  0.22481326333E+04  0.99932048063E+03 0.  0.
        -13    1    3    3    0    0  0.48338425315E+02 -0.77257500059E+03  0.43192906928E+03  0.88643751441E+03  0.10566000000E+00 0.  1.
         13    1    4    4    0    0  0.98498827258E+02 -0.41405692534E+02  0.29377505873E+03  0.31260237785E+03  0.10566000000E+00 0. -1.
          4    1    3    3  502    0  0.80878349569E+03 -0.61939017891E+03 -0.21087760068E+03  0.10403097131E+04  0.00000000000E+00 0.  1.
         -4    1    4    4    0  501 -0.95562074826E+03  0.14333708720E+04  0.88233457290E+03  0.19355302555E+04  0.00000000000E+00 0. -1.
</event>
<event>
 8    1  0.7096247E-006  0.1247773E+04  0.7818608E-02  0.8571431E-01
         -1   -1    0    0    0  501 -0.00000000000E+00  0.00000000000E+00  0.68436981742E+03  0.68436981742E+03  0.00000000000E+00 0. -1.
          1   -1    0    0  502    0  0.00000000000E+00 -0.00000000000E+00 -0.22825511794E+04  0.22825511794E+04  0.00000000000E+00 0.  1.
    9000010    2    1    2  502    0  0.71982908760E+03  0.22283994614E+03 -0.88523648254E+03  0.15309263691E+04  0.99613270238E+03 0.  0.
   -9000010    2    1    2    0  501 -0.71982908760E+03 -0.22283994614E+03 -0.71294487949E+03  0.14359946277E+04  0.99296455764E+03 0.  0.
        -13    1    3    3    0    0  0.84037406349E+03 -0.11184901564E+03 -0.42242988583E+03  0.94719891706E+03  0.10566000000E+00 0.  1.
         13    1    4    4    0    0 -0.17825147024E+03 -0.51375142576E+03 -0.73122001032E+02  0.54869021525E+03  0.10566000000E+00 0. -1.
          4    1    3    3  502    0 -0.12054497588E+03  0.33468896179E+03 -0.46280659671E+03  0.58372745208E+03  0.00000000000E+00 0.  1.
         -4    1    4    4    0  501 -0.54157761736E+03  0.29091147962E+03 -0.63982287846E+03  0.88730441248E+03  0.00000000000E+00 0. -1.
</event>
<event>
 8    1  0.7096247E-006  0.1186359E+04  0.7818608E-02  0.8616906E-01
         -2   -1    0    0    0  501 -0.00000000000E+00  0.00000000000E+00  0.82360252997E+03  0.82360252997E+03  0.00000000000E+00 0. -1.
          2   -1    0    0  502    0  0.00000000000E+00 -0.00000000000E+00 -0.18083643527E+04  0.18083643527E+04  0.00000000000E+00 0.  1.
    9000010    2    1    2  502    0 -0.25001126824E+03  0.56119118592E+03 -0.80277985242E+03  0.14362449679E+04  0.10202465069E+04 0.  0.
   -9000010    2    1    2    0  501  0.25001126824E+03 -0.56119118592E+03 -0.18198197028E+03  0.11957219148E+04  0.10095505330E+04 0.  0.
        -13    1    3    3    0    0 -0.46285422314E+03 -0.36350037841E+00 -0.38785026535E+02  0.46447653703E+03  0.10566000000E+00 0.  1.
         13    1    4    4    0    0  0.56003248757E+02  0.54543205948E+02  0.35035573947E+03  0.35897142021E+03  0.10566000000E+00 0. -1.
          4    1    3    3  502    0  0.21284295490E+03  0.56155468630E+03 -0.76399482589E+03  0.97176843082E+03  0.00000000000E+00 0.  1.
         -4    1    4    4    0  501  0.19400801948E+03 -0.61573439187E+03 -0.53233770974E+03  0.83675049457E+03  0.00000000000E+00 0. -1.
</event>
<event>
 8    1  0.7096247E-006  0.1193930E+04  0.7818608E-02  0.8611147E-01
         -2   -1    0    0    0  501 -0.00000000000E+00  0.00000000000E+00  0.16534652181E+04  0.16534652181E+04  0.00000000000E+00 0.  1.
          2   -1    0    0  502    0  0.00000000000E+00 -0.00000000000E+00 -0.99481002629E+03  0.99481002629E+03  0.00000000000E+00 0. -1.
    9000010    2    1    2  502    0  0.10587096747E+03 -0.63572608484E+03  0.81248801552E+03  0.14426128533E+04  0.10028154129E+04 0.  0.
   -9000010    2    1    2    0  501 -0.10587096747E+03  0.63572608484E+03 -0.15383282370E+03  0.12056623912E+04  0.10072740179E+04 0.  0.
        -13    1    3    3    0    0 -0.71107600484E+02 -0.48356287045E+03 -0.10158849661E+03  0.49920894857E+03  0.10566000000E+00 0.  1.
         13    1    4    4    0    0  0.32159550479E+03 -0.10684997108E+03 -0.50741137840E+02  0.34265910065E+03  0.10566000000E+00 0. -1.
          4    1    3    3  502    0  0.17697856795E+03 -0.15216321439E+03  0.91407651214E+03  0.94340390468E+03  0.00000000000E+00 0.  1.
         -4    1    4    4    0  501 -0.42746647226E+03  0.74257605592E+03 -0.10309168586E+03  0.86300329051E+03  0.00000000000E+00 0. -1.
</event>
<event>
 8    1  0.7096247E-006  0.1130016E+04  0.7818608E-02  0.8661212E-01
          1   -1    0    0  502    0  0.00000000000E+00  0.00000000000E+00  0.55913488708E+03  0.55913488708E+03  0.00000000000E+00 0. -1.
         -1   -1    0    0    0  501 -0.00000000000E+00 -0.00000000000E+00 -0.25079091175E+04  0.25079091175E+04  0.00000000000E+00 0.  1.
    9000010    2    1    2  502    0  0.39704225532E+03  0.46954944195E+03 -0.55464806514E+03  0.12994758343E+04  0.10014408304E+04 0.  0.
   -9000010    2    1    2    0  501 -0.39704225532E+03 -0.46954944195E+03 -0.13941261652E+04  0.17675681702E+04  0.89587400950E+03 0.  0.
        -13    1    3    3    0    0  0.25546049284E+03  0.40532988854E+03 -0.84428225087E+03  0.97075481572E+03  0.10566000000E+00 0.  1.
         13    1    4    4    0    0 -0.25342264685E+03 -0.66664388968E+03 -0.13396873637E+04  0.15176954099E+04  0.10566000000E+00 0. -1.
          4    1    3    3  502    0  0.14158176248E+03  0.64219553414E+02  0.28963418573E+03  0.32872101857E+03  0.00000000000E+00 0.  1.
         -4    1    4    4    0  501 -0.14361960848E+03  0.19709444773E+03 -0.54438801581E+02  0.24987276039E+03  0.00000000000E+00 0. -1.
</event>
<event>
 8    1  0.7096247E-006  0.1743979E+04  0.7818608E-02  0.8281439E-01
          1   -1    0    0  502    0  0.00000000000E+00  0.00000000000E+00  0.20934222751E+04  0.20934222751E+04  0.00000000000E+00 0.  1.
         -1   -1    0    0    0  501 -0.00000000000E+00 -0.00000000000E+00 -0.15107167318E+04  0.15107167318E+04  0.00000000000E+00 0. -1.
    9000010    2    1    2  502    0  0.10893095573E+04  0.91986132707E+03 -0.61859602275E+02  0.17413849044E+04  0.99792514857E+03 0.  0.
   -9000010    2    1    2    0  501 -0.10893095573E+04 -0.91986132707E+03  0.64456514564E+03  0.18627541025E+04  0.10107662671E+04 0.  0.
        -13    1    3    3    0    0  0.32933141150E+03  0.13522587306E+03 -0.45740938098E+03  0.57962795681E+03  0.10566000000E+00 0.  1.
         13    1    4    4    0    0  0.14756499546E+03 -0.30717258794E+02  0.24545457132E+03  0.28803981603E+03  0.10566000000E+00 0. -1.
          4    1    3    3  502    0  0.75997814585E+03  0.78463545401E+03  0.39554977871E+03  0.11617569476E+04  0.00000000000E+00 0.  1.
         -4    1    4    4    0  501 -0.12368745528E+04 -0.88914406827E+03  0.39911057432E+03  0.15747142865E+04  0.00000000000E+00 0. -1.
</event>
<event>
 8    1  0.7096247E-006  0.1388922E+04  0.7818608E-02  0.8476439E-01
         -1   -1    0    0    0  501 -0.00000000000E+00  0.00000000000E+00  0.85410313479E+03  0.85410313479E+03  0.00000000000E+00 0.  1.
          1   -1    0    0  502    0  0.00000000000E+00 -0.00000000000E+00 -0.23418984784E+04  0.23418984784E+04  0.00000000000E+00 0. -1.
    9000010    2    1    2  502    0  0.81956734387E+03  0.52210486532E+03 -0.44347365179E+03  0.14596440063E+04  0.99479024115E+03 0.  0.
   -9000010    2    1    2    0  501 -0.81956734387E+03 -0.52210486532E+03 -0.10443216918E+04  0.17363576069E+04  0.98997263667E+03 0.  0.
        -13    1    3    3    0    0  0.23610166024E+03  0.50899307017E+02  0.31237345178E+03  0.39485683224E+03  0.10566000000E+00 0.  1.
         13    1    4    4    0    0 -0.65023318175E+03 -0.83404143773E+02 -0.76075989352E+02  0.65995985421E+03  0.10566000000E+00 0. -1.
          4    1    3    3  502    0  0.58346568363E+03  0.47120555830E+03 -0.75584710357E+03  0.10647871741E+04  0.00000000000E+00 0.  1.
         -4    1    4    4    0  501 -0.16933416211E+03 -0.43870072154E+03 -0.96824570247E+03  0.10763977526E+04  0.00000000000E+00 0. -1.
</event>
<event>
 8    1  0.7096247E-006  0.1274260E+04  0.7818608E-02  0.8552647E-01
          1   -1    0    0  502    0  0.00000000000E+00  0.00000000000E+00  0.12592967297E+04  0.12592967297E+04  0.00000000000E+00 0. -1.
         -1   -1    0    0    0  501 -0.00000000000E+00 -0.00000000000E+00 -0.16137347530E+04  0.16137347530E+04  0.00000000000E+00 0.  1.
    9000010    2    1    2  502    0 -0.72194870173E+03  0.20614898074E+03  0.46387843704E+03  0.13769757102E+04  0.10569633730E+04 0.  0.
   -9000010    2    1    2    0  501  0.72194870173E+03 -0.20614898074E+03 -0.81831646034E+03  0.14960557726E+04  0.10024139440E+04 0.  0.
        -13    1    3    3    0    0 -0.73599999900E+03 -0.29656552072E+03  0.27679105102E+03  0.84039300550E+03  0.10566000000E+00 0.  1.
         13    1    4    4    0    0 -0.15880907400E+03  0.15799992117E+03  0.22449139211E+02  0.22514056074E+03  0.10566000000E+00 0. -1.
          4    1    3    3  502    0  0.14051297270E+02  0.50271450146E+03  0.18708738602E+03  0.53658270466E+03  0.00000000000E+00 0.  1.
         -4    1    4    4    0  501  0.88075777573E+03 -0.36414890191E+03 -0.84076559955E+03  0.12709152118E+04  0.00000000000E+00 0. -1.
</event>
<event>
 6    1  0.1306188E-005  0.7034755E+03  0.7818608E-02  0.9117952E-01
         -2   -1    0    0    0  501 -0.00000000000E+00  0.00000000000E+00  0.98613483289E+03  0.98613483289E+03  0.00000000000E+00 0.  1.
          2   -1    0    0  502    0  0.00000000000E+00 -0.00000000000E+00 -0.64509874473E+03  0.64509874473E+03  0.00000000000E+00 0. -1.
        -13    1    1    2    0    0  0.46941194164E+02 -0.28217149742E+03  0.40799691342E+03  0.49828277332E+03  0.10566000000E+00 0.  1.
         13    1    1    2    0    0 -0.29456406985E+03 -0.14714448642E+02  0.18900188973E+03  0.35029449286E+03  0.10566000000E+00 0. -1.
          4    1    1    2  502    0  0.21250557071E+03  0.28313443507E+03  0.14308252911E+03  0.38183286402E+03  0.00000000000E+00 0.  1.
         -4    1    1    2    0  501  0.35117304978E+02  0.13751510987E+02 -0.39904524410E+03  0.40082344742E+03  0.00000000000E+00 0. -1.
</event>
<event>
 8    1  0.7096247E-006  0.1210984E+04  0.7818608E-02  0.8598337E-01
         -1   -1    0    0    0  501 -0.00000000000E+00  0.00000000000E+00  0.16230342263E+04  0.16230342263E+04  0.00000000000E+00 0.  1.
          1   -1    0    0  502    0  0.00000000000E+00 -0.00000000000E+00 -0.11849002950E+04  0.11849002950E+04  0.00000000000E+00 0. -1.
    9000010    2    1    2  502    0  0.79091166130E+03 -0.16042066728E+03  0.90573247087E+03  0.15295578920E+04  0.93162223555E+03 0.  0.
   -9000010    2    1    2    0  501 -0.79091166130E+03  0.16042066728E+03 -0.46759853960E+03  0.12783766293E+04  0.87425532066E+03 0.  0.
        -13    1    3    3    0    0  0.29486509785E+02  0.12821788310E+03  0.66861938392E+03  0.68144051209E+03  0.10566000000E+00 0.  1.
         13    1    4    4    0    0 -0.34406243354E+03  0.35605070118E+03  0.12517086118E+03  0.51070423499E+03  0.10566000000E+00 0. -1.
          4    1    3    3  502    0  0.76142515151E+03 -0.28863855038E+03  0.23711308695E+03  0.84811737992E+03  0.00000000000E+00 0.  1.
         -4    1    4    4    0  501 -0.44684922776E+03 -0.19563003390E+03 -0.59276940078E+03  0.76767239433E+03  0.00000000000E+00 0. -1.
</event>
<event>
 8    1  0.7096247E-006  0.1133167E+04  0.7818608E-02  0.8658663E-01
          1   -1    0    0  502    0  0.00000000000E+00  0.00000000000E+00  0.22569188652E+04  0.22569188652E+04  0.00000000000E+00 0. -1.
         -1   -1    0    0    0  501 -0.00000000000E+00 -0.00000000000E+00 -0.80483218366E+03  0.80483218366E+03  0.00000000000E+00 0.  1.
    9000010    2    1    2  502    0 -0.17712109980E+03 -0.55383779364E+03  0.15419009773E+04  0.18978889863E+04  0.94149657180E+03 0.  0.
   -9000010    2    1    2    0  501  0.17712109980E+03  0.55383779364E+03 -0.89814295767E+02  0.11638620626E+04  0.10041912703E+04 0.  0.
        -13    1    3    3    0    0  0.34209039951E+02 -0.12715514473E+03 -0.11444613084E+03  0.17446093337E+03  0.10566000000E+00 0.  1.
         13    1    4    4    0    0 -0.57663330220E+02  0.46825728692E+03  0.39703386578E+03  0.61662456013E+03  0.10566000000E+00 0. -1.
          4    1    3    3  502    0 -0.21133013975E+03 -0.42668264891E+03  0.16563471081E+04  0.17234280529E+04  0.00000000000E+00 0.  1.
         -4    1    4    4    0  501  0.23478443002E+03  0.85580506717E+02 -0.48684816155E+03  0.54723750247E+03  0.00000000000E+00 0. -1.
</event>
<event>
 8    1  0.7096247E-006  0.1699831E+04  0.7818608E-02  0.8302946E-01
          2   -1    0    0  502    0  0.00000000000E+00  0.00000000000E+00  0.18098438498E+04  0.18098438498E+04  0.00000000000E+00 0. -1.
         -2   -1    0    0    0  501 -0.00000000000E+00 -0.00000000000E+00 -0.15987702149E+04  0.15987702149E+04  0.00000000000E+00 0.  1.
    9000010    2    1    2  502    0 -0.46852194866E+03 -0.13256511890E+04  0.44942987290E+02  0.17181114880E+04  0.98641944525E+03 0.  0.
   -9000010    2    1    2    0  501  0.46852194866E+03  0.13256511890E+04  0.16613064755E+03  0.16905025766E+04  0.92376169998E+03 0.  0.
        -13    1    3    3    0    0  0.12766854865E+03 -0.10170266287E+04 -0.10456713484E+03  0.10303284518E+04  0.10566000000E+00 0.  1.
         13    1    4    4    0    0  0.36153639509E+03  0.13138315879E+04  0.41076791318E+03  0.14232330434E+04  0.10566000000E+00 0. -1.
          4    1    3    3  502    0 -0.59619049732E+03 -0.30862456034E+03  0.14951012213E+03  0.68778303625E+03  0.00000000000E+00 0.  1.
         -4    1    4    4    0  501  0.10698555358E+03  0.11819601113E+02 -0.24463726563E+03  0.26726953321E+03  0.00000000000E+00 0. -1.
</event>
<event>
 8    1  0.7096247E-006  0.1156762E+04  0.7818608E-02  0.8639853E-01
         -2   -1    0    0    0  501 -0.00000000000E+00  0.00000000000E+00  0.12273727786E+04  0.12273727786E+04  0.00000000000E+00 0.  1.
          2   -1    0    0  502    0  0.00000000000E+00 -0.00000000000E+00 -0.12768769035E+04  0.12768769035E+04  0.00000000000E+00 0. -1.
    9000010    2    1    2  502    0 -0.38828842294E+03 -0.42864556690E+03  0.45400405116E+03  0.12420131134E+04  0.10009855014E+04 0.  0.
   -9000010    2    1    2    0  501  0.38828842294E+03  0.42864556690E+03 -0.50350817609E+03  0.12622365687E+04  0.10026044836E+04 0.  0.
        -13    1    3    3    0    0 -0.35573919935E+03  0.11410477869E+03  0.57431730940E+03  0.68513550595E+03  0.10566000000E+00 0.  1.
         13    1    4    4    0    0  0.31310539128E+02  0.70036761500E+03 -0.37753553256E+03  0.79625889980E+03  0.10566000000E+00 0. -1.
          4    1    3    3  502    0 -0.32549223598E+02 -0.54275034558E+03 -0.12031325824E+03  0.55687760747E+03  0.00000000000E+00 0.  1.
         -4    1    4    4    0  501  0.35697788382E+03 -0.27172204810E+03 -0.12597264353E+03  0.46597766886E+03  0.00000000000E+00 0. -1.
</event>
<event>
 8    1  0.7096247E-006  0.1084401E+04  0.7818608E-02  0.8699098E-01
         -2   -1    0    0    0  501 -0.00000000000E+00  0.00000000000E+00  0.92726740168E+03  0.92726740168E+03  0.00000000000E+00 0.  1.
          2   -1    0    0  502    0  0.00000000000E+00 -0.00000000000E+00 -0.13154327944E+04  0.13154327944E+04  0.00000000000E+00 0. -1.
    9000010    2    1    2  502    0  0.34799233535E+03 -0.23526192595E+03 -0.40643739710E+03  0.11569180739E+04  0.99840935124E+03 0.  0.
   -9000010    2    1    2    0  501 -0.34799233535E+03  0.23526192595E+03  0.18272004338E+02  0.10857821222E+04  0.10010704828E+04 0.  0.
        -13    1    3    3    0    0  0.62023195182E+01 -0.57014731289E+03 -0.36415572647E+03  0.67654699131E+03  0.10566000000E+00 0.  1.
         13    1    4    4    0    0 -0.44221948757E+03 -0.54135434596E+02  0.39919688646E+03  0.59820304729E+03  0.10566000000E+00 0. -1.
          4    1    3    3  502    0  0.34179001583E+03  0.33488538694E+03 -0.42281670631E+02  0.48037108258E+03  0.00000000000E+00 0.  1.
         -4    1    4    4    0  501  0.94227152219E+02  0.28939736055E+03 -0.38092488213E+03  0.48757907495E+03  0.00000000000E+00 0. -1.
</event>
<event>
 8    1  0.7096247E-006  0.1156864E+04  0.7818608E-02  0.8639772E-01
          2   -1    0    0  502    0  0.00000000000E+00  0.00000000000E+00  0.10676890168E+04  0.10676890168E+04  0.00000000000E+00 0.  1.
         -2   -1    0    0    0  501 -0.00000000000E+00 -0.00000000000E+00 -0.13771211596E+04  0.13771211596E+04  0.00000000000E+00 0. -1.
    9000010    2    1    2  502    0  0.63908078843E+03  0.21538154153E+03  0.20380997386E+03  0.12166149070E+04  0.99186685794E+03 0.  0.
   -9000010    2    1    2    0  501 -0.63908078843E+03 -0.21538154153E+03 -0.51324211658E+03  0.12281952694E+04  0.88895032875E+03 0.  0.
        -13    1    3    3    0    0 -0.11589821653E+03  0.18623619590E+03  0.38185888867E+03  0.44037772341E+03  0.10566000000E+00 0.  1.
         13    1    4    4    0    0  0.80123195747E+02  0.24768643030E+03 -0.11260974757E+03  0.28363578875E+03  0.10566000000E+00 0. -1.
          4    1    3    3  502    0  0.75497900496E+03  0.29145345628E+02 -0.17804891481E+03  0.77623718358E+03  0.00000000000E+00 0.  1.
         -4    1    4    4    0  501 -0.71920398418E+03 -0.46306797182E+03 -0.40063236901E+03  0.94455948065E+03  0.00000000000E+00 0. -1.
</event>
<event>
 8    1  0.7096247E-006  0.2276050E+04  0.7818608E-02  0.8064439E-01
          2   -1    0    0  502    0  0.00000000000E+00  0.00000000000E+00  0.46014966267E+04  0.46014966267E+04  0.00000000000E+00 0.  1.
         -2   -1    0    0    0  501 -0.00000000000E+00 -0.00000000000E+00 -0.12425589766E+04  0.12425589766E+04  0.00000000000E+00 0. -1.
    9000010    2    1    2  502    0  0.16960245357E+04 -0.11453415540E+04  0.25742957869E+04  0.34353427910E+04  0.99311368533E+03 0.  0.
   -9000010    2    1    2    0  501 -0.16960245357E+04  0.11453415540E+04  0.78464186329E+03  0.24087128123E+04  0.99896349166E+03 0.  0.
        -13    1    3    3    0    0 -0.10934563035E+02 -0.41602526441E+03  0.41252714522E+03  0.58598228813E+03  0.10566000000E+00 0.  1.
         13    1    4    4    0    0 -0.13063945809E+04  0.10301485830E+04  0.17059648932E+03  0.16724162392E+04  0.10566000000E+00 0. -1.
          4    1    3    3  502    0  0.17069590987E+04 -0.72931628963E+03  0.21617686417E+04  0.28493605028E+04  0.00000000000E+00 0.  1.
         -4    1    4    4    0  501 -0.38962995477E+03  0.11519297108E+03  0.61404537397E+03  0.73629657309E+03  0.00000000000E+00 0. -1.
</event>
<event>
 8    1  0.7096247E-006  0.1065103E+04  0.7818608E-02  0.8715715E-01
         -2   -1    0    0    0  501 -0.00000000000E+00  0.00000000000E+00  0.13016387699E+04  0.13016387699E+04  0.00000000000E+00 0. -1.
          2   -1    0    0  502    0  0.00000000000E+00 -0.00000000000E+00 -0.89863304828E+03  0.89863304828E+03  0.00000000000E+00 0.  1.
    9000010    2    1    2  502    0 -0.12487098193E+03  0.40953151453E+03  0.79435714230E+01  0.10449675888E+04  0.95319742860E+03 0.  0.
   -9000010    2    1    2    0  501  0.12487098193E+03 -0.40953151453E+03  0.39506215023E+03  0.11553042294E+04  0.99766975313E+03 0.  0.
        -13    1    3    3    0    0  0.23342717173E+03  0.41785939742E+03  0.31502688977E+03  0.57300669538E+03  0.10566000000E+00 0.  1.
         13    1    4    4    0    0 -0.13390762179E+03 -0.47703168562E+03  0.62850203691E+03  0.80031575133E+03  0.10566000000E+00 0. -1.
          4    1    3    3  502    0 -0.35829815367E+03 -0.83278828842E+01 -0.30708331835E+03  0.47196089346E+03  0.00000000000E+00 0.  1.
         -4    1    4    4    0  501  0.25877860373E+03  0.67500171087E+02 -0.23343988668E+03  0.35498847803E+03  0.00000000000E+00 0. -1.
</event>
<event>
 8    1  0.7096247E-006  0.1088463E+04  0.7818608E-02  0.8695646E-01
         -2   -1    0    0    0  501 -0.00000000000E+00  0.00000000000E+00  0.36714634697E+03  0.36714634697E+03  0.00000000000E+00 0. -1.
          2   -1    0    0  502    0  0.00000000000E+00 -0.00000000000E+00 -0.32349544870E+04  0.32349544870E+04  0.00000000000E+00 0.  1.
    9000010    2    1    2  502    0 -0.30740686208E+03  0.31404583744E+03 -0.13787929220E+04  0.17698848263E+04  0.10189693862E+04 0.  0.
   -9000010    2    1    2    0  501  0.30740686208E+03 -0.31404583744E+03 -0.14890152181E+04  0.18322160076E+04  0.97299815631E+03 0.  0.
        -13    1    3    3    0    0  0.13373493686E+03  0.30134196357E+03 -0.79790146656E+01  0.32978127324E+03  0.10566000000E+00 0.  1.
         13    1    4    4    0    0  0.40227892240E+03 -0.49598606570E+03 -0.14963156449E+04  0.16268961335E+04  0.10566000000E+00 0. -1.
          4    1    3    3  502    0 -0.44114179894E+03  0.12703873873E+02 -0.13708139073E+04  0.14401035531E+04  0.00000000000E+00 0.  1.
         -4    1    4    4    0  501 -0.94872060313E+02  0.18194022826E+03  0.73004268599E+01  0.20531987415E+03  0.00000000000E+00 0. -1.
</event>
<event>
 8    1  0.7096247E-006  0.1382342E+04  0.7818608E-02  0.8480605E-01
          2   -1    0    0  502    0  0.00000000000E+00  0.00000000000E+00  0.20433631809E+04  0.20433631809E+04  0.00000000000E+00 0. -1.
         -2   -1    0    0    0  501 -0.00000000000E+00 -0.00000000000E+00 -0.95973532692E+03  0.95973532692E+03  0.00000000000E+00 0.  1.
    9000010    2    1    2  502    0 -0.17796717419E+03 -0.93977161641E+03  0.78378614082E+03  0.15930592613E+04  0.10043276803E+04 0.  0.
   -9000010    2    1    2    0  501  0.17796717419E+03  0.93977161641E+03  0.29984171317E+03  0.14100392465E+04  0.99169683755E+03 0.  0.
        -13    1    3    3    0    0  0.34673302655E+03 -0.55075448849E+02  0.13053159585E+03  0.37456054977E+03  0.10566000000E+00 0.  1.
         13    1    4    4    0    0 -0.10814796366E+02 -0.14258598073E+03 -0.16387472940E+03  0.21749174656E+03  0.10566000000E+00 0. -1.
          4    1    3    3  502    0 -0.52470020074E+03 -0.88469616757E+03  0.65325454498E+03  0.12184987116E+04  0.00000000000E+00 0.  1.
         -4    1    4    4    0  501  0.18878197056E+03  0.10823575971E+04  0.46371644257E+03  0.11925474999E+04  0.00000000000E+00 0. -1.
</event>
<event>
 8    1  0.7096247E-006  0.1201756E+04  0.7818608E-02  0.8605241E-01
          2   -1    0    0  502    0  0.00000000000E+00  0.00000000000E+00  0.10127841580E+04  0.10127841580E+04  0.00000000000E+00 0.  1.
         -2   -1    0    0    0  501 -0.00000000000E+00 -0.00000000000E+00 -0.14764859155E+04  0.14764859155E+04  0.00000000000E+00 0. -1.
    9000010    2    1    2  502    0 -0.11621343266E+03  0.65196757802E+03 -0.18221946052E+01  0.12025539734E+04  0.10037755994E+04 0.  0.
   -9000010    2    1    2    0  501  0.11621343266E+03 -0.65196757802E+03 -0.46187956282E+03  0.12867161000E+04  0.10018674098E+04 0.  0.
        -13    1    3    3    0    0  0.19923373049E+03  0.77403522999E+03 -0.18140846402E+03  0.81959359356E+03  0.10566000000E+00 0.  1.
         13    1    4    4    0    0 -0.13100454413E+03 -0.24099117817E+03  0.28727227246E+03  0.39719555414E+03  0.10566000000E+00 0. -1.
          4    1    3    3  502    0 -0.31544716315E+03 -0.12206765197E+03  0.17958626941E+03  0.38296037988E+03  0.00000000000E+00 0.  1.
         -4    1    4    4    0  501  0.24721797679E+03 -0.41097639985E+03 -0.74915183528E+03  0.88952054590E+03  0.00000000000E+00 0. -1.
</event>
<event>
 8    1  0.7096247E-006  0.1095193E+04  0.7818608E-02  0.8689961E-01
         -1   -1    0    0    0  501 -0.00000000000E+00  0.00000000000E+00  0.85203092006E+03  0.85203092006E+03  0.00000000000E+00 0. -1.
          1   -1    0    0  502    0  0.00000000000E+00 -0.00000000000E+00 -0.15054438678E+04  0.15054438678E+04  0.00000000000E+00 0.  1.
    9000010    2    1    2  502    0  0.51091698408E+03  0.23522288096E+02 -0.63300809457E+03  0.12881900763E+04  0.99857146073E+03 0.  0.
   -9000010    2    1    2    0  501 -0.51091698408E+03 -0.23522288096E+02 -0.20404853200E+02  0.10692847116E+04  0.93880987094E+03 0.  0.
        -13    1    3    3    0    0  0.40399580257E+03 -0.33849643859E+03  0.27119243068E+02  0.52775743665E+03  0.10566000000E+00 0.  1.
         13    1    4    4    0    0  0.68531667184E+02 -0.37598465869E+03  0.57948977829E+02  0.38654773078E+03  0.10566000000E+00 0. -1.
          4    1    3    3  502    0  0.10692118151E+03  0.36201872668E+03 -0.66012733764E+03  0.76043263964E+03  0.00000000000E+00 0.  1.
         -4    1    4    4    0  501 -0.57944865127E+03  0.35246237060E+03 -0.78353831029E+02  0.68273698082E+03  0.00000000000E+00 0. -1.
</event>
<event>
 8    1  0.7096247E-006  0.1146392E+04  0.7818608E-02  0.8648062E-01
          1   -1    0    0  502    0  0.00000000000E+00  0.00000000000E+00  0.19027535887E+04  0.19027535887E+04  0.00000000000E+00 0.  1.
         -1   -1    0    0    0  501 -0.00000000000E+00 -0.00000000000E+00 -0.72473218610E+03  0.72473218610E+03  0.00000000000E+00 0. -1.
    9000010    2    1    2  502    0  0.54511895976E+03  0.10870183383E+03  0.86997632240E+03  0.14332398321E+04  0.99415634878E+03 0.  0.
   -9000010    2    1    2    0  501 -0.54511895976E+03 -0.10870183383E+03  0.30804508018E+03  0.11942459427E+04  0.10111186039E+04 0.  0.
        -13    1    3    3    0    0  0.79946307132E+03  0.20267940152E+03  0.80905162825E+03  0.11553288236E+04  0.10566000000E+00 0.  1.
         13    1    4    4    0    0 -0.60119712193E+03  0.88754453654E+02 -0.20524338254E+03  0.64143603711E+03  0.10566000000E+00 0. -1.
          4    1    3    3  502    0 -0.25434411156E+03 -0.93977567684E+02  0.60924694149E+02  0.27791100854E+03  0.00000000000E+00 0.  1.
         -4    1    4    4    0  501  0.56078162168E+02 -0.19745628749E+03  0.51328846272E+03  0.55280990557E+03  0.00000000000E+00 0. -1.
</event>
<event>
 8    1  0.7096247E-006  0.1071662E+04  0.7818608E-02  0.8710026E-01
          4   -1    0    0  502    0  0.00000000000E+00  0.00000000000E+00  0.34655204981E+03  0.34655204981E+03  0.00000000000E+00 0.  1.
         -4   -1    0    0    0  501 -0.00000000000E+00 -0.00000000000E+00 -0.33257457644E+04  0.33257457644E+04  0.00000000000E+00 0. -1.
    9000010    2    1    2  502    0 -0.43615879698E+03  0.15074618090E+03 -0.14164430359E+04  0.17893466114E+04  0.99120709968E+03 0.  0.
   -9000010    2    1    2    0  501  0.43615879698E+03 -0.15074618090E+03 -0.15627506786E+04  0.18829512028E+04  0.94358711377E+03 0.  0.
        -13    1    3    3    0    0  0.44422083369E+01  0.44440045558E+03 -0.25374556193E+03  0.51176002139E+03  0.10566000000E+00 0.  1.
         13    1    4    4    0    0  0.21704825214E+03 -0.54089915706E+03 -0.10618925561E+04  0.12113206239E+04  0.10566000000E+00 0. -1.
          4    1    3    3  502    0 -0.44060100532E+03 -0.29365427468E+03 -0.11626974740E+04  0.12775865900E+04  0.00000000000E+00 0.  1.
         -4    1    4    4    0  501  0.21911054484E+03  0.39015297616E+03 -0.50085812248E+03  0.67163057890E+03  0.00000000000E+00 0. -1.
</event>
<event>
 8    1  0.7096247E-006  0.1534683E+04  0.7818608E-02  0.8389814E-01
         -2   -1    0    0    0  501 -0.00000000000E+00  0.00000000000E+00  0.60486950236E+03  0.60486950236E+03  0.00000000000E+00 0.  1.
          2   -1    0    0  502    0  0.00000000000E+00 -0.00000000000E+00 -0.46880827318E+04  0.46880827318E+04  0.00000000000E+00 0. -1.
    9000010    2    1    2  502    0 -0.37900414190E+03 -0.10831274525E+04 -0.94163936262E+03  0.17922561542E+04  0.10043347127E+04 0.  0.
   -9000010    2    1    2    0  501  0.37900414190E+03  0.10831274525E+04 -0.31415738669E+04  0.35006960800E+04  0.10337202066E+04 0.  0.
        -13    1    3    3    0    0 -0.63637264537E+03 -0.52087618332E+03 -0.82140180684E+03  0.11623179778E+04  0.10566000000E+00 0.  1.
         13    1    4    4    0    0  0.50639373071E+03  0.91116466118E+03 -0.31153020343E+04  0.32850817991E+04  0.10566000000E+00 0. -1.
          4    1    3    3  502    0  0.25736850348E+03 -0.56225126917E+03 -0.12023755578E+03  0.62993817640E+03  0.00000000000E+00 0.  1.
         -4    1    4    4    0  501 -0.12738958882E+03  0.17196279132E+03 -0.26271832509E+02  0.21561428088E+03  0.00000000000E+00 0. -1.
</event>
<event>
 8    1  0.7096247E-006  0.2040479E+04  0.7818608E-02  0.8152107E-01
         -1   -1    0    0    0  501 -0.00000000000E+00  0.00000000000E+00  0.35035014941E+04  0.35035014941E+04  0.00000000000E+00 0. -1.
          1   -1    0    0  502    0  0.00000000000E+00 -0.00000000000E+00 -0.13076823001E+04  0.13076823001E+04  0.00000000000E+00 0.  1.
    9000010    2    1    2  502    0  0.17743910370E+04 -0.12532496164E+03  0.37432097127E+03  0.20804154847E+04  0.10118510272E+04 0.  0.
   -9000010    2    1    2    0  501 -0.17743910370E+04  0.12532496164E+03  0.18214982228E+04  0.27307683095E+04  0.98745627071E+03 0.  0.
        -13    1    3    3    0    0  0.11141930972E+04  0.20097800647E+03  0.63635142887E+03  0.12987538524E+04  0.10566000000E+00 0.  1.
         13    1    4    4    0    0 -0.10583068090E+04 -0.40504225111E+03  0.88272424348E+03  0.14364103273E+04  0.10566000000E+00 0. -1.
          4    1    3    3  502    0  0.66019793978E+03 -0.32630296812E+03 -0.26203045760E+03  0.78166163229E+03  0.00000000000E+00 0.  1.
         -4    1    4    4    0  501 -0.71608422793E+03  0.53036721276E+03  0.93877397929E+03  0.12943579822E+04  0.00000000000E+00 0. -1.
</event>
<event>
 8    1  0.7096247E-006  0.1011916E+04  0.7818608E-02  0.8763475E-01
         -2   -1    0    0    0  501 -0.00000000000E+00  0.00000000000E+00  0.76349501188E+03  0.76349501188E+03  0.00000000000E+00 0.  1.
          2   -1    0    0  502    0  0.00000000000E+00 -0.00000000000E+00 -0.13692092448E+04  0.13692092448E+04  0.00000000000E+00 0. -1.
    9000010    2    1    2  502    0 -0.63063726667E+00  0.29627370442E+03 -0.44523427000E+03  0.10818636162E+04  0.94043438003E+03 0.  0.
   -9000010    2    1    2    0  501  0.63063726667E+00 -0.29627370442E+03 -0.16047996297E+03  0.10508406406E+04  0.99535608087E+03 0.  0.
        -13    1    3    3    0    0 -0.14207408361E+03  0.23220063456E+03  0.24994093163E+03  0.36955738444E+03  0.10566000000E+00 0.  1.
         13    1    4    4    0    0  0.26064448330E+03 -0.39679613455E+03 -0.44629814553E+03  0.65158634495E+03  0.10566000000E+00 0. -1.
          4    1    3    3  502    0  0.14144344634E+03  0.64073069853E+02 -0.69517520162E+03  0.71230623172E+03  0.00000000000E+00 0.  1.
         -4    1    4    4    0  501 -0.26001384603E+03  0.10052243013E+03  0.28581818255E+03  0.39925429561E+03  0.00000000000E+00 0. -1.
</event>
<event>
 8    1  0.7096247E-006  0.1144215E+04  0.7818608E-02  0.8649797E-01
         -1   -1    0    0    0  501 -0.00000000000E+00  0.00000000000E+00  0.15381294410E+04  0.15381294410E+04  0.00000000000E+00 0.  1.
          1   -1    0    0  502    0  0.00000000000E+00 -0.00000000000E+00 -0.88743183787E+03  0.88743183787E+03  0.00000000000E+00 0. -1.
    9000010    2    1    2  502    0  0.17287054971E+03  0.56164187039E+03  0.83349269496E+02  0.11577642840E+04  0.99405493765E+03 0.  0.
   -9000010    2    1    2    0  501 -0.17287054971E+03 -0.56164187039E+03  0.56734833360E+03  0.12677969948E+04  0.96958716520E+03 0.  0.
        -13    1    3    3    0    0  0.23623805769E+03  0.50002621614E+03 -0.38969551982E+03  0.67653325569E+03  0.10566000000E+00 0.  1.
         13    1    4    4    0    0 -0.39864643154E+03 -0.14202651884E+02  0.54476665854E+03  0.67519731644E+03  0.10566000000E+00 0. -1.
          4    1    3    3  502    0 -0.63367507980E+02  0.61615654248E+02  0.47304478931E+03  0.48123102831E+03  0.00000000000E+00 0.  1.
         -4    1    4    4    0  501  0.22577588184E+03 -0.54743921851E+03  0.22581675058E+02  0.59259967839E+03  0.00000000000E+00 0. -1.
</event>
<event>
 8    1  0.7096247E-006  0.1192142E+04  0.7818608E-02  0.8612503E-01
          1   -1    0    0  502    0  0.00000000000E+00  0.00000000000E+00  0.18944889358E+04  0.18944889358E+04  0.00000000000E+00 0. -1.
         -1   -1    0    0    0  501 -0.00000000000E+00 -0.00000000000E+00 -0.81559138008E+03  0.81559138008E+03  0.00000000000E+00 0.  1.
    9000010    2    1    2  502    0 -0.64018861534E+03  0.56779069609E+02  0.15500157336E+03  0.12005093755E+04  0.10020638438E+04 0.  0.
   -9000010    2    1    2    0  501  0.64018861534E+03 -0.56779069609E+02  0.92389598236E+03  0.15095709404E+04  0.10060592984E+04 0.  0.
        -13    1    3    3    0    0 -0.85618126171E+03  0.14424351876E+03  0.30854703793E+03  0.92144117088E+03  0.10566000000E+00 0.  1.
         13    1    4    4    0    0  0.24032775810E+03 -0.44264496759E+03  0.96415278822E+02  0.51282347430E+03  0.10566000000E+00 0. -1.
          4    1    3    3  502    0  0.21599264638E+03 -0.87464449147E+02 -0.15354546457E+03  0.27906820465E+03  0.00000000000E+00 0.  1.
         -4    1    4    4    0  501  0.39986085723E+03  0.38586589798E+03  0.82748070354E+03  0.99674746606E+03  0.00000000000E+00 0. -1.
</event>
<event>
 8    1  0.7096247E-006  0.1210009E+04  0.7818608E-02  0.8599063E-01
          2   -1    0    0  502    0  0.00000000000E+00  0.00000000000E+00  0.28229845612E+04  0.28229845612E+04  0.00000000000E+00 0.  1.
         -2   -1    0    0    0  501 -0.00000000000E+00 -0.00000000000E+00 -0.54242846699E+03  0.54242846699E+03  0.00000000000E+00 0. -1.
    9000010    2    1    2  502    0  0.42847743650E+03  0.44803935696E+03  0.15208783354E+04  0.19658529489E+04  0.10803586102E+04 0.  0.
   -9000010    2    1    2    0  501 -0.42847743650E+03 -0.44803935696E+03  0.75967775884E+03  0.13995600793E+04  0.99866207470E+03 0.  0.
        -13    1    3    3    0    0  0.68806807946E+03  0.10097767308E+03  0.13116069724E+04  0.14845696459E+04  0.10566000000E+00 0.  1.
         13    1    4    4    0    0 -0.67881548971E+03 -0.30144687934E+03  0.81667753002E+03  0.11039125370E+04  0.10566000000E+00 0. -1.
          4    1    3    3  502    0 -0.25959064296E+03  0.34706168389E+03  0.20927136305E+03  0.48128330298E+03  0.00000000000E+00 0.  1.
         -4    1    4    4    0  501  0.25033805321E+03 -0.14659247762E+03 -0.56999771182E+02  0.29564754235E+03  0.00000000000E+00 0. -1.
</event>
<event>
 8    1  0.7096247E-006  0.1730025E+04  0.7818608E-02  0.8288165E-01
         -2   -1    0    0    0  501 -0.00000000000E+00  0.00000000000E+00  0.59582143337E+03  0.59582143337E+03  0.00000000000E+00 0. -1.
          2   -1    0    0  502    0  0.00000000000E+00 -0.00000000000E+00 -0.50271149634E+04  0.50271149634E+04  0.00000000000E+00 0.  1.
    9000010    2    1    2  502    0 -0.27305638968E+03  0.13948710906E+04 -0.21370857530E+04  0.27490450732E+04  0.98482899389E+03 0.  0.
   -9000010    2    1    2    0  501  0.27305638968E+03 -0.13948710906E+04 -0.22942077770E+04  0.28738913236E+04  0.98774331900E+03 0.  0.
        -13    1    3    3    0    0 -0.39280124146E+03  0.11716965392E+04 -0.10163310923E+04  0.16000295296E+04  0.10566000000E+00 0.  1.
         13    1    4    4    0    0 -0.29920635053E+03 -0.91596493480E+03 -0.10677859571E+04  0.14382917170E+04  0.10566000000E+00 0. -1.
          4    1    3    3  502    0  0.11974485178E+03  0.22317455149E+03 -0.11207546607E+04  0.11490155436E+04  0.00000000000E+00 0.  1.
         -4    1    4    4    0  501  0.57226274021E+03 -0.47890615584E+03 -0.12264218199E+04  0.14355996065E+04  0.00000000000E+00 0. -1.
</event>
<event>
 8    1  0.7096247E-006  0.1200290E+04  0.7818608E-02  0.8606344E-01
          1   -1    0    0  502    0  0.00000000000E+00  0.00000000000E+00  0.15960924562E+04  0.15960924562E+04  0.00000000000E+00 0. -1.
         -1   -1    0    0    0  501 -0.00000000000E+00 -0.00000000000E+00 -0.90986383372E+03  0.90986383372E+03  0.00000000000E+00 0.  1.
    9000010    2    1    2  502    0  0.53914277464E+03  0.39515487296E+03  0.45278826005E+03  0.12769900032E+04  0.98937553773E+03 0.  0.
   -9000010    2    1    2    0  501 -0.53914277464E+03 -0.39515487296E+03  0.23344036245E+03  0.12289662868E+04  0.10045105406E+04 0.  0.
        -13    1    3    3    0    0  0.19566946265E+03 -0.18279380939E+03  0.53638196390E+03  0.59950457690E+03  0.10566000000E+00 0.  1.
         13    1    4    4    0    0 -0.53163187648E+03  0.21775081338E+03  0.22202510467E+03  0.61590829438E+03  0.10566000000E+00 0. -1.
          4    1    3    3  502    0  0.34347331199E+03  0.57794868234E+03 -0.83593703848E+02  0.67748542626E+03  0.00000000000E+00 0.  1.
         -4    1    4    4    0  501 -0.75108981585E+01 -0.61290568633E+03  0.11415257773E+02  0.61305799240E+03  0.00000000000E+00 0. -1.
</event>
<event>
 8    1  0.7096247E-006  0.1333092E+04  0.7818608E-02  0.8512559E-01
          2   -1    0    0  502    0  0.00000000000E+00  0.00000000000E+00  0.31279891971E+04  0.31279891971E+04  0.00000000000E+00 0.  1.
         -2   -1    0    0    0  501 -0.00000000000E+00 -0.00000000000E+00 -0.65393125167E+03  0.65393125167E+03  0.00000000000E+00 0. -1.
    9000010    2    1    2  502    0 -0.64356416954E+03  0.40864586040E+03  0.19778652467E+04  0.24328156966E+04  0.11939325777E+04 0.  0.
   -9000010    2    1    2    0  501  0.64356416954E+03 -0.40864586040E+03  0.49619269877E+03  0.13491047522E+04  0.99634841222E+03 0.  0.
        -13    1    3    3    0    0 -0.59487863751E+03  0.68841458523E+03  0.76972933778E+03  0.11917543787E+04  0.10566000000E+00 0.  1.
         13    1    4    4    0    0 -0.14324531753E+02  0.83960839326E+02 -0.23443299388E+03  0.24942625069E+03  0.10566000000E+00 0. -1.
          4    1    3    3  502    0 -0.48685532025E+02 -0.27976872483E+03  0.12081359089E+04  0.12410613179E+04  0.00000000000E+00 0.  1.
         -4    1    4    4    0  501  0.65788870129E+03 -0.49260669972E+03  0.73062569265E+03  0.10996785015E+04  0.00000000000E+00 0. -1.
</event>
<event>
 8    1  0.7096247E-006  0.1513556E+04  0.7818608E-02  0.8401740E-01
          2   -1    0    0  502    0  0.00000000000E+00  0.00000000000E+00  0.19333477369E+04  0.19333477369E+04  0.00000000000E+00 0. -1.
         -2   -1    0    0    0  501 -0.00000000000E+00 -0.00000000000E+00 -0.12877560937E+04  0.12877560937E+04  0.00000000000E+00 0.  1.
    9000010    2    1    2  502    0  0.72546028575E+03  0.85234757590E+03  0.78020848902E+03  0.17140734218E+04  0.10375612717E+04 0.  0.
   -9000010    2    1    2    0  501 -0.72546028575E+03 -0.85234757590E+03 -0.13461684582E+03  0.15070304088E+04  0.10001149642E+04 0.  0.
        -13    1    3    3    0    0  0.63013179976E+03  0.85562240755E+03  0.14584563799E+03  0.10725794845E+04  0.10566000000E+00 0.  1.
         13    1    4    4    0    0 -0.62862749867E+03 -0.12072352185E+03  0.23468828269E+03  0.68178097803E+03  0.10566000000E+00 0. -1.
          4    1    3    3  502    0  0.95328485994E+02 -0.32748316531E+01  0.63436285103E+03  0.64149393725E+03  0.00000000000E+00 0.  1.
         -4    1    4    4    0  501 -0.96832787084E+02 -0.73162405405E+03 -0.36930512851E+03  0.82524943081E+03  0.00000000000E+00 0. -1.
</event>
<event>
 8    1  0.7096247E-006  0.1260182E+04  0.7818608E-02  0.8562571E-01
          1   -1    0    0  502    0  0.00000000000E+00  0.00000000000E+00  0.18194532553E+04  0.18194532553E+04  0.00000000000E+00 0.  1.
         -1   -1    0    0    0  501 -0.00000000000E+00 -0.00000000000E+00 -0.15198439922E+04  0.15198439922E+04  0.00000000000E+00 0. -1.
    9000010    2    1    2  502    0 -0.56407945331E+03  0.46518793449E+03  0.12403952483E+04  0.17843624524E+04  0.10539371640E+04 0.  0.
   -9000010    2    1    2    0  501  0.56407945331E+03 -0.46518793449E+03 -0.94078598516E+03  0.15549347950E+04  0.99907882713E+03 0.  0.
        -13    1    3    3    0    0 -0.80149851690E+03  0.39840785187E+03  0.54832978335E+03  0.10496638755E+04  0.10566000000E+00 0.  1.
         13    1    4    4    0    0  0.10059955868E+02 -0.61116169423E+03 -0.25758635986E+03  0.66330276884E+03  0.10566000000E+00 0. -1.
          4    1    3    3  502    0  0.23741906359E+03  0.66780082614E+02  0.69206546495E+03  0.73469857694E+03  0.00000000000E+00 0.  1.
         -4    1    4    4    0  501  0.55401949744E+03  0.14597375974E+03 -0.68319962530E+03  0.89163202617E+03  0.00000000000E+00 0. -1.
</event>
<event>
 8    1  0.7096247E-006  0.1286458E+04  0.7818608E-02  0.8544154E-01
         -2   -1    0    0    0  501 -0.00000000000E+00  0.00000000000E+00  0.91873394988E+03  0.91873394988E+03  0.00000000000E+00 0. -1.
          2   -1    0    0  502    0  0.00000000000E+00 -0.00000000000E+00 -0.19964848609E+04  0.19964848609E+04  0.00000000000E+00 0.  1.
    9000010    2    1    2  502    0 -0.76414214300E+03  0.23687185495E+03 -0.92719628892E+02  0.13131552241E+04  0.10371876506E+04 0.  0.
   -9000010    2    1    2    0  501  0.76414214300E+03 -0.23687185495E+03 -0.98503128210E+03  0.16020635867E+04  0.97790573096E+03 0.  0.
        -13    1    3    3    0    0  0.13802716744E+03  0.89212968655E+02 -0.33002583962E+03  0.36868349394E+03  0.10566000000E+00 0.  1.
         13    1    4    4    0    0  0.77464560757E+03 -0.78727646347E+02 -0.11399114809E+04  0.13804608126E+04  0.10566000000E+00 0. -1.
          4    1    3    3  502    0 -0.90216931044E+03  0.14765888630E+03  0.23730621073E+03  0.94447173015E+03  0.00000000000E+00 0.  1.
         -4    1    4    4    0  501 -0.10503464572E+02 -0.15814420860E+03  0.15488019883E+03  0.22160277406E+03  0.00000000000E+00 0. -1.
</event>
<event>
 8    1  0.7096247E-006  0.1035138E+04  0.7818608E-02  0.8742259E-01
          1   -1    0    0  502    0  0.00000000000E+00  0.00000000000E+00  0.13246717298E+04  0.13246717298E+04  0.00000000000E+00 0.  1.
         -1   -1    0    0    0  501 -0.00000000000E+00 -0.00000000000E+00 -0.81733841604E+03  0.81733841604E+03  0.00000000000E+00 0. -1.
    9000010    2    1    2  502    0 -0.32066842109E+03 -0.12397608791E+03  0.14201275378E+03  0.10273494837E+04  0.95764347897E+03 0.  0.
   -9000010    2    1    2    0  501  0.32066842109E+03  0.12397608791E+03  0.36532055999E+03  0.11146606621E+04  0.99539488320E+03 0.  0.
        -13    1    3    3    0    0 -0.50281067563E+03  0.60166194914E+02  0.41228638859E+03  0.65300736896E+03  0.10566000000E+00 0.  1.
         13    1    4    4    0    0 -0.14414906840E+03 -0.15515633233E+03  0.51107751914E+03  0.55322028444E+03  0.10566000000E+00 0. -1.
          4    1    3    3  502    0  0.18214225453E+03 -0.18414228283E+03 -0.27027363481E+03  0.37434211476E+03  0.00000000000E+00 0.  1.
         -4    1    4    4    0  501  0.46481748950E+03  0.27913242024E+03 -0.14575695914E+03  0.56144037770E+03  0.00000000000E+00 0. -1.
</event>
<event>
 8    1  0.7096247E-006  0.1324438E+04  0.7818608E-02  0.8518321E-01
          2   -1    0    0  502    0  0.00000000000E+00  0.00000000000E+00  0.30269566530E+04  0.30269566530E+04  0.00000000000E+00 0. -1.
         -2   -1    0    0    0  501 -0.00000000000E+00 -0.00000000000E+00 -0.71096057118E+03  0.71096057118E+03  0.00000000000E+00 0.  1.
    9000010    2    1    2  502    0  0.15694828046E+03 -0.83356191893E+03  0.19739747428E+04  0.23871688380E+04  0.10404520846E+04 0.  0.
   -9000010    2    1    2    0  501 -0.15694828046E+03  0.83356191893E+03  0.34202133904E+03  0.13507483862E+04  0.99402433124E+03 0.  0.
        -13    1    3    3    0    0  0.64781621218E+02 -0.85183642529E+03  0.20781416611E+04  0.22468855620E+04  0.10566000000E+00 0.  1.
         13    1    4    4    0    0 -0.44432218008E+03  0.57623328823E+03 -0.13208672020E+03  0.73953628376E+03  0.10566000000E+00 0. -1.
          4    1    3    3  502    0  0.92166659245E+02  0.18274506351E+02 -0.10416691830E+03  0.14028327600E+03  0.00000000000E+00 0.  1.
         -4    1    4    4    0  501  0.28737389962E+03  0.25732863070E+03  0.47410805925E+03  0.61121210247E+03  0.00000000000E+00 0. -1.
</event>
<event>
 8    1  0.7096247E-006  0.1220935E+04  0.7818608E-02  0.8590962E-01
          2   -1    0    0  502    0  0.00000000000E+00  0.00000000000E+00  0.18168588791E+04  0.18168588791E+04  0.00000000000E+00 0.  1.
         -2   -1    0    0    0  501 -0.00000000000E+00 -0.00000000000E+00 -0.11149563149E+04  0.11149563149E+04  0.00000000000E+00 0. -1.
    9000010    2    1    2  502    0  0.37645235757E+03  0.53938082138E+03 -0.39955357752E+03  0.12969354614E+04  0.10439111465E+04 0.  0.
   -9000010    2    1    2    0  501 -0.37645235757E+03 -0.53938082138E+03  0.11014561417E+04  0.16348797326E+04  0.10133992599E+04 0.  0.
        -13    1    3    3    0    0  0.64972458876E+03  0.58560117151E+02 -0.77495564247E+02  0.65694512876E+03  0.10566000000E+00 0.  1.
         13    1    4    4    0    0  0.16168014052E+03 -0.63120808993E+03  0.70637400878E+03  0.96100383561E+03  0.10566000000E+00 0. -1.
          4    1    3    3  502    0 -0.27327223119E+03  0.48082070422E+03 -0.32205801327E+03  0.63999033263E+03  0.00000000000E+00 0.  1.
         -4    1    4    4    0  501 -0.53813249809E+03  0.91827268552E+02  0.39508213295E+03  0.67387589698E+03  0.00000000000E+00 0. -1.
</event>
<event>
 8    1  0.7096247E-006  0.1194997E+04  0.7818608E-02  0.8610339E-01
          2   -1    0    0  502    0  0.00000000000E+00  0.00000000000E+00  0.18893073189E+04  0.18893073189E+04  0.00000000000E+00 0.  1.
         -2   -1    0    0    0  501 -0.00000000000E+00 -0.00000000000E+00 -0.75595584423E+03  0.75595584423E+03  0.00000000000E+00 0. -1.
    9000010    2    1    2  502    0 -0.13085706733E+03  0.62983019964E+03  0.55121589299E+03  0.13173586603E+04  0.10088534218E+04 0.  0.
   -9000010    2    1    2    0  501  0.13085706733E+03 -0.62983019964E+03  0.58213558165E+03  0.13279045028E+04  0.10053053669E+04 0.  0.
        -13    1    3    3    0    0 -0.45720067515E+03  0.47945264043E+03  0.37569337942E+01  0.66251144706E+03  0.10566000000E+00 0.  1.
         13    1    4    4    0    0  0.30280861332E+03 -0.76204973136E+03  0.70255350240E+03  0.10798121523E+04  0.10566000000E+00 0. -1.
          4    1    3    3  502    0  0.32634360782E+03  0.15037755921E+03  0.54745895919E+03  0.65484721323E+03  0.00000000000E+00 0.  1.
         -4    1    4    4    0  501 -0.17195154599E+03  0.13221953172E+03 -0.12041792075E+03  0.24809235049E+03  0.00000000000E+00 0. -1.
</event>
<event>
 8    1  0.7096247E-006  0.1333648E+04  0.7818608E-02  0.8512190E-01
         -2   -1    0    0    0  501 -0.00000000000E+00  0.00000000000E+00  0.37666389177E+04  0.37666389177E+04  0.00000000000E+00 0.  1.
          2   -1    0    0  502    0  0.00000000000E+00 -0.00000000000E+00 -0.60479618414E+03  0.60479618414E+03  0.00000000000E+00 0. -1.
    9000010    2    1    2  502    0  0.71334922690E+03 -0.12981365528E+03  0.47541171692E+03  0.13232789559E+04  0.99966603927E+03 0.  0.
   -9000010    2    1    2    0  501 -0.71334922690E+03  0.12981365528E+03  0.26864310167E+04  0.30481561459E+04  0.12444378562E+04 0.  0.
        -13    1    3    3    0    0 -0.20061751657E+03 -0.56065536183E+02  0.33667539536E+03  0.39590537419E+03  0.10566000000E+00 0.  1.
         13    1    4    4    0    0 -0.30012316778E+03 -0.38186892778E+03  0.21359726682E+04  0.21904969857E+04  0.10566000000E+00 0. -1.
          4    1    3    3  502    0  0.91396674347E+03 -0.73748119093E+02  0.13873632155E+03  0.92737358176E+03  0.00000000000E+00 0.  1.
         -4    1    4    4    0  501 -0.41322605912E+03  0.51168258306E+03  0.55045834849E+03  0.85765916025E+03  0.00000000000E+00 0. -1.
</event>
<event>
 8    1  0.7096247E-006  0.1153555E+04  0.7818608E-02  0.8642382E-01
          2   -1    0    0  502    0  0.00000000000E+00  0.00000000000E+00  0.29958690739E+04  0.29958690739E+04  0.00000000000E+00 0. -1.
         -2   -1    0    0    0  501 -0.00000000000E+00 -0.00000000000E+00 -0.44593473070E+03  0.44593473070E+03  0.00000000000E+00 0.  1.
    9000010    2    1    2  502    0 -0.20064666421E+03  0.52380148626E+03  0.13860622896E+04  0.18050785522E+04  0.10111937638E+04 0.  0.
   -9000010    2    1    2    0  501  0.20064666421E+03 -0.52380148626E+03  0.11638720536E+04  0.16367252525E+04  0.10048105862E+04 0.  0.
        -13    1    3    3    0    0  0.40570570835E+03  0.27835019466E+03  0.47835569906E+03  0.68622163959E+03  0.10566000000E+00 0.  1.
         13    1    4    4    0    0  0.23411217530E+02 -0.45179550777E+03 -0.48721137167E+01  0.45242791095E+03  0.10566000000E+00 0. -1.
          4    1    3    3  502    0 -0.60635237256E+03  0.24545129160E+03  0.90770659056E+03  0.11188569126E+04  0.00000000000E+00 0.  1.
         -4    1    4    4    0  501  0.17723544668E+03 -0.72005978486E+02  0.11687441673E+04  0.11842973415E+04  0.00000000000E+00 0. -1.
</event>
<event>
 8    1  0.7096247E-006  0.1294226E+04  0.7818608E-02  0.8538796E-01
          2   -1    0    0  502    0  0.00000000000E+00  0.00000000000E+00  0.98244082710E+03  0.98244082710E+03  0.00000000000E+00 0.  1.
         -2   -1    0    0    0  501 -0.00000000000E+00 -0.00000000000E+00 -0.17109491842E+04  0.17109491842E+04  0.00000000000E+00 0. -1.
    9000010    2    1    2  502    0  0.80101120788E+03 -0.84854694555E+02 -0.28904250574E+03  0.13381404346E+04  0.10287152076E+04 0.  0.
   -9000010    2    1    2    0  501 -0.80101120788E+03  0.84854694555E+02 -0.43946585139E+03  0.13552495767E+04  0.99737250126E+03 0.  0.
        -13    1    3    3    0    0  0.54324711688E+03 -0.14257914703E+03 -0.67018579094E+03  0.87441137270E+03  0.10566000000E+00 0.  1.
         13    1    4    4    0    0  0.93889461417E+02 -0.21490299678E+03 -0.33044057937E+03  0.40520305607E+03  0.10566000000E+00 0. -1.
          4    1    3    3  502    0  0.25776409100E+03  0.57724452472E+02  0.38114328520E+03  0.46372906192E+03  0.00000000000E+00 0.  1.
         -4    1    4    4    0  501 -0.89490066930E+03  0.29975769134E+03 -0.10902527202E+03  0.95004652063E+03  0.00000000000E+00 0. -1.
</event>
<event>
 8    1  0.7096247E-006  0.1201903E+04  0.7818608E-02  0.8605131E-01
          1   -1    0    0  502    0  0.00000000000E+00  0.00000000000E+00  0.26688816623E+04  0.26688816623E+04  0.00000000000E+00 0.  1.
         -1   -1    0    0    0  501 -0.00000000000E+00 -0.00000000000E+00 -0.54555434996E+03  0.54555434996E+03  0.00000000000E+00 0. -1.
    9000010    2    1    2  502    0  0.21668270245E+03  0.49680940198E+03  0.10333032254E+04  0.16471000960E+04  0.11625197613E+04 0.  0.
   -9000010    2    1    2    0  501 -0.21668270245E+03 -0.49680940198E+03  0.10900240870E+04  0.15673359162E+04  0.98722762760E+03 0.  0.
        -13    1    3    3    0    0 -0.22710251082E+03 -0.28157812046E+03  0.45245600915E+03  0.57929115281E+03  0.10566000000E+00 0.  1.
         13    1    4    4    0    0 -0.23637095586E+02 -0.28327301028E+03  0.12191423326E+04  0.12518427812E+04  0.10566000000E+00 0. -1.
          4    1    3    3  502    0  0.44378521328E+03  0.77838752244E+03  0.58084721622E+03  0.10678089432E+04  0.00000000000E+00 0.  1.
         -4    1    4    4    0  501 -0.19304560687E+03 -0.21353639170E+03 -0.12911824558E+03  0.31549313503E+03  0.00000000000E+00 0. -1.
</event>
<event>
 8    1  0.7096247E-006  0.1104207E+04  0.7818608E-02  0.8682413E-01
         -1   -1    0    0    0  501 -0.00000000000E+00  0.00000000000E+00  0.92797860851E+03  0.92797860851E+03  0.00000000000E+00 0.  1.
          1   -1    0    0  502    0  0.00000000000E+00 -0.00000000000E+00 -0.13194335595E+04  0.13194335595E+04  0.00000000000E+00 0. -1.
    9000010    2    1    2  502    0 -0.32974919015E+01 -0.46154440981E+03 -0.26810556412E+03  0.11343928809E+04  0.10009657832E+04 0.  0.
   -9000010    2    1    2    0  501  0.32974919015E+01  0.46154440981E+03 -0.12334938688E+03  0.11130192871E+04  0.10052675000E+04 0.  0.
        -13    1    3    3    0    0 -0.25049352487E+03  0.24448243553E+03 -0.39821556200E+02  0.35228459346E+03  0.10566000000E+00 0.  1.
         13    1    4    4    0    0  0.21878806706E+01 -0.24144595743E+03  0.22358868127E+03  0.32907878500E+03  0.10566000000E+00 0. -1.
          4    1    3    3  502    0  0.24719603297E+03 -0.70602684534E+03 -0.22828400792E+03  0.78210828747E+03  0.00000000000E+00 0.  1.
         -4    1    4    4    0  501  0.11096112309E+01  0.70299036724E+03 -0.34693806815E+03  0.78394050208E+03  0.00000000000E+00 0. -1.
</event>
<event>
 8    1  0.7096247E-006  0.1435282E+04  0.7818608E-02  0.8447747E-01
         -2   -1    0    0    0  501 -0.00000000000E+00  0.00000000000E+00  0.10169058361E+04  0.10169058361E+04  0.00000000000E+00 0.  1.
          2   -1    0    0  502    0  0.00000000000E+00 -0.00000000000E+00 -0.22488808720E+04  0.22488808720E+04  0.00000000000E+00 0. -1.
    9000010    2    1    2  502    0 -0.10687928684E+04  0.18185796574E+03 -0.11981910921E+03  0.14820959851E+04  0.10034248227E+04 0.  0.
   -9000010    2    1    2    0  501  0.10687928684E+04 -0.18185796574E+03 -0.11121559268E+04  0.17836907230E+04  0.87708111074E+03 0.  0.
        -13    1    3    3    0    0  0.92352308556E+02  0.27788050045E+03  0.71389266316E+02  0.30140165881E+03  0.10566000000E+00 0.  1.
         13    1    4    4    0    0  0.44487001840E+03  0.30637732477E+03 -0.71888049082E+03  0.89920274113E+03  0.10566000000E+00 0. -1.
          4    1    3    3  502    0 -0.11611451770E+04 -0.96022534705E+02 -0.19120837553E+03  0.11806943262E+04  0.00000000000E+00 0.  1.
         -4    1    4    4    0  501  0.62392285000E+03 -0.48823529051E+03 -0.39327543593E+03  0.88448798192E+03  0.00000000000E+00 0. -1.
</event>
<event>
 7    1  0.7096247E-006  0.2536028E+04  0.7818608E-02  0.7979531E-01
         -2   -1    0    0    0  501 -0.00000000000E+00  0.00000000000E+00  0.27920972123E+04  0.27920972123E+04  0.00000000000E+00 0.  1.
          2   -1    0    0  502    0  0.00000000000E+00 -0.00000000000E+00 -0.27298716039E+04  0.27298716039E+04  0.00000000000E+00 0. -1.
   -9000010    2    1    2    0  501  0.12883026245E+04 -0.16642082055E+04 -0.10364637940E+04  0.25455837089E+04  0.98814301543E+03 0.  0.
        -13    1    1    2    0    0 -0.69727377933E+03  0.12092647317E+04 -0.26615927961E+03  0.14210392986E+04  0.10566000000E+00 0.  1.
         13    1    3    3    0    0 -0.85958756168E+02 -0.48931646458E+03 -0.36671473184E+03  0.61749430442E+03  0.10566000000E+00 0. -1.
          4    1    1    2  502    0 -0.59102884512E+03  0.45494347379E+03  0.13648486820E+04  0.15553458088E+04  0.00000000000E+00 0.  1.
         -4    1    3    3    0  501  0.13742613806E+04 -0.11748917409E+04 -0.66974906220E+03  0.19280894044E+04  0.00000000000E+00 0. -1.
</event>
<event>
 8    1  0.7096247E-006  0.1159678E+04  0.7818608E-02  0.8637560E-01
         -4   -1    0    0    0  501 -0.00000000000E+00  0.00000000000E+00  0.10144376685E+04  0.10144376685E+04  0.00000000000E+00 0. -1.
          4   -1    0    0  502    0  0.00000000000E+00 -0.00000000000E+00 -0.13921207595E+04  0.13921207595E+04  0.00000000000E+00 0.  1.
    9000010    2    1    2  502    0  0.25274915976E+03  0.57415790316E+03 -0.45425319458E+03  0.12691570086E+04  0.10054223551E+04 0.  0.
   -9000010    2    1    2    0  501 -0.25274915976E+03 -0.57415790316E+03  0.76570103572E+02  0.11374014195E+04  0.94566356212E+03 0.  0.
        -13    1    3    3    0    0  0.13716750174E+03 -0.21217482213E+03  0.12866202950E+03  0.28352602645E+03  0.10566000000E+00 0.  1.
         13    1    4    4    0    0 -0.11754523749E+03 -0.54832735751E+03  0.46297953523E+03  0.72720687226E+03  0.10566000000E+00 0. -1.
          4    1    3    3  502    0  0.11558165802E+03  0.78633272529E+03 -0.58291522407E+03  0.98563098216E+03  0.00000000000E+00 0.  1.
         -4    1    4    4    0  501 -0.13520392227E+03 -0.25830545657E+02 -0.38640943166E+03  0.41019454721E+03  0.00000000000E+00 0. -1.
</event>
<event>
 8    1  0.7096247E-006  0.1280047E+04  0.7818608E-02  0.8548605E-01
         -2   -1    0    0    0  501 -0.00000000000E+00  0.00000000000E+00  0.48250032314E+03  0.48250032314E+03  0.00000000000E+00 0.  1.
          2   -1    0    0  502    0  0.00000000000E+00 -0.00000000000E+00 -0.37116286622E+04  0.37116286622E+04  0.00000000000E+00 0. -1.
    9000010    2    1    2  502    0 -0.32542335278E+03 -0.71947865831E+03 -0.22299264388E+04  0.25728285085E+04  0.10115951332E+04 0.  0.
   -9000010    2    1    2    0  501  0.32542335278E+03  0.71947865831E+03 -0.99920190023E+03  0.16213004768E+04  0.10033249226E+04 0.  0.
        -13    1    3    3    0    0 -0.39024668955E+03 -0.50680271085E+03 -0.22597204793E+04  0.23485055082E+04  0.10566000000E+00 0.  1.
         13    1    4    4    0    0  0.30914622121E+03  0.37780024887E+03 -0.11485997278E+04  0.12480327560E+04  0.10566000000E+00 0. -1.
          4    1    3    3  502    0  0.64823336767E+02 -0.21267594747E+03  0.29794040471E+02  0.22432300031E+03  0.00000000000E+00 0.  1.
         -4    1    4    4    0  501  0.16277131576E+02  0.34167840944E+03  0.14939782760E+03  0.37326772079E+03  0.00000000000E+00 0. -1.
</event>
<event>
 8    1  0.7096247E-006  0.1227568E+04  0.7818608E-02  0.8586087E-01
         -1   -1    0    0    0  501 -0.00000000000E+00  0.00000000000E+00  0.10663651177E+04  0.10663651177E+04  0.00000000000E+00 0.  1.
          1   -1    0    0  502    0  0.00000000000E+00 -0.00000000000E+00 -0.14260414060E+04  0.14260414060E+04  0.00000000000E+00 0. -1.
    9000010    2    1    2  502    0 -0.42469505097E+03  0.53848900685E+03 -0.29847896523E+03  0.12640800804E+04  0.10190546895E+04 0.  0.
   -9000010    2    1    2    0  501  0.42469505097E+03 -0.53848900685E+03 -0.61197322979E+02  0.12283264433E+04  0.10172042284E+04 0.  0.
        -13    1    3    3    0    0 -0.48540749814E+03 -0.11338629115E+03  0.84512804718E+02  0.50558808885E+03  0.10566000000E+00 0.  1.
         13    1    4    4    0    0  0.36544902961E+03 -0.59259614560E+03 -0.45153781203E+03  0.82982503691E+03  0.10566000000E+00 0. -1.
          4    1    3    3  502    0  0.60712447165E+02  0.65187529800E+03 -0.38299176995E+03  0.75849199154E+03  0.00000000000E+00 0.  1.
         -4    1    4    4    0  501  0.59246021363E+02  0.54107138756E+02  0.39034048905E+03  0.39850140640E+03  0.00000000000E+00 0. -1.
</event>
<event>
 8    1  0.7096247E-006  0.1199328E+04  0.7818608E-02  0.8607069E-01
          2   -1    0    0  502    0  0.00000000000E+00  0.00000000000E+00  0.13677292767E+04  0.13677292767E+04  0.00000000000E+00 0.  1.
         -2   -1    0    0    0  501 -0.00000000000E+00 -0.00000000000E+00 -0.12570798067E+04  0.12570798067E+04  0.00000000000E+00 0. -1.
    9000010    2    1    2  502    0  0.70922347373E+03 -0.34794942361E+01  0.58360700568E+03  0.13064123715E+04  0.92903503951E+03 0.  0.
   -9000010    2    1    2    0  501 -0.70922347373E+03  0.34794942361E+01 -0.47295753566E+03  0.13183967119E+04  0.10057191540E+04 0.  0.
        -13    1    3    3    0    0  0.70885781889E+02  0.40487040674E+03  0.20348970258E+03  0.45864246483E+03  0.10566000000E+00 0.  1.
         13    1    4    4    0    0 -0.43273181582E+03 -0.11984237735E+03  0.26455707695E+03  0.52116166203E+03  0.10566000000E+00 0. -1.
          4    1    3    3  502    0  0.63833769184E+03 -0.40834990098E+03  0.38011730311E+03  0.84776990662E+03  0.00000000000E+00 0.  1.
         -4    1    4    4    0  501 -0.27649165791E+03  0.12332187158E+03 -0.73751461261E+03  0.79723504986E+03  0.00000000000E+00 0. -1.
</event>
<event>
 8    1  0.7096247E-006  0.1851746E+04  0.7818608E-02  0.8231578E-01
         -2   -1    0    0    0  501 -0.00000000000E+00  0.00000000000E+00  0.15316755054E+04  0.15316755054E+04  0.00000000000E+00 0.  1.
          2   -1    0    0  502    0  0.00000000000E+00 -0.00000000000E+00 -0.23330748758E+04  0.23330748758E+04  0.00000000000E+00 0. -1.
    9000010    2    1    2  502    0  0.15136702029E+04 -0.36525273751E+03 -0.12330426404E+02  0.18531010063E+04  0.10046015402E+04 0.  0.
   -9000010    2    1    2    0  501 -0.15136702029E+04  0.36525273751E+03 -0.78906894398E+03  0.20116493750E+04  0.99974815027E+03 0.  0.
        -13    1    3    3    0    0  0.11784299351E+04 -0.45102361028E+03 -0.40926761479E+03  0.13265064646E+04  0.10566000000E+00 0.  1.
         13    1    4    4    0    0 -0.65623196223E+03 -0.32622753455E+03 -0.44621722979E+03  0.85800618872E+03  0.10566000000E+00 0. -1.
          4    1    3    3  502    0  0.33524026784E+03  0.85770872770E+02  0.39693718838E+03  0.52659454167E+03  0.00000000000E+00 0.  1.
         -4    1    4    4    0  501 -0.85743824070E+03  0.69148027206E+03 -0.34285171419E+03  0.11536431863E+04  0.00000000000E+00 0. -1.
</event>
<event>
 8    1  0.7096247E-006  0.1705248E+04  0.7818608E-02  0.8300271E-01
         -2   -1    0    0    0  501 -0.00000000000E+00  0.00000000000E+00  0.10895382899E+04  0.10895382899E+04  0.00000000000E+00 0.  1.
          2   -1    0    0  502    0  0.00000000000E+00 -0.00000000000E+00 -0.27037283640E+04  0.27037283640E+04  0.00000000000E+00 0. -1.
    9000010    2    1    2  502    0 -0.10930007894E+04  0.83847741876E+03 -0.59214469379E+03  0.18057510793E+04  0.10061841355E+04 0.  0.
   -9000010    2    1    2    0  501  0.10930007894E+04 -0.83847741876E+03 -0.10220453803E+04  0.19875155746E+04  0.10039652845E+04 0.  0.
        -13    1    3    3    0    0 -0.26229229677E+03  0.82562756610E+03 -0.39379065128E+03  0.95159298813E+03  0.10566000000E+00 0.  1.
         13    1    4    4    0    0  0.68229227127E+03 -0.35565668628E+03  0.17878657236E+02  0.76963243141E+03  0.10566000000E+00 0. -1.
          4    1    3    3  502    0 -0.83070849267E+03  0.12849852653E+02 -0.19835404250E+03  0.85415809116E+03  0.00000000000E+00 0.  1.
         -4    1    4    4    0  501  0.41070851817E+03 -0.48282073248E+03 -0.10399240375E+04  0.12178831432E+04  0.00000000000E+00 0. -1.
</event>
<event>
 8    1  0.7096247E-006  0.1102173E+04  0.7818608E-02  0.8684110E-01
         -1   -1    0    0    0  501 -0.00000000000E+00  0.00000000000E+00  0.74916169624E+03  0.74916169624E+03  0.00000000000E+00 0.  1.
          1   -1    0    0  502    0  0.00000000000E+00 -0.00000000000E+00 -0.16850885382E+04  0.16850885382E+04  0.00000000000E+00 0. -1.
    9000010    2    1    2  502    0 -0.68245208632E+02  0.42040109767E+03 -0.70983623969E+03  0.13235368379E+04  0.10327089535E+04 0.  0.
   -9000010    2    1    2    0  501  0.68245208632E+02 -0.42040109767E+03 -0.22609060223E+03  0.11107133966E+04  0.10005862269E+04 0.  0.
        -13    1    3    3    0    0 -0.23961521463E+03  0.16336868201E+03 -0.91022781949E+03  0.95531119112E+03  0.10566000000E+00 0.  1.
         13    1    4    4    0    0  0.37221209802E+03 -0.22848688906E+02 -0.43100860084E+03  0.56994064047E+03  0.10566000000E+00 0. -1.
          4    1    3    3  502    0  0.17137000600E+03  0.25703241566E+03  0.20039157980E+03  0.36822564673E+03  0.00000000000E+00 0.  1.
         -4    1    4    4    0  501 -0.30396688939E+03 -0.39755240877E+03  0.20491799861E+03  0.54077275608E+03  0.00000000000E+00 0. -1.
</event>
<event>
 8    1  0.7096247E-006  0.1243874E+04  0.7818608E-02  0.8574237E-01
          2   -1    0    0  502    0  0.00000000000E+00  0.00000000000E+00  0.16937505961E+04  0.16937505961E+04  0.00000000000E+00 0. -1.
         -2   -1    0    0    0  501 -0.00000000000E+00 -0.00000000000E+00 -0.10951357207E+04  0.10951357207E+04  0.00000000000E+00 0.  1.
    9000010    2    1    2  502    0  0.43201703825E+03 -0.63950267689E+03 -0.26776946987E+03  0.12763573998E+04  0.98070654527E+03 0.  0.
   -9000010    2    1    2    0  501 -0.43201703825E+03  0.63950267689E+03  0.86638434534E+03  0.15125289170E+04  0.97031927517E+03 0.  0.
        -13    1    3    3    0    0  0.17706355238E+03  0.79185565846E+02 -0.45198996781E+03  0.49185038130E+03  0.10566000000E+00 0.  1.
         13    1    4    4    0    0 -0.22157417693E+03 -0.18657783506E+03 -0.10123449804E+02  0.28984288817E+03  0.10566000000E+00 0. -1.
          4    1    3    3  502    0  0.25495348587E+03 -0.71868824274E+03  0.18422049794E+03  0.78450701850E+03  0.00000000000E+00 0.  1.
         -4    1    4    4    0  501 -0.21044286132E+03  0.82608051196E+03  0.87650779515E+03  0.12226860288E+04  0.00000000000E+00 0. -1.
</event>
<event>
 7    1  0.7983867E-006  0.9285730E+03  0.7818608E-02  0.8844762E-01
          1   -1    0    0  502    0  0.00000000000E+00  0.00000000000E+00  0.81045525387E+03  0.81045525387E+03  0.00000000000E+00 0. -1.
         -1   -1    0    0    0  501 -0.00000000000E+00 -0.00000000000E+00 -0.12937672495E+04  0.12937672495E+04  0.00000000000E+00 0.  1.
   -9000010    2    1    2    0  501  0.50192430310E+03 -0.72508280068E+02  0.12259401158E+03  0.11219134430E+04  0.99321449098E+03 0.  0.
        -13    1    1    2    0    0  0.97695814565E+02 -0.10843033337E+03 -0.13356827698E+03  0.19784363816E+03  0.10566000000E+00 0.  1.
         13    1    3    3    0    0  0.34141599170E+03  0.37096605996E+03  0.33432281919E+03  0.60494004300E+03  0.10566000000E+00 0. -1.
          4    1    1    2  502    0 -0.59962011767E+03  0.18093861344E+03 -0.47233773026E+03  0.78446542229E+03  0.00000000000E+00 0.  1.
         -4    1    3    3    0  501  0.16050831141E+03 -0.44347434003E+03 -0.21172880761E+03  0.51697339996E+03  0.00000000000E+00 0. -1.
</event>
<event>
 8    1  0.7096247E-006  0.1438335E+04  0.7818608E-02  0.8445896E-01
         -1   -1    0    0    0  501 -0.00000000000E+00  0.00000000000E+00  0.15446955698E+04  0.15446955698E+04  0.00000000000E+00 0.  1.
          1   -1    0    0  502    0  0.00000000000E+00 -0.00000000000E+00 -0.14589585529E+04  0.14589585529E+04  0.00000000000E+00 0. -1.
    9000010    2    1    2  502    0  0.70633008434E+03 -0.74387231406E+03 -0.38734295219E+03  0.14847410993E+04  0.10010860911E+04 0.  0.
   -9000010    2    1    2    0  501 -0.70633008434E+03  0.74387231406E+03  0.47307996899E+03  0.15189130234E+04  0.10154033228E+04 0.  0.
        -13    1    3    3    0    0  0.35429710800E+03  0.16876335007E+03  0.80232763284E+02  0.40055563475E+03  0.10566000000E+00 0.  1.
         13    1    4    4    0    0 -0.83605582923E+03  0.89661755002E+03  0.48447188929E+03  0.13181902000E+04  0.10566000000E+00 0. -1.
          4    1    3    3  502    0  0.35203297634E+03 -0.91263566413E+03 -0.46757571547E+03  0.10841854646E+04  0.00000000000E+00 0.  1.
         -4    1    4    4    0  501  0.12972574489E+03 -0.15274523596E+03 -0.11391920296E+02  0.20072282343E+03  0.00000000000E+00 0. -1.
</event>
<event>
 8    1  0.7096247E-006  0.1035960E+04  0.7818608E-02  0.8741519E-01
          2   -1    0    0  502    0  0.00000000000E+00  0.00000000000E+00  0.15772656892E+04  0.15772656892E+04  0.00000000000E+00 0.  1.
         -2   -1    0    0    0  501 -0.00000000000E+00 -0.00000000000E+00 -0.70780234312E+03  0.70780234312E+03  0.00000000000E+00 0. -1.
    9000010    2    1    2  502    0 -0.11938473264E+03  0.28614541549E+03  0.20432849520E+03  0.10405243202E+04  0.97201276423E+03 0.  0.
   -9000010    2    1    2    0  501  0.11938473264E+03 -0.28614541549E+03  0.66513485091E+03  0.12445437121E+04  0.10051630556E+04 0.  0.
        -13    1    3    3    0    0  0.23562430866E+03  0.29091782852E+03  0.46725210022E+03  0.59872909910E+03  0.10566000000E+00 0.  1.
         13    1    4    4    0    0  0.46149988327E+03 -0.47100573948E+03  0.46762372714E+03  0.80839378414E+03  0.10566000000E+00 0. -1.
          4    1    3    3  502    0 -0.35500904129E+03 -0.47724130243E+01 -0.26292360502E+03  0.44179522112E+03  0.00000000000E+00 0.  1.
         -4    1    4    4    0  501 -0.34211515064E+03  0.18486032399E+03  0.19751112378E+03  0.43614992800E+03  0.00000000000E+00 0. -1.
</event>
<event>
 8    1  0.7096247E-006  0.1490429E+04  0.7818608E-02  0.8415028E-01
          2   -1    0    0  502    0  0.00000000000E+00  0.00000000000E+00  0.36238137975E+04  0.36238137975E+04  0.00000000000E+00 0. -1.
         -2   -1    0    0    0  501 -0.00000000000E+00 -0.00000000000E+00 -0.62016310719E+03  0.62016310719E+03  0.00000000000E+00 0.  1.
    9000010    2    1    2  502    0 -0.10820369590E+04 -0.25731559521E+03  0.12781340422E+04  0.19667463544E+04  0.99872383402E+03 0.  0.
   -9000010    2    1    2    0  501  0.10820369590E+04  0.25731559521E+03  0.17255166482E+04  0.22772305503E+04  0.98557393430E+03 0.  0.
        -13    1    3    3    0    0 -0.57998723972E+03 -0.32128514144E+03  0.82170364502E+02  0.66810277676E+03  0.10566000000E+00 0.  1.
         13    1    4    4    0    0  0.10839882822E+03 -0.26350057397E+03  0.75565350729E+03  0.80758596613E+03  0.10566000000E+00 0. -1.
          4    1    3    3  502    0 -0.50204971928E+03  0.63969546229E+02  0.11959636777E+04  0.12986435776E+04  0.00000000000E+00 0.  1.
         -4    1    4    4    0  501  0.97363813077E+03  0.52081616918E+03  0.96986314090E+03  0.14696445842E+04  0.00000000000E+00 0. -1.
</event>
<event>
 8    1  0.7096247E-006  0.1090724E+04  0.7818608E-02  0.8693731E-01
         -1   -1    0    0    0  501 -0.00000000000E+00  0.00000000000E+00  0.98000919211E+03  0.98000919211E+03  0.00000000000E+00 0. -1.
          1   -1    0    0  502    0  0.00000000000E+00 -0.00000000000E+00 -0.12139628800E+04  0.12139628800E+04  0.00000000000E+00 0.  1.
    9000010    2    1    2  502    0 -0.24858684815E+03 -0.32311590552E+03 -0.12002573359E+03  0.10951974816E+04  0.10093820077E+04 0.  0.
   -9000010    2    1    2    0  501  0.24858684815E+03  0.32311590552E+03 -0.11392795435E+03  0.10987745906E+04  0.10139658341E+04 0.  0.
        -13    1    3    3    0    0 -0.21406932110E+03  0.22857410649E+03 -0.37321920330E+03  0.48720055549E+03  0.10566000000E+00 0.  1.
         13    1    4    4    0    0 -0.29282219695E+03  0.38686020943E+03 -0.23689332406E+03  0.53992973507E+03  0.10566000000E+00 0. -1.
          4    1    3    3  502    0 -0.34517527049E+02 -0.55169001201E+03  0.25319346970E+03  0.60799692608E+03  0.00000000000E+00 0.  1.
         -4    1    4    4    0  501  0.54140904510E+03 -0.63744303910E+02  0.12296536972E+03  0.55884485552E+03  0.00000000000E+00 0. -1.
</event>
<event>
 8    1  0.7096247E-006  0.1348489E+04  0.7818608E-02  0.8502419E-01
          2   -1    0    0  502    0  0.00000000000E+00  0.00000000000E+00  0.22412484925E+04  0.22412484925E+04  0.00000000000E+00 0.  1.
         -2   -1    0    0    0  501 -0.00000000000E+00 -0.00000000000E+00 -0.92789058020E+03  0.92789058020E+03  0.00000000000E+00 0. -1.
    9000010    2    1    2  502    0  0.19019503389E+03  0.84026444727E+03  0.82626268706E+02  0.13192364695E+04  0.99566021805E+03 0.  0.
   -9000010    2    1    2    0  501 -0.19019503389E+03 -0.84026444727E+03  0.12307316435E+04  0.18499026032E+04  0.10794539224E+04 0.  0.
        -13    1    3    3    0    0  0.36212369746E+03  0.94208609153E+03  0.27056404120E+03  0.10449232927E+04  0.10566000000E+00 0.  1.
         13    1    4    4    0    0 -0.43573831514E+03 -0.88134451818E+02  0.87698058621E+03  0.98322455249E+03  0.10566000000E+00 0. -1.
          4    1    3    3  502    0 -0.17192866357E+03 -0.10182164426E+03 -0.18793777250E+03  0.27431317673E+03  0.00000000000E+00 0.  1.
         -4    1    4    4    0  501  0.24554328125E+03 -0.75212999545E+03  0.35375105733E+03  0.86667805071E+03  0.00000000000E+00 0. -1.
</event>
<event>
 8    1  0.7096247E-006  0.1837282E+04  0.7818608E-02  0.8238064E-01
         -1   -1    0    0    0  501 -0.00000000000E+00  0.00000000000E+00  0.20477551776E+04  0.20477551776E+04  0.00000000000E+00 0. -1.
          1   -1    0    0  502    0  0.00000000000E+00 -0.00000000000E+00 -0.20948790372E+04  0.20948790372E+04  0.00000000000E+00 0.  1.
    9000010    2    1    2  502    0 -0.14997411641E+04 -0.33610438027E+03 -0.97977108409E+03  0.20834523675E+04  0.10092733409E+04 0.  0.
   -9000010    2    1    2    0  501  0.14997411641E+04  0.33610438027E+03  0.93264722447E+03  0.20591818473E+04  0.10040962708E+04 0.  0.
        -13    1    3    3    0    0 -0.67462659455E+02 -0.36742181204E+03 -0.37215336602E+03  0.52730269996E+03  0.10566000000E+00 0.  1.
         13    1    4    4    0    0  0.10495814626E+04 -0.14893394311E+03  0.21253613824E+03  0.10811910965E+04  0.10566000000E+00 0. -1.
          4    1    3    3  502    0 -0.14322785047E+04  0.31317431772E+02 -0.60761771807E+03  0.15561496676E+04  0.00000000000E+00 0.  1.
         -4    1    4    4    0  501  0.45015970157E+03  0.48503832338E+03  0.72011108624E+03  0.97799075077E+03  0.00000000000E+00 0. -1.
</event>
<event>
 8    1  0.7096247E-006  0.1267488E+04  0.7818608E-02  0.8557404E-01
         -2   -1    0    0    0  501 -0.00000000000E+00  0.00000000000E+00  0.26150846527E+04  0.26150846527E+04  0.00000000000E+00 0.  1.
          2   -1    0    0  502    0  0.00000000000E+00 -0.00000000000E+00 -0.10172562743E+04  0.10172562743E+04  0.00000000000E+00 0. -1.
    9000010    2    1    2  502    0  0.15192078662E+03  0.80759532790E+03  0.19327085117E+04  0.22987453735E+04  0.93465392627E+03 0.  0.
   -9000010    2    1    2    0  501 -0.15192078662E+03 -0.80759532790E+03 -0.33488013331E+03  0.13335955535E+04  0.99551105340E+03 0.  0.
        -13    1    3    3    0    0 -0.15440011010E+03 -0.73421893979E+02  0.86173450425E+03  0.87853089615E+03  0.10566000000E+00 0.  1.
         13    1    4    4    0    0 -0.50030231301E+03 -0.16057374723E+03 -0.28327410763E+03  0.59693430453E+03  0.10566000000E+00 0. -1.
          4    1    3    3  502    0  0.30632089672E+03  0.88101722188E+03  0.10709740075E+04  0.14202144774E+04  0.00000000000E+00 0.  1.
         -4    1    4    4    0  501  0.34838152639E+03 -0.64702158067E+03 -0.51606025683E+02  0.73666124893E+03  0.00000000000E+00 0. -1.
</event>
<event>
 8    1  0.7096247E-006  0.1372734E+04  0.7818608E-02  0.8486730E-01
          2   -1    0    0  502    0  0.00000000000E+00  0.00000000000E+00  0.15933316383E+04  0.15933316383E+04  0.00000000000E+00 0.  1.
         -2   -1    0    0    0  501 -0.00000000000E+00 -0.00000000000E+00 -0.12074480290E+04  0.12074480290E+04  0.00000000000E+00 0. -1.
    9000010    2    1    2  502    0  0.32353057552E+03  0.86053348122E+03 -0.89057648812E+01  0.13608721145E+04  0.10033462483E+04 0.  0.
   -9000010    2    1    2    0  501 -0.32353057552E+03 -0.86053348122E+03  0.39478937414E+03  0.14399075528E+04  0.10355120497E+04 0.  0.
        -13    1    3    3    0    0 -0.22668112058E+03  0.32063283993E+03 -0.34237904048E+03  0.52097328818E+03  0.10566000000E+00 0.  1.
         13    1    4    4    0    0  0.31964679013E+03 -0.51642362541E+02 -0.24364807138E+02  0.32470703571E+03  0.10566000000E+00 0. -1.
          4    1    3    3  502    0  0.55021169610E+03  0.53990064129E+03  0.33347327560E+03  0.83989882636E+03  0.00000000000E+00 0.  1.
         -4    1    4    4    0  501 -0.64317736565E+03 -0.80889111868E+03  0.41915418128E+03  0.11152005171E+04  0.00000000000E+00 0. -1.
</event>
<event>
 8    1  0.7096247E-006  0.1250095E+04  0.7818608E-02  0.8569765E-01
         -2   -1    0    0    0  501 -0.00000000000E+00  0.00000000000E+00  0.38418740997E+04  0.38418740997E+04  0.00000000000E+00 0.  1.
          2   -1    0    0  502    0  0.00000000000E+00 -0.00000000000E+00 -0.43223919096E+03  0.43223919096E+03  0.00000000000E+00 0. -1.
    9000010    2    1    2  502    0 -0.67197600311E+02  0.74230495956E+03  0.11677538162E+04  0.17000229223E+04  0.98534095144E+03 0.  0.
   -9000010    2    1    2    0  501  0.67197600311E+02 -0.74230495956E+03  0.22418810925E+04  0.25740903684E+04  0.10219482477E+04 0.  0.
        -13    1    3    3    0    0  0.22068631628E+03 -0.80950980546E+02  0.63721710090E+03  0.67919154610E+03  0.10566000000E+00 0.  1.
         13    1    4    4    0    0  0.51126343862E+03 -0.58109817686E+03  0.15970660209E+04  0.17747352707E+04  0.10566000000E+00 0. -1.
          4    1    3    3  502    0 -0.28788391659E+03  0.82325594010E+03  0.53053671531E+03  0.10208313762E+04  0.00000000000E+00 0.  1.
         -4    1    4    4    0  501 -0.44406583831E+03 -0.16120678270E+03  0.64481507165E+03  0.79935509767E+03  0.00000000000E+00 0. -1.
</event>
<event>
 8    1  0.7096247E-006  0.1080412E+04  0.7818608E-02  0.8702503E-01
         -1   -1    0    0    0  501 -0.00000000000E+00  0.00000000000E+00  0.87202668455E+03  0.87202668455E+03  0.00000000000E+00 0.  1.
          1   -1    0    0  502    0  0.00000000000E+00 -0.00000000000E+00 -0.13646525776E+04  0.13646525776E+04  0.00000000000E+00 0. -1.
    9000010    2    1    2  502    0  0.10642414575E+02  0.45463540848E+03 -0.39507568653E+03  0.11320202658E+04  0.95842499361E+03 0.  0.
   -9000010    2    1    2    0  501 -0.10642414575E+02 -0.45463540848E+03 -0.97550206519E+02  0.11046589964E+04  0.10019724746E+04 0.  0.
        -13    1    3    3    0    0 -0.20763934750E+03 -0.17262949882E+02  0.23569193904E+03  0.31458354910E+03  0.10566000000E+00 0.  1.
         13    1    4    4    0    0 -0.54889024776E+02 -0.74593512805E+03 -0.22871760453E+03  0.78214050789E+03  0.10566000000E+00 0. -1.
          4    1    3    3  502    0  0.21828176208E+03  0.47189835837E+03 -0.63076762557E+03  0.81743671666E+03  0.00000000000E+00 0.  1.
         -4    1    4    4    0  501  0.44246610201E+02  0.29129971956E+03  0.13116739801E+03  0.32251848851E+03  0.00000000000E+00 0. -1.
</event>
<event>
 8    1  0.7096247E-006  0.1018775E+04  0.7818608E-02  0.8757148E-01
          1   -1    0    0  502    0  0.00000000000E+00  0.00000000000E+00  0.18484903188E+04  0.18484903188E+04  0.00000000000E+00 0. -1.
         -1   -1    0    0    0  501 -0.00000000000E+00 -0.00000000000E+00 -0.10211035766E+04  0.10211035766E+04  0.00000000000E+00 0.  1.
    9000010    2    1    2  502    0 -0.18290436837E+03  0.93125249881E+02 -0.55030408454E+03  0.11523531155E+04  0.99144177705E+03 0.  0.
   -9000010    2    1    2    0  501  0.18290436837E+03 -0.93125249881E+02  0.13776908267E+04  0.17172407799E+04  0.10043692359E+04 0.  0.
        -13    1    3    3    0    0  0.37199519574E+02  0.17209585840E+03  0.25718807551E+03  0.31168334264E+03  0.10566000000E+00 0.  1.
         13    1    4    4    0    0 -0.28666705752E+03  0.25266014550E+03  0.84513404079E+03  0.92750563829E+03  0.10566000000E+00 0. -1.
          4    1    3    3  502    0 -0.22010388795E+03 -0.78970608514E+02 -0.80749216005E+03  0.84066977289E+03  0.00000000000E+00 0.  1.
         -4    1    4    4    0  501  0.46957142589E+03 -0.34578539538E+03  0.53255678588E+03  0.78973514159E+03  0.00000000000E+00 0. -1.
</event>
<event>
 8    1  0.7096247E-006  0.1303274E+04  0.7818608E-02  0.8532604E-01
         -1   -1    0    0    0  501 -0.00000000000E+00  0.00000000000E+00  0.67035741247E+03  0.67035741247E+03  0.00000000000E+00 0.  1.
          1   -1    0    0  502    0  0.00000000000E+00 -0.00000000000E+00 -0.25393367226E+04  0.25393367226E+04  0.00000000000E+00 0. -1.
    9000010    2    1    2  502    0  0.85156847301E+03 -0.30560320814E+02 -0.10038025536E+04  0.16391327593E+04  0.97623452021E+03 0.  0.
   -9000010    2    1    2    0  501 -0.85156847301E+03  0.30560320814E+02 -0.86517675659E+03  0.15705613759E+04  0.99600673580E+03 0.  0.
        -13    1    3    3    0    0  0.34970864553E+03 -0.34431415034E+03 -0.20189318364E+02  0.49117816587E+03  0.10566000000E+00 0.  1.
         13    1    4    4    0    0 -0.87116676423E+03 -0.34317438733E+03 -0.63058916986E+03  0.11288679744E+04  0.10566000000E+00 0. -1.
          4    1    3    3  502    0  0.50185982748E+03  0.31375382953E+03 -0.98361323522E+03  0.11479545934E+04  0.00000000000E+00 0.  1.
         -4    1    4    4    0  501  0.19598291219E+02  0.37373470814E+03 -0.23458758673E+03  0.44169340151E+03  0.00000000000E+00 0. -1.
</event>
<event>
 8    1  0.7096247E-006  0.1283529E+04  0.7818608E-02  0.8546185E-01
          2   -1    0    0  502    0  0.00000000000E+00  0.00000000000E+00  0.33184470012E+04  0.33184470012E+04  0.00000000000E+00 0. -1.
         -2   -1    0    0    0  501 -0.00000000000E+00 -0.00000000000E+00 -0.56940195128E+03  0.56940195128E+03  0.00000000000E+00 0.  1.
    9000010    2    1    2  502    0 -0.43301112206E+03  0.63338157144E+03  0.20505080751E+04  0.24083732694E+04  0.10034976789E+04 0.  0.
   -9000010    2    1    2    0  501  0.43301112206E+03 -0.63338157144E+03  0.69853697477E+03  0.14794756831E+04  0.10546200951E+04 0.  0.
        -13    1    3    3    0    0  0.26668397140E+03  0.19619045051E+03  0.11048671179E+04  0.11534046960E+04  0.10566000000E+00 0.  1.
         13    1    4    4    0    0  0.42305876634E+03 -0.80447593170E+03  0.17110609491E+03  0.92489867085E+03  0.10566000000E+00 0. -1.
          4    1    3    3  502    0 -0.69969509346E+03  0.43719112093E+03  0.94564095728E+03  0.12549685734E+04  0.00000000000E+00 0.  1.
         -4    1    4    4    0  501  0.99523557173E+01  0.17109436026E+03  0.52743087986E+03  0.55457701226E+03  0.00000000000E+00 0. -1.
</event>
<event>
 8    1  0.7096247E-006  0.1547144E+04  0.7818608E-02  0.8382873E-01
          2   -1    0    0  502    0  0.00000000000E+00  0.00000000000E+00  0.18903161692E+04  0.18903161692E+04  0.00000000000E+00 0.  1.
         -2   -1    0    0    0  501 -0.00000000000E+00 -0.00000000000E+00 -0.13129993280E+04  0.13129993280E+04  0.00000000000E+00 0. -1.
    9000010    2    1    2  502    0  0.10787259746E+04  0.26359783397E+03  0.59443317906E+03  0.17268648876E+04  0.11813458382E+04 0.  0.
   -9000010    2    1    2    0  501 -0.10787259746E+04 -0.26359783397E+03 -0.17116337838E+02  0.14764506096E+04  0.97287197885E+03 0.  0.
        -13    1    3    3    0    0  0.11376094891E+04  0.20798524729E+03  0.86516793631E+03  0.14442744829E+04  0.10566000000E+00 0.  1.
         13    1    4    4    0    0 -0.97493757797E+03 -0.49490869337E+03 -0.26162575195E+03  0.11242268192E+04  0.10566000000E+00 0. -1.
          4    1    3    3  502    0 -0.58883514470E+02  0.55612586674E+02 -0.27073475725E+03  0.28259040475E+03  0.00000000000E+00 0.  1.
         -4    1    4    4    0  501 -0.10378839663E+03  0.23131085940E+03  0.24450941411E+03  0.35222379043E+03  0.00000000000E+00 0. -1.
</event>
<event>
 8    1  0.7096247E-006  0.1181100E+04  0.7818608E-02  0.8620932E-01
          1   -1    0    0  502    0  0.00000000000E+00  0.00000000000E+00  0.20598267825E+04  0.20598267825E+04  0.00000000000E+00 0. -1.
         -1   -1    0    0    0  501 -0.00000000000E+00 -0.00000000000E+00 -0.68274976184E+03  0.68274976184E+03  0.00000000000E+00 0.  1.
    9000010    2    1    2  502    0 -0.45993333005E+03  0.44051686459E+03  0.56608945311E+03  0.13108950638E+04  0.99619015420E+03 0.  0.
   -9000010    2    1    2    0  501  0.45993333005E+03 -0.44051686459E+03  0.81098756751E+03  0.14316814805E+04  0.99318540608E+03 0.  0.
        -13    1    3    3    0    0 -0.23349113917E+03  0.59682298586E+02 -0.27168652294E+03  0.36317167668E+03  0.10566000000E+00 0.  1.
         13    1    4    4    0    0  0.60194995178E+03  0.46810117179E+02  0.67613951544E+03  0.90647646799E+03  0.10566000000E+00 0. -1.
          4    1    3    3  502    0 -0.22644219089E+03  0.38083456600E+03  0.83777597604E+03  0.94772338713E+03  0.00000000000E+00 0.  1.
         -4    1    4    4    0  501 -0.14201662173E+03 -0.48732698177E+03  0.13484805207E+03  0.52520501250E+03  0.00000000000E+00 0. -1.
</event>
<event>
 8    1  0.7096247E-006  0.1391229E+04  0.7818608E-02  0.8474985E-01
          2   -1    0    0  502    0  0.00000000000E+00  0.00000000000E+00  0.74761607655E+03  0.74761607655E+03  0.00000000000E+00 0. -1.
         -2   -1    0    0    0  501 -0.00000000000E+00 -0.00000000000E+00 -0.27602678729E+04  0.27602678729E+04  0.00000000000E+00 0.  1.
    9000010    2    1    2  502    0  0.94646132644E+03  0.22587069598E+03 -0.56626788001E+03  0.14978373543E+04  0.98795284009E+03 0.  0.
   -9000010    2    1    2    0  501 -0.94646132644E+03 -0.22587069598E+03 -0.14463839164E+04  0.20100465952E+04  0.10007268696E+04 0.  0.
        -13    1    3    3    0    0  0.90564387830E+03  0.49199197019E+03 -0.64682423156E+03  0.12168108032E+04  0.10566000000E+00 0.  1.
         13    1    4    4    0    0  0.17719527878E+03 -0.18682517200E+03 -0.16737158440E+03  0.30710758725E+03  0.10566000000E+00 0. -1.
          4    1    3    3  502    0  0.40817448140E+02 -0.26612127421E+03  0.80556351547E+02  0.28102655112E+03  0.00000000000E+00 0.  1.
         -4    1    4    4    0  501 -0.11236566052E+04 -0.39045523975E+02 -0.12790123320E+04  0.17029390079E+04  0.00000000000E+00 0. -1.
</event>
<event>
 8    1  0.7096247E-006  0.1296252E+04  0.7818608E-02  0.8537405E-01
         -2   -1    0    0    0  501 -0.00000000000E+00  0.00000000000E+00  0.95490347647E+03  0.95490347647E+03  0.00000000000E+00 0.  1.
          2   -1    0    0  502    0  0.00000000000E+00 -0.00000000000E+00 -0.18394370864E+04  0.18394370864E+04  0.00000000000E+00 0. -1.
    9000010    2    1    2  502    0 -0.14176733958E+03  0.82677835417E+03 -0.73148648730E+03  0.14837145802E+04  0.98116056228E+03 0.  0.
   -9000010    2    1    2    0  501  0.14176733958E+03 -0.82677835417E+03 -0.15304712259E+03  0.13106259826E+04  0.99531734590E+03 0.  0.
        -13    1    3    3    0    0 -0.56011371840E+03  0.55687642651E+03 -0.39760832492E+03  0.88426869398E+03  0.10566000000E+00 0.  1.
         13    1    4    4    0    0  0.11682600469E+03 -0.10557180631E+04 -0.65254358252E+02  0.10641649715E+04  0.10566000000E+00 0. -1.
          4    1    3    3  502    0  0.41834637882E+03  0.26990192765E+03 -0.33387816238E+03  0.59944588625E+03  0.00000000000E+00 0.  1.
         -4    1    4    4    0  501  0.24941334884E+02  0.22893970895E+03 -0.87792764333E+02  0.24646101109E+03  0.00000000000E+00 0. -1.
</event>
<event>
 8    1  0.7096247E-006  0.1687988E+04  0.7818608E-02  0.8308830E-01
          2   -1    0    0  502    0  0.00000000000E+00  0.00000000000E+00  0.26337736746E+04  0.26337736746E+04  0.00000000000E+00 0. -1.
         -2   -1    0    0    0  501 -0.00000000000E+00 -0.00000000000E+00 -0.11817670625E+04  0.11817670625E+04  0.00000000000E+00 0.  1.
    9000010    2    1    2  502    0  0.11764935883E+04 -0.68651302741E+03  0.12810133265E+04  0.21195069100E+04  0.99793642010E+03 0.  0.
   -9000010    2    1    2    0  501 -0.11764935883E+04  0.68651302741E+03  0.17099328566E+03  0.16960338271E+04  0.99591904229E+03 0.  0.
        -13    1    3    3    0    0  0.57283653462E+03 -0.70392338887E+03  0.12083966985E+04  0.15112486311E+04  0.10566000000E+00 0.  1.
         13    1    4    4    0    0 -0.10844934818E+04  0.10308627062E+03  0.18631289031E+03  0.11051992560E+04  0.10566000000E+00 0. -1.
          4    1    3    3  502    0  0.60365705372E+03  0.17410361462E+02  0.72616627981E+02  0.60825827890E+03  0.00000000000E+00 0.  1.
         -4    1    4    4    0  501 -0.92000106569E+02  0.58342675680E+03 -0.15319604647E+02  0.59083457113E+03  0.00000000000E+00 0. -1.
</event>
<event>
 8    1  0.7096247E-006  0.1590261E+04  0.7818608E-02  0.8359367E-01
         -1   -1    0    0    0  501 -0.00000000000E+00  0.00000000000E+00  0.13489922324E+04  0.13489922324E+04  0.00000000000E+00 0. -1.
          1   -1    0    0  502    0  0.00000000000E+00 -0.00000000000E+00 -0.20231166219E+04  0.20231166219E+04  0.00000000000E+00 0.  1.
    9000010    2    1    2  502    0  0.42239894151E+03  0.11050146501E+04 -0.80134623368E+03  0.18403020939E+04  0.11597748781E+04 0.  0.
   -9000010    2    1    2    0  501 -0.42239894151E+03 -0.11050146501E+04  0.12722184425E+03  0.15318067604E+04  0.96476334443E+03 0.  0.
        -13    1    3    3    0    0  0.60246035399E+03  0.97423592696E+03 -0.15400144112E+03  0.11557727175E+04  0.10566000000E+00 0.  1.
         13    1    4    4    0    0 -0.70684478668E+03 -0.81525554287E+03  0.25002207189E+03  0.11076020044E+04  0.10566000000E+00 0. -1.
          4    1    3    3  502    0 -0.18006141248E+03  0.13077872316E+03 -0.64734479256E+03  0.68452937640E+03  0.00000000000E+00 0.  1.
         -4    1    4    4    0  501  0.28444584517E+03 -0.28975910726E+03 -0.12280022763E+03  0.42420475596E+03  0.00000000000E+00 0. -1.
</event>
<event>
 8    1  0.7096247E-006  0.1262251E+04  0.7818608E-02  0.8561104E-01
         -2   -1    0    0    0  501 -0.00000000000E+00  0.00000000000E+00  0.78850262999E+03  0.78850262999E+03  0.00000000000E+00 0.  1.
          2   -1    0    0  502    0  0.00000000000E+00 -0.00000000000E+00 -0.20223931186E+04  0.20223931186E+04  0.00000000000E+00 0. -1.
    9000010    2    1    2  502    0  0.71180532713E+03 -0.27807804005E+03 -0.66156354450E+03  0.14332873797E+04  0.10161949465E+04 0.  0.
   -9000010    2    1    2    0  501 -0.71180532713E+03  0.27807804005E+03 -0.57232694405E+03  0.13776083689E+04  0.99310244536E+03 0.  0.
        -13    1    3    3    0    0  0.32214348454E+03 -0.61860711895E+03 -0.58469178979E+03  0.91011850463E+03  0.10566000000E+00 0.  1.
         13    1    4    4    0    0 -0.19166055113E+03  0.50735327753E+03  0.37868458639E+02  0.54366823193E+03  0.10566000000E+00 0. -1.
          4    1    3    3  502    0  0.38966184260E+03  0.34052907890E+03 -0.76871754711E+02  0.52316887506E+03  0.00000000000E+00 0.  1.
         -4    1    4    4    0  501 -0.52014477600E+03 -0.22927523748E+03 -0.61019540269E+03  0.83394013694E+03  0.00000000000E+00 0. -1.
</event>
<event>
 8    1  0.7096247E-006  0.1731355E+04  0.7818608E-02  0.8287521E-01
         -2   -1    0    0    0  501 -0.00000000000E+00  0.00000000000E+00  0.14760232612E+04  0.14760232612E+04  0.00000000000E+00 0.  1.
          2   -1    0    0  502    0  0.00000000000E+00 -0.00000000000E+00 -0.22630629922E+04  0.22630629922E+04  0.00000000000E+00 0. -1.
    9000010    2    1    2  502    0 -0.13685769399E+04  0.30551353866E+03  0.20719835077E+03  0.17342605952E+04  0.99919332106E+03 0.  0.
   -9000010    2    1    2    0  501  0.13685769399E+04 -0.30551353866E+03 -0.99423808179E+03  0.20048256583E+04  0.10317340714E+04 0.  0.
        -13    1    3    3    0    0 -0.70907347922E+03 -0.33172292217E+03  0.23318584151E+03  0.81682369203E+03  0.10566000000E+00 0.  1.
         13    1    4    4    0    0  0.10421081310E+04 -0.15597617729E+03 -0.11951691550E+04  0.15933446724E+04  0.10566000000E+00 0. -1.
          4    1    3    3  502    0 -0.65950346065E+03  0.63723646083E+03 -0.25987490736E+02  0.91743690317E+03  0.00000000000E+00 0.  1.
         -4    1    4    4    0  501  0.32646880882E+03 -0.14953736137E+03  0.20093107322E+03  0.41148098591E+03  0.00000000000E+00 0. -1.
</event>
<event>
 8    1  0.7096247E-006  0.1220891E+04  0.7818608E-02  0.8590995E-01
          2   -1    0    0  502    0  0.00000000000E+00  0.00000000000E+00  0.11593635192E+04  0.11593635192E+04  0.00000000000E+00 0.  1.
         -2   -1    0    0    0  501 -0.00000000000E+00 -0.00000000000E+00 -0.12982607432E+04  0.12982607432E+04  0.00000000000E+00 0. -1.
    9000010    2    1    2  502    0 -0.64181392161E+03 -0.21575925858E+03 -0.19005391803E+03  0.12311650944E+04  0.10105294802E+04 0.  0.
   -9000010    2    1    2    0  501  0.64181392161E+03  0.21575925858E+03  0.51156693997E+02  0.12264591679E+04  0.10213265470E+04 0.  0.
        -13    1    3    3    0    0  0.14687754235E+03 -0.31571874751E+03 -0.25783744653E+03  0.43327993258E+03  0.10566000000E+00 0.  1.
         13    1    4    4    0    0 -0.93584908558E+02 -0.16153233033E+03 -0.27960472489E+03  0.33619881350E+03  0.10566000000E+00 0. -1.
          4    1    3    3  502    0 -0.78869146396E+03  0.99959488929E+02  0.67783528499E+02  0.79788516185E+03  0.00000000000E+00 0.  1.
         -4    1    4    4    0  501  0.73539883017E+03  0.37729158892E+03  0.33076141889E+03  0.89026035445E+03  0.00000000000E+00 0. -1.
</event>
<event>
 8    1  0.7096247E-006  0.1063003E+04  0.7818608E-02  0.8717546E-01
          2   -1    0    0  502    0  0.00000000000E+00  0.00000000000E+00  0.27463089089E+03  0.27463089089E+03  0.00000000000E+00 0.  1.
         -2   -1    0    0    0  501 -0.00000000000E+00 -0.00000000000E+00 -0.42206744605E+04  0.42206744605E+04  0.00000000000E+00 0. -1.
    9000010    2    1    2  502    0  0.28148130650E+02  0.34937075537E+03 -0.23213248862E+04  0.25512996905E+04  0.99886367510E+03 0.  0.
   -9000010    2    1    2    0  501 -0.28148130650E+02 -0.34937075537E+03 -0.16247186833E+04  0.19440056608E+04  0.10082633423E+04 0.  0.
        -13    1    3    3    0    0 -0.39112245433E+03 -0.12973130723E+03 -0.74708986796E+03  0.85320001660E+03  0.10566000000E+00 0.  1.
         13    1    4    4    0    0 -0.39561665477E+03  0.14651847353E+03 -0.88650410929E+03  0.98176868333E+03  0.10566000000E+00 0. -1.
          4    1    3    3  502    0  0.41927058498E+03  0.47910206260E+03 -0.15742350183E+04  0.16980996739E+04  0.00000000000E+00 0.  1.
         -4    1    4    4    0  501  0.36746852412E+03 -0.49588922889E+03 -0.73821457406E+03  0.96223697752E+03  0.00000000000E+00 0. -1.
</event>
<event>
 8    1  0.7096247E-006  0.1210979E+04  0.7818608E-02  0.8598341E-01
         -1   -1    0    0    0  501 -0.00000000000E+00  0.00000000000E+00  0.27710756576E+04  0.27710756576E+04  0.00000000000E+00 0. -1.
          1   -1    0    0  502    0  0.00000000000E+00 -0.00000000000E+00 -0.61391075880E+03  0.61391075880E+03  0.00000000000E+00 0.  1.
    9000010    2    1    2  502    0 -0.39520343601E+03 -0.55467011297E+03  0.17178682767E+04  0.21100652392E+04  0.10185574150E+04 0.  0.
   -9000010    2    1    2    0  501  0.39520343601E+03  0.55467011297E+03  0.43929662211E+03  0.12749211772E+04  0.98417366140E+03 0.  0.
        -13    1    3    3    0    0  0.92170935540E+02  0.23387499597E+03  0.64459745528E+03  0.69188068742E+03  0.10566000000E+00 0.  1.
         13    1    4    4    0    0 -0.19209636801E+03  0.42487979764E+03  0.48364796196E+03  0.67181784682E+03  0.10566000000E+00 0. -1.
          4    1    3    3  502    0 -0.48737437155E+03 -0.78854510894E+03  0.10732708214E+04  0.14181845518E+04  0.00000000000E+00 0.  1.
         -4    1    4    4    0  501  0.58729980402E+03  0.12979031533E+03 -0.44351339845E+02  0.60310333037E+03  0.00000000000E+00 0. -1.
</event>
<event>
 8    1  0.7096247E-006  0.1030206E+04  0.7818608E-02  0.8746717E-01
          2   -1    0    0  502    0  0.00000000000E+00  0.00000000000E+00  0.17826162407E+04  0.17826162407E+04  0.00000000000E+00 0.  1.
         -2   -1    0    0    0  501 -0.00000000000E+00 -0.00000000000E+00 -0.98947112201E+03  0.98947112201E+03  0.00000000000E+00 0. -1.
    9000010    2    1    2  502    0 -0.23389568946E+03  0.17484594388E+03  0.12719561788E+04  0.16386090320E+04  0.99090299292E+03 0.  0.
   -9000010    2    1    2    0  501  0.23389568946E+03 -0.17484594388E+03 -0.47881106015E+03  0.11334783306E+04  0.98500497313E+03 0.  0.
        -13    1    3    3    0    0 -0.53344983830E+03  0.62859463405E+02  0.11942728760E+04  0.13095066841E+04  0.10566000000E+00 0.  1.
         13    1    4    4    0    0  0.70909741817E+02 -0.25598901746E+03 -0.75630035020E+03  0.80159141676E+03  0.10566000000E+00 0. -1.
          4    1    3    3  502    0  0.29955414883E+03  0.11198648048E+03  0.77683302816E+02  0.32910234795E+03  0.00000000000E+00 0.  1.
         -4    1    4    4    0  501  0.16298594765E+03  0.81143073579E+02  0.27748929005E+03  0.33188691389E+03  0.00000000000E+00 0. -1.
</event>
<event>
 8    1  0.7096247E-006  0.1267211E+04  0.7818608E-02  0.8557599E-01
         -2   -1    0    0    0  501 -0.00000000000E+00  0.00000000000E+00  0.97974442620E+03  0.97974442620E+03  0.00000000000E+00 0.  1.
          2   -1    0    0  502    0  0.00000000000E+00 -0.00000000000E+00 -0.17439793934E+04  0.17439793934E+04  0.00000000000E+00 0. -1.
    9000010    2    1    2  502    0  0.55700188019E+03  0.57479625151E+03 -0.45825761863E+02  0.12599055588E+04  0.97191573270E+03 0.  0.
   -9000010    2    1    2    0  501 -0.55700188019E+03 -0.57479625151E+03 -0.71840920538E+03  0.14638182608E+04  0.99298050785E+03 0.  0.
        -13    1    3    3    0    0 -0.21379135936E+03  0.42214929296E+03 -0.25311371605E+02  0.47387492821E+03  0.10566000000E+00 0.  1.
         13    1    4    4    0    0  0.10916425626E+03  0.15809977595E+03 -0.36457190865E+03  0.41209836416E+03  0.10566000000E+00 0. -1.
          4    1    3    3  502    0  0.77079323955E+03  0.15264695855E+03 -0.20514390258E+02  0.78603063064E+03  0.00000000000E+00 0.  1.
         -4    1    4    4    0  501 -0.66616613645E+03 -0.73289602746E+03 -0.35383729673E+03  0.10517198966E+04  0.00000000000E+00 0. -1.
</event>
<event>
 8    1  0.7096247E-006  0.1238564E+04  0.7818608E-02  0.8578075E-01
          2   -1    0    0  502    0  0.00000000000E+00  0.00000000000E+00  0.13885080900E+04  0.13885080900E+04  0.00000000000E+00 0.  1.
         -2   -1    0    0    0  501 -0.00000000000E+00 -0.00000000000E+00 -0.11315171383E+04  0.11315171383E+04  0.00000000000E+00 0. -1.
    9000010    2    1    2  502    0  0.72898276028E+03 -0.16207767084E+03 -0.63763612583E+02  0.12504289658E+04  0.10009104676E+04 0.  0.
   -9000010    2    1    2    0  501 -0.72898276028E+03  0.16207767084E+03  0.32075456429E+03  0.12695962625E+04  0.97534924160E+03 0.  0.
        -13    1    3    3    0    0  0.84901008324E+03  0.19386331231E+03 -0.96353944811E+01  0.87091558563E+03  0.10566000000E+00 0.  1.
         13    1    4    4    0    0 -0.51074314033E+03 -0.26844173653E+03  0.49115162700E+03  0.75772650288E+03  0.10566000000E+00 0. -1.
          4    1    3    3  502    0 -0.12002732296E+03 -0.35594098316E+03 -0.54128218102E+02  0.37951338019E+03  0.00000000000E+00 0.  1.
         -4    1    4    4    0  501 -0.21823961994E+03  0.43051940737E+03 -0.17039706271E+03  0.51186975962E+03  0.00000000000E+00 0. -1.
</event>
<event>
 8    1  0.7096247E-006  0.1444902E+04  0.7818608E-02  0.8441932E-01
         -1   -1    0    0    0  501 -0.00000000000E+00  0.00000000000E+00  0.29760233547E+04  0.29760233547E+04  0.00000000000E+00 0.  1.
          1   -1    0    0  502    0  0.00000000000E+00 -0.00000000000E+00 -0.93457886467E+03  0.93457886467E+03  0.00000000000E+00 0. -1.
    9000010    2    1    2  502    0  0.45413359910E+03  0.10566921613E+04  0.92075942787E+02  0.15293502615E+04  0.10037921067E+04 0.  0.
   -9000010    2    1    2    0  501 -0.45413359910E+03 -0.10566921613E+04  0.19493685472E+04  0.23812519579E+04  0.73992398564E+03 0.  0.
        -13    1    3    3    0    0  0.64615473350E+03  0.11387258680E+04  0.23236780725E+02  0.13094855864E+04  0.10566000000E+00 0.  1.
         13    1    4    4    0    0 -0.21387739893E+03 -0.10711876124E+04  0.17744491114E+04  0.20837120970E+04  0.10566000000E+00 0. -1.
          4    1    3    3  502    0 -0.19202113440E+03 -0.82033706682E+02  0.68839162062E+02  0.21986467502E+03  0.00000000000E+00 0.  1.
         -4    1    4    4    0  501 -0.24025620017E+03  0.14495451174E+02  0.17491943583E+03  0.29753986095E+03  0.00000000000E+00 0. -1.
</event>
<event>
 8    1  0.7096247E-006  0.1388795E+04  0.7818608E-02  0.8476520E-01
          2   -1    0    0  502    0  0.00000000000E+00  0.00000000000E+00  0.18131323094E+04  0.18131323094E+04  0.00000000000E+00 0.  1.
         -2   -1    0    0    0  501 -0.00000000000E+00 -0.00000000000E+00 -0.14609032413E+04  0.14609032413E+04  0.00000000000E+00 0. -1.
    9000010    2    1    2  502    0 -0.55817540364E+03 -0.77430680455E+03 -0.67809398657E+03  0.15383203975E+04  0.99775116240E+03 0.  0.
   -9000010    2    1    2    0  501  0.55817540364E+03  0.77430680455E+03  0.10303230547E+04  0.17357151531E+04  0.10198189480E+04 0.  0.
        -13    1    3    3    0    0 -0.55238699140E+03 -0.41313276804E+03 -0.88497788809E+03  0.11220498856E+04  0.10566000000E+00 0.  1.
         13    1    4    4    0    0  0.20267136711E+03  0.35701569768E+03 -0.14777595101E+03  0.43631827179E+03  0.10566000000E+00 0. -1.
          4    1    3    3  502    0 -0.57884122413E+01 -0.36117403651E+03  0.20688390152E+03  0.41627051190E+03  0.00000000000E+00 0.  1.
         -4    1    4    4    0  501  0.35550403653E+03  0.41729110688E+03  0.11780990057E+04  0.12993968813E+04  0.00000000000E+00 0. -1.
</event>
<event>
 8    1  0.7096247E-006  0.1378455E+04  0.7818608E-02  0.8483077E-01
          1   -1    0    0  502    0  0.00000000000E+00  0.00000000000E+00  0.26913655941E+04  0.26913655941E+04  0.00000000000E+00 0. -1.
         -1   -1    0    0    0  501 -0.00000000000E+00 -0.00000000000E+00 -0.71047155324E+03  0.71047155324E+03  0.00000000000E+00 0.  1.
    9000010    2    1    2  502    0  0.22531408372E+03  0.90242067905E+03  0.11314161522E+04  0.17906317275E+04  0.10301116230E+04 0.  0.
   -9000010    2    1    2    0  501 -0.22531408372E+03 -0.90242067905E+03  0.84947788868E+03  0.16112054198E+04  0.10046097268E+04 0.  0.
        -13    1    3    3    0    0 -0.36513672220E+02  0.95122089573E+03  0.43805583620E+03  0.10478775537E+04  0.10566000000E+00 0.  1.
         13    1    4    4    0    0  0.37230869029E+03 -0.48068100269E+03  0.22126886402E+03  0.64701461233E+03  0.10566000000E+00 0. -1.
          4    1    3    3  502    0  0.26182775594E+03 -0.48800216681E+02  0.69336031598E+03  0.74275417380E+03  0.00000000000E+00 0.  1.
         -4    1    4    4    0  501 -0.59762277402E+03 -0.42173967636E+03  0.62820902466E+03  0.96419080752E+03  0.00000000000E+00 0. -1.
</event>
<event>
 8    1  0.7096247E-006  0.1249218E+04  0.7818608E-02  0.8570394E-01
         -1   -1    0    0    0  501 -0.00000000000E+00  0.00000000000E+00  0.29383573067E+04  0.29383573067E+04  0.00000000000E+00 0.  1.
          1   -1    0    0  502    0  0.00000000000E+00 -0.00000000000E+00 -0.69609341296E+03  0.69609341296E+03  0.00000000000E+00 0. -1.
    9000010    2    1    2  502    0 -0.40841529879E+03 -0.62171510415E+03  0.24267462459E+03  0.12814787579E+04  0.10148714729E+04 0.  0.
   -9000010    2    1    2    0  501  0.40841529879E+03  0.62171510415E+03  0.19995892691E+04  0.23529719618E+04  0.99236438906E+03 0.  0.
        -13    1    3    3    0    0 -0.34537993189E+03 -0.88524546352E+03  0.54917660533E+02  0.95182077549E+03  0.10566000000E+00 0.  1.
         13    1    4    4    0    0  0.71503680575E+03  0.51006591167E+03  0.11815073848E+04  0.14722107795E+04  0.10566000000E+00 0. -1.
          4    1    3    3  502    0 -0.63035366895E+02  0.26353035937E+03  0.18775696406E+03  0.32965798237E+03  0.00000000000E+00 0.  1.
         -4    1    4    4    0  501 -0.30662150696E+03  0.11164919249E+03  0.81808188429E+03  0.88076118223E+03  0.00000000000E+00 0. -1.
</event>
<event>
 8    1  0.7096247E-006  0.1402463E+04  0.7818608E-02  0.8467941E-01
          2   -1    0    0  502    0  0.00000000000E+00  0.00000000000E+00  0.34706039202E+04  0.34706039202E+04  0.00000000000E+00 0.  1.
         -2   -1    0    0    0  501 -0.00000000000E+00 -0.00000000000E+00 -0.11205620315E+04  0.11205620315E+04  0.00000000000E+00 0. -1.
    9000010    2    1    2  502    0  0.93065811246E+03 -0.31579800182E+03  0.27876960588E+04  0.31193622987E+04  0.99665386877E+03 0.  0.
   -9000010    2    1    2    0  501 -0.93065811246E+03  0.31579800182E+03 -0.43765417016E+03  0.14718036530E+04  0.10043962963E+04 0.  0.
        -13    1    3    3    0    0  0.80860012191E+03  0.16794991647E+03  0.21915583509E+04  0.23420011418E+04  0.10566000000E+00 0.  1.
         13    1    4    4    0    0  0.20516956513E+03 -0.50527365797E+02 -0.79808026717E+02  0.22586920428E+03  0.10566000000E+00 0. -1.
          4    1    3    3  502    0  0.12205799056E+03 -0.48374791829E+03  0.59613770789E+03  0.77736115691E+03  0.00000000000E+00 0.  1.
         -4    1    4    4    0  501 -0.11358276776E+04  0.36632536762E+03 -0.35784614344E+03  0.12459344487E+04  0.00000000000E+00 0. -1.
</event>
<event>
 8    1  0.7096247E-006  0.1223254E+04  0.7818608E-02  0.8589254E-01
         -2   -1    0    0    0  501 -0.00000000000E+00  0.00000000000E+00  0.27232228022E+04  0.27232228022E+04  0.00000000000E+00 0. -1.
          2   -1    0    0  502    0  0.00000000000E+00 -0.00000000000E+00 -0.66157077218E+03  0.66157077218E+03  0.00000000000E+00 0.  1.
    9000010    2    1    2  502    0 -0.66423155385E+03 -0.25113221293E+03  0.33158251312E+03  0.12637756971E+04  0.99141873293E+03 0.  0.
   -9000010    2    1    2    0  501  0.66423155385E+03  0.25113221293E+03  0.17300695169E+04  0.21210178773E+04  0.10006524657E+04 0.  0.
        -13    1    3    3    0    0 -0.86446283801E+03  0.31955790038E+02  0.17162174955E+03  0.88191337835E+03  0.10566000000E+00 0.  1.
         13    1    4    4    0    0 -0.61476545234E+02 -0.27365301241E+03  0.71114894568E+03  0.76445939782E+03  0.10566000000E+00 0. -1.
          4    1    3    3  502    0  0.20023128416E+03 -0.28308800297E+03  0.15996076357E+03  0.38186231872E+03  0.00000000000E+00 0.  1.
         -4    1    4    4    0  501  0.72570809909E+03  0.52478522533E+03  0.10189205712E+04  0.13565584795E+04  0.00000000000E+00 0. -1.
</event>
<event>
 8    1  0.7096247E-006  0.1526166E+04  0.7818608E-02  0.8394597E-01
         -2   -1    0    0    0  501 -0.00000000000E+00  0.00000000000E+00  0.74106390102E+03  0.74106390102E+03  0.00000000000E+00 0.  1.
          2   -1    0    0  502    0  0.00000000000E+00 -0.00000000000E+00 -0.32294026223E+04  0.32294026223E+04  0.00000000000E+00 0. -1.
    9000010    2    1    2  502    0 -0.67506971479E+03 -0.91031112711E+03 -0.91337812489E+03  0.17718358577E+04  0.10103253138E+04 0.  0.
   -9000010    2    1    2    0  501  0.67506971479E+03  0.91031112711E+03 -0.15749605964E+04  0.21986306656E+04  0.10339683050E+04 0.  0.
        -13    1    3    3    0    0 -0.14429746517E+03  0.95920102737E+02  0.13896444314E+03  0.22211157598E+03  0.10566000000E+00 0.  1.
         13    1    4    4    0    0 -0.24600150406E+03  0.86151664654E+02 -0.11262856610E+03  0.28394375216E+03  0.10566000000E+00 0. -1.
          4    1    3    3  502    0 -0.53077224962E+03 -0.10062312298E+04 -0.10523425680E+04  0.15497242817E+04  0.00000000000E+00 0.  1.
         -4    1    4    4    0  501  0.92107121885E+03  0.82415946246E+03 -0.14623320303E+04  0.19146869135E+04  0.00000000000E+00 0. -1.
</event>
<event>
 8    1  0.7096247E-006  0.1147120E+04  0.7818608E-02  0.8647483E-01
         -1   -1    0    0    0  501 -0.00000000000E+00  0.00000000000E+00  0.19658775517E+04  0.19658775517E+04  0.00000000000E+00 0. -1.
          1   -1    0    0  502    0  0.00000000000E+00 -0.00000000000E+00 -0.68452934535E+03  0.68452934535E+03  0.00000000000E+00 0.  1.
    9000010    2    1    2  502    0  0.40196424395E+03 -0.56377249308E+03  0.42252361038E+03  0.11616710819E+04  0.83158813352E+03 0.  0.
   -9000010    2    1    2    0  501 -0.40196424395E+03  0.56377249308E+03  0.85882459601E+03  0.14887358152E+04  0.99966992722E+03 0.  0.
        -13    1    3    3    0    0  0.13825624258E+03  0.20884078292E+03  0.19459267138E+02  0.25121292853E+03  0.10566000000E+00 0.  1.
         13    1    4    4    0    0 -0.69759015527E+03  0.51781975144E+03  0.43947805781E+03  0.97360684784E+03  0.10566000000E+00 0. -1.
          4    1    3    3  502    0  0.26370800137E+03 -0.77261327599E+03  0.40306434324E+03  0.91045815336E+03  0.00000000000E+00 0.  1.
         -4    1    4    4    0  501  0.29562591132E+03  0.45952741638E+02  0.41934653820E+03  0.51512896736E+03  0.00000000000E+00 0. -1.
</event>
<event>
 8    1  0.7096247E-006  0.1244725E+04  0.7818608E-02  0.8573623E-01
          1   -1    0    0  502    0  0.00000000000E+00  0.00000000000E+00  0.10250749786E+04  0.10250749786E+04  0.00000000000E+00 0.  1.
         -1   -1    0    0    0  501 -0.00000000000E+00 -0.00000000000E+00 -0.17489803670E+04  0.17489803670E+04  0.00000000000E+00 0. -1.
    9000010    2    1    2  502    0  0.60498872114E+03  0.45275912922E+03  0.15168757966E+03  0.12436906036E+04  0.97609170365E+03 0.  0.
   -9000010    2    1    2    0  501 -0.60498872114E+03 -0.45275912922E+03 -0.87559296805E+03  0.15303647420E+04  0.10021731467E+04 0.  0.
        -13    1    3    3    0    0  0.98365540725E+02  0.72756691394E+02  0.50424051271E+03  0.51887168122E+03  0.10566000000E+00 0.  1.
         13    1    4    4    0    0  0.46009972170E+01 -0.14542566686E+03  0.20548316961E+03  0.25177993946E+03  0.10566000000E+00 0. -1.
          4    1    3    3  502    0  0.50662318042E+03  0.38000243782E+03 -0.35255293305E+03  0.72481892242E+03  0.00000000000E+00 0.  1.
         -4    1    4    4    0  501 -0.60958971836E+03 -0.30733346235E+03 -0.10810761377E+04  0.12785848025E+04  0.00000000000E+00 0. -1.
</event>
<event>
 8    1  0.7096247E-006  0.1198570E+04  0.7818608E-02  0.8607640E-01
         -2   -1    0    0    0  501 -0.00000000000E+00  0.00000000000E+00  0.18893909351E+04  0.18893909351E+04  0.00000000000E+00 0. -1.
          2   -1    0    0  502    0  0.00000000000E+00 -0.00000000000E+00 -0.90406991275E+03  0.90406991275E+03  0.00000000000E+00 0.  1.
    9000010    2    1    2  502    0 -0.52098265522E+03 -0.40263498378E+03 -0.59176735240E+02  0.12141231564E+04  0.10183591192E+04 0.  0.
   -9000010    2    1    2    0  501  0.52098265522E+03  0.40263498378E+03  0.10444977576E+04  0.15793376915E+04  0.98478125536E+03 0.  0.
        -13    1    3    3    0    0 -0.60171549263E+03  0.14133542724E+03 -0.19416117537E+03  0.64787021096E+03  0.10566000000E+00 0.  1.
         13    1    4    4    0    0  0.63387955029E+03 -0.21127576485E+02  0.27002313105E+03  0.68932007169E+03  0.10566000000E+00 0. -1.
          4    1    3    3  502    0  0.80732837410E+02 -0.54397041102E+03  0.13498444013E+03  0.56625294540E+03  0.00000000000E+00 0.  1.
         -4    1    4    4    0  501 -0.11289689507E+03  0.42376256027E+03  0.77447462652E+03  0.89001761978E+03  0.00000000000E+00 0. -1.
</event>
<event>
 8    1  0.7096247E-006  0.1077255E+04  0.7818608E-02  0.8705209E-01
          1   -1    0    0  502    0  0.00000000000E+00  0.00000000000E+00  0.85442218251E+03  0.85442218251E+03  0.00000000000E+00 0.  1.
         -1   -1    0    0    0  501 -0.00000000000E+00 -0.00000000000E+00 -0.17189856786E+04  0.17189856786E+04  0.00000000000E+00 0. -1.
    9000010    2    1    2  502    0 -0.22938158633E+03 -0.31609848711E+03 -0.10228075334E+04  0.14879070877E+04  0.10075703873E+04 0.  0.
   -9000010    2    1    2    0  501  0.22938158633E+03  0.31609848711E+03  0.15824403738E+03  0.10855007734E+04  0.10003682262E+04 0.  0.
        -13    1    3    3    0    0  0.32308475710E+03 -0.37028915152E+03 -0.66723764887E+03  0.82867599654E+03  0.10566000000E+00 0.  1.
         13    1    4    4    0    0 -0.15029850201E+03  0.61619164445E+02 -0.35972330649E+03  0.39469916333E+03  0.10566000000E+00 0. -1.
          4    1    3    3  502    0 -0.55246634343E+03  0.54190664418E+02 -0.35556988458E+03  0.65923109116E+03  0.00000000000E+00 0.  1.
         -4    1    4    4    0  501  0.37968008834E+03  0.25447932266E+03  0.51796734387E+03  0.69080161006E+03  0.00000000000E+00 0. -1.
</event>
<event>
 8    1  0.7096247E-006  0.1140530E+04  0.7818608E-02  0.8652743E-01
          2   -1    0    0  502    0  0.00000000000E+00  0.00000000000E+00  0.14142318972E+04  0.14142318972E+04  0.00000000000E+00 0. -1.
         -2   -1    0    0    0  501 -0.00000000000E+00 -0.00000000000E+00 -0.10930932576E+04  0.10930932576E+04  0.00000000000E+00 0.  1.
    9000010    2    1    2  502    0 -0.53687064143E+03 -0.10866759539E+03 -0.33845289701E+03  0.11908405549E+04  0.10017545267E+04 0.  0.
   -9000010    2    1    2    0  501  0.53687064143E+03  0.10866759539E+03  0.65959153652E+03  0.13164845999E+04  0.99901550281E+03 0.  0.
        -13    1    3    3    0    0  0.26865080694E+03  0.13210250366E+03 -0.11704652563E+03  0.32144086217E+03  0.10566000000E+00 0.  1.
         13    1    4    4    0    0  0.53214157143E+03 -0.84353523813E+00 -0.10641250684E+03  0.54267761735E+03  0.10566000000E+00 0. -1.
          4    1    3    3  502    0 -0.80552144837E+03 -0.24077009906E+03 -0.22140637138E+03  0.86939969270E+03  0.00000000000E+00 0.  1.
         -4    1    4    4    0  501  0.47290700025E+01  0.10951113063E+03  0.76600404336E+03  0.77380698257E+03  0.00000000000E+00 0. -1.
</event>
<event>
 8    1  0.7096247E-006  0.1062172E+04  0.7818608E-02  0.8718272E-01
         -1   -1    0    0    0  501 -0.00000000000E+00  0.00000000000E+00  0.29839196437E+04  0.29839196437E+04  0.00000000000E+00 0. -1.
          1   -1    0    0  502    0  0.00000000000E+00 -0.00000000000E+00 -0.37883487393E+03  0.37883487393E+03  0.00000000000E+00 0.  1.
    9000010    2    1    2  502    0 -0.15096601569E+03  0.31580199989E+03  0.12244801971E+04  0.16188398701E+04  0.99938437592E+03 0.  0.
   -9000010    2    1    2    0  501  0.15096601569E+03 -0.31580199989E+03  0.13806045727E+04  0.17439146475E+04  0.10063039654E+04 0.  0.
        -13    1    3    3    0    0  0.37691170950E+03  0.22510089169E+03  0.87596896587E+03  0.97982370278E+03  0.10566000000E+00 0.  1.
         13    1    4    4    0    0 -0.86392397342E+02 -0.26277845451E+03  0.14616218084E+04  0.14875666320E+04  0.10566000000E+00 0. -1.
          4    1    3    3  502    0 -0.52787772519E+03  0.90701108202E+02  0.34851123127E+03  0.63901616732E+03  0.00000000000E+00 0.  1.
         -4    1    4    4    0  501  0.23735841303E+03 -0.53023545380E+02 -0.81017235776E+02  0.25634801558E+03  0.00000000000E+00 0. -1.
</event>
<event>
 8    1  0.7096247E-006  0.1027250E+04  0.7818608E-02  0.8749401E-01
         -2   -1    0    0    0  501 -0.00000000000E+00  0.00000000000E+00  0.91001346565E+03  0.91001346565E+03  0.00000000000E+00 0.  1.
          2   -1    0    0  502    0  0.00000000000E+00 -0.00000000000E+00 -0.14496482417E+04  0.14496482417E+04  0.00000000000E+00 0. -1.
    9000010    2    1    2  502    0 -0.18980686066E+03 -0.20198783744E+03  0.25820763490E+03  0.10579404183E+04  0.98779603924E+03 0.  0.
   -9000010    2    1    2    0  501  0.18980686066E+03  0.20198783744E+03 -0.79784241095E+03  0.13017212890E+04  0.99050495747E+03 0.  0.
        -13    1    3    3    0    0 -0.59071882860E+02  0.33354442887E+03  0.36333909731E+03  0.49674609629E+03  0.10566000000E+00 0.  1.
         13    1    4    4    0    0  0.78190980320E+02 -0.24301129389E+03  0.11506571035E+03  0.28001508392E+03  0.10566000000E+00 0. -1.
          4    1    3    3  502    0 -0.13073497780E+03 -0.53553226631E+03 -0.10513146241E+03  0.56119432202E+03  0.00000000000E+00 0.  1.
         -4    1    4    4    0  501  0.11161588034E+03  0.44499913133E+03 -0.91290812130E+03  0.10217062051E+04  0.00000000000E+00 0. -1.
</event>
<event>
 8    1  0.7096247E-006  0.1094508E+04  0.7818608E-02  0.8690537E-01
         -2   -1    0    0    0  501 -0.00000000000E+00  0.00000000000E+00  0.13815359554E+04  0.13815359554E+04  0.00000000000E+00 0.  1.
          2   -1    0    0  502    0  0.00000000000E+00 -0.00000000000E+00 -0.10906637066E+04  0.10906637066E+04  0.00000000000E+00 0. -1.
    9000010    2    1    2  502    0  0.10366280739E+03  0.46432260832E+03 -0.41649645203E+03  0.11404496146E+04  0.94911251525E+03 0.  0.
   -9000010    2    1    2    0  501 -0.10366280739E+03 -0.46432260832E+03  0.70736870081E+03  0.13317500475E+04  0.10231550459E+04 0.  0.
        -13    1    3    3    0    0  0.40570696923E+03  0.55750906744E+03 -0.10643167929E+03  0.69766913267E+03  0.10566000000E+00 0.  1.
         13    1    4    4    0    0  0.18784720522E+03  0.14376335713E+03  0.60509701913E+03  0.64968984068E+03  0.10566000000E+00 0. -1.
          4    1    3    3  502    0 -0.30204416184E+03 -0.93186459119E+02 -0.31006477274E+03  0.44278048191E+03  0.00000000000E+00 0.  1.
         -4    1    4    4    0  501 -0.29151001261E+03 -0.60808596545E+03  0.10227168169E+03  0.68206020680E+03  0.00000000000E+00 0. -1.
</event>
<event>
 8    1  0.7096247E-006  0.1195275E+04  0.7818608E-02  0.8610129E-01
          1   -1    0    0  502    0  0.00000000000E+00  0.00000000000E+00  0.14499888651E+04  0.14499888651E+04  0.00000000000E+00 0.  1.
         -1   -1    0    0    0  501 -0.00000000000E+00 -0.00000000000E+00 -0.99321738940E+03  0.99321738940E+03  0.00000000000E+00 0. -1.
    9000010    2    1    2  502    0  0.28811119691E+03 -0.62295808133E+03  0.33890940632E+03  0.12529319327E+04  0.99191431562E+03 0.  0.
   -9000010    2    1    2    0  501 -0.28811119691E+03  0.62295808133E+03  0.11786206935E+03  0.11902743217E+04  0.96528579224E+03 0.  0.
        -13    1    3    3    0    0  0.44563406544E+03  0.56548267022E+02 -0.53861318964E+02  0.45242510941E+03  0.10566000000E+00 0.  1.
         13    1    4    4    0    0 -0.22681571593E+03  0.96706661075E+02 -0.38671518123E+03  0.45863513804E+03  0.10566000000E+00 0. -1.
          4    1    3    3  502    0 -0.15752286853E+03 -0.67950634836E+03  0.39277072529E+03  0.80050682334E+03  0.00000000000E+00 0.  1.
         -4    1    4    4    0  501 -0.61295480988E+02  0.52625142026E+03  0.50457725058E+03  0.73163918369E+03  0.00000000000E+00 0. -1.
</event>
<event>
 8    1  0.7096247E-006  0.1123896E+04  0.7818608E-02  0.8666185E-01
          2   -1    0    0  502    0  0.00000000000E+00  0.00000000000E+00  0.14620746923E+04  0.14620746923E+04  0.00000000000E+00 0.  1.
         -2   -1    0    0    0  501 -0.00000000000E+00 -0.00000000000E+00 -0.10973318611E+04  0.10973318611E+04  0.00000000000E+00 0. -1.
    9000010    2    1    2  502    0  0.39949000283E+03 -0.31309584413E+03 -0.40813944810E+03  0.11932295023E+04  0.99979876277E+03 0.  0.
   -9000010    2    1    2    0  501 -0.39949000283E+03  0.31309584413E+03  0.77288227935E+03  0.13661770511E+04  0.10057193680E+04 0.  0.
        -13    1    3    3    0    0  0.67023831392E+03 -0.30178798306E+03 -0.40035238576E+02  0.73613736195E+03  0.10566000000E+00 0.  1.
         13    1    4    4    0    0 -0.52425941457E+03 -0.58537559639E-01  0.13972990020E+01  0.52426129058E+03  0.10566000000E+00 0. -1.
          4    1    3    3  502    0 -0.27074831109E+03 -0.11307861075E+02 -0.36810420952E+03  0.45709214033E+03  0.00000000000E+00 0.  1.
         -4    1    4    4    0  501  0.12476941175E+03  0.31315438169E+03  0.77148498035E+03  0.84191576050E+03  0.00000000000E+00 0. -1.
</event>
<event>
 8    1  0.7096247E-006  0.1115557E+04  0.7818608E-02  0.8673016E-01
         -2   -1    0    0    0  501 -0.00000000000E+00  0.00000000000E+00  0.88354844076E+03  0.88354844076E+03  0.00000000000E+00 0. -1.
          2   -1    0    0  502    0  0.00000000000E+00 -0.00000000000E+00 -0.18484066566E+04  0.18484066566E+04  0.00000000000E+00 0.  1.
    9000010    2    1    2  502    0  0.17983191040E+03  0.42792089822E+03 -0.11476220126E+04  0.15979629693E+04  0.10104422577E+04 0.  0.
   -9000010    2    1    2    0  501 -0.17983191040E+03 -0.42792089822E+03  0.18276379672E+03  0.11339921281E+04  0.10183711161E+04 0.  0.
        -13    1    3    3    0    0  0.20959183183E+03  0.44266411603E+03 -0.13275395158E+04  0.14150058066E+04  0.10566000000E+00 0.  1.
         13    1    4    4    0    0 -0.37380063323E+03 -0.69839406801E+02 -0.31292348869E+03  0.49246885900E+03  0.10566000000E+00 0. -1.
          4    1    3    3  502    0 -0.29759921433E+02 -0.14743217807E+02  0.17991750321E+03  0.18295716263E+03  0.00000000000E+00 0.  1.
         -4    1    4    4    0  501  0.19396872283E+03 -0.35808149142E+03  0.49568728541E+03  0.64152326914E+03  0.00000000000E+00 0. -1.
</event>
<event>
 8    1  0.7096247E-006  0.1808921E+04  0.7818608E-02  0.8250964E-01
          2   -1    0    0  502    0  0.00000000000E+00  0.00000000000E+00  0.28753582316E+04  0.28753582316E+04  0.00000000000E+00 0.  1.
         -2   -1    0    0    0  501 -0.00000000000E+00 -0.00000000000E+00 -0.12521935463E+04  0.12521935463E+04  0.00000000000E+00 0. -1.
    9000010    2    1    2  502    0  0.12861045543E+04 -0.61891138045E+03  0.16667144019E+03  0.17544886955E+04  0.10066454153E+04 0.  0.
   -9000010    2    1    2    0  501 -0.12861045543E+04  0.61891138045E+03  0.14564932451E+04  0.23730630824E+04  0.12136472299E+04 0.  0.
        -13    1    3    3    0    0  0.13782099326E+04 -0.54654606925E+03  0.36250528464E+03  0.15262979121E+04  0.10566000000E+00 0.  1.
         13    1    4    4    0    0  0.13321604000E+03 -0.25465591713E+02 -0.10134076292E+03  0.16930732728E+03  0.10566000000E+00 0. -1.
          4    1    3    3  502    0 -0.92105378276E+02 -0.72365311196E+02 -0.19583384444E+03  0.22819078334E+03  0.00000000000E+00 0.  1.
         -4    1    4    4    0  501 -0.14193205943E+04  0.64437697216E+03  0.15578340081E+04  0.22037557551E+04  0.00000000000E+00 0. -1.
</event>
<event>
 8    1  0.7096247E-006  0.1116597E+04  0.7818608E-02  0.8672161E-01
         -2   -1    0    0    0  501 -0.00000000000E+00  0.00000000000E+00  0.22735984059E+04  0.22735984059E+04  0.00000000000E+00 0.  1.
          2   -1    0    0  502    0  0.00000000000E+00 -0.00000000000E+00 -0.57237895720E+03  0.57237895720E+03  0.00000000000E+00 0. -1.
    9000010    2    1    2  502    0  0.44437107213E+03  0.37347753242E+02  0.11199878903E+04  0.15625765048E+04  0.99418909394E+03 0.  0.
   -9000010    2    1    2    0  501 -0.44437107213E+03 -0.37347753242E+02  0.58123155839E+03  0.12834008583E+04  0.10537680647E+04 0.  0.
        -13    1    3    3    0    0  0.69148479738E+03  0.11657099533E+02  0.11174157634E+04  0.13141176174E+04  0.10566000000E+00 0.  1.
         13    1    4    4    0    0 -0.11030405730E+03  0.47907283898E+03  0.42244720851E+03  0.64818162983E+03  0.10566000000E+00 0. -1.
          4    1    3    3  502    0 -0.24711372525E+03  0.25690653709E+02  0.25721269489E+01  0.24845888741E+03  0.00000000000E+00 0.  1.
         -4    1    4    4    0  501 -0.33406701483E+03 -0.51642059222E+03  0.15878434988E+03  0.63521922848E+03  0.00000000000E+00 0. -1.
</event>
<event>
 8    1  0.7096247E-006  0.1108924E+04  0.7818608E-02  0.8678494E-01
          1   -1    0    0  502    0  0.00000000000E+00  0.00000000000E+00  0.14059286629E+04  0.14059286629E+04  0.00000000000E+00 0. -1.
         -1   -1    0    0    0  501 -0.00000000000E+00 -0.00000000000E+00 -0.87505914938E+03  0.87505914938E+03  0.00000000000E+00 0.  1.
    9000010    2    1    2  502    0 -0.44317262201E+03  0.18492656479E+03  0.24160403308E+03  0.11365947373E+04  0.10014366085E+04 0.  0.
   -9000010    2    1    2    0  501  0.44317262201E+03 -0.18492656479E+03  0.28926548043E+03  0.11443930749E+04  0.99767789618E+03 0.  0.
        -13    1    3    3    0    0 -0.15463288702E+03 -0.30383848282E+02 -0.38384180985E+03  0.41493258987E+03  0.10566000000E+00 0.  1.
         13    1    4    4    0    0 -0.25143482129E+03 -0.13687195039E+03  0.34215382066E+03  0.44611954487E+03  0.10566000000E+00 0. -1.
          4    1    3    3  502    0 -0.28853973499E+03  0.21531041307E+03  0.62544584293E+03  0.72166214746E+03  0.00000000000E+00 0.  1.
         -4    1    4    4    0  501  0.69460744329E+03 -0.48054614394E+02 -0.52888340235E+02  0.69827353006E+03  0.00000000000E+00 0. -1.
</event>
<event>
 8    1  0.7096247E-006  0.1350135E+04  0.7818608E-02  0.8501343E-01
         -4   -1    0    0    0  501 -0.00000000000E+00  0.00000000000E+00  0.27277812014E+04  0.27277812014E+04  0.00000000000E+00 0. -1.
          4   -1    0    0  502    0  0.00000000000E+00 -0.00000000000E+00 -0.15473418798E+04  0.15473418798E+04  0.00000000000E+00 0.  1.
    9000010    2    1    2  502    0  0.33732208726E+03  0.86179240532E+03 -0.10196126592E+04  0.16974356938E+04  0.99257524609E+03 0.  0.
   -9000010    2    1    2    0  501 -0.33732208726E+03 -0.86179240532E+03  0.22000519808E+04  0.25776873874E+04  0.97353541729E+03 0.  0.
        -13    1    3    3    0    0  0.95172649452E+02  0.10096946223E+04 -0.56332661553E+03  0.11601198000E+04  0.10566000000E+00 0.  1.
         13    1    4    4    0    0  0.32087297677E+02 -0.41849292169E+03  0.14642413419E+03  0.44452891741E+03  0.10566000000E+00 0. -1.
          4    1    3    3  502    0  0.24214943781E+03 -0.14790221694E+03 -0.45628604370E+03  0.53731589376E+03  0.00000000000E+00 0.  1.
         -4    1    4    4    0  501 -0.36940938494E+03 -0.44329948363E+03  0.20536278466E+04  0.21331584700E+04  0.00000000000E+00 0. -1.
</event>
<event>
 8    1  0.7096247E-006  0.1436997E+04  0.7818608E-02  0.8446706E-01
         -2   -1    0    0    0  501 -0.00000000000E+00  0.00000000000E+00  0.61839574877E+03  0.61839574877E+03  0.00000000000E+00 0. -1.
          2   -1    0    0  502    0  0.00000000000E+00 -0.00000000000E+00 -0.34258659783E+04  0.34258659783E+04  0.00000000000E+00 0.  1.
    9000010    2    1    2  502    0 -0.75269131245E+03  0.71165411457E+03 -0.10912487594E+04  0.18117966634E+04  0.10093500404E+04 0.  0.
   -9000010    2    1    2    0  501  0.75269131245E+03 -0.71165411457E+03 -0.17162214701E+04  0.22324650636E+04  0.98259265994E+03 0.  0.
        -13    1    3    3    0    0 -0.81585346677E+03  0.50095401189E+03 -0.12247144721E+04  0.15545087168E+04  0.10566000000E+00 0.  1.
         13    1    4    4    0    0  0.51827644238E+03 -0.68929248803E+03 -0.50671133891E+03  0.10002454683E+04  0.10566000000E+00 0. -1.
          4    1    3    3  502    0  0.63162154314E+02  0.21070010268E+03  0.13346571268E+03  0.25728794661E+03  0.00000000000E+00 0.  1.
         -4    1    4    4    0  501  0.23441487007E+03 -0.22361626538E+02 -0.12095101312E+04  0.12322195953E+04  0.00000000000E+00 0. -1.
</event>
<event>
 8    1  0.7096247E-006  0.1087070E+04  0.7818608E-02  0.8696828E-01
          2   -1    0    0  502    0  0.00000000000E+00  0.00000000000E+00  0.27959990510E+04  0.27959990510E+04  0.00000000000E+00 0.  1.
         -2   -1    0    0    0  501 -0.00000000000E+00 -0.00000000000E+00 -0.43722381426E+03  0.43722381426E+03  0.00000000000E+00 0. -1.
    9000010    2    1    2  502    0  0.98008701827E+02  0.39555674219E+03  0.14824608200E+04  0.18429245681E+04  0.10161742168E+04 0.  0.
   -9000010    2    1    2    0  501 -0.98008701827E+02 -0.39555674219E+03  0.87631441677E+03  0.13902982972E+04  0.99946563533E+03 0.  0.
        -13    1    3    3    0    0  0.41924597103E+03 -0.12175297353E+03  0.35969753608E+03  0.56566182425E+03  0.10566000000E+00 0.  1.
         13    1    4    4    0    0 -0.13490674123E+03 -0.72935280122E+03  0.56548016648E+03  0.93269671776E+03  0.10566000000E+00 0. -1.
          4    1    3    3  502    0 -0.32123726921E+03  0.51730971571E+03  0.11227632839E+04  0.12772627438E+04  0.00000000000E+00 0.  1.
         -4    1    4    4    0  501  0.36898039399E+02  0.33379605904E+03  0.31083425030E+03  0.45760157943E+03  0.00000000000E+00 0. -1.
</event>
<event>
 8    1  0.7096247E-006  0.1361423E+04  0.7818608E-02  0.8494008E-01
          2   -1    0    0  502    0  0.00000000000E+00  0.00000000000E+00  0.16128118959E+04  0.16128118959E+04  0.00000000000E+00 0.  1.
         -2   -1    0    0    0  501 -0.00000000000E+00 -0.00000000000E+00 -0.11632999665E+04  0.11632999665E+04  0.00000000000E+00 0. -1.
    9000010    2    1    2  502    0  0.82729057050E+03 -0.35517665242E+03  0.37244447804E+03  0.13910690464E+04  0.99287363752E+03 0.  0.
   -9000010    2    1    2    0  501 -0.82729057050E+03  0.35517665242E+03  0.77067451379E+02  0.13850428160E+04  0.10496876048E+04 0.  0.
        -13    1    3    3    0    0  0.26495844433E+03 -0.61973712238E+03  0.15041995047E+02  0.67416863680E+03  0.10566000000E+00 0.  1.
         13    1    4    4    0    0 -0.40801258409E+03  0.51759942494E+03  0.45234433430E+03  0.79937403098E+03  0.10566000000E+00 0. -1.
          4    1    3    3  502    0  0.56233212617E+03  0.26456046995E+03  0.35740248300E+03  0.71690040957E+03  0.00000000000E+00 0.  1.
         -4    1    4    4    0  501 -0.41927798641E+03 -0.16242277252E+03 -0.37527688292E+03  0.58566878505E+03  0.00000000000E+00 0. -1.
</event>
<event>
 8    1  0.7096247E-006  0.1511021E+04  0.7818608E-02  0.8403185E-01
          1   -1    0    0  502    0  0.00000000000E+00  0.00000000000E+00  0.74763883847E+03  0.74763883847E+03  0.00000000000E+00 0. -1.
         -1   -1    0    0    0  501 -0.00000000000E+00 -0.00000000000E+00 -0.30787588786E+04  0.30787588786E+04  0.00000000000E+00 0.  1.
    9000010    2    1    2  502    0  0.11562222805E+04  0.29119106428E+03 -0.96853461160E+03  0.17570692919E+04  0.85298945167E+03 0.  0.
   -9000010    2    1    2    0  501 -0.11562222805E+04 -0.29119106428E+03 -0.13625854285E+04  0.20693284252E+04  0.10019176031E+04 0.  0.
        -13    1    3    3    0    0 -0.90512412559E+02  0.12140415687E+03  0.25480657146E+02  0.15356022006E+03  0.10566000000E+00 0.  1.
         13    1    4    4    0    0 -0.96663395465E+03 -0.57458157920E+03 -0.70117471887E+03  0.13252060938E+04  0.10566000000E+00 0. -1.
          4    1    3    3  502    0  0.12467346931E+04  0.16978690741E+03 -0.99401526874E+03  0.16035090718E+04  0.00000000000E+00 0.  1.
         -4    1    4    4    0  501 -0.18958832587E+03  0.28339051492E+03 -0.66141070962E+03  0.74412233138E+03  0.00000000000E+00 0. -1.
</event>
<event>
 8    1  0.7096247E-006  0.1435902E+04  0.7818608E-02  0.8447371E-01
         -4   -1    0    0    0  501 -0.00000000000E+00  0.00000000000E+00  0.14926559555E+04  0.14926559555E+04  0.00000000000E+00 0. -1.
          4   -1    0    0  502    0  0.00000000000E+00 -0.00000000000E+00 -0.14166138955E+04  0.14166138955E+04  0.00000000000E+00 0.  1.
    9000010    2    1    2  502    0 -0.63850051357E+03 -0.77468260177E+03 -0.19122908522E+03  0.14573485945E+04  0.10389804250E+04 0.  0.
   -9000010    2    1    2    0  501  0.63850051357E+03  0.77468260177E+03  0.26727114519E+03  0.14519212565E+04  0.10143103226E+04 0.  0.
        -13    1    3    3    0    0 -0.64289824286E+03 -0.75938963866E+03 -0.52377323730E+03  0.11244239366E+04  0.10566000000E+00 0.  1.
         13    1    4    4    0    0  0.36705377338E+03  0.54738886078E+03  0.65339322620E+03  0.92805482417E+03  0.10566000000E+00 0. -1.
          4    1    3    3  502    0  0.43977292851E+01 -0.15292963114E+02  0.33254415207E+03  0.33292465788E+03  0.00000000000E+00 0.  1.
         -4    1    4    4    0  501  0.27144674019E+03  0.22729374099E+03 -0.38612208101E+03  0.52386643230E+03  0.00000000000E+00 0. -1.
</event>
<event>
 8    1  0.7096247E-006  0.1386954E+04  0.7818608E-02  0.8477683E-01
          4   -1    0    0  502    0  0.00000000000E+00  0.00000000000E+00  0.30519415341E+04  0.30519415341E+04  0.00000000000E+00 0.  1.
         -4   -1    0    0    0  501 -0.00000000000E+00 -0.00000000000E+00 -0.63039086619E+03  0.63039086619E+03  0.00000000000E+00 0. -1.
    9000010    2    1    2  502    0 -0.95450799941E+03  0.15104130543E+03  0.11869449469E+04  0.18237288331E+04  0.99158940749E+03 0.  0.
   -9000010    2    1    2    0  501  0.95450799941E+03 -0.15104130543E+03  0.12346057211E+04  0.18586035672E+04  0.99812671368E+03 0.  0.
        -13    1    3    3    0    0 -0.39552450473E+03 -0.41494084106E+03  0.36340821719E+03  0.67873491063E+03  0.10566000000E+00 0.  1.
         13    1    4    4    0    0  0.10966818227E+04 -0.29740703167E+03  0.83562495876E+03  0.14104719230E+04  0.10566000000E+00 0. -1.
          4    1    3    3  502    0 -0.55898349467E+03  0.56598214649E+03  0.82353672966E+03  0.11449939225E+04  0.00000000000E+00 0.  1.
         -4    1    4    4    0  501 -0.14217382325E+03  0.14636572624E+03  0.39898076234E+03  0.44813164423E+03  0.00000000000E+00 0. -1.
</event>
<event>
 8    1  0.7096247E-006  0.1082389E+04  0.7818608E-02  0.8700814E-01
         -2   -1    0    0    0  501 -0.00000000000E+00  0.00000000000E+00  0.52127084361E+03  0.52127084361E+03  0.00000000000E+00 0. -1.
          2   -1    0    0  502    0  0.00000000000E+00 -0.00000000000E+00 -0.23936908804E+04  0.23936908804E+04  0.00000000000E+00 0.  1.
    9000010    2    1    2  502    0  0.15754289768E+03 -0.49164184388E+03 -0.12912295048E+04  0.16809086740E+04  0.94427160758E+03 0.  0.
   -9000010    2    1    2    0  501 -0.15754289768E+03  0.49164184388E+03 -0.58119053198E+03  0.12340530500E+04  0.95842215573E+03 0.  0.
        -13    1    3    3    0    0 -0.35653565813E+03 -0.42907327008E+03 -0.69370667689E+03  0.89019689471E+03  0.10566000000E+00 0.  1.
         13    1    4    4    0    0  0.17545550298E+03  0.48605879726E+03  0.51237893266E+02  0.51929097892E+03  0.10566000000E+00 0. -1.
          4    1    3    3  502    0  0.51407855582E+03 -0.62568573795E+02 -0.59752282790E+03  0.79071177925E+03  0.00000000000E+00 0.  1.
         -4    1    4    4    0  501 -0.33299840067E+03  0.55830466153E+01 -0.63242842524E+03  0.71476207112E+03  0.00000000000E+00 0. -1.
</event>
<event>
 8    1  0.7096247E-006  0.1584823E+04  0.7818608E-02  0.8362289E-01
          2   -1    0    0  502    0  0.00000000000E+00  0.00000000000E+00  0.21176956666E+04  0.21176956666E+04  0.00000000000E+00 0.  1.
         -2   -1    0    0    0  501 -0.00000000000E+00 -0.00000000000E+00 -0.14335473241E+04  0.14335473241E+04  0.00000000000E+00 0. -1.
    9000010    2    1    2  502    0  0.74888136741E+02  0.12488236367E+04  0.10765713374E+04  0.19018052895E+04  0.94482210298E+03 0.  0.
   -9000010    2    1    2    0  501 -0.74888136741E+02 -0.12488236367E+04 -0.39242299485E+03  0.16494377011E+04  0.10007398335E+04 0.  0.
        -13    1    3    3    0    0 -0.21230515509E+03 -0.65411509220E+02  0.13867296080E+03  0.26188231257E+03  0.10566000000E+00 0.  1.
         13    1    4    4    0    0 -0.54472527606E+02 -0.12662844861E+04 -0.11438443470E+02  0.12675072012E+04  0.10566000000E+00 0. -1.
          4    1    3    3  502    0  0.28719329183E+03  0.13142351459E+04  0.93789837656E+03  0.16399229769E+04  0.00000000000E+00 0.  1.
         -4    1    4    4    0  501 -0.20415609136E+02  0.17460849423E+02 -0.38098455138E+03  0.38193049990E+03  0.00000000000E+00 0. -1.
</event>
<event>
 8    1  0.7096247E-006  0.1542421E+04  0.7818608E-02  0.8385496E-01
          2   -1    0    0  502    0  0.00000000000E+00  0.00000000000E+00  0.27922130219E+04  0.27922130219E+04  0.00000000000E+00 0.  1.
         -2   -1    0    0    0  501 -0.00000000000E+00 -0.00000000000E+00 -0.90945831305E+03  0.90945831305E+03  0.00000000000E+00 0. -1.
    9000010    2    1    2  502    0  0.53413291010E+02 -0.11406479649E+04  0.13935436088E+04  0.20630303652E+04  0.10050869308E+04 0.  0.
   -9000010    2    1    2    0  501 -0.53413291010E+02  0.11406479649E+04  0.48921110006E+03  0.16386409697E+04  0.10685906455E+04 0.  0.
        -13    1    3    3    0    0  0.47262034274E+03 -0.26485241327E+03  0.39682005585E+03  0.67155264654E+03  0.10566000000E+00 0.  1.
         13    1    4    4    0    0  0.48448932295E+03  0.69967630971E+03  0.14768620019E+03  0.86376389558E+03  0.10566000000E+00 0. -1.
          4    1    3    3  502    0 -0.41920705173E+03 -0.87579555167E+03  0.99672355290E+03  0.13914777186E+04  0.00000000000E+00 0.  1.
         -4    1    4    4    0  501 -0.53790261396E+03  0.44097165524E+03  0.34152489987E+03  0.77487707416E+03  0.00000000000E+00 0. -1.
</event>
<event>
 8    1  0.7096247E-006  0.1206600E+04  0.7818608E-02  0.8601609E-01
          4   -1    0    0  502    0  0.00000000000E+00  0.00000000000E+00  0.20597154503E+04  0.20597154503E+04  0.00000000000E+00 0.  1.
         -4   -1    0    0    0  501 -0.00000000000E+00 -0.00000000000E+00 -0.11484233132E+04  0.11484233132E+04  0.00000000000E+00 0. -1.
    9000010    2    1    2  502    0 -0.66600780986E+03 -0.11557538716E+03  0.14490807736E+04  0.18823255525E+04  0.99317185028E+03 0.  0.
   -9000010    2    1    2    0  501  0.66600780986E+03  0.11557538716E+03 -0.53778863645E+03  0.13258132110E+04  0.10058031517E+04 0.  0.
        -13    1    3    3    0    0 -0.55542060200E+03 -0.16618167673E+03  0.15922284881E+04  0.16944910635E+04  0.10566000000E+00 0.  1.
         13    1    4    4    0    0  0.19670892445E+02  0.20877547838E+03  0.23440592763E+03  0.31451596852E+03  0.10566000000E+00 0. -1.
          4    1    3    3  502    0 -0.11058720786E+03  0.50606289570E+02 -0.14314771449E+03  0.18783448898E+03  0.00000000000E+00 0.  1.
         -4    1    4    4    0  501  0.64633691742E+03 -0.93200091223E+02 -0.77219456408E+03  0.10112972425E+04  0.00000000000E+00 0. -1.
</event>
<event>
 8    1  0.7096247E-006  0.1523288E+04  0.7818608E-02  0.8396222E-01
          2   -1    0    0  502    0  0.00000000000E+00  0.00000000000E+00  0.28432284935E+04  0.28432284935E+04  0.00000000000E+00 0. -1.
         -2   -1    0    0    0  501 -0.00000000000E+00 -0.00000000000E+00 -0.81653270661E+03  0.81653270661E+03  0.00000000000E+00 0.  1.
    9000010    2    1    2  502    0  0.81095825094E+03 -0.76574584369E+03  0.98110000860E+03  0.18208611955E+04  0.10530708830E+04 0.  0.
   -9000010    2    1    2    0  501 -0.81095825094E+03  0.76574584369E+03  0.10455957783E+04  0.18389000045E+04  0.10218917327E+04 0.  0.
        -13    1    3    3    0    0  0.58773488480E+03 -0.38787271584E+03 -0.44206459901E+02  0.70557193876E+03  0.10566000000E+00 0.  1.
         13    1    4    4    0    0 -0.10381542864E+04  0.52151634723E+03  0.68953203021E+03  0.13509989099E+04  0.10566000000E+00 0. -1.
          4    1    3    3  502    0  0.22322336614E+03 -0.37787312785E+03  0.10253064685E+04  0.11152892568E+04  0.00000000000E+00 0.  1.
         -4    1    4    4    0  501  0.22719603543E+03  0.24422949646E+03  0.35606374807E+03  0.48790109463E+03  0.00000000000E+00 0. -1.
</event>
<event>
 8    1  0.7096247E-006  0.1048902E+04  0.7818608E-02  0.8729952E-01
          4   -1    0    0  502    0  0.00000000000E+00  0.00000000000E+00  0.61299170146E+03  0.61299170146E+03  0.00000000000E+00 0.  1.
         -4   -1    0    0    0  501 -0.00000000000E+00 -0.00000000000E+00 -0.18721681817E+04  0.18721681817E+04  0.00000000000E+00 0. -1.
    9000010    2    1    2  502    0  0.93301826853E+02  0.22411140647E+03 -0.38950601735E+03  0.11376967394E+04  0.10410128625E+04 0.  0.
   -9000010    2    1    2    0  501 -0.93301826853E+02 -0.22411140647E+03 -0.86967046287E+03  0.13474631438E+04  0.10001995083E+04 0.  0.
        -13    1    3    3    0    0 -0.40872626387E+03 -0.79037924716E+02 -0.36021638432E+03  0.55050886189E+03  0.10566000000E+00 0.  1.
         13    1    4    4    0    0  0.15335561957E+03 -0.23095350694E+03  0.13824077000E+03  0.30978700760E+03  0.10566000000E+00 0. -1.
          4    1    3    3  502    0  0.50202809072E+03  0.30314933119E+03 -0.29289633031E+02  0.58718787750E+03  0.00000000000E+00 0.  1.
         -4    1    4    4    0  501 -0.24665744642E+03  0.68421004643E+01 -0.10079112329E+04  0.10376761362E+04  0.00000000000E+00 0. -1.
</event>
<event>
 8    1  0.7096247E-006  0.1085736E+04  0.7818608E-02  0.8697962E-01
          1   -1    0    0  502    0  0.00000000000E+00  0.00000000000E+00  0.14693464552E+04  0.14693464552E+04  0.00000000000E+00 0.  1.
         -1   -1    0    0    0  501 -0.00000000000E+00 -0.00000000000E+00 -0.80658978230E+03  0.80658978230E+03  0.00000000000E+00 0. -1.
    9000010    2    1    2  502    0 -0.26979516836E+03  0.33148682896E+03  0.24589409768E+03  0.11041257204E+04  0.98790523260E+03 0.  0.
   -9000010    2    1    2    0  501  0.26979516836E+03 -0.33148682896E+03  0.41686257525E+03  0.11718105171E+04  0.10083117230E+04 0.  0.
        -13    1    3    3    0    0  0.17432954908E+03  0.52451163787E+03 -0.17245631724E+02  0.55299247095E+03  0.10566000000E+00 0.  1.
         13    1    4    4    0    0  0.17160677390E+03  0.27478069899E+03 -0.13037119069E+03  0.34921336732E+03  0.10566000000E+00 0. -1.
          4    1    3    3  502    0 -0.44412471744E+03 -0.19302480891E+03  0.26313972941E+03  0.55113324949E+03  0.00000000000E+00 0.  1.
         -4    1    4    4    0  501  0.98188394451E+02 -0.60626752795E+03  0.54723376594E+03  0.82259714978E+03  0.00000000000E+00 0. -1.
</event>
<event>
 8    1  0.7096247E-006  0.1122652E+04  0.7818608E-02  0.8667200E-01
          1   -1    0    0  502    0  0.00000000000E+00  0.00000000000E+00  0.22599555631E+04  0.22599555631E+04  0.00000000000E+00 0. -1.
         -1   -1    0    0    0  501 -0.00000000000E+00 -0.00000000000E+00 -0.57888797058E+03  0.57888797058E+03  0.00000000000E+00 0.  1.
    9000010    2    1    2  502    0 -0.20560201256E+03 -0.46259205115E+03  0.56835639904E+03  0.12576560136E+04  0.10012023067E+04 0.  0.
   -9000010    2    1    2    0  501  0.20560201256E+03  0.46259205115E+03  0.11127111934E+04  0.15811875200E+04  0.10028779488E+04 0.  0.
        -13    1    3    3    0    0  0.29261809397E+02 -0.61949572448E+03 -0.31133898851E+01  0.62019425223E+03  0.10566000000E+00 0.  1.
         13    1    4    4    0    0  0.28205828496E+03 -0.11974761334E+03  0.90943052427E+03  0.95966674250E+03  0.10566000000E+00 0. -1.
          4    1    3    3  502    0 -0.23486382196E+03  0.15690367333E+03  0.57146978893E+03  0.63746176139E+03  0.00000000000E+00 0.  1.
         -4    1    4    4    0  501 -0.76456272394E+02  0.58233966449E+03  0.20328066916E+03  0.62152077752E+03  0.00000000000E+00 0. -1.
</event>
<event>
 8    1  0.7096247E-006  0.1247005E+04  0.7818608E-02  0.8571983E-01
          2   -1    0    0  502    0  0.00000000000E+00  0.00000000000E+00  0.12548189578E+04  0.12548189578E+04  0.00000000000E+00 0. -1.
         -2   -1    0    0    0  501 -0.00000000000E+00 -0.00000000000E+00 -0.15016259881E+04  0.15016259881E+04  0.00000000000E+00 0.  1.
    9000010    2    1    2  502    0  0.36833661803E+03  0.66678787601E+03  0.45351763964E+03  0.13161230824E+04  0.97274034699E+03 0.  0.
   -9000010    2    1    2    0  501 -0.36833661803E+03 -0.66678787601E+03 -0.70032467002E+03  0.14403218636E+04  0.10018954493E+04 0.  0.
        -13    1    3    3    0    0  0.26001156490E+03  0.64487285355E+03  0.73617295532E+03  0.10126290745E+04  0.10566000000E+00 0.  1.
         13    1    4    4    0    0  0.48193721059E+02 -0.81449578286E+03 -0.43066193256E+03  0.92260269151E+03  0.10566000000E+00 0. -1.
          4    1    3    3  502    0  0.10832505313E+03  0.21915022461E+02 -0.28265531568E+03  0.30349400790E+03  0.00000000000E+00 0.  1.
         -4    1    4    4    0  501 -0.41653033909E+03  0.14770790685E+03 -0.26966273746E+03  0.51771917205E+03  0.00000000000E+00 0. -1.
</event>
<event>
 8    1  0.7096247E-006  0.1307284E+04  0.7818608E-02  0.8529877E-01
         -1   -1    0    0    0  501 -0.00000000000E+00  0.00000000000E+00  0.76423538985E+03  0.76423538985E+03  0.00000000000E+00 0. -1.
          1   -1    0    0  502    0  0.00000000000E+00 -0.00000000000E+00 -0.26922361797E+04  0.26922361797E+04  0.00000000000E+00 0.  1.
    9000010    2    1    2  502    0  0.96737368594E+02  0.85704401078E+03 -0.25792832285E+03  0.13407222121E+04  0.99354238728E+03 0.  0.
   -9000010    2    1    2    0  501 -0.96737368594E+02 -0.85704401078E+03 -0.16700724670E+04  0.21157493575E+04  0.97127274425E+03 0.  0.
        -13    1    3    3    0    0  0.14056671783E+03 -0.16948400969E+03 -0.22192956198E+03  0.31262849093E+03  0.10566000000E+00 0.  1.
         13    1    4    4    0    0 -0.94618395556E+01 -0.78366380222E+03 -0.47747862812E+03  0.91771691321E+03  0.10566000000E+00 0. -1.
          4    1    3    3  502    0 -0.43829349232E+02  0.10265280205E+04 -0.35998760879E+02  0.10280937211E+04  0.00000000000E+00 0.  1.
         -4    1    4    4    0  501 -0.87275529039E+02 -0.73380208564E+02 -0.11925938389E+04  0.11980324443E+04  0.00000000000E+00 0. -1.
</event>
<event>
 8    1  0.7096247E-006  0.1156739E+04  0.7818608E-02  0.8639871E-01
         -4   -1    0    0    0  501 -0.00000000000E+00  0.00000000000E+00  0.62984241619E+03  0.62984241619E+03  0.00000000000E+00 0. -1.
          4   -1    0    0  502    0  0.00000000000E+00 -0.00000000000E+00 -0.21466996886E+04  0.21466996886E+04  0.00000000000E+00 0.  1.
    9000010    2    1    2  502    0  0.20851809528E+03 -0.51606749083E+03 -0.90204619598E+03  0.14695790663E+04  0.10179242808E+04 0.  0.
   -9000010    2    1    2    0  501 -0.20851809528E+03  0.51606749083E+03 -0.61481107638E+03  0.13069630384E+04  0.10101258699E+04 0.  0.
        -13    1    3    3    0    0  0.52604763013E+03  0.18372288284E+02 -0.30869929070E+03  0.61021218718E+03  0.10566000000E+00 0.  1.
         13    1    4    4    0    0 -0.23672502822E+02  0.73299535970E+03 -0.13032585744E+03  0.74486738754E+03  0.10566000000E+00 0. -1.
          4    1    3    3  502    0 -0.31752953485E+03 -0.53443977911E+03 -0.59334690528E+03  0.85936687916E+03  0.00000000000E+00 0.  1.
         -4    1    4    4    0  501 -0.18484559246E+03 -0.21692786887E+03 -0.48448521894E+03  0.56209565086E+03  0.00000000000E+00 0. -1.
</event>
<event>
 8    1  0.7096247E-006  0.1114281E+04  0.7818608E-02  0.8674066E-01
          1   -1    0    0  502    0  0.00000000000E+00  0.00000000000E+00  0.18349681855E+04  0.18349681855E+04  0.00000000000E+00 0.  1.
         -1   -1    0    0    0  501 -0.00000000000E+00 -0.00000000000E+00 -0.69869569540E+03  0.69869569540E+03  0.00000000000E+00 0. -1.
    9000010    2    1    2  502    0  0.14347049016E+03 -0.41718847415E+03  0.78894103465E+03  0.13586356789E+04  0.10143140280E+04 0.  0.
   -9000010    2    1    2    0  501 -0.14347049016E+03  0.41718847415E+03  0.34733145546E+03  0.11750282020E+04  0.10321928749E+04 0.  0.
        -13    1    3    3    0    0 -0.15848251238E+03 -0.25629161058E+03  0.93816048000E+03  0.98536652764E+03  0.10566000000E+00 0.  1.
         13    1    4    4    0    0  0.19780764152E+03  0.44666328833E+03 -0.20120683309E+03  0.52831823462E+03  0.10566000000E+00 0. -1.
          4    1    3    3  502    0  0.30195300254E+03 -0.16089686356E+03 -0.14921944535E+03  0.37326915131E+03  0.00000000000E+00 0.  1.
         -4    1    4    4    0  501 -0.34127813169E+03 -0.29474814184E+02  0.54853828855E+03  0.64670996733E+03  0.00000000000E+00 0. -1.
</event>
<event>
 8    1  0.7096247E-006  0.1338454E+04  0.7818608E-02  0.8509012E-01
          1   -1    0    0  502    0  0.00000000000E+00  0.00000000000E+00  0.23836652423E+04  0.23836652423E+04  0.00000000000E+00 0.  1.
         -1   -1    0    0    0  501 -0.00000000000E+00 -0.00000000000E+00 -0.75323867243E+03  0.75323867243E+03  0.00000000000E+00 0. -1.
    9000010    2    1    2  502    0  0.86927961470E+03  0.24989868439E+03  0.73382069886E+03  0.15125821825E+04  0.96504696252E+03 0.  0.
   -9000010    2    1    2    0  501 -0.86927961470E+03 -0.24989868439E+03  0.89660587105E+03  0.16243217322E+04  0.10081778617E+04 0.  0.
        -13    1    3    3    0    0  0.56073375893E+03  0.46917831034E+03  0.52302336555E+02  0.73299807699E+03  0.10566000000E+00 0.  1.
         13    1    4    4    0    0 -0.91609210348E+03  0.52041570109E+02  0.32001009809E+03  0.97177134200E+03  0.10566000000E+00 0. -1.
          4    1    3    3  502    0  0.30854585577E+03 -0.21927962595E+03  0.68151836231E+03  0.77958410555E+03  0.00000000000E+00 0.  1.
         -4    1    4    4    0  501  0.46812488783E+02 -0.30194025450E+03  0.57659577296E+03  0.65255039023E+03  0.00000000000E+00 0. -1.
</event>
<event>
 8    1  0.7096247E-006  0.1387229E+04  0.7818608E-02  0.8477509E-01
          2   -1    0    0  502    0  0.00000000000E+00  0.00000000000E+00  0.24632191049E+04  0.24632191049E+04  0.00000000000E+00 0. -1.
         -2   -1    0    0    0  501 -0.00000000000E+00 -0.00000000000E+00 -0.90374181536E+03  0.90374181536E+03  0.00000000000E+00 0.  1.
    9000010    2    1    2  502    0 -0.72653627784E+03 -0.63786529298E+03  0.15784084491E+03  0.13917834131E+04  0.98864566034E+03 0.  0.
   -9000010    2    1    2    0  501  0.72653627784E+03  0.63786529298E+03  0.14016364447E+04  0.19751775072E+04  0.10010066767E+04 0.  0.
        -13    1    3    3    0    0  0.29049883985E+02 -0.59557385816E+03 -0.72652362063E+02  0.60069167895E+03  0.10566000000E+00 0.  1.
         13    1    4    4    0    0  0.71814137976E+03  0.88488664881E+03  0.10852877136E+04  0.15737219751E+04  0.10566000000E+00 0. -1.
          4    1    3    3  502    0 -0.75558616183E+03 -0.42291434813E+02  0.23049320697E+03  0.79109173417E+03  0.00000000000E+00 0.  1.
         -4    1    4    4    0  501  0.83948980814E+01 -0.24702135583E+03  0.31634873111E+03  0.40145553206E+03  0.00000000000E+00 0. -1.
</event>
<event>
 8    1  0.7096247E-006  0.1252879E+04  0.7818608E-02  0.8567773E-01
         -1   -1    0    0    0  501 -0.00000000000E+00  0.00000000000E+00  0.31757412571E+04  0.31757412571E+04  0.00000000000E+00 0. -1.
          1   -1    0    0  502    0  0.00000000000E+00 -0.00000000000E+00 -0.56707222906E+03  0.56707222906E+03  0.00000000000E+00 0.  1.
    9000010    2    1    2  502    0 -0.59786802490E+03 -0.46379823422E+03  0.63239981930E+03  0.14020106181E+04  0.99656874553E+03 0.  0.
   -9000010    2    1    2    0  501  0.59786802490E+03  0.46379823422E+03  0.19762692088E+04  0.23408028681E+04  0.10005813832E+04 0.  0.
        -13    1    3    3    0    0 -0.57502435306E+03 -0.74628789118E+03  0.35895397670E+03  0.10081897598E+04  0.10566000000E+00 0.  1.
         13    1    4    4    0    0  0.45657109523E+03  0.38684828519E+03  0.20698876964E+04  0.21546563177E+04  0.10566000000E+00 0. -1.
          4    1    3    3  502    0 -0.22843671841E+02  0.28248965696E+03  0.27344584260E+03  0.39382085834E+03  0.00000000000E+00 0.  1.
         -4    1    4    4    0  501  0.14129692967E+03  0.76949949030E+02 -0.93618487608E+02  0.18614655036E+03  0.00000000000E+00 0. -1.
</event>
<event>
 8    1  0.7096247E-006  0.1112545E+04  0.7818608E-02  0.8675498E-01
          1   -1    0    0  502    0  0.00000000000E+00  0.00000000000E+00  0.64234380474E+03  0.64234380474E+03  0.00000000000E+00 0.  1.
         -1   -1    0    0    0  501 -0.00000000000E+00 -0.00000000000E+00 -0.19861428094E+04  0.19861428094E+04  0.00000000000E+00 0. -1.
    9000010    2    1    2  502    0 -0.17149800589E+03 -0.47342017097E+03 -0.44472700770E+03  0.11977160304E+04  0.99156611171E+03 0.  0.
   -9000010    2    1    2    0  501  0.17149800589E+03  0.47342017097E+03 -0.89907199696E+03  0.14307705837E+04  0.99259044079E+03 0.  0.
        -13    1    3    3    0    0 -0.35103255377E+03 -0.20699953079E+03  0.21731383226E+03  0.46184193444E+03  0.10566000000E+00 0.  1.
         13    1    4    4    0    0 -0.25524090914E+03 -0.94553566476E+02  0.15572035447E+02  0.27263675116E+03  0.10566000000E+00 0. -1.
          4    1    3    3  502    0  0.17953454788E+03 -0.26642064018E+03 -0.66204083996E+03  0.73587409600E+03  0.00000000000E+00 0.  1.
         -4    1    4    4    0  501  0.42673891503E+03  0.56797373745E+03 -0.91464403241E+03  0.11581338325E+04  0.00000000000E+00 0. -1.
</event>
<event>
 8    1  0.7096247E-006  0.1552157E+04  0.7818608E-02  0.8380099E-01
         -1   -1    0    0    0  501 -0.00000000000E+00  0.00000000000E+00  0.39342252705E+04  0.39342252705E+04  0.00000000000E+00 0.  1.
          1   -1    0    0  502    0  0.00000000000E+00 -0.00000000000E+00 -0.62347999580E+03  0.62347999580E+03  0.00000000000E+00 0. -1.
    9000010    2    1    2  502    0  0.96500974347E+03  0.69540361137E+03  0.19516039311E+04  0.24889604599E+04  0.98556393982E+03 0.  0.
   -9000010    2    1    2    0  501 -0.96500974347E+03 -0.69540361137E+03  0.13591413436E+04  0.20687448064E+04  0.10087665212E+04 0.  0.
        -13    1    3    3    0    0  0.34788951480E+03 -0.24005848856E+03  0.58191312739E+03  0.71922047484E+03  0.10566000000E+00 0.  1.
         13    1    4    4    0    0 -0.91774182590E+03 -0.20871101481E+03  0.46533986402E+03  0.10499293057E+04  0.10566000000E+00 0. -1.
          4    1    3    3  502    0  0.61712022867E+03  0.93546209993E+03  0.13696908037E+04  0.17697399851E+04  0.00000000000E+00 0.  1.
         -4    1    4    4    0  501 -0.47267917571E+02 -0.48669259656E+03  0.89380147958E+03  0.10188155007E+04  0.00000000000E+00 0. -1.
</event>
<event>
 8    1  0.7096247E-006  0.1286149E+04  0.7818608E-02  0.8544368E-01
          1   -1    0    0  502    0  0.00000000000E+00  0.00000000000E+00  0.14392068403E+04  0.14392068403E+04  0.00000000000E+00 0. -1.
         -1   -1    0    0    0  501 -0.00000000000E+00 -0.00000000000E+00 -0.11935220910E+04  0.11935220910E+04  0.00000000000E+00 0.  1.
    9000010    2    1    2  502    0  0.69752170601E+03 -0.31284966610E+03 -0.13083332502E+03  0.12554044217E+04  0.98717346965E+03 0.  0.
   -9000010    2    1    2    0  501 -0.69752170601E+03  0.31284966610E+03  0.37651807425E+03  0.13773245096E+04  0.10820561448E+04 0.  0.
        -13    1    3    3    0    0  0.63883437169E+03 -0.55620817153E+03 -0.35589847695E+03  0.91877125640E+03  0.10566000000E+00 0.  1.
         13    1    4    4    0    0 -0.38424058181E+03 -0.18386042765E+03  0.61113671610E+03  0.74493864076E+03  0.10566000000E+00 0. -1.
          4    1    3    3  502    0  0.58687334325E+02  0.24335850543E+03  0.22506515193E+03  0.33663316531E+03  0.00000000000E+00 0.  1.
         -4    1    4    4    0  501 -0.31328112420E+03  0.49671009375E+03 -0.23461864185E+03  0.63238586885E+03  0.00000000000E+00 0. -1.
</event>
<event>
 8    1  0.7096247E-006  0.1178221E+04  0.7818608E-02  0.8623145E-01
         -1   -1    0    0    0  501 -0.00000000000E+00  0.00000000000E+00  0.60422532209E+03  0.60422532209E+03  0.00000000000E+00 0.  1.
          1   -1    0    0  502    0  0.00000000000E+00 -0.00000000000E+00 -0.23858747290E+04  0.23858747290E+04  0.00000000000E+00 0. -1.
    9000010    2    1    2  502    0  0.62175081174E+03  0.18144068875E+03 -0.11859594408E+04  0.16792461945E+04  0.99693188889E+03 0.  0.
   -9000010    2    1    2    0  501 -0.62175081174E+03 -0.18144068875E+03 -0.59568996609E+03  0.13108538566E+04  0.97159482407E+03 0.  0.
        -13    1    3    3    0    0  0.37510811427E+03  0.21708392077E+03 -0.13248596998E+04  0.13939457526E+04  0.10566000000E+00 0.  1.
         13    1    4    4    0    0  0.12276557954E+03 -0.32790328362E+03 -0.39118372960E+03  0.52499206889E+03  0.10566000000E+00 0. -1.
          4    1    3    3  502    0  0.24664269746E+03 -0.35643232024E+02  0.13890025895E+03  0.28530044188E+03  0.00000000000E+00 0.  1.
         -4    1    4    4    0  501 -0.74451639128E+03  0.14646259487E+03 -0.20450623649E+03  0.78586178768E+03  0.00000000000E+00 0. -1.
</event>
<event>
 8    1  0.7096247E-006  0.1117422E+04  0.7818608E-02  0.8671483E-01
          1   -1    0    0  502    0  0.00000000000E+00  0.00000000000E+00  0.52537165535E+03  0.52537165535E+03  0.00000000000E+00 0.  1.
         -1   -1    0    0    0  501 -0.00000000000E+00 -0.00000000000E+00 -0.24155048858E+04  0.24155048858E+04  0.00000000000E+00 0. -1.
    9000010    2    1    2  502    0  0.50935265194E+03  0.33013762383E+02 -0.75746659293E+03  0.13488146873E+04  0.99247941479E+03 0.  0.
   -9000010    2    1    2    0  501 -0.50935265194E+03 -0.33013762383E+02 -0.11326666375E+04  0.15920618538E+04  0.99558887201E+03 0.  0.
        -13    1    3    3    0    0 -0.16948643933E+03  0.57798300956E+02  0.13712776876E+03  0.22554452518E+03  0.10566000000E+00 0.  1.
         13    1    4    4    0    0  0.26434790351E+03  0.15205031411E+03 -0.45102508674E+03  0.54444719868E+03  0.10566000000E+00 0. -1.
          4    1    3    3  502    0  0.67883909127E+03 -0.24784538573E+02 -0.89459436169E+03  0.11232701621E+04  0.00000000000E+00 0.  1.
         -4    1    4    4    0  501 -0.77370055545E+03 -0.18506407650E+03 -0.68164155077E+03  0.10476146551E+04  0.00000000000E+00 0. -1.
</event>
<event>
 8    1  0.7096247E-006  0.1093080E+04  0.7818608E-02  0.8691741E-01
         -2   -1    0    0    0  501 -0.00000000000E+00  0.00000000000E+00  0.16006334443E+04  0.16006334443E+04  0.00000000000E+00 0.  1.
          2   -1    0    0  502    0  0.00000000000E+00 -0.00000000000E+00 -0.81018615711E+03  0.81018615711E+03  0.00000000000E+00 0. -1.
    9000010    2    1    2  502    0 -0.30476874400E+02  0.52191539354E+03  0.71767128080E+03  0.12760052375E+04  0.91641299689E+03 0.  0.
   -9000010    2    1    2    0  501  0.30476874400E+02 -0.52191539354E+03  0.72776006406E+02  0.11348143640E+04  0.10045808955E+04 0.  0.
        -13    1    3    3    0    0 -0.25563204342E+02  0.61121944935E+02 -0.22078575244E+03  0.23051188519E+03  0.10566000000E+00 0.  1.
         13    1    4    4    0    0 -0.22161925022E+03 -0.13163313669E+03  0.46177730656E+03  0.52884843458E+03  0.10566000000E+00 0. -1.
          4    1    3    3  502    0 -0.49136700574E+01  0.46079344860E+03  0.93845703324E+03  0.10454933523E+04  0.00000000000E+00 0.  1.
         -4    1    4    4    0  501  0.25209612462E+03 -0.39028225684E+03 -0.38900130015E+03  0.60596592938E+03  0.00000000000E+00 0. -1.
</event>
<event>
 8    1  0.7096247E-006  0.1443805E+04  0.7818608E-02  0.8442593E-01
          2   -1    0    0  502    0  0.00000000000E+00  0.00000000000E+00  0.66038037748E+03  0.66038037748E+03  0.00000000000E+00 0.  1.
         -2   -1    0    0    0  501 -0.00000000000E+00 -0.00000000000E+00 -0.44816657728E+04  0.44816657728E+04  0.00000000000E+00 0. -1.
    9000010    2    1    2  502    0 -0.92544597039E+03  0.40550185785E+03 -0.33286384577E+04  0.36371605731E+04  0.10621775048E+04 0.  0.
   -9000010    2    1    2    0  501  0.92544597039E+03 -0.40550185785E+03 -0.49264693760E+03  0.15048855772E+04  0.10005486467E+04 0.  0.
        -13    1    3    3    0    0 -0.41200574350E+03  0.72882904212E+03 -0.22319849924E+04  0.23838409181E+04  0.10566000000E+00 0.  1.
         13    1    4    4    0    0 -0.12309478517E+03 -0.26551374039E+03  0.78087833638E+02  0.30289865203E+03  0.10566000000E+00 0. -1.
          4    1    3    3  502    0 -0.51344022689E+03 -0.32332718426E+03 -0.10966534653E+04  0.12533196550E+04  0.00000000000E+00 0.  1.
         -4    1    4    4    0  501  0.10485407556E+04 -0.13998811746E+03 -0.57073477124E+03  0.12019869251E+04  0.00000000000E+00 0. -1.
</event>
<event>
 8    1  0.7096247E-006  0.1262811E+04  0.7818608E-02  0.8560708E-01
          2   -1    0    0  502    0  0.00000000000E+00  0.00000000000E+00  0.22136729415E+04  0.22136729415E+04  0.00000000000E+00 0.  1.
         -2   -1    0    0    0  501 -0.00000000000E+00 -0.00000000000E+00 -0.76329507346E+03  0.76329507346E+03  0.00000000000E+00 0. -1.
    9000010    2    1    2  502    0  0.66243189486E+03  0.30242352761E+03  0.10865545535E+04  0.16785900483E+04  0.10520398031E+04 0.  0.
   -9000010    2    1    2    0  501 -0.66243189486E+03 -0.30242352761E+03  0.36382331450E+03  0.12983779666E+04  0.10115047872E+04 0.  0.
        -13    1    3    3    0    0 -0.17811557560E+03  0.12944259703E+03 -0.76597854061E+02  0.23312611739E+03  0.10566000000E+00 0.  1.
         13    1    4    4    0    0 -0.41062668148E+02  0.29293565296E+03  0.32136811193E+03  0.43677787721E+03  0.10566000000E+00 0. -1.
          4    1    3    3  502    0  0.84054747046E+03  0.17298093058E+03  0.11631524076E+04  0.14454639309E+04  0.00000000000E+00 0.  1.
         -4    1    4    4    0  501 -0.62136922671E+03 -0.59535918056E+03  0.42455202567E+02  0.86160008938E+03  0.00000000000E+00 0. -1.
</event>
<event>
 8    1  0.7096247E-006  0.1499950E+04  0.7818608E-02  0.8409528E-01
         -2   -1    0    0    0  501 -0.00000000000E+00  0.00000000000E+00  0.31116259179E+04  0.31116259179E+04  0.00000000000E+00 0.  1.
          2   -1    0    0  502    0  0.00000000000E+00 -0.00000000000E+00 -0.76545519260E+03  0.76545519260E+03  0.00000000000E+00 0. -1.
    9000010    2    1    2  502    0 -0.83691790916E+03 -0.74035413422E+03  0.71687974049E+03  0.16625657314E+04  0.10008258681E+04 0.  0.
   -9000010    2    1    2    0  501  0.83691790916E+03  0.74035413422E+03  0.16292909848E+04  0.22145153791E+04  0.10004666013E+04 0.  0.
        -13    1    3    3    0    0 -0.21811356440E+03 -0.41955236933E+03  0.83114730212E+03  0.95624451192E+03  0.10566000000E+00 0.  1.
         13    1    4    4    0    0  0.96071197279E+03  0.28145249189E+03  0.12783591440E+04  0.16236948950E+04  0.10566000000E+00 0. -1.
          4    1    3    3  502    0 -0.61880434476E+03 -0.32080176490E+03 -0.11426756163E+03  0.70632121949E+03  0.00000000000E+00 0.  1.
         -4    1    4    4    0  501 -0.12379406363E+03  0.45890164233E+03  0.35093184081E+03  0.59082048409E+03  0.00000000000E+00 0. -1.
</event>
<event>
 8    1  0.7096247E-006  0.2005828E+04  0.7818608E-02  0.8166023E-01
          4   -1    0    0  502    0  0.00000000000E+00  0.00000000000E+00  0.14082603338E+04  0.14082603338E+04  0.00000000000E+00 0.  1.
         -4   -1    0    0    0  501 -0.00000000000E+00 -0.00000000000E+00 -0.31681647970E+04  0.31681647970E+04  0.00000000000E+00 0. -1.
    9000010    2    1    2  502    0 -0.62215081586E+03 -0.16284575943E+04 -0.15928095084E+04  0.25530454919E+04  0.97059434345E+03 0.  0.
   -9000010    2    1    2    0  501  0.62215081586E+03  0.16284575943E+04 -0.16709495476E+03  0.20233796389E+04  0.10135080982E+04 0.  0.
        -13    1    3    3    0    0 -0.42058431012E+03 -0.14926814296E+03 -0.13450857915E+03  0.46611662644E+03  0.10566000000E+00 0.  1.
         13    1    4    4    0    0  0.24970100590E+03 -0.14147899002E+02  0.17427534280E+03  0.30483218608E+03  0.10566000000E+00 0. -1.
          4    1    3    3  502    0 -0.20156650575E+03 -0.14791894514E+04 -0.14583009293E+04  0.20869288655E+04  0.00000000000E+00 0.  1.
         -4    1    4    4    0  501  0.37244980996E+03  0.16426054933E+04 -0.34137029756E+03  0.17185474529E+04  0.00000000000E+00 0. -1.
</event>
<event>
 8    1  0.7096247E-006  0.1196944E+04  0.7818608E-02  0.8608867E-01
         -1   -1    0    0    0  501 -0.00000000000E+00  0.00000000000E+00  0.72430769362E+03  0.72430769362E+03  0.00000000000E+00 0.  1.
          1   -1    0    0  502    0  0.00000000000E+00 -0.00000000000E+00 -0.20837182711E+04  0.20837182711E+04  0.00000000000E+00 0. -1.
    9000010    2    1    2  502    0 -0.55231632734E+03  0.35289783931E+03 -0.36474873016E+03  0.12535736275E+04  0.10043978260E+04 0.  0.
   -9000010    2    1    2    0  501  0.55231632734E+03 -0.35289783931E+03 -0.99466184731E+03  0.15544523372E+04  0.99868897450E+03 0.  0.
        -13    1    3    3    0    0 -0.23464147476E+03  0.52907394297E+03  0.17349797884E+03  0.60421636740E+03  0.10566000000E+00 0.  1.
         13    1    4    4    0    0 -0.15081027642E+03 -0.45921435595E+03 -0.39287197408E+03  0.62287234917E+03  0.10566000000E+00 0. -1.
          4    1    3    3  502    0 -0.31767485258E+03 -0.17617610366E+03 -0.53824670900E+03  0.64935726008E+03  0.00000000000E+00 0.  1.
         -4    1    4    4    0  501  0.70312660376E+03  0.10631651664E+03 -0.60178987323E+03  0.93157998806E+03  0.00000000000E+00 0. -1.
</event>
<event>
 8    1  0.7096247E-006  0.1272176E+04  0.7818608E-02  0.8554108E-01
         -2   -1    0    0    0  501 -0.00000000000E+00  0.00000000000E+00  0.83281335422E+03  0.83281335422E+03  0.00000000000E+00 0. -1.
          2   -1    0    0  502    0  0.00000000000E+00 -0.00000000000E+00 -0.20627847997E+04  0.20627847997E+04  0.00000000000E+00 0.  1.
    9000010    2    1    2  502    0  0.46021541706E+03 -0.37029973573E+03 -0.23927215535E+03  0.11893016260E+04  0.10041250265E+04 0.  0.
   -9000010    2    1    2    0  501 -0.46021541706E+03  0.37029973573E+03 -0.99069929015E+03  0.17062965279E+04  0.12573951779E+04 0.  0.
        -13    1    3    3    0    0  0.59165799795E+03 -0.48971065342E+03  0.13055203682E+03  0.77905041948E+03  0.10566000000E+00 0.  1.
         13    1    4    4    0    0 -0.18918642040E+03  0.28297050300E+03 -0.12655557945E+04  0.13105324443E+04  0.10566000000E+00 0. -1.
          4    1    3    3  502    0 -0.13144258088E+03  0.11941091768E+03 -0.36982419218E+03  0.41025120652E+03  0.00000000000E+00 0.  1.
         -4    1    4    4    0  501 -0.27102899666E+03  0.87329232737E+02  0.27485650439E+03  0.39576408367E+03  0.00000000000E+00 0. -1.
</event>
<event>
 8    1  0.7096247E-006  0.9964668E+03  0.7818608E-02  0.8777918E-01
         -2   -1    0    0    0  501 -0.00000000000E+00  0.00000000000E+00  0.40085922772E+03  0.40085922772E+03  0.00000000000E+00 0. -1.
          2   -1    0    0  502    0  0.00000000000E+00 -0.00000000000E+00 -0.25315463599E+04  0.25315463599E+04  0.00000000000E+00 0.  1.
    9000010    2    1    2  502    0  0.68152125183E+01  0.31938011719E+02 -0.12770739297E+04  0.16178691341E+04  0.99273170069E+03 0.  0.
   -9000010    2    1    2    0  501 -0.68152125183E+01 -0.31938011719E+02 -0.85361320250E+03  0.13145364535E+04  0.99914168384E+03 0.  0.
        -13    1    3    3    0    0  0.43094174455E+03 -0.17961894590E+03 -0.89356148788E+03  0.10081794963E+04  0.10566000000E+00 0.  1.
         13    1    4    4    0    0 -0.15160592962E+03 -0.27102082408E+03  0.95680978212E+02  0.32494846628E+03  0.10566000000E+00 0. -1.
          4    1    3    3  502    0 -0.42412653203E+03  0.21155695761E+03 -0.38351244183E+03  0.60968963787E+03  0.00000000000E+00 0.  1.
         -4    1    4    4    0  501  0.14479071710E+03  0.23908281236E+03 -0.94929418071E+03  0.98958798722E+03  0.00000000000E+00 0. -1.
</event>
<event>
 8    1  0.7096247E-006  0.1600450E+04  0.7818608E-02  0.8353925E-01
         -2   -1    0    0    0  501 -0.00000000000E+00  0.00000000000E+00  0.13391002892E+04  0.13391002892E+04  0.00000000000E+00 0. -1.
          2   -1    0    0  502    0  0.00000000000E+00 -0.00000000000E+00 -0.24085919178E+04  0.24085919178E+04  0.00000000000E+00 0.  1.
    9000010    2    1    2  502    0 -0.10334980799E+04 -0.68542981007E+03 -0.13840006995E+04  0.21133279740E+04  0.10063622031E+04 0.  0.
   -9000010    2    1    2    0  501  0.10334980799E+04  0.68542981007E+03  0.31450907091E+03  0.16343642330E+04  0.10170045156E+04 0.  0.
        -13    1    3    3    0    0 -0.56361170224E+03  0.18901290542E+03 -0.63447949783E+03  0.86945285878E+03  0.10566000000E+00 0.  1.
         13    1    4    4    0    0  0.62598714377E+03  0.66691420454E+03 -0.24031057283E+03  0.94571858551E+03  0.10566000000E+00 0. -1.
          4    1    3    3  502    0 -0.46988637767E+03 -0.87444271549E+03 -0.74952120169E+03  0.12438751153E+04  0.00000000000E+00 0.  1.
         -4    1    4    4    0  501  0.40751093614E+03  0.18515605527E+02  0.55481964374E+03  0.68864564749E+03  0.00000000000E+00 0. -1.
</event>
<event>
 8    1  0.7096247E-006  0.1315845E+04  0.7818608E-02  0.8524087E-01
         -2   -1    0    0    0  501 -0.00000000000E+00  0.00000000000E+00  0.28978661644E+04  0.28978661644E+04  0.00000000000E+00 0.  1.
          2   -1    0    0  502    0  0.00000000000E+00 -0.00000000000E+00 -0.59782739599E+03  0.59782739599E+03  0.00000000000E+00 0. -1.
    9000010    2    1    2  502    0  0.18801185495E+02 -0.89359605760E+03  0.11053157415E+04  0.17153623355E+04  0.96014460103E+03 0.  0.
   -9000010    2    1    2    0  501 -0.18801185495E+02  0.89359605760E+03  0.11947230269E+04  0.17803312249E+04  0.97126142751E+03 0.  0.
        -13    1    3    3    0    0 -0.58764995721E+02 -0.19789095189E+03  0.98337046212E+03  0.10048042747E+04  0.10566000000E+00 0.  1.
         13    1    4    4    0    0  0.27316496888E+03  0.78721013060E+03  0.12100635728E+04  0.14692082056E+04  0.10566000000E+00 0. -1.
          4    1    3    3  502    0  0.77566181216E+02 -0.69570510571E+03  0.12194527940E+03  0.71055806079E+03  0.00000000000E+00 0.  1.
         -4    1    4    4    0  501 -0.29196615438E+03  0.10638592700E+03 -0.15340545966E+02  0.31112301926E+03  0.00000000000E+00 0. -1.
</event>
<event>
 8    1  0.7096247E-006  0.1295309E+04  0.7818608E-02  0.8538053E-01
          2   -1    0    0  502    0  0.00000000000E+00  0.00000000000E+00  0.21486995358E+04  0.21486995358E+04  0.00000000000E+00 0.  1.
         -2   -1    0    0    0  501 -0.00000000000E+00 -0.00000000000E+00 -0.88090642720E+03  0.88090642720E+03  0.00000000000E+00 0. -1.
    9000010    2    1    2  502    0  0.64838885928E+03  0.42478906296E+03  0.11191261969E+04  0.16746790361E+04  0.97532177686E+03 0.  0.
   -9000010    2    1    2    0  501 -0.64838885928E+03 -0.42478906296E+03  0.14866691162E+03  0.13549269269E+04  0.11013043474E+04 0.  0.
        -13    1    3    3    0    0  0.74132245288E+03 -0.43661800805E+01  0.42845448978E+03  0.85624254955E+03  0.10566000000E+00 0.  1.
         13    1    4    4    0    0 -0.60216656992E+03 -0.30956880847E+01 -0.35294210562E+03  0.69798445706E+03  0.10566000000E+00 0. -1.
          4    1    3    3  502    0 -0.92933593602E+02  0.42915524304E+03  0.69067170716E+03  0.81843648655E+03  0.00000000000E+00 0.  1.
         -4    1    4    4    0  501 -0.46222289359E+02 -0.42169337487E+03  0.50160901724E+03  0.65694246980E+03  0.00000000000E+00 0. -1.
</event>
<event>
 8    1  0.7096247E-006  0.9966118E+03  0.7818608E-02  0.8777781E-01
          2   -1    0    0  502    0  0.00000000000E+00  0.00000000000E+00  0.58220866317E+03  0.58220866317E+03  0.00000000000E+00 0.  1.
         -2   -1    0    0    0  501 -0.00000000000E+00 -0.00000000000E+00 -0.18288179444E+04  0.18288179444E+04  0.00000000000E+00 0. -1.
    9000010    2    1    2  502    0  0.17791710717E+03 -0.17507822946E+03 -0.33862142066E+03  0.10921065892E+04  0.10078320556E+04 0.  0.
   -9000010    2    1    2    0  501 -0.17791710717E+03  0.17507822946E+03 -0.90798786053E+03  0.13189200183E+04  0.92347234739E+03 0.  0.
        -13    1    3    3    0    0  0.22320080314E+03  0.29912691659E+03 -0.46789403029E+03  0.59851511719E+03  0.10566000000E+00 0.  1.
         13    1    4    4    0    0  0.17213706370E+03  0.34547369173E+03 -0.83900493638E+03  0.92353263874E+03  0.10566000000E+00 0. -1.
          4    1    3    3  502    0 -0.45283695971E+02 -0.47420514605E+03  0.12927260963E+03  0.49359147203E+03  0.00000000000E+00 0.  1.
         -4    1    4    4    0  501 -0.35005417087E+03 -0.17039546227E+03 -0.68982924152E+02  0.39538737958E+03  0.00000000000E+00 0. -1.
</event>
<event>
 8    1  0.7096247E-006  0.1164385E+04  0.7818608E-02  0.8633875E-01
         -2   -1    0    0    0  501 -0.00000000000E+00  0.00000000000E+00  0.10660113705E+04  0.10660113705E+04  0.00000000000E+00 0. -1.
          2   -1    0    0  502    0  0.00000000000E+00 -0.00000000000E+00 -0.12835969130E+04  0.12835969130E+04  0.00000000000E+00 0.  1.
    9000010    2    1    2  502    0 -0.57540222653E+03  0.15475053802E+03  0.34614239074E+01  0.11663649487E+04  0.10026762991E+04 0.  0.
   -9000010    2    1    2    0  501  0.57540222653E+03 -0.15475053802E+03 -0.22104696644E+03  0.11832433349E+04  0.99808194897E+03 0.  0.
        -13    1    3    3    0    0 -0.67079605276E+03 -0.26048105623E+03  0.10806153199E+03  0.72766409209E+03  0.10566000000E+00 0.  1.
         13    1    4    4    0    0 -0.35654907421E+02 -0.31265296133E+03  0.24490207435E+03  0.39874827126E+03  0.10566000000E+00 0. -1.
          4    1    3    3  502    0  0.95393826234E+02  0.41523159425E+03 -0.10460010809E+03  0.43870085657E+03  0.00000000000E+00 0.  1.
         -4    1    4    4    0  501  0.61105713395E+03  0.15790242331E+03 -0.46594904079E+03  0.78449506362E+03  0.00000000000E+00 0. -1.
</event>
<event>
 8    1  0.7096247E-006  0.1140450E+04  0.7818608E-02  0.8652806E-01
          2   -1    0    0  502    0  0.00000000000E+00  0.00000000000E+00  0.37356331227E+04  0.37356331227E+04  0.00000000000E+00 0. -1.
         -2   -1    0    0    0  501 -0.00000000000E+00 -0.00000000000E+00 -0.35369776820E+03  0.35369776820E+03  0.00000000000E+00 0.  1.
    9000010    2    1    2  502    0 -0.45825126871E+03  0.38279875944E+03  0.19022178253E+04  0.22041927822E+04  0.93994896175E+03 0.  0.
   -9000010    2    1    2    0  501  0.45825126871E+03 -0.38279875944E+03  0.14797175292E+04  0.18851381087E+04  0.10038190112E+04 0.  0.
        -13    1    3    3    0    0 -0.28029152653E+03  0.47370290252E+03  0.37984392436E+03  0.66875944684E+03  0.10566000000E+00 0.  1.
         13    1    4    4    0    0  0.56813916800E+03 -0.34912210063E+03  0.15910402784E+04  0.17251311643E+04  0.10566000000E+00 0. -1.
          4    1    3    3  502    0 -0.17795974218E+03 -0.90904143076E+02  0.15223739009E+04  0.15354333354E+04  0.00000000000E+00 0.  1.
         -4    1    4    4    0  501 -0.10988789929E+03 -0.33676658817E+02 -0.11132274923E+03  0.16000694439E+03  0.00000000000E+00 0. -1.
</event>
<event>
 8    1  0.7096247E-006  0.1145039E+04  0.7818608E-02  0.8649140E-01
          1   -1    0    0  502    0  0.00000000000E+00  0.00000000000E+00  0.16517476373E+04  0.16517476373E+04  0.00000000000E+00 0.  1.
         -1   -1    0    0    0  501 -0.00000000000E+00 -0.00000000000E+00 -0.10725298456E+04  0.10725298456E+04  0.00000000000E+00 0. -1.
    9000010    2    1    2  502    0  0.26004490156E+03  0.49216731557E+03  0.98468735775E+03  0.15128846771E+04  0.10046685206E+04 0.  0.
   -9000010    2    1    2    0  501 -0.26004490156E+03 -0.49216731557E+03 -0.40546956601E+03  0.12113928059E+04  0.99660169767E+03 0.  0.
        -13    1    3    3    0    0  0.39635010750E+03  0.22152215448E+03 -0.28895031641E+02  0.45497297355E+03  0.10566000000E+00 0.  1.
         13    1    4    4    0    0 -0.57753955199E+02  0.30934608512E+03 -0.10217571518E+03  0.33086312526E+03  0.10566000000E+00 0. -1.
          4    1    3    3  502    0 -0.13630520594E+03  0.27064516109E+03  0.10135823894E+04  0.10579117035E+04  0.00000000000E+00 0.  1.
         -4    1    4    4    0  501 -0.20229094636E+03 -0.80151340069E+03 -0.30329385084E+03  0.88052968061E+03  0.00000000000E+00 0. -1.
</event>
<event>
 8    1  0.7096247E-006  0.1168362E+04  0.7818608E-02  0.8630775E-01
         -2   -1    0    0    0  501 -0.00000000000E+00  0.00000000000E+00  0.44655898097E+03  0.44655898097E+03  0.00000000000E+00 0. -1.
          2   -1    0    0  502    0  0.00000000000E+00 -0.00000000000E+00 -0.35305833684E+04  0.35305833684E+04  0.00000000000E+00 0.  1.
    9000010    2    1    2  502    0 -0.43426229697E+03  0.40926970254E+03 -0.22677088876E+04  0.25499121861E+04  0.10017300664E+04 0.  0.
   -9000010    2    1    2    0  501  0.43426229697E+03 -0.40926970254E+03 -0.81631549988E+03  0.14272301633E+04  0.10072385575E+04 0.  0.
        -13    1    3    3    0    0 -0.39520223838E+03 -0.26020316589E+03 -0.70140403341E+03  0.84608399465E+03  0.10566000000E+00 0.  1.
         13    1    4    4    0    0  0.52334076388E+03 -0.47153524401E+03 -0.99438190773E+03  0.12186166054E+04  0.10566000000E+00 0. -1.
          4    1    3    3  502    0 -0.39060058588E+02  0.66947286843E+03 -0.15663048542E+04  0.17038281914E+04  0.00000000000E+00 0.  1.
         -4    1    4    4    0  501 -0.89078466918E+02  0.62265541470E+02  0.17806640785E+03  0.20861355787E+03  0.00000000000E+00 0. -1.
</event>
<event>
 8    1  0.7096247E-006  0.1312135E+04  0.7818608E-02  0.8526590E-01
         -1   -1    0    0    0  501 -0.00000000000E+00  0.00000000000E+00  0.10220488344E+04  0.10220488344E+04  0.00000000000E+00 0. -1.
          1   -1    0    0  502    0  0.00000000000E+00 -0.00000000000E+00 -0.19507630690E+04  0.19507630690E+04  0.00000000000E+00 0.  1.
    9000010    2    1    2  502    0 -0.16394366550E+03 -0.84481412872E+03 -0.10177380718E+04  0.16724027179E+04  0.10102235548E+04 0.  0.
   -9000010    2    1    2    0  501  0.16394366550E+03  0.84481412872E+03  0.89023837141E+02  0.13004091854E+04  0.97085033266E+03 0.  0.
        -13    1    3    3    0    0 -0.31816130097E+03 -0.89881232507E+01  0.34076954423E+02  0.32010724732E+03  0.10566000000E+00 0.  1.
         13    1    4    4    0    0 -0.31488489759E+03  0.36678316659E+03 -0.24933272033E+03  0.54392022082E+03  0.10566000000E+00 0. -1.
          4    1    3    3  502    0  0.15421763547E+03 -0.83582600546E+03 -0.10518150262E+04  0.13522954706E+04  0.00000000000E+00 0.  1.
         -4    1    4    4    0  501  0.47882856309E+03  0.47803096213E+03  0.33835655748E+03  0.75648896461E+03  0.00000000000E+00 0. -1.
</event>
<event>
 8    1  0.7096247E-006  0.1227607E+04  0.7818608E-02  0.8586059E-01
          4   -1    0    0  502    0  0.00000000000E+00  0.00000000000E+00  0.18451238547E+04  0.18451238547E+04  0.00000000000E+00 0.  1.
         -4   -1    0    0    0  501 -0.00000000000E+00 -0.00000000000E+00 -0.84913454075E+03  0.84913454075E+03  0.00000000000E+00 0. -1.
    9000010    2    1    2  502    0  0.71050875118E+03 -0.28164979049E+02  0.76054431505E+03  0.14430210565E+04  0.99913270534E+03 0.  0.
   -9000010    2    1    2    0  501 -0.71050875118E+03  0.28164979049E+02  0.23544499885E+03  0.12512373389E+04  0.10022697138E+04 0.  0.
        -13    1    3    3    0    0  0.47720832357E+03  0.38361305791E+02 -0.14922169212E+03  0.50146435409E+03  0.10566000000E+00 0.  1.
         13    1    4    4    0    0  0.49838112023E+02 -0.34040530175E+03  0.21565407711E+03  0.40603731233E+03  0.10566000000E+00 0. -1.
          4    1    3    3  502    0  0.23330042762E+03 -0.66526284840E+02  0.90976600717E+03  0.94155670243E+03  0.00000000000E+00 0.  1.
         -4    1    4    4    0  501 -0.76034686321E+03  0.36857028080E+03  0.19790921744E+02  0.84520002654E+03  0.00000000000E+00 0. -1.
</event>
<event>
 8    1  0.7096247E-006  0.1867535E+04  0.7818608E-02  0.8224565E-01
          4   -1    0    0  502    0  0.00000000000E+00  0.00000000000E+00  0.17311605140E+04  0.17311605140E+04  0.00000000000E+00 0.  1.
         -4   -1    0    0    0  501 -0.00000000000E+00 -0.00000000000E+00 -0.20740025174E+04  0.20740025174E+04  0.00000000000E+00 0. -1.
    9000010    2    1    2  502    0  0.93355671011E+03 -0.12972521866E+04 -0.49187118344E+03  0.19189399980E+04  0.94127683934E+03 0.  0.
   -9000010    2    1    2    0  501 -0.93355671011E+03  0.12972521866E+04  0.14902918009E+03  0.18862230334E+04  0.99057370684E+03 0.  0.
        -13    1    3    3    0    0 -0.69901682843E+02 -0.52837932509E+03  0.66202260088E+02  0.53707886465E+03  0.10566000000E+00 0.  1.
         13    1    4    4    0    0 -0.20233729974E+03  0.91517064108E+03  0.40697224831E+03  0.10218141256E+04  0.10566000000E+00 0. -1.
          4    1    3    3  502    0  0.10034583929E+04 -0.76887286147E+03 -0.55807344353E+03  0.13818611334E+04  0.00000000000E+00 0.  1.
         -4    1    4    4    0  501 -0.73121941036E+03  0.38208154548E+03 -0.25794306821E+03  0.86440890783E+03  0.00000000000E+00 0. -1.
</event>
<event>
 8    1  0.7096247E-006  0.1131703E+04  0.7818608E-02  0.8659846E-01
         -2   -1    0    0    0  501 -0.00000000000E+00  0.00000000000E+00  0.33145650197E+04  0.33145650197E+04  0.00000000000E+00 0. -1.
          2   -1    0    0  502    0  0.00000000000E+00 -0.00000000000E+00 -0.41850739059E+03  0.41850739059E+03  0.00000000000E+00 0.  1.
    9000010    2    1    2  502    0 -0.93687364584E+02 -0.52455355705E+03  0.19676864465E+04  0.22710567503E+04  0.10009870403E+04 0.  0.
   -9000010    2    1    2    0  501  0.93687364584E+02  0.52455355705E+03  0.92837118262E+03  0.14620156600E+04  0.99583280769E+03 0.  0.
        -13    1    3    3    0    0 -0.17017991419E+03 -0.29470983087E+03  0.56976641573E+02  0.34505280241E+03  0.10566000000E+00 0.  1.
         13    1    4    4    0    0 -0.34759037300E+03  0.54745328425E+03  0.73358054510E+03  0.97911418800E+03  0.10566000000E+00 0. -1.
          4    1    3    3  502    0  0.76492549602E+02 -0.22984372618E+03  0.19107098049E+04  0.19260039479E+04  0.00000000000E+00 0.  1.
         -4    1    4    4    0  501  0.44127773758E+03 -0.22899727205E+02  0.19479063752E+03  0.48290147200E+03  0.00000000000E+00 0. -1.
</event>
<event>
 8    1  0.7096247E-006  0.1174428E+04  0.7818608E-02  0.8626072E-01
          2   -1    0    0  502    0  0.00000000000E+00  0.00000000000E+00  0.31039785166E+04  0.31039785166E+04  0.00000000000E+00 0. -1.
         -2   -1    0    0    0  501 -0.00000000000E+00 -0.00000000000E+00 -0.45834171743E+03  0.45834171743E+03  0.00000000000E+00 0.  1.
    9000010    2    1    2  502    0 -0.54415577643E+03  0.23633942598E+03  0.16286002503E+04  0.20050934563E+04  0.10080174403E+04 0.  0.
   -9000010    2    1    2    0  501  0.54415577643E+03 -0.23633942598E+03  0.10170365488E+04  0.15572267777E+04  0.10191320141E+04 0.  0.
        -13    1    3    3    0    0 -0.39274986719E+02 -0.40715508930E+02 -0.13685197669E+03  0.14808359780E+03  0.10566000000E+00 0.  1.
         13    1    4    4    0    0  0.32604108319E+03 -0.60013843661E+03  0.35180628324E+03  0.76826857486E+03  0.10566000000E+00 0. -1.
          4    1    3    3  502    0 -0.50488078971E+03  0.27705493491E+03  0.17654522270E+04  0.18570098585E+04  0.00000000000E+00 0.  1.
         -4    1    4    4    0  501  0.21811469323E+03  0.36379901064E+03  0.66523026560E+03  0.78895820283E+03  0.00000000000E+00 0. -1.
</event>
<event>
 8    1  0.7096247E-006  0.1505531E+04  0.7818608E-02  0.8406323E-01
          2   -1    0    0  502    0  0.00000000000E+00  0.00000000000E+00  0.13573805701E+04  0.13573805701E+04  0.00000000000E+00 0. -1.
         -2   -1    0    0    0  501 -0.00000000000E+00 -0.00000000000E+00 -0.18697124354E+04  0.18697124354E+04  0.00000000000E+00 0.  1.
    9000010    2    1    2  502    0  0.59538121596E+03  0.99610062549E+03  0.27583413800E+03  0.14902854531E+04  0.89340417037E+03 0.  0.
   -9000010    2    1    2    0  501 -0.59538121596E+03 -0.99610062549E+03 -0.78816600330E+03  0.17368075525E+04  0.10240115122E+04 0.  0.
        -13    1    3    3    0    0  0.95597178855E+01  0.77236492676E+03  0.36947187970E+03  0.85624088278E+03  0.10566000000E+00 0.  1.
         13    1    4    4    0    0 -0.87608725587E+02 -0.20190860786E+03 -0.76269943549E+03  0.79382165175E+03  0.10566000000E+00 0. -1.
          4    1    3    3  502    0  0.58582149807E+03  0.22373569874E+03 -0.93637741700E+02  0.63404457033E+03  0.00000000000E+00 0.  1.
         -4    1    4    4    0  501 -0.50777249037E+03 -0.79419201764E+03 -0.25466567818E+02  0.94298590071E+03  0.00000000000E+00 0. -1.
</event>
<event>
 8    1  0.7096247E-006  0.1204711E+04  0.7818608E-02  0.8603023E-01
         -2   -1    0    0    0  501 -0.00000000000E+00  0.00000000000E+00  0.90298075994E+03  0.90298075994E+03  0.00000000000E+00 0. -1.
          2   -1    0    0  502    0  0.00000000000E+00 -0.00000000000E+00 -0.16159360841E+04  0.16159360841E+04  0.00000000000E+00 0.  1.
    9000010    2    1    2  502    0  0.64023469180E+03 -0.23643030973E+03 -0.45225476699E+03  0.13127394344E+04  0.10261338589E+04 0.  0.
   -9000010    2    1    2    0  501 -0.64023469180E+03  0.23643030973E+03 -0.26070055722E+03  0.12061774097E+04  0.95973924128E+03 0.  0.
        -13    1    3    3    0    0 -0.71937699803E+02  0.26756507571E+03  0.82921010806E+02  0.28920927992E+03  0.10566000000E+00 0.  1.
         13    1    4    4    0    0 -0.48929381103E+03  0.48676738016E+03 -0.48004767043E+03  0.84071201547E+03  0.10566000000E+00 0. -1.
          4    1    3    3  502    0  0.71217239161E+03 -0.50399538544E+03 -0.53517577779E+03  0.10235301544E+04  0.00000000000E+00 0.  1.
         -4    1    4    4    0  501 -0.15094088077E+03 -0.25033707044E+03  0.21934711321E+03  0.36546539425E+03  0.00000000000E+00 0. -1.
</event>
<event>
 7    1  0.7096247E-006  0.1056515E+04  0.7818608E-02  0.8723230E-01
         -1   -1    0    0    0  501 -0.00000000000E+00  0.00000000000E+00  0.80686031036E+03  0.80686031036E+03  0.00000000000E+00 0.  1.
          1   -1    0    0  502    0  0.00000000000E+00 -0.00000000000E+00 -0.14653097486E+04  0.14653097486E+04  0.00000000000E+00 0. -1.
    9000010    2    1    2  502    0  0.31013386433E+03  0.59074876250E+03 -0.60091309609E+03  0.13268113931E+04  0.97681360018E+03 0.  0.
        -13    1    3    3    0    0  0.11742998790E+03  0.85084876924E+03 -0.44993795584E+03  0.96962756017E+03  0.10566000000E+00 0.  1.
         13    1    1    2    0    0 -0.47683561120E+02 -0.55899240202E+02 -0.29499537221E+03  0.30400777596E+03  0.10566000000E+00 0. -1.
          4    1    3    3  502    0  0.19270387643E+03 -0.26010000675E+03 -0.15097514025E+03  0.35718383288E+03  0.00000000000E+00 0.  1.
         -4    1    1    2    0  501 -0.26245030321E+03 -0.53484952229E+03  0.23745903001E+03  0.64135088999E+03  0.00000000000E+00 0. -1.
</event>
<event>
 8    1  0.7096247E-006  0.1484125E+04  0.7818608E-02  0.8418694E-01
         -2   -1    0    0    0  501 -0.00000000000E+00  0.00000000000E+00  0.21790856540E+04  0.21790856540E+04  0.00000000000E+00 0.  1.
          2   -1    0    0  502    0  0.00000000000E+00 -0.00000000000E+00 -0.10503475126E+04  0.10503475126E+04  0.00000000000E+00 0. -1.
    9000010    2    1    2  502    0 -0.37564576666E+03 -0.10417456684E+04  0.88273907137E+03  0.17397721241E+04  0.10105617230E+04 0.  0.
   -9000010    2    1    2    0  501  0.37564576666E+03  0.10417456684E+04  0.24599907003E+03  0.14896610425E+04  0.96552094716E+03 0.  0.
        -13    1    3    3    0    0 -0.21488496768E+03 -0.89475913682E+03  0.98049999578E+02  0.92540978806E+03  0.10566000000E+00 0.  1.
         13    1    4    4    0    0  0.76884006240E+02 -0.39080336476E+02 -0.24929326636E+03  0.26379076354E+03  0.10566000000E+00 0. -1.
          4    1    3    3  502    0 -0.16076079897E+03 -0.14698653159E+03  0.78468907179E+03  0.81436233603E+03  0.00000000000E+00 0.  1.
         -4    1    4    4    0  501  0.29876176042E+03  0.10808260049E+04  0.49529233639E+03  0.12258702790E+04  0.00000000000E+00 0. -1.
</event>
<event>
 8    1  0.7096247E-006  0.1523725E+04  0.7818608E-02  0.8395974E-01
          2   -1    0    0  502    0  0.00000000000E+00  0.00000000000E+00  0.33256777503E+04  0.33256777503E+04  0.00000000000E+00 0.  1.
         -2   -1    0    0    0  501 -0.00000000000E+00 -0.00000000000E+00 -0.89698206559E+03  0.89698206559E+03  0.00000000000E+00 0. -1.
    9000010    2    1    2  502    0  0.65247655558E+03 -0.94615687304E+03  0.22047829994E+03  0.15399783473E+04  0.10009915811E+04 0.  0.
   -9000010    2    1    2    0  501 -0.65247655558E+03  0.94615687304E+03  0.22082173847E+04  0.26826814686E+04  0.99980866151E+03 0.  0.
        -13    1    3    3    0    0 -0.12523060379E+03 -0.11787188587E+01 -0.20841744255E+03  0.24315002575E+03  0.10566000000E+00 0.  1.
         13    1    4    4    0    0 -0.39549110888E+03  0.79938946415E+02  0.14439436893E+04  0.14992587640E+04  0.10566000000E+00 0. -1.
          4    1    3    3  502    0  0.77770715936E+03 -0.94497815418E+03  0.42889574249E+03  0.12968283215E+04  0.00000000000E+00 0.  1.
         -4    1    4    4    0  501 -0.25698544670E+03  0.86621792662E+03  0.76427369544E+03  0.11834227046E+04  0.00000000000E+00 0. -1.
</event>
<event>
 8    1  0.7096247E-006  0.1253458E+04  0.7818608E-02  0.8567359E-01
          1   -1    0    0  502    0  0.00000000000E+00  0.00000000000E+00  0.81313935355E+03  0.81313935355E+03  0.00000000000E+00 0. -1.
         -1   -1    0    0    0  501 -0.00000000000E+00 -0.00000000000E+00 -0.24526514895E+04  0.24526514895E+04  0.00000000000E+00 0.  1.
    9000010    2    1    2  502    0  0.19552703752E+03 -0.76117836875E+03 -0.15711329546E+04  0.20089032135E+04  0.97447936286E+03 0.  0.
   -9000010    2    1    2    0  501 -0.19552703752E+03  0.76117836875E+03 -0.68379181288E+02  0.12568876295E+04  0.97850266699E+03 0.  0.
        -13    1    3    3    0    0  0.37588833472E+03 -0.46560181906E+03 -0.25933313390E+03  0.65217388754E+03  0.10566000000E+00 0.  1.
         13    1    4    4    0    0 -0.10613833520E+03  0.64236418384E+03 -0.48673161723E+03  0.81289899081E+03  0.10566000000E+00 0. -1.
          4    1    3    3  502    0 -0.18036129720E+03 -0.29557654969E+03 -0.13117998207E+04  0.13567293260E+04  0.00000000000E+00 0.  1.
         -4    1    4    4    0  501 -0.89388702318E+02  0.11881418491E+03  0.41835243594E+03  0.44398863870E+03  0.00000000000E+00 0. -1.
</event>
<event>
 8    1  0.7096247E-006  0.1052686E+04  0.7818608E-02  0.8726604E-01
          2   -1    0    0  502    0  0.00000000000E+00  0.00000000000E+00  0.12369986854E+04  0.12369986854E+04  0.00000000000E+00 0. -1.
         -2   -1    0    0    0  501 -0.00000000000E+00 -0.00000000000E+00 -0.10684651261E+04  0.10684651261E+04  0.00000000000E+00 0.  1.
    9000010    2    1    2  502    0 -0.24237222744E+02 -0.39320420540E+03 -0.37747370027E+03  0.11353279183E+04  0.99563351569E+03 0.  0.
   -9000010    2    1    2    0  501  0.24237222744E+02  0.39320420540E+03  0.54600725956E+03  0.11701358932E+04  0.95702512553E+03 0.  0.
        -13    1    3    3    0    0 -0.43528725216E+03 -0.34322628154E+03  0.29000100178E+02  0.55508583950E+03  0.10566000000E+00 0.  1.
         13    1    4    4    0    0 -0.38266473956E+03  0.46847801656E+03  0.42405759931E+03  0.73873460295E+03  0.10566000000E+00 0. -1.
          4    1    3    3  502    0  0.41105002942E+03 -0.49977923860E+02 -0.40647380045E+03  0.58024207880E+03  0.00000000000E+00 0.  1.
         -4    1    4    4    0  501  0.40690196230E+03 -0.75273811157E+02  0.12194966025E+03  0.43140129022E+03  0.00000000000E+00 0. -1.
</event>
<event>
 8    1  0.7096247E-006  0.1169299E+04  0.7818608E-02  0.8630046E-01
          2   -1    0    0  502    0  0.00000000000E+00  0.00000000000E+00  0.15439016032E+04  0.15439016032E+04  0.00000000000E+00 0.  1.
         -2   -1    0    0    0  501 -0.00000000000E+00 -0.00000000000E+00 -0.90735938690E+03  0.90735938690E+03  0.00000000000E+00 0. -1.
    9000010    2    1    2  502    0  0.43027688000E+03  0.29406772389E+03  0.51413957524E+03  0.13204615790E+04  0.10989382417E+04 0.  0.
   -9000010    2    1    2    0  501 -0.43027688000E+03 -0.29406772389E+03  0.12240264110E+03  0.11307994111E+04  0.99604763038E+03 0.  0.
        -13    1    3    3    0    0  0.16779050837E+03  0.36480288161E+03 -0.27442202291E+03  0.48635609891E+03  0.10566000000E+00 0.  1.
         13    1    4    4    0    0 -0.50751368563E+03  0.40639284867E+02 -0.29641108506E+03  0.58913600729E+03  0.10566000000E+00 0. -1.
          4    1    3    3  502    0  0.26248637163E+03 -0.70735157720E+02  0.78856159815E+03  0.83410548008E+03  0.00000000000E+00 0.  1.
         -4    1    4    4    0  501  0.77236805628E+02 -0.33470700875E+03  0.41881372616E+03  0.54166340385E+03  0.00000000000E+00 0. -1.
</event>
<event>
 8    1  0.7096247E-006  0.1117143E+04  0.7818608E-02  0.8671712E-01
         -4   -1    0    0    0  501 -0.00000000000E+00  0.00000000000E+00  0.26025628322E+04  0.26025628322E+04  0.00000000000E+00 0. -1.
          4   -1    0    0  502    0  0.00000000000E+00 -0.00000000000E+00 -0.57664846662E+03  0.57664846662E+03  0.00000000000E+00 0.  1.
    9000010    2    1    2  502    0 -0.51459419941E+03 -0.96331939936E+02  0.37145866551E+03  0.11906611191E+04  0.10027987473E+04 0.  0.
   -9000010    2    1    2    0  501  0.51459419941E+03  0.96331939936E+02  0.16544557001E+04  0.19885501798E+04  0.97109274596E+03 0.  0.
        -13    1    3    3    0    0 -0.38751327714E+02  0.28335349239E+03 -0.20531460983E+03  0.35205818726E+03  0.10566000000E+00 0.  1.
         13    1    4    4    0    0  0.71478367437E+03 -0.18037392779E+03  0.13118546047E+04  0.15047966540E+04  0.10566000000E+00 0. -1.
          4    1    3    3  502    0 -0.47584287170E+03 -0.37968543232E+03  0.57677327534E+03  0.83860293179E+03  0.00000000000E+00 0.  1.
         -4    1    4    4    0  501 -0.20018947496E+03  0.27670586773E+03  0.34260109543E+03  0.48375352578E+03  0.00000000000E+00 0. -1.
</event>
<event>
 8    1  0.7096247E-006  0.1064687E+04  0.7818608E-02  0.8716078E-01
          2   -1    0    0  502    0  0.00000000000E+00  0.00000000000E+00  0.17962079050E+04  0.17962079050E+04  0.00000000000E+00 0.  1.
         -2   -1    0    0    0  501 -0.00000000000E+00 -0.00000000000E+00 -0.74319801633E+03  0.74319801633E+03  0.00000000000E+00 0. -1.
    9000010    2    1    2  502    0  0.31582539732E+03  0.22536152758E+03  0.30132870214E+02  0.10572646902E+04  0.98303974257E+03 0.  0.
   -9000010    2    1    2    0  501 -0.31582539732E+03 -0.22536152758E+03  0.10228770185E+04  0.14821412312E+04  0.99996586673E+03 0.  0.
        -13    1    3    3    0    0  0.48459379113E+03  0.39622285620E+03  0.30158766587E+03  0.69482287351E+03  0.10566000000E+00 0.  1.
         13    1    4    4    0    0 -0.28397333223E+03 -0.24092125548E+03 -0.78174163205E+02  0.38051953395E+03  0.10566000000E+00 0. -1.
          4    1    3    3  502    0 -0.16876839381E+03 -0.17086132862E+03 -0.27145479565E+03  0.36244181664E+03  0.00000000000E+00 0.  1.
         -4    1    4    4    0  501 -0.31852065098E+02  0.15559727904E+02  0.11010511817E+04  0.11016216973E+04  0.00000000000E+00 0. -1.
</event>
<event>
 8    1  0.7096247E-006  0.1629536E+04  0.7818608E-02  0.8338618E-01
         -2   -1    0    0    0  501 -0.00000000000E+00  0.00000000000E+00  0.21083561311E+04  0.21083561311E+04  0.00000000000E+00 0.  1.
          2   -1    0    0  502    0  0.00000000000E+00 -0.00000000000E+00 -0.12632857148E+04  0.12632857148E+04  0.00000000000E+00 0. -1.
    9000010    2    1    2  502    0  0.17966705108E+03  0.12807668345E+04  0.32910634299E+03  0.16598509837E+04  0.98699056198E+03 0.  0.
   -9000010    2    1    2    0  501 -0.17966705108E+03 -0.12807668345E+04  0.51596407328E+03  0.17117908622E+04  0.99567318810E+03 0.  0.
        -13    1    3    3    0    0  0.14136716475E+03  0.10359808337E+04  0.66747558537E+03  0.12404695205E+04  0.10566000000E+00 0.  1.
         13    1    4    4    0    0 -0.68925679282E+02 -0.13300763399E+03  0.53802413178E+03  0.55849060646E+03  0.10566000000E+00 0. -1.
          4    1    3    3  502    0  0.38299886332E+02  0.24478600084E+03 -0.33836924238E+03  0.41938146321E+03  0.00000000000E+00 0.  1.
         -4    1    4    4    0  501 -0.11074137180E+03 -0.11477592005E+04 -0.22060058492E+02  0.11533002558E+04  0.00000000000E+00 0. -1.
</event>
<event>
 8    1  0.7096247E-006  0.1172439E+04  0.7818608E-02  0.8627610E-01
         -2   -1    0    0    0  501 -0.00000000000E+00  0.00000000000E+00  0.94273527674E+03  0.94273527674E+03  0.00000000000E+00 0.  1.
          2   -1    0    0  502    0  0.00000000000E+00 -0.00000000000E+00 -0.16211288612E+04  0.16211288612E+04  0.00000000000E+00 0. -1.
    9000010    2    1    2  502    0 -0.22955874301E+03 -0.53282495729E+03  0.68762091330E+02  0.11687291100E+04  0.10122252001E+04 0.  0.
   -9000010    2    1    2    0  501  0.22955874301E+03  0.53282495729E+03 -0.74715567583E+03  0.13951350280E+04  0.10254562354E+04 0.  0.
        -13    1    3    3    0    0  0.91275722909E+02 -0.29684259506E+03 -0.43002497422E+03  0.53044158346E+03  0.10566000000E+00 0.  1.
         13    1    4    4    0    0 -0.39807242249E+03  0.19656163999E+03 -0.42144873984E+03  0.61214147330E+03  0.10566000000E+00 0. -1.
          4    1    3    3  502    0 -0.32083446592E+03 -0.23598236223E+03  0.49878706555E+03  0.63828752657E+03  0.00000000000E+00 0.  1.
         -4    1    4    4    0  501  0.62763116550E+03  0.33626331731E+03 -0.32570693599E+03  0.78299355465E+03  0.00000000000E+00 0. -1.
</event>
<event>
 8    1  0.7096247E-006  0.1226313E+04  0.7818608E-02  0.8587007E-01
          1   -1    0    0  502    0  0.00000000000E+00  0.00000000000E+00  0.18346769585E+04  0.18346769585E+04  0.00000000000E+00 0. -1.
         -1   -1    0    0    0  501 -0.00000000000E+00 -0.00000000000E+00 -0.10232541789E+04  0.10232541789E+04  0.00000000000E+00 0.  1.
    9000010    2    1    2  502    0  0.22062496674E+03 -0.69039606684E+03 -0.22664749610E+03  0.12646238987E+04  0.10112281704E+04 0.  0.
   -9000010    2    1    2    0  501 -0.22062496674E+03  0.69039606684E+03  0.10380702757E+04  0.15933072386E+04  0.96732412056E+03 0.  0.
        -13    1    3    3    0    0  0.16251789146E+03 -0.74179946138E+03 -0.54643621194E+03  0.93555921824E+03  0.10566000000E+00 0.  1.
         13    1    4    4    0    0 -0.99322909021E+02 -0.23858306163E+03  0.32899063216E+03  0.41835602633E+03  0.10566000000E+00 0. -1.
          4    1    3    3  502    0  0.58107075272E+02  0.51403394536E+02  0.31978871583E+03  0.32906468048E+03  0.00000000000E+00 0.  1.
         -4    1    4    4    0  501 -0.12130205771E+03  0.92897912847E+03  0.70907964356E+03  0.11749512123E+04  0.00000000000E+00 0. -1.
</event>
<event>
 8    1  0.7096247E-006  0.1096764E+04  0.7818608E-02  0.8688640E-01
          1   -1    0    0  502    0  0.00000000000E+00  0.00000000000E+00  0.24664058040E+04  0.24664058040E+04  0.00000000000E+00 0.  1.
         -1   -1    0    0    0  501 -0.00000000000E+00 -0.00000000000E+00 -0.50736607905E+03  0.50736607905E+03  0.00000000000E+00 0. -1.
    9000010    2    1    2  502    0 -0.29247571394E+03  0.35450490775E+03  0.12714799699E+04  0.16786223737E+04  0.99493516716E+03 0.  0.
   -9000010    2    1    2    0  501  0.29247571394E+03 -0.35450490775E+03  0.68755975502E+03  0.12951495093E+04  0.99672366374E+03 0.  0.
        -13    1    3    3    0    0 -0.24446584903E+03  0.46224694364E+03  0.14057758128E+04  0.14998804737E+04  0.10566000000E+00 0.  1.
         13    1    4    4    0    0  0.64372685451E+03 -0.33574453244E+03  0.34377776494E+03  0.80330057707E+03  0.10566000000E+00 0. -1.
          4    1    3    3  502    0 -0.48009864912E+02 -0.10774203589E+03 -0.13429584289E+03  0.17874190008E+03  0.00000000000E+00 0.  1.
         -4    1    4    4    0  501 -0.35125114057E+03 -0.18760375303E+02  0.34378199008E+03  0.49184893224E+03  0.00000000000E+00 0. -1.
</event>
<event>
 8    1  0.7096247E-006  0.1093114E+04  0.7818608E-02  0.8691713E-01
          1   -1    0    0  502    0  0.00000000000E+00  0.00000000000E+00  0.22411638219E+04  0.22411638219E+04  0.00000000000E+00 0. -1.
         -1   -1    0    0    0  501 -0.00000000000E+00 -0.00000000000E+00 -0.53340907535E+03  0.53340907535E+03  0.00000000000E+00 0.  1.
    9000010    2    1    2  502    0 -0.47142374587E+03 -0.14439073443E+03  0.88652883643E+03  0.14223893000E+04  0.99708019266E+03 0.  0.
   -9000010    2    1    2    0  501  0.47142374587E+03  0.14439073443E+03  0.82122591008E+03  0.13521835972E+04  0.95441052633E+03 0.  0.
        -13    1    3    3    0    0 -0.32004384611E+03  0.35030196831E+02  0.10744733339E+04  0.11216720262E+04  0.10566000000E+00 0.  1.
         13    1    4    4    0    0  0.33882121126E+03  0.25491958579E+03 -0.82634091118E+02  0.43198635696E+03  0.10566000000E+00 0. -1.
          4    1    3    3  502    0 -0.15137989977E+03 -0.17942093126E+03 -0.18794449743E+03  0.30071727377E+03  0.00000000000E+00 0.  1.
         -4    1    4    4    0  501  0.13260253461E+03 -0.11052885135E+03  0.90386000120E+03  0.92019724023E+03  0.00000000000E+00 0. -1.
</event>
<event>
 8    1  0.7096247E-006  0.1265275E+04  0.7818608E-02  0.8558965E-01
          1   -1    0    0  502    0  0.00000000000E+00  0.00000000000E+00  0.11073053829E+04  0.11073053829E+04  0.00000000000E+00 0. -1.
         -1   -1    0    0    0  501 -0.00000000000E+00 -0.00000000000E+00 -0.14476960974E+04  0.14476960974E+04  0.00000000000E+00 0.  1.
    9000010    2    1    2  502    0 -0.79607411011E+03 -0.13789807507E+03 -0.20423723447E+03  0.13174841611E+04  0.10204419625E+04 0.  0.
   -9000010    2    1    2    0  501  0.79607411011E+03  0.13789807507E+03 -0.13615348008E+03  0.12375173192E+04  0.92744890819E+03 0.  0.
        -13    1    3    3    0    0 -0.41764876452E+03  0.30910523066E+03 -0.44514015718E+03  0.68419756272E+03  0.10566000000E+00 0.  1.
         13    1    4    4    0    0  0.64223566201E+03 -0.33781044472E+03 -0.29240035976E+02  0.72624894698E+03  0.10566000000E+00 0. -1.
          4    1    3    3  502    0 -0.37842534559E+03 -0.44700330574E+03  0.24090292271E+03  0.63328659839E+03  0.00000000000E+00 0.  1.
         -4    1    4    4    0  501  0.15383844810E+03  0.47570851979E+03 -0.10691344410E+03  0.51126837223E+03  0.00000000000E+00 0. -1.
</event>
<event>
 8    1  0.7096247E-006  0.1216763E+04  0.7818608E-02  0.8594045E-01
          2   -1    0    0  502    0  0.00000000000E+00  0.00000000000E+00  0.34794552424E+03  0.34794552424E+03  0.00000000000E+00 0. -1.
         -2   -1    0    0    0  501 -0.00000000000E+00 -0.00000000000E+00 -0.42561310669E+04  0.42561310669E+04  0.00000000000E+00 0.  1.
    9000010    2    1    2  502    0  0.44787058168E+03 -0.53312092899E+03 -0.19966228806E+04  0.23400489561E+04  0.10022575550E+04 0.  0.
   -9000010    2    1    2    0  501 -0.44787058168E+03  0.53312092899E+03 -0.19115626621E+04  0.22640276351E+04  0.99345021945E+03 0.  0.
        -13    1    3    3    0    0 -0.18443382072E+03 -0.10198787375E+03 -0.12611291224E+04  0.12786180177E+04  0.10566000000E+00 0.  1.
         13    1    4    4    0    0 -0.12259488309E+03  0.43794676425E+03 -0.16329135701E+03  0.48320901494E+03  0.10566000000E+00 0. -1.
          4    1    3    3  502    0  0.63230440240E+03 -0.43113305524E+03 -0.73549375819E+03  0.10614309384E+04  0.00000000000E+00 0.  1.
         -4    1    4    4    0  501 -0.32527569860E+03  0.95174164736E+02 -0.17482713051E+04  0.17808186202E+04  0.00000000000E+00 0. -1.
</event>
<event>
 8    1  0.7096247E-006  0.1032378E+04  0.7818608E-02  0.8744750E-01
         -1   -1    0    0    0  501 -0.00000000000E+00  0.00000000000E+00  0.14131131449E+04  0.14131131449E+04  0.00000000000E+00 0.  1.
          1   -1    0    0  502    0  0.00000000000E+00 -0.00000000000E+00 -0.76205295082E+03  0.76205295082E+03  0.00000000000E+00 0. -1.
    9000010    2    1    2  502    0  0.36000433442E+02  0.28313692578E+03  0.43722733510E+03  0.11258865156E+04  0.99749193160E+03 0.  0.
   -9000010    2    1    2    0  501 -0.36000433442E+02 -0.28313692578E+03  0.21383285897E+03  0.10492795801E+04  0.98681335400E+03 0.  0.
        -13    1    3    3    0    0  0.40689492906E+03  0.35269189122E+03  0.50990482427E+03  0.74159152800E+03  0.10566000000E+00 0.  1.
         13    1    4    4    0    0 -0.35036931571E+03 -0.51159268770E+03  0.33798161909E+02  0.62098958317E+03  0.10566000000E+00 0. -1.
          4    1    3    3  502    0 -0.37089449562E+03 -0.69554965441E+02 -0.72677489172E+02  0.38429498764E+03  0.00000000000E+00 0.  1.
         -4    1    4    4    0  501  0.31436888227E+03  0.22845576192E+03  0.18003469706E+03  0.42828999689E+03  0.00000000000E+00 0. -1.
</event>
<event>
 8    1  0.1718756E-005  0.1008689E+04  0.7818608E-02  0.8766470E-01
          2   -1    0    0  502    0  0.00000000000E+00  0.00000000000E+00  0.13691176123E+04  0.13691176123E+04  0.00000000000E+00 0.  1.
         -2   -1    0    0    0  501 -0.00000000000E+00 -0.00000000000E+00 -0.76871518390E+03  0.76871518390E+03  0.00000000000E+00 0. -1.
    9000010    2    1    2  502    0  0.53647713244E+03  0.10883667845E+03  0.11832392400E+03  0.90150050010E+03  0.70643433133E+03 0.  0.
   -9000010    2    1    2    0  501 -0.53647713244E+03 -0.10883667845E+03  0.48207850443E+03  0.12363322961E+04  0.99823079786E+03 0.  0.
        -13    1    3    3    0    0 -0.23045277352E+02 -0.18393196077E+03  0.19061418202E+03  0.26588687172E+03  0.10566000000E+00 0.  1.
         13    1    4    4    0    0 -0.79796242755E+03 -0.21683869781E+03  0.23223466470E+03  0.85889231414E+03  0.10566000000E+00 0. -1.
          4    1    3    3  502    0  0.55952240979E+03  0.29276863922E+03 -0.72290258029E+02  0.63561362837E+03  0.00000000000E+00 0.  1.
         -4    1    4    4    0  501  0.26148529511E+03  0.10800201937E+03  0.24984383974E+03  0.37743998198E+03  0.00000000000E+00 0. -1.
</event>
<event>
 8    1  0.7096247E-006  0.1283436E+04  0.7818608E-02  0.8546249E-01
          2   -1    0    0  502    0  0.00000000000E+00  0.00000000000E+00  0.26139795976E+04  0.26139795976E+04  0.00000000000E+00 0. -1.
         -2   -1    0    0    0  501 -0.00000000000E+00 -0.00000000000E+00 -0.77706278419E+03  0.77706278419E+03  0.00000000000E+00 0.  1.
    9000010    2    1    2  502    0 -0.32388134675E+03 -0.73547903651E+03  0.16587393288E+04  0.21005581709E+04  0.10075216765E+04 0.  0.
   -9000010    2    1    2    0  501  0.32388134675E+03  0.73547903651E+03  0.17817748458E+03  0.12904842108E+04  0.99386807098E+03 0.  0.
        -13    1    3    3    0    0  0.15985055781E+03  0.84554925330E+02 -0.80516537645E+01  0.18101540410E+03  0.10566000000E+00 0.  1.
         13    1    4    4    0    0  0.28903798469E+03 -0.16548502333E+03  0.20016269397E+03  0.38857864681E+03  0.10566000000E+00 0. -1.
          4    1    3    3  502    0 -0.48373190456E+03 -0.82003396184E+03  0.16667909826E+04  0.19195427668E+04  0.00000000000E+00 0.  1.
         -4    1    4    4    0  501  0.34843362061E+02  0.90096405984E+03 -0.21985209387E+02  0.90190556404E+03  0.00000000000E+00 0. -1.
</event>
<event>
 8    1  0.7096247E-006  0.1367204E+04  0.7818608E-02  0.8490279E-01
          1   -1    0    0  502    0  0.00000000000E+00  0.00000000000E+00  0.13795264671E+04  0.13795264671E+04  0.00000000000E+00 0. -1.
         -1   -1    0    0    0  501 -0.00000000000E+00 -0.00000000000E+00 -0.14208701096E+04  0.14208701096E+04  0.00000000000E+00 0.  1.
    9000010    2    1    2  502    0 -0.19764174555E+03  0.91642536526E+03 -0.32216344868E+03  0.14043158730E+04  0.99469395982E+03 0.  0.
   -9000010    2    1    2    0  501  0.19764174555E+03 -0.91642536526E+03  0.28081980625E+03  0.13960807037E+04  0.99563239102E+03 0.  0.
        -13    1    3    3    0    0 -0.73529403362E+02  0.41248021632E+03  0.35637478722E+03  0.55004500011E+03  0.10566000000E+00 0.  1.
         13    1    4    4    0    0  0.18868170750E+03 -0.26647476881E+03  0.59150245656E+03  0.67563655647E+03  0.10566000000E+00 0. -1.
          4    1    3    3  502    0 -0.12411234219E+03  0.50394514894E+03 -0.67853823590E+03  0.85427087285E+03  0.00000000000E+00 0.  1.
         -4    1    4    4    0  501  0.89600380501E+01 -0.64995059646E+03 -0.31068265031E+03  0.72044414726E+03  0.00000000000E+00 0. -1.
</event>
<event>
 8    1  0.7096247E-006  0.1434584E+04  0.7818608E-02  0.8448170E-01
          2   -1    0    0  502    0  0.00000000000E+00  0.00000000000E+00  0.20280545383E+04  0.20280545383E+04  0.00000000000E+00 0.  1.
         -2   -1    0    0    0  501 -0.00000000000E+00 -0.00000000000E+00 -0.10581212098E+04  0.10581212098E+04  0.00000000000E+00 0. -1.
    9000010    2    1    2  502    0 -0.99895678601E+03 -0.30007288816E+03  0.16964604515E+03  0.14347987887E+04  0.97052016205E+03 0.  0.
   -9000010    2    1    2    0  501  0.99895678601E+03  0.30007288816E+03  0.80028728340E+03  0.16513769594E+04  0.99931362815E+03 0.  0.
        -13    1    3    3    0    0 -0.76838978537E+03 -0.63355277139E+03  0.23727022894E+03  0.10237720201E+04  0.10566000000E+00 0.  1.
         13    1    4    4    0    0  0.90243487432E+03  0.69747215411E+01  0.94833946072E+03  0.13091161496E+04  0.10566000000E+00 0. -1.
          4    1    3    3  502    0 -0.23056700064E+03  0.33347988323E+03 -0.67624183783E+02  0.41102676864E+03  0.00000000000E+00 0.  1.
         -4    1    4    4    0  501  0.96521911692E+02  0.29309816661E+03 -0.14805217732E+03  0.34226080979E+03  0.00000000000E+00 0. -1.
</event>
<event>
 8    1  0.7096247E-006  0.1750072E+04  0.7818608E-02  0.8278522E-01
          2   -1    0    0  502    0  0.00000000000E+00  0.00000000000E+00  0.39749470968E+04  0.39749470968E+04  0.00000000000E+00 0. -1.
         -2   -1    0    0    0  501 -0.00000000000E+00 -0.00000000000E+00 -0.79338846591E+03  0.79338846591E+03  0.00000000000E+00 0.  1.
    9000010    2    1    2  502    0  0.60252887030E+03 -0.12990539395E+04  0.11809265094E+04  0.21064595922E+04  0.99599318059E+03 0.  0.
   -9000010    2    1    2    0  501 -0.60252887030E+03  0.12990539395E+04  0.20006321215E+04  0.26618759705E+04  0.10161065983E+04 0.  0.
        -13    1    3    3    0    0  0.28331657169E+03 -0.77556097319E+03  0.12407827402E+04  0.14904042816E+04  0.10566000000E+00 0.  1.
         13    1    4    4    0    0 -0.43318332421E+03  0.11139275314E+04  0.80692241780E+03  0.14420839564E+04  0.10566000000E+00 0. -1.
          4    1    3    3  502    0  0.31921229861E+03 -0.52349296634E+03 -0.59856230873E+02  0.61605531064E+03  0.00000000000E+00 0.  1.
         -4    1    4    4    0  501 -0.16934554609E+03  0.18512640808E+03  0.11937097037E+04  0.12197920141E+04  0.00000000000E+00 0. -1.
</event>
<event>
 8    1  0.7096247E-006  0.1330698E+04  0.7818608E-02  0.8514149E-01
         -1   -1    0    0    0  501 -0.00000000000E+00  0.00000000000E+00  0.19329891906E+04  0.19329891906E+04  0.00000000000E+00 0.  1.
          1   -1    0    0  502    0  0.00000000000E+00 -0.00000000000E+00 -0.94822991391E+03  0.94822991391E+03  0.00000000000E+00 0. -1.
    9000010    2    1    2  502    0  0.35308285859E+03 -0.74580861878E+03  0.23406917795E+03  0.13686073852E+04  0.10664894719E+04 0.  0.
   -9000010    2    1    2    0  501 -0.35308285859E+03  0.74580861878E+03  0.75069009870E+03  0.15126117193E+04  0.10215481331E+04 0.  0.
        -13    1    3    3    0    0 -0.37956211163E+02 -0.90828092838E+03  0.25649323382E+03  0.94456535453E+03  0.10566000000E+00 0.  1.
         13    1    4    4    0    0 -0.19403064518E+02  0.29739003348E+03 -0.23496143560E+03  0.37950520195E+03  0.10566000000E+00 0. -1.
          4    1    3    3  502    0  0.39103906975E+03  0.16247230960E+03 -0.22424055862E+02  0.42404203063E+03  0.00000000000E+00 0.  1.
         -4    1    4    4    0  501 -0.33367979407E+03  0.44841858531E+03  0.98565153430E+03  0.11331065174E+04  0.00000000000E+00 0. -1.
</event>
<event>
 8    1  0.7096247E-006  0.1412263E+04  0.7818608E-02  0.8461852E-01
          1   -1    0    0  502    0  0.00000000000E+00  0.00000000000E+00  0.22419548210E+04  0.22419548210E+04  0.00000000000E+00 0. -1.
         -1   -1    0    0    0  501 -0.00000000000E+00 -0.00000000000E+00 -0.89159806350E+03  0.89159806350E+03  0.00000000000E+00 0.  1.
    9000010    2    1    2  502    0 -0.72497436845E+03  0.65021194233E+03  0.59652740907E+03  0.15209387593E+04  0.10045129939E+04 0.  0.
   -9000010    2    1    2    0  501  0.72497436845E+03 -0.65021194233E+03  0.75382934839E+03  0.16126141252E+04  0.10411062507E+04 0.  0.
        -13    1    3    3    0    0 -0.64191601503E+03  0.10030003217E+03  0.70021628978E+03  0.95520632873E+03  0.10566000000E+00 0.  1.
         13    1    4    4    0    0  0.84577208722E+03 -0.76377657935E+03  0.84932535448E+03  0.14212806393E+04  0.10566000000E+00 0. -1.
          4    1    3    3  502    0 -0.83058353421E+02  0.54991191016E+03 -0.10368888071E+03  0.56573243056E+03  0.00000000000E+00 0.  1.
         -4    1    4    4    0  501 -0.12079771877E+03  0.11356463702E+03 -0.95496006094E+02  0.19133348588E+03  0.00000000000E+00 0. -1.
</event>
<event>
 8    1  0.7096247E-006  0.1691345E+04  0.7818608E-02  0.8307157E-01
         -2   -1    0    0    0  501 -0.00000000000E+00  0.00000000000E+00  0.64475446251E+03  0.64475446251E+03  0.00000000000E+00 0. -1.
          2   -1    0    0  502    0  0.00000000000E+00 -0.00000000000E+00 -0.44812364641E+04  0.44812364641E+04  0.00000000000E+00 0.  1.
    9000010    2    1    2  502    0  0.47254155451E+03 -0.12824606605E+04 -0.21618632340E+04  0.27387762887E+04  0.97940903114E+03 0.  0.
   -9000010    2    1    2    0  501 -0.47254155451E+03  0.12824606605E+04 -0.16746187676E+04  0.23872146379E+04  0.10131361430E+04 0.  0.
        -13    1    3    3    0    0 -0.28850714787E+03 -0.56866505976E+03 -0.79233441963E+03  0.10170595697E+04  0.10566000000E+00 0.  1.
         13    1    4    4    0    0  0.30597994846E+03  0.55791106394E+03 -0.57902805236E+03  0.86032667093E+03  0.10566000000E+00 0. -1.
          4    1    3    3  502    0  0.76104870238E+03 -0.71379560078E+03 -0.13695288144E+04  0.17217167190E+04  0.00000000000E+00 0.  1.
         -4    1    4    4    0  501 -0.77852150297E+03  0.72454959659E+03 -0.10955907152E+04  0.15268879670E+04  0.00000000000E+00 0. -1.
</event>
<event>
 8    1  0.7096247E-006  0.1413837E+04  0.7818608E-02  0.8460879E-01
         -2   -1    0    0    0  501 -0.00000000000E+00  0.00000000000E+00  0.15360356031E+04  0.15360356031E+04  0.00000000000E+00 0.  1.
          2   -1    0    0  502    0  0.00000000000E+00 -0.00000000000E+00 -0.33317070734E+04  0.33317070734E+04  0.00000000000E+00 0. -1.
    9000010    2    1    2  502    0  0.21053513082E+03 -0.95406256325E+03 -0.27969847291E+04  0.31325161685E+04  0.10173365004E+04 0.  0.
   -9000010    2    1    2    0  501 -0.21053513082E+03  0.95406256325E+03  0.10013132587E+04  0.17352265081E+04  0.10265585109E+04 0.  0.
        -13    1    3    3    0    0  0.54073117056E+03 -0.63879548447E+03 -0.23458980741E+04  0.24907203084E+04  0.10566000000E+00 0.  1.
         13    1    4    4    0    0 -0.68245943266E+02 -0.78405232361E+01 -0.18732858998E+03  0.19952692641E+03  0.10566000000E+00 0. -1.
          4    1    3    3  502    0 -0.33019603973E+03 -0.31526707878E+03 -0.45108665498E+03  0.64179586000E+03  0.00000000000E+00 0.  1.
         -4    1    4    4    0  501 -0.14228918756E+03  0.96190308649E+03  0.11886418486E+04  0.15356995816E+04  0.00000000000E+00 0. -1.
</event>
<event>
 8    1  0.7096247E-006  0.1415661E+04  0.7818608E-02  0.8459753E-01
         -2   -1    0    0    0  501 -0.00000000000E+00  0.00000000000E+00  0.14975428346E+04  0.14975428346E+04  0.00000000000E+00 0.  1.
          2   -1    0    0  502    0  0.00000000000E+00 -0.00000000000E+00 -0.14150822834E+04  0.14150822834E+04  0.00000000000E+00 0. -1.
    9000010    2    1    2  502    0  0.47265032990E+03 -0.91083235105E+03  0.38046144876E+03  0.14860183958E+04  0.10052292538E+04 0.  0.
   -9000010    2    1    2    0  501 -0.47265032990E+03  0.91083235105E+03 -0.29800089756E+03  0.14266067222E+04  0.94519220202E+03 0.  0.
        -13    1    3    3    0    0  0.57471039062E+03 -0.10880274213E+04  0.30206372601E+03  0.12670194190E+04  0.10566000000E+00 0.  1.
         13    1    4    4    0    0 -0.14001476413E+03  0.26083192345E+03  0.34434692141E+03  0.45410597872E+03  0.10566000000E+00 0. -1.
          4    1    3    3  502    0 -0.10206006073E+03  0.17719507021E+03  0.78397722750E+02  0.21899897679E+03  0.00000000000E+00 0.  1.
         -4    1    4    4    0  501 -0.33263556576E+03  0.65000042760E+03 -0.64234781897E+03  0.97250074346E+03  0.00000000000E+00 0. -1.
</event>
<event>
 8    1  0.7096247E-006  0.1106733E+04  0.7818608E-02  0.8680312E-01
          2   -1    0    0  502    0  0.00000000000E+00  0.00000000000E+00  0.15468593642E+04  0.15468593642E+04  0.00000000000E+00 0.  1.
         -2   -1    0    0    0  501 -0.00000000000E+00 -0.00000000000E+00 -0.15118849544E+04  0.15118849544E+04  0.00000000000E+00 0. -1.
    9000010    2    1    2  502    0  0.44044033590E+03  0.22199100341E+03  0.10729247318E+04  0.15409222665E+04  0.98995265345E+03 0.  0.
   -9000010    2    1    2    0  501 -0.44044033590E+03 -0.22199100341E+03 -0.10379503221E+04  0.15178220522E+04  0.99155192294E+03 0.  0.
        -13    1    3    3    0    0  0.47992551697E+03 -0.16201730442E+03  0.10359074370E+04  0.11531185273E+04  0.10566000000E+00 0.  1.
         13    1    4    4    0    0 -0.44486614602E+03  0.10479144130E+03 -0.10945547650E+04  0.11861438694E+04  0.10566000000E+00 0. -1.
          4    1    3    3  502    0 -0.39485181074E+02  0.38400830783E+03  0.37017294815E+02  0.38780373918E+03  0.00000000000E+00 0.  1.
         -4    1    4    4    0  501  0.44258101231E+01 -0.32678244471E+03  0.56604442977E+02  0.33167818278E+03  0.00000000000E+00 0. -1.
</event>
<event>
 8    1  0.7096247E-006  0.1270661E+04  0.7818608E-02  0.8555172E-01
          1   -1    0    0  502    0  0.00000000000E+00  0.00000000000E+00  0.86389248971E+03  0.86389248971E+03  0.00000000000E+00 0.  1.
         -1   -1    0    0    0  501 -0.00000000000E+00 -0.00000000000E+00 -0.18880133786E+04  0.18880133786E+04  0.00000000000E+00 0. -1.
    9000010    2    1    2  502    0  0.91631060652E+03  0.61465664761E+02 -0.64927335163E+03  0.15058330416E+04  0.10012862271E+04 0.  0.
   -9000010    2    1    2    0  501 -0.91631060652E+03 -0.61465664761E+02 -0.37484753723E+03  0.12460728266E+04  0.75417747088E+03 0.  0.
        -13    1    3    3    0    0  0.96850905608E+03 -0.28349561055E+03 -0.50238228862E+03  0.11272832510E+04  0.10566000000E+00 0.  1.
         13    1    4    4    0    0 -0.36239487377E+03  0.18187688230E+03 -0.48388874002E+03  0.63131416009E+03  0.10566000000E+00 0. -1.
          4    1    3    3  502    0 -0.52198449554E+02  0.34496127531E+03 -0.14689106300E+03  0.37854979063E+03  0.00000000000E+00 0.  1.
         -4    1    4    4    0  501 -0.55391573276E+03 -0.24334254706E+03  0.10904120279E+03  0.61475866656E+03  0.00000000000E+00 0. -1.
</event>
<event>
 8    1  0.7096247E-006  0.1367561E+04  0.7818608E-02  0.8490050E-01
          2   -1    0    0  502    0  0.00000000000E+00  0.00000000000E+00  0.26378785380E+04  0.26378785380E+04  0.00000000000E+00 0. -1.
         -2   -1    0    0    0  501 -0.00000000000E+00 -0.00000000000E+00 -0.78854893610E+03  0.78854893610E+03  0.00000000000E+00 0.  1.
    9000010    2    1    2  502    0 -0.59477704158E+03  0.65321413736E+03  0.35731467187E+03  0.13732321851E+04  0.98875903084E+03 0.  0.
   -9000010    2    1    2    0  501  0.59477704158E+03 -0.65321413736E+03  0.14920149300E+04  0.20531952890E+04  0.10995698727E+04 0.  0.
        -13    1    3    3    0    0 -0.22210835331E+03  0.65133364217E+03 -0.18740916101E+03  0.71322495668E+03  0.10566000000E+00 0.  1.
         13    1    4    4    0    0  0.32910454227E+03 -0.75441071636E+03  0.15573671016E+04  0.17614873343E+04  0.10566000000E+00 0. -1.
          4    1    3    3  502    0 -0.37266868827E+03  0.18804951908E+01  0.54472383288E+03  0.66000722844E+03  0.00000000000E+00 0.  1.
         -4    1    4    4    0  501  0.26567249931E+03  0.10119657900E+03 -0.65352171563E+02  0.29170795467E+03  0.00000000000E+00 0. -1.
</event>
<event>
 8    1  0.7096247E-006  0.1553621E+04  0.7818608E-02  0.8379292E-01
         -1   -1    0    0    0  501 -0.00000000000E+00  0.00000000000E+00  0.12833733583E+04  0.12833733583E+04  0.00000000000E+00 0. -1.
          1   -1    0    0  502    0  0.00000000000E+00 -0.00000000000E+00 -0.26709481163E+04  0.26709481163E+04  0.00000000000E+00 0.  1.
    9000010    2    1    2  502    0 -0.11715115128E+04 -0.12407309912E+03  0.37816462515E+03  0.16094312695E+04  0.10292847852E+04 0.  0.
   -9000010    2    1    2    0  501  0.11715115128E+04  0.12407309912E+03 -0.17657393832E+04  0.23448902051E+04  0.99641414382E+03 0.  0.
        -13    1    3    3    0    0 -0.38501053947E+02  0.23023116299E+03  0.35158251896E+03  0.42201777020E+03  0.10566000000E+00 0.  1.
         13    1    4    4    0    0  0.43052130363E+03  0.29154617539E+03 -0.12197012385E+03  0.53406412306E+03  0.10566000000E+00 0. -1.
          4    1    3    3  502    0 -0.11330104588E+04 -0.35430426210E+03  0.26582106191E+02  0.11874134993E+04  0.00000000000E+00 0.  1.
         -4    1    4    4    0  501  0.74099020912E+03 -0.16747307628E+03 -0.16437692593E+04  0.18108260820E+04  0.00000000000E+00 0. -1.
</event>
<event>
 8    1  0.7096247E-006  0.1311447E+04  0.7818608E-02  0.8527055E-01
          2   -1    0    0  502    0  0.00000000000E+00  0.00000000000E+00  0.10794118146E+04  0.10794118146E+04  0.00000000000E+00 0. -1.
         -2   -1    0    0    0  501 -0.00000000000E+00 -0.00000000000E+00 -0.18214383428E+04  0.18214383428E+04  0.00000000000E+00 0.  1.
    9000010    2    1    2  502    0  0.11612851648E+03 -0.83657432190E+03  0.14285116835E+03  0.13167045386E+04  0.99998097840E+03 0.  0.
   -9000010    2    1    2    0  501 -0.11612851648E+03  0.83657432190E+03 -0.88487769649E+03  0.15841456188E+04  0.10065616600E+04 0.  0.
        -13    1    3    3    0    0  0.51966849072E+03 -0.70750796092E+03  0.16164833285E+03  0.89261024512E+03  0.10566000000E+00 0.  1.
         13    1    4    4    0    0 -0.23902281516E+03  0.34367463718E+03 -0.98150296911E+03  0.10670483831E+04  0.10566000000E+00 0. -1.
          4    1    3    3  502    0 -0.40353997423E+03 -0.12906636098E+03 -0.18797164495E+02  0.42409429345E+03  0.00000000000E+00 0.  1.
         -4    1    4    4    0  501  0.12289429867E+03  0.49289968472E+03  0.96625272620E+02  0.51709723569E+03  0.00000000000E+00 0. -1.
</event>
<event>
 7    1  0.7636158E-006  0.8292298E+03  0.7818608E-02  0.8954081E-01
         -2   -1    0    0    0  501 -0.00000000000E+00  0.00000000000E+00  0.12800000607E+04  0.12800000607E+04  0.00000000000E+00 0.  1.
          2   -1    0    0  502    0  0.00000000000E+00 -0.00000000000E+00 -0.70527228714E+03  0.70527228714E+03  0.00000000000E+00 0. -1.
    9000010    2    1    2  502    0 -0.30176310412E+03  0.33064047767E+02  0.76927546500E+03  0.13034132965E+04  0.10074459183E+04 0.  0.
        -13    1    3    3    0    0  0.24853669911E+03  0.12661913417E+02 -0.10504925772E+03  0.27012251400E+03  0.10566000000E+00 0.  1.
         13    1    1    2    0    0 -0.12203780274E+03  0.14787768261E+03 -0.40336142528E+02  0.19592868568E+03  0.10566000000E+00 0. -1.
          4    1    3    3  502    0 -0.55029980323E+03  0.20402134350E+02  0.87432472272E+03  0.10332907825E+04  0.00000000000E+00 0.  1.
         -4    1    1    2    0  501  0.42380090687E+03 -0.18094173038E+03 -0.15421154888E+03  0.48593036565E+03  0.00000000000E+00 0. -1.
</event>
<event>
 8    1  0.7096247E-006  0.1365293E+04  0.7818608E-02  0.8491510E-01
         -2   -1    0    0    0  501 -0.00000000000E+00  0.00000000000E+00  0.73098257911E+03  0.73098257911E+03  0.00000000000E+00 0. -1.
          2   -1    0    0  502    0  0.00000000000E+00 -0.00000000000E+00 -0.25613744082E+04  0.25613744082E+04  0.00000000000E+00 0.  1.
    9000010    2    1    2  502    0  0.29205864068E+03 -0.90631105023E+03 -0.10384382809E+04  0.17388596795E+04  0.10191079199E+04 0.  0.
   -9000010    2    1    2    0  501 -0.29205864068E+03  0.90631105023E+03 -0.79195354817E+03  0.15534973078E+04  0.93779821576E+03 0.  0.
        -13    1    3    3    0    0  0.16692428141E+03 -0.90565949981E+03 -0.12136858637E+04  0.15235209983E+04  0.10566000000E+00 0.  1.
         13    1    4    4    0    0 -0.56670755028E+03  0.60017027260E+03 -0.78947659991E+03  0.11422062496E+04  0.10566000000E+00 0. -1.
          4    1    3    3  502    0  0.12513435926E+03 -0.65155041847E+00  0.17524758275E+03  0.21533868126E+03  0.00000000000E+00 0.  1.
         -4    1    4    4    0  501  0.27464890960E+03  0.30614077763E+03 -0.24769482621E+01  0.41129105819E+03  0.00000000000E+00 0. -1.
</event>
<event>
 8    1  0.7096247E-006  0.1831927E+04  0.7818608E-02  0.8240482E-01
          1   -1    0    0  502    0  0.00000000000E+00  0.00000000000E+00  0.10798658443E+04  0.10798658443E+04  0.00000000000E+00 0. -1.
         -1   -1    0    0    0  501 -0.00000000000E+00 -0.00000000000E+00 -0.31078177931E+04  0.31078177931E+04  0.00000000000E+00 0.  1.
    9000010    2    1    2  502    0  0.28709800359E+03  0.15042924544E+04 -0.10034218796E+04  0.20844182179E+04  0.99630456516E+03 0.  0.
   -9000010    2    1    2    0  501 -0.28709800359E+03 -0.15042924544E+04 -0.10245300692E+04  0.21032654195E+04  0.10142694463E+04 0.  0.
        -13    1    3    3    0    0 -0.28193310819E+03  0.71284371485E+03 -0.13389489346E+03  0.77817754591E+03  0.10566000000E+00 0.  1.
         13    1    4    4    0    0 -0.12097894266E+03 -0.11455367611E+04 -0.12064609548E+04  0.16680642740E+04  0.10566000000E+00 0. -1.
          4    1    3    3  502    0  0.56903111178E+03  0.79144873960E+03 -0.86952698615E+03  0.13062406720E+04  0.00000000000E+00 0.  1.
         -4    1    4    4    0  501 -0.16611906093E+03 -0.35875569339E+03  0.18193088553E+03  0.43520114551E+03  0.00000000000E+00 0. -1.
</event>
<event>
 8    1  0.7096247E-006  0.1208948E+04  0.7818608E-02  0.8599854E-01
         -1   -1    0    0    0  501 -0.00000000000E+00  0.00000000000E+00  0.94864225894E+03  0.94864225894E+03  0.00000000000E+00 0.  1.
          1   -1    0    0  502    0  0.00000000000E+00 -0.00000000000E+00 -0.15427231873E+04  0.15427231873E+04  0.00000000000E+00 0. -1.
    9000010    2    1    2  502    0  0.64749895017E+03  0.20956884479E+03 -0.33966166013E+03  0.12481483841E+04  0.98961121370E+03 0.  0.
   -9000010    2    1    2    0  501 -0.64749895017E+03 -0.20956884479E+03 -0.25441926820E+03  0.12432170621E+04  0.10088039989E+04 0.  0.
        -13    1    3    3    0    0  0.11097119131E+03 -0.18651069754E+03  0.26874245837E+03  0.34543214340E+03  0.10566000000E+00 0.  1.
         13    1    4    4    0    0 -0.41405067625E+02 -0.45934596970E+03  0.13521501807E+03  0.48062065268E+03  0.10566000000E+00 0. -1.
          4    1    3    3  502    0  0.53652775886E+03  0.39607954234E+03 -0.60840411850E+03  0.90271624074E+03  0.00000000000E+00 0.  1.
         -4    1    4    4    0  501 -0.60609388254E+03  0.24977712491E+03 -0.38963428628E+03  0.76259640940E+03  0.00000000000E+00 0. -1.
</event>
<event>
 8    1  0.7096247E-006  0.1132842E+04  0.7818608E-02  0.8658926E-01
          2   -1    0    0  502    0  0.00000000000E+00  0.00000000000E+00  0.11395755967E+04  0.11395755967E+04  0.00000000000E+00 0.  1.
         -2   -1    0    0    0  501 -0.00000000000E+00 -0.00000000000E+00 -0.12618206124E+04  0.12618206124E+04  0.00000000000E+00 0. -1.
    9000010    2    1    2  502    0  0.47420288712E+03  0.73202207747E+02 -0.45177360842E+03  0.11898723028E+04  0.99069155757E+03 0.  0.
   -9000010    2    1    2    0  501 -0.47420288712E+03 -0.73202207747E+02  0.32952859277E+03  0.12115239063E+04  0.10625319481E+04 0.  0.
        -13    1    3    3    0    0 -0.15285585231E+03  0.30496173815E+03 -0.39055883361E+03  0.51855837375E+03  0.10566000000E+00 0.  1.
         13    1    4    4    0    0 -0.47950911300E+03 -0.14383892049E+03  0.68535086074E+03  0.84871929281E+03  0.10566000000E+00 0. -1.
          4    1    3    3  502    0  0.62705873942E+03 -0.23175953040E+03 -0.61214774819E+02  0.67131392901E+03  0.00000000000E+00 0.  1.
         -4    1    4    4    0  501  0.53062258873E+01  0.70636712740E+02 -0.35582226798E+03  0.36280461354E+03  0.00000000000E+00 0. -1.
</event>
<event>
 8    1  0.7096247E-006  0.1146412E+04  0.7818608E-02  0.8648046E-01
          1   -1    0    0  502    0  0.00000000000E+00  0.00000000000E+00  0.12914603086E+04  0.12914603086E+04  0.00000000000E+00 0.  1.
         -1   -1    0    0    0  501 -0.00000000000E+00 -0.00000000000E+00 -0.10626503049E+04  0.10626503049E+04  0.00000000000E+00 0. -1.
    9000010    2    1    2  502    0  0.38820572897E+03  0.37546645597E+03 -0.12622518697E+03  0.11661081372E+04  0.10257663683E+04 0.  0.
   -9000010    2    1    2    0  501 -0.38820572897E+03 -0.37546645597E+03  0.35503519066E+03  0.11880024762E+04  0.99680547217E+03 0.  0.
        -13    1    3    3    0    0  0.18326093552E+03 -0.35099104148E+03 -0.11069266827E+03  0.41113520849E+03  0.10566000000E+00 0.  1.
         13    1    4    4    0    0 -0.72204464833E+03 -0.17284996792E+03  0.25312402351E+03  0.78440892908E+03  0.10566000000E+00 0. -1.
          4    1    3    3  502    0  0.20494479345E+03  0.72645749745E+03 -0.15532518692E+02  0.75497292872E+03  0.00000000000E+00 0.  1.
         -4    1    4    4    0  501  0.33383891935E+03 -0.20261648806E+03  0.10191116715E+03  0.40359354715E+03  0.00000000000E+00 0. -1.
</event>
<event>
 8    1  0.7096247E-006  0.1592833E+04  0.7818608E-02  0.8357990E-01
         -2   -1    0    0    0  501 -0.00000000000E+00  0.00000000000E+00  0.10857091496E+04  0.10857091496E+04  0.00000000000E+00 0. -1.
          2   -1    0    0  502    0  0.00000000000E+00 -0.00000000000E+00 -0.23944920983E+04  0.23944920983E+04  0.00000000000E+00 0.  1.
    9000010    2    1    2  502    0 -0.91111349149E+03  0.86244675860E+03 -0.92876618978E+03  0.18538816952E+04  0.10001642359E+04 0.  0.
   -9000010    2    1    2    0  501  0.91111349149E+03 -0.86244675860E+03 -0.38001675896E+03  0.16263195527E+04  0.96258004588E+03 0.  0.
        -13    1    3    3    0    0 -0.63613940207E+03  0.34908810899E+03 -0.10328738538E+04  0.12622853306E+04  0.10566000000E+00 0.  1.
         13    1    4    4    0    0  0.70918027724E+03 -0.10751674895E+04 -0.30839769055E+03  0.13243983323E+04  0.10566000000E+00 0. -1.
          4    1    3    3  502    0 -0.27497408942E+03  0.51335864960E+03  0.10410766401E+03  0.59159636466E+03  0.00000000000E+00 0.  1.
         -4    1    4    4    0  501  0.20193321426E+03  0.21272073087E+03 -0.71619068407E+02  0.30192122039E+03  0.00000000000E+00 0. -1.
</event>
<event>
 8    1  0.7096247E-006  0.9457919E+03  0.7818608E-02  0.8827261E-01
         -2   -1    0    0    0  501 -0.00000000000E+00  0.00000000000E+00  0.12422040485E+04  0.12422040485E+04  0.00000000000E+00 0.  1.
          2   -1    0    0  502    0  0.00000000000E+00 -0.00000000000E+00 -0.77265569199E+03  0.77265569199E+03  0.00000000000E+00 0. -1.
    9000010    2    1    2  502    0  0.34477700825E+03  0.14790086170E+02  0.47803976957E+03  0.12103484144E+04  0.10570389448E+04 0.  0.
   -9000010    2    1    2    0  501 -0.34477700825E+03 -0.14790086170E+02 -0.84914130072E+01  0.80451132616E+03  0.72668868008E+03 0.  0.
        -13    1    3    3    0    0  0.10452867299E+03  0.52035714752E+03  0.11466678905E+03  0.54299750287E+03  0.10566000000E+00 0.  1.
         13    1    4    4    0    0  0.14622362857E+03  0.74374876436E+02 -0.20986982421E+03  0.26638004068E+03  0.10566000000E+00 0. -1.
          4    1    3    3  502    0  0.24024833526E+03 -0.50556706135E+03  0.36337298052E+03  0.66735091150E+03  0.00000000000E+00 0.  1.
         -4    1    4    4    0  501 -0.49100063682E+03 -0.89164962606E+02  0.20137841120E+03  0.53813128548E+03  0.00000000000E+00 0. -1.
</event>
<event>
 8    1  0.7096247E-006  0.1185849E+04  0.7818608E-02  0.8617295E-01
          4   -1    0    0  502    0  0.00000000000E+00  0.00000000000E+00  0.83584996733E+03  0.83584996733E+03  0.00000000000E+00 0.  1.
         -4   -1    0    0    0  501 -0.00000000000E+00 -0.00000000000E+00 -0.20122634661E+04  0.20122634661E+04  0.00000000000E+00 0. -1.
    9000010    2    1    2  502    0 -0.58039894411E+03  0.37582550523E+03 -0.11216792794E+01  0.11585787216E+04  0.92962124071E+03 0.  0.
   -9000010    2    1    2    0  501  0.58039894411E+03 -0.37582550523E+03 -0.11752918195E+04  0.16895347119E+04  0.99755147083E+03 0.  0.
        -13    1    3    3    0    0 -0.41312020402E+02 -0.11740355917E+03  0.33272875646E+03  0.35524458515E+03  0.10566000000E+00 0.  1.
         13    1    4    4    0    0  0.46961333760E+03  0.21091459720E+03 -0.21318527879E+03  0.55719801545E+03  0.10566000000E+00 0. -1.
          4    1    3    3  502    0 -0.53908692371E+03  0.49322906441E+03 -0.33385043574E+03  0.80333413642E+03  0.00000000000E+00 0.  1.
         -4    1    4    4    0  501  0.11078560651E+03 -0.58674010243E+03 -0.96210654070E+03  0.11323366964E+04  0.00000000000E+00 0. -1.
</event>
<event>
 8    1  0.7096247E-006  0.1878909E+04  0.7818608E-02  0.8219558E-01
          1   -1    0    0  502    0  0.00000000000E+00  0.00000000000E+00  0.14901362557E+04  0.14901362557E+04  0.00000000000E+00 0.  1.
         -1   -1    0    0    0  501 -0.00000000000E+00 -0.00000000000E+00 -0.39992832254E+04  0.39992832254E+04  0.00000000000E+00 0. -1.
    9000010    2    1    2  502    0 -0.14218723155E+04  0.73191811629E+03  0.49630379224E+03  0.19469499439E+04  0.99341412289E+03 0.  0.
   -9000010    2    1    2    0  501  0.14218723155E+04 -0.73191811629E+03 -0.30054507620E+04  0.35424695372E+04  0.97925028894E+03 0.  0.
        -13    1    3    3    0    0 -0.62752491970E+03  0.56800384582E+03  0.71379573377E+03  0.11072128316E+04  0.10566000000E+00 0.  1.
         13    1    4    4    0    0  0.44892318414E+03 -0.49460461364E+03 -0.20586016817E+04  0.21642566031E+04  0.10566000000E+00 0. -1.
          4    1    3    3  502    0 -0.79434739576E+03  0.16391427047E+03 -0.21749194153E+03  0.83973711235E+03  0.00000000000E+00 0.  1.
         -4    1    4    4    0  501  0.97294913133E+03 -0.23731350265E+03 -0.94684908034E+03  0.13782129341E+04  0.00000000000E+00 0. -1.
</event>
<event>
 8    1  0.7096247E-006  0.1179338E+04  0.7818608E-02  0.8622286E-01
          1   -1    0    0  502    0  0.00000000000E+00  0.00000000000E+00  0.24815597364E+04  0.24815597364E+04  0.00000000000E+00 0. -1.
         -1   -1    0    0    0  501 -0.00000000000E+00 -0.00000000000E+00 -0.59629317649E+03  0.59629317649E+03  0.00000000000E+00 0.  1.
    9000010    2    1    2  502    0  0.59525882097E+03  0.14937780254E+03  0.13190867117E+04  0.17687522632E+04  0.10059065681E+04 0.  0.
   -9000010    2    1    2    0  501 -0.59525882097E+03 -0.14937780254E+03  0.56617984820E+03  0.13091006497E+04  0.10082351406E+04 0.  0.
        -13    1    3    3    0    0 -0.19933926494E+03  0.29869140558E+03  0.52041638460E+03  0.63228626652E+03  0.10566000000E+00 0.  1.
         13    1    4    4    0    0 -0.47031941642E+03  0.38946384183E+03  0.40580073082E+03  0.73318257061E+03  0.10566000000E+00 0. -1.
          4    1    3    3  502    0  0.79459808591E+03 -0.14931360304E+03  0.79867032710E+03  0.11364659967E+04  0.00000000000E+00 0.  1.
         -4    1    4    4    0  501 -0.12493940455E+03 -0.53884164437E+03  0.16037911739E+03  0.57591807908E+03  0.00000000000E+00 0. -1.
</event>
<event>
 8    1  0.7096247E-006  0.1051627E+04  0.7818608E-02  0.8727539E-01
         -1   -1    0    0    0  501 -0.00000000000E+00  0.00000000000E+00  0.91098071703E+03  0.91098071703E+03  0.00000000000E+00 0.  1.
          1   -1    0    0  502    0  0.00000000000E+00 -0.00000000000E+00 -0.12163664692E+04  0.12163664692E+04  0.00000000000E+00 0. -1.
    9000010    2    1    2  502    0 -0.40246247170E+03 -0.18444113502E+02 -0.11231385622E+03  0.10283118068E+04  0.93941180703E+03 0.  0.
   -9000010    2    1    2    0  501  0.40246247170E+03  0.18444113502E+02 -0.19307189594E+03  0.10990353795E+04  0.10041343445E+04 0.  0.
        -13    1    3    3    0    0  0.16152612316E+02 -0.37217650350E+03  0.17265956909E+03  0.41059419699E+03  0.10566000000E+00 0.  1.
         13    1    4    4    0    0 -0.29714330697E+03  0.67230461294E+02 -0.25184518754E+03  0.39527217136E+03  0.10566000000E+00 0. -1.
          4    1    3    3  502    0 -0.41861508401E+03  0.35373238999E+03 -0.28497342531E+03  0.61771760978E+03  0.00000000000E+00 0.  1.
         -4    1    4    4    0  501  0.69960577867E+03 -0.48786347792E+02  0.58773291597E+02  0.70376320810E+03  0.00000000000E+00 0. -1.
</event>
<event>
 8    1  0.7096247E-006  0.9828257E+03  0.7818608E-02  0.8790897E-01
         -2   -1    0    0    0  501 -0.00000000000E+00  0.00000000000E+00  0.52019547202E+03  0.52019547202E+03  0.00000000000E+00 0. -1.
          2   -1    0    0  502    0  0.00000000000E+00 -0.00000000000E+00 -0.18845432709E+04  0.18845432709E+04  0.00000000000E+00 0.  1.
    9000010    2    1    2  502    0  0.58355461530E+02  0.15714216709E+03 -0.55573951872E+03  0.11500887918E+04  0.99285386422E+03 0.  0.
   -9000010    2    1    2    0  501 -0.58355461530E+02 -0.15714216709E+03 -0.80860828016E+03  0.12546499512E+04  0.94456345929E+03 0.  0.
        -13    1    3    3    0    0  0.35770397448E+03  0.45863659167E+03 -0.30496875322E+03  0.65673861481E+03  0.10566000000E+00 0.  1.
         13    1    4    4    0    0 -0.74373839673E+02 -0.40716000810E+03 -0.60969329710E+01  0.41394193310E+03  0.10566000000E+00 0. -1.
          4    1    3    3  502    0 -0.29934851295E+03 -0.30149442459E+03 -0.25077076550E+03  0.49335017694E+03  0.00000000000E+00 0.  1.
         -4    1    4    4    0  501  0.16018378143E+02  0.25001784101E+03 -0.80251134719E+03  0.84070801806E+03  0.00000000000E+00 0. -1.
</event>
<event>
 8    1  0.7096247E-006  0.1883549E+04  0.7818608E-02  0.8217525E-01
         -2   -1    0    0    0  501 -0.00000000000E+00  0.00000000000E+00  0.11523955989E+04  0.11523955989E+04  0.00000000000E+00 0. -1.
          2   -1    0    0  502    0  0.00000000000E+00 -0.00000000000E+00 -0.30814302959E+04  0.30814302959E+04  0.00000000000E+00 0.  1.
    9000010    2    1    2  502    0  0.78986209359E+03  0.13766926742E+04 -0.89461913328E+03  0.20707139675E+04  0.98404679528E+03 0.  0.
   -9000010    2    1    2    0  501 -0.78986209359E+03 -0.13766926742E+04 -0.10344155638E+04  0.21631119273E+04  0.10439697340E+04 0.  0.
        -13    1    3    3    0    0  0.73487615222E+02  0.59720164052E+03  0.10949732827E+03  0.61158801909E+03  0.10566000000E+00 0.  1.
         13    1    4    4    0    0  0.22215264871E+03 -0.14659344942E+03 -0.32309698398E+03  0.41860854143E+03  0.10566000000E+00 0. -1.
          4    1    3    3  502    0  0.71637447836E+03  0.77949103370E+03 -0.10041164616E+04  0.14591259484E+04  0.00000000000E+00 0.  1.
         -4    1    4    4    0  501 -0.10120147423E+04 -0.12300992248E+04 -0.71131857981E+03  0.17445033859E+04  0.00000000000E+00 0. -1.
</event>
<event>
 7    1  0.7096247E-006  0.1271028E+04  0.7818608E-02  0.8554913E-01
         -2   -1    0    0    0  501 -0.00000000000E+00  0.00000000000E+00  0.21826400898E+04  0.21826400898E+04  0.00000000000E+00 0. -1.
          2   -1    0    0  502    0  0.00000000000E+00 -0.00000000000E+00 -0.74814586014E+03  0.74814586014E+03  0.00000000000E+00 0.  1.
    9000010    2    1    2  502    0 -0.97228821215E+03  0.26830345009E+02  0.82220535032E+03  0.16290918581E+04  0.10158023474E+04 0.  0.
        -13    1    3    3    0    0 -0.99630662040E+03  0.36504767952E+03  0.68698105237E+03  0.12640528738E+04  0.10566000000E+00 0.  1.
         13    1    1    2    0    0  0.43399810187E+03  0.14766769144E+02  0.62570876332E+03  0.76163237691E+03  0.10566000000E+00 0. -1.
          4    1    3    3  502    0  0.24018408256E+02 -0.33821733451E+03  0.13522429795E+03  0.36503898429E+03  0.00000000000E+00 0.  1.
         -4    1    1    2    0  501  0.53829011027E+03 -0.41597114152E+02 -0.13419883951E+02  0.54006171500E+03  0.00000000000E+00 0. -1.
</event>
<event>
 8    1  0.7096247E-006  0.1242979E+04  0.7818608E-02  0.8574882E-01
         -4   -1    0    0    0  501 -0.00000000000E+00  0.00000000000E+00  0.69977039511E+03  0.69977039511E+03  0.00000000000E+00 0. -1.
          4   -1    0    0  502    0  0.00000000000E+00 -0.00000000000E+00 -0.22704303304E+04  0.22704303304E+04  0.00000000000E+00 0.  1.
    9000010    2    1    2  502    0 -0.73662287679E+03  0.63775557894E+00 -0.10318814677E+04  0.16155047767E+04  0.10012305683E+04 0.  0.
   -9000010    2    1    2    0  501  0.73662287679E+03 -0.63775557894E+00 -0.53877846754E+03  0.13546959488E+04  0.10011519401E+04 0.  0.
        -13    1    3    3    0    0  0.83489851491E+02 -0.23266130789E+03 -0.62227084014E+03  0.66956915188E+03  0.10566000000E+00 0.  1.
         13    1    4    4    0    0  0.92830283573E+02 -0.38705396572E+03 -0.44655409912E+03  0.59819629598E+03  0.10566000000E+00 0. -1.
          4    1    3    3  502    0 -0.82011272828E+03  0.23329906347E+03 -0.40961062757E+03  0.94593562483E+03  0.00000000000E+00 0.  1.
         -4    1    4    4    0  501  0.64379259321E+03  0.38641621014E+03 -0.92224368429E+02  0.75649965279E+03  0.00000000000E+00 0. -1.
</event>
<event>
 8    1  0.7096247E-006  0.1501622E+04  0.7818608E-02  0.8408566E-01
          4   -1    0    0  502    0  0.00000000000E+00  0.00000000000E+00  0.52268697609E+04  0.52268697609E+04  0.00000000000E+00 0. -1.
         -4   -1    0    0    0  501 -0.00000000000E+00 -0.00000000000E+00 -0.44444167374E+03  0.44444167374E+03  0.00000000000E+00 0.  1.
    9000010    2    1    2  502    0  0.10490256974E+04  0.37153873499E+03  0.28703087809E+04  0.32374004282E+04  0.10017949337E+04 0.  0.
   -9000010    2    1    2    0  501 -0.10490256974E+04 -0.37153873499E+03  0.19121193062E+04  0.24339110064E+04  0.10145080584E+04 0.  0.
        -13    1    3    3    0    0  0.32570388392E+01  0.37286327969E+03  0.36144611717E+03  0.51930813630E+03  0.10566000000E+00 0.  1.
         13    1    4    4    0    0 -0.23003621609E+03 -0.40475139323E+03  0.14773965971E+03  0.48843358735E+03  0.10566000000E+00 0. -1.
          4    1    3    3  502    0  0.10457686586E+04 -0.13245446990E+01  0.25088626638E+04  0.27180922919E+04  0.00000000000E+00 0.  1.
         -4    1    4    4    0  501 -0.81898948130E+03  0.33212658238E+02  0.17643796465E+04  0.19454774191E+04  0.00000000000E+00 0. -1.
</event>
<event>
 7    1  0.7096247E-006  0.1659770E+04  0.7818608E-02  0.8323052E-01
         -2   -1    0    0    0  501 -0.00000000000E+00  0.00000000000E+00  0.12732216280E+04  0.12732216280E+04  0.00000000000E+00 0.  1.
          2   -1    0    0  502    0  0.00000000000E+00 -0.00000000000E+00 -0.22234725186E+04  0.22234725186E+04  0.00000000000E+00 0. -1.
    9000010    2    1    2  502    0  0.10097354161E+04  0.99957711918E+03 -0.22163072082E+03  0.17527522451E+04  0.10021478078E+04 0.  0.
        -13    1    3    3    0    0 -0.55930666671E+02 -0.15498318646E+03  0.75032294530E+01  0.16493737349E+03  0.10566000000E+00 0.  1.
         13    1    1    2    0    0 -0.73854376667E+03 -0.10431746287E+04 -0.45629958069E+03  0.13571549358E+04  0.10566000000E+00 0. -1.
          4    1    3    3  502    0  0.10656660828E+04  0.11545603056E+04 -0.22913395027E+03  0.15878148716E+04  0.00000000000E+00 0.  1.
         -4    1    1    2    0  501 -0.27119164947E+03  0.43597509515E+02 -0.27232058914E+03  0.38678696572E+03  0.00000000000E+00 0. -1.
</event>
<event>
 8    1  0.7096247E-006  0.1262777E+04  0.7818608E-02  0.8560732E-01
          1   -1    0    0  502    0  0.00000000000E+00  0.00000000000E+00  0.99256251428E+03  0.99256251428E+03  0.00000000000E+00 0.  1.
         -1   -1    0    0    0  501 -0.00000000000E+00 -0.00000000000E+00 -0.16310591416E+04  0.16310591416E+04  0.00000000000E+00 0. -1.
    9000010    2    1    2  502    0 -0.70469387363E+03 -0.27744593827E+03 -0.48101335389E+03  0.13551834091E+04  0.10156665405E+04 0.  0.
   -9000010    2    1    2    0  501  0.70469387363E+03  0.27744593827E+03 -0.15748327344E+03  0.12684382468E+04  0.10052685712E+04 0.  0.
        -13    1    3    3    0    0 -0.60765143216E+03 -0.24297628581E+03 -0.79211242776E+03  0.10274822859E+04  0.10566000000E+00 0.  1.
         13    1    4    4    0    0  0.25044899066E+03  0.60266351305E+03  0.87405136010E+02  0.65845856046E+03  0.10566000000E+00 0. -1.
          4    1    3    3  502    0 -0.97042441473E+02 -0.34469652461E+02  0.31109907387E+03  0.32770112321E+03  0.00000000000E+00 0.  1.
         -4    1    4    4    0  501  0.45424488297E+03 -0.32521757478E+03 -0.24488840945E+03  0.60997968633E+03  0.00000000000E+00 0. -1.
</event>
<event>
 8    1  0.7096247E-006  0.1195839E+04  0.7818608E-02  0.8609702E-01
          2   -1    0    0  502    0  0.00000000000E+00  0.00000000000E+00  0.19788094228E+04  0.19788094228E+04  0.00000000000E+00 0. -1.
         -2   -1    0    0    0  501 -0.00000000000E+00 -0.00000000000E+00 -0.80634970398E+03  0.80634970398E+03  0.00000000000E+00 0.  1.
    9000010    2    1    2  502    0  0.29508624864E+03 -0.56297261596E+03  0.10394343698E+04  0.15927031147E+04  0.10257998547E+04 0.  0.
   -9000010    2    1    2    0  501 -0.29508624864E+03  0.56297261596E+03  0.13302534895E+03  0.11924560121E+04  0.10001207611E+04 0.  0.
        -13    1    3    3    0    0  0.33603213666E+03 -0.66741061668E+03  0.23911109597E+03  0.78455634310E+03  0.10566000000E+00 0.  1.
         13    1    4    4    0    0 -0.65673517372E+03  0.27022517279E+03  0.15413532283E+03  0.72669143473E+03  0.10566000000E+00 0. -1.
          4    1    3    3  502    0 -0.40945888021E+02  0.10443800072E+03  0.80032327387E+03  0.80814677159E+03  0.00000000000E+00 0.  1.
         -4    1    4    4    0  501  0.36164892508E+03  0.29274744317E+03 -0.21109973878E+02  0.46576457733E+03  0.00000000000E+00 0. -1.
</event>
<event>
 8    1  0.7096247E-006  0.1187799E+04  0.7818608E-02  0.8615807E-01
         -2   -1    0    0    0  501 -0.00000000000E+00  0.00000000000E+00  0.71970616812E+03  0.71970616812E+03  0.00000000000E+00 0. -1.
          2   -1    0    0  502    0  0.00000000000E+00 -0.00000000000E+00 -0.19632293411E+04  0.19632293411E+04  0.00000000000E+00 0.  1.
    9000010    2    1    2  502    0 -0.97537456885E+02  0.63258170626E+03 -0.57313182436E+03  0.13232558045E+04  0.10064058154E+04 0.  0.
   -9000010    2    1    2    0  501  0.97537456885E+02 -0.63258170626E+03 -0.67039134862E+03  0.13596797048E+04  0.99480207511E+03 0.  0.
        -13    1    3    3    0    0 -0.20952548786E+03  0.87413932260E+03 -0.31521933417E+03  0.95256691376E+03  0.10566000000E+00 0.  1.
         13    1    4    4    0    0 -0.15433738995E+03 -0.68931515804E+02 -0.72070867544E+03  0.74026521587E+03  0.10566000000E+00 0. -1.
          4    1    3    3  502    0  0.11198803097E+03 -0.24155761634E+03 -0.25791249019E+03  0.37068889070E+03  0.00000000000E+00 0.  1.
         -4    1    4    4    0  501  0.25187484683E+03 -0.56365019046E+03  0.50317326824E+02  0.61941448889E+03  0.00000000000E+00 0. -1.
</event>
<event>
 8    1  0.7096247E-006  0.1246233E+04  0.7818608E-02  0.8572538E-01
          2   -1    0    0  502    0  0.00000000000E+00  0.00000000000E+00  0.87571768277E+03  0.87571768277E+03  0.00000000000E+00 0. -1.
         -2   -1    0    0    0  501 -0.00000000000E+00 -0.00000000000E+00 -0.19303467169E+04  0.19303467169E+04  0.00000000000E+00 0.  1.
    9000010    2    1    2  502    0  0.43203498062E+03 -0.60295835362E+03 -0.92539473371E+03  0.15485288403E+04  0.99567723452E+03 0.  0.
   -9000010    2    1    2    0  501 -0.43203498062E+03  0.60295835362E+03 -0.12923430039E+03  0.12575355594E+04  0.10072145640E+04 0.  0.
        -13    1    3    3    0    0  0.19053347174E+03 -0.83729027357E+03 -0.84028083333E+03  0.12014282734E+04  0.10566000000E+00 0.  1.
         13    1    4    4    0    0 -0.16216508941E+03  0.82228008729E+03  0.95414868056E+02  0.84353190004E+03  0.10566000000E+00 0. -1.
          4    1    3    3  502    0  0.24150150889E+03  0.23433191995E+03 -0.85113900373E+02  0.34710056690E+03  0.00000000000E+00 0.  1.
         -4    1    4    4    0  501 -0.26986989121E+03 -0.21932173368E+03 -0.22464916844E+03  0.41400365931E+03  0.00000000000E+00 0. -1.
</event>
<event>
 8    1  0.7096247E-006  0.1357072E+04  0.7818608E-02  0.8496827E-01
         -4   -1    0    0    0  501 -0.00000000000E+00  0.00000000000E+00  0.21243540441E+04  0.21243540441E+04  0.00000000000E+00 0. -1.
          4   -1    0    0  502    0  0.00000000000E+00 -0.00000000000E+00 -0.92436835913E+03  0.92436835913E+03  0.00000000000E+00 0.  1.
    9000010    2    1    2  502    0 -0.29719821738E+03  0.86108727445E+03  0.22170993499E+03  0.13791371256E+04  0.10114671726E+04 0.  0.
   -9000010    2    1    2    0  501  0.29719821738E+03 -0.86108727445E+03  0.97827574999E+03  0.16695852777E+04  0.10003466808E+04 0.  0.
        -13    1    3    3    0    0  0.33609911645E+03  0.57162824336E+03  0.14331128626E+03  0.67842435143E+03  0.10566000000E+00 0.  1.
         13    1    4    4    0    0  0.57948480225E+03 -0.37490312302E+03  0.84640416210E+03  0.10921332357E+04  0.10566000000E+00 0. -1.
          4    1    3    3  502    0 -0.63329733383E+03  0.28945903109E+03  0.78398648730E+02  0.70071277414E+03  0.00000000000E+00 0.  1.
         -4    1    4    4    0  501 -0.28228658487E+03 -0.48618415143E+03  0.13187158789E+03  0.57745204199E+03  0.00000000000E+00 0. -1.
</event>
<event>
 8    1  0.7096247E-006  0.1348273E+04  0.7818608E-02  0.8502560E-01
          2   -1    0    0  502    0  0.00000000000E+00  0.00000000000E+00  0.22911626562E+04  0.22911626562E+04  0.00000000000E+00 0. -1.
         -2   -1    0    0    0  501 -0.00000000000E+00 -0.00000000000E+00 -0.82356569295E+03  0.82356569295E+03  0.00000000000E+00 0.  1.
    9000010    2    1    2  502    0 -0.77039511594E+01  0.90522034229E+03  0.43636402239E+03  0.14181297028E+04  0.10005973590E+04 0.  0.
   -9000010    2    1    2    0  501  0.77039511594E+01 -0.90522034229E+03  0.10312329408E+04  0.16965986464E+04  0.99775867307E+03 0.  0.
        -13    1    3    3    0    0 -0.41046923455E+03  0.28778470409E+03  0.46027003325E+03  0.68055385025E+03  0.10566000000E+00 0.  1.
         13    1    4    4    0    0 -0.48741630661E+03 -0.42722330867E+03  0.60790527513E+03  0.88861872934E+03  0.10566000000E+00 0. -1.
          4    1    3    3  502    0  0.40276528339E+03  0.61743563821E+03 -0.23906010864E+02  0.73757585250E+03  0.00000000000E+00 0.  1.
         -4    1    4    4    0  501  0.49512025777E+03 -0.47799703362E+03  0.42332766571E+03  0.80797991705E+03  0.00000000000E+00 0. -1.
</event>
<event>
 8    1  0.7096247E-006  0.1259828E+04  0.7818608E-02  0.8562822E-01
         -2   -1    0    0    0  501 -0.00000000000E+00  0.00000000000E+00  0.16216609510E+04  0.16216609510E+04  0.00000000000E+00 0. -1.
          2   -1    0    0  502    0  0.00000000000E+00 -0.00000000000E+00 -0.12137334055E+04  0.12137334055E+04  0.00000000000E+00 0.  1.
    9000010    2    1    2  502    0 -0.30356595613E+03 -0.72422052028E+03 -0.42072575081E+03  0.13215775341E+04  0.97617076861E+03 0.  0.
   -9000010    2    1    2    0  501  0.30356595613E+03  0.72422052028E+03  0.82865329629E+03  0.15138168224E+04  0.99414658615E+03 0.  0.
        -13    1    3    3    0    0 -0.14495731569E+03  0.12207491609E+03 -0.41974825483E+03  0.46054697601E+03  0.10566000000E+00 0.  1.
         13    1    4    4    0    0  0.33494737243E+03 -0.86571000316E+02 -0.11062428085E+02  0.34613099958E+03  0.10566000000E+00 0. -1.
          4    1    3    3  502    0 -0.15860864044E+03 -0.84629543637E+03 -0.97749597407E+00  0.86103055807E+03  0.00000000000E+00 0.  1.
         -4    1    4    4    0  501 -0.31381416299E+02  0.81079152059E+03  0.83971572437E+03  0.11676858229E+04  0.00000000000E+00 0. -1.
</event>
<event>
 8    1  0.7096247E-006  0.1820075E+04  0.7818608E-02  0.8245862E-01
         -4   -1    0    0    0  501 -0.00000000000E+00  0.00000000000E+00  0.13948620761E+04  0.13948620761E+04  0.00000000000E+00 0. -1.
          4   -1    0    0  502    0  0.00000000000E+00 -0.00000000000E+00 -0.27501794588E+04  0.27501794588E+04  0.00000000000E+00 0.  1.
    9000010    2    1    2  502    0  0.10432577199E+03 -0.15105668852E+04 -0.14452349114E+04  0.23290489004E+04  0.10213073240E+04 0.  0.
   -9000010    2    1    2    0  501 -0.10432577199E+03  0.15105668852E+04  0.89917528693E+02  0.18159926344E+04  0.99852286144E+03 0.  0.
        -13    1    3    3    0    0  0.17531272424E+03 -0.27689312644E+03 -0.93742691125E+03  0.99306272704E+03  0.10566000000E+00 0.  1.
         13    1    4    4    0    0  0.23429645498E+02 -0.14788495459E+03  0.21054364235E+02  0.15120253139E+03  0.10566000000E+00 0. -1.
          4    1    3    3  502    0 -0.70986952251E+02 -0.12336737588E+04 -0.50780800014E+03  0.13359861734E+04  0.00000000000E+00 0.  1.
         -4    1    4    4    0  501 -0.12775541748E+03  0.16584518398E+04  0.68863164458E+02  0.16647901030E+04  0.00000000000E+00 0. -1.
</event>
<event>
 8    1  0.7096247E-006  0.1121019E+04  0.7818608E-02  0.8668535E-01
          2   -1    0    0  502    0  0.00000000000E+00  0.00000000000E+00  0.10989808044E+04  0.10989808044E+04  0.00000000000E+00 0.  1.
         -2   -1    0    0    0  501 -0.00000000000E+00 -0.00000000000E+00 -0.11783480427E+04  0.11783480427E+04  0.00000000000E+00 0. -1.
    9000010    2    1    2  502    0 -0.17774256019E+03  0.42939508137E+03  0.15292965427E+03  0.11604133042E+04  0.10522352417E+04 0.  0.
   -9000010    2    1    2    0  501  0.17774256019E+03 -0.42939508137E+03 -0.23229689259E+03  0.11169155429E+04  0.98871933834E+03 0.  0.
        -13    1    3    3    0    0 -0.12113721407E+03  0.33837678938E+03 -0.43415950983E+03  0.56362005585E+03  0.10566000000E+00 0.  1.
         13    1    4    4    0    0  0.10655621690E+03 -0.47967371336E+03  0.30120763904E+03  0.57633944133E+03  0.10566000000E+00 0. -1.
          4    1    3    3  502    0 -0.56605346123E+02  0.91018291993E+02  0.58708916410E+03  0.59679324836E+03  0.00000000000E+00 0.  1.
         -4    1    4    4    0  501  0.71186343290E+02  0.50278631987E+02 -0.53350453163E+03  0.54057610156E+03  0.00000000000E+00 0. -1.
</event>
<event>
 8    1  0.7096247E-006  0.1498467E+04  0.7818608E-02  0.8410382E-01
         -2   -1    0    0    0  501 -0.00000000000E+00  0.00000000000E+00  0.88909816729E+03  0.88909816729E+03  0.00000000000E+00 0.  1.
          2   -1    0    0  502    0  0.00000000000E+00 -0.00000000000E+00 -0.25411928951E+04  0.25411928951E+04  0.00000000000E+00 0. -1.
    9000010    2    1    2  502    0 -0.19244692983E+02  0.11426982203E+04 -0.69245014393E+03  0.16527536465E+04  0.97261391801E+03 0.  0.
   -9000010    2    1    2    0  501  0.19244692983E+02 -0.11426982203E+04 -0.95964458385E+03  0.17775374158E+04  0.96570800785E+03 0.  0.
        -13    1    3    3    0    0  0.16581935843E+02  0.12987082253E+04 -0.72779614786E+03  0.14888268062E+04  0.10566000000E+00 0.  1.
         13    1    4    4    0    0 -0.29970533002E+03 -0.11384693073E+04 -0.75524153635E+03  0.13986870407E+04  0.10566000000E+00 0. -1.
          4    1    3    3  502    0 -0.35826628826E+02 -0.15601000497E+03  0.35346003935E+02  0.16392684032E+03  0.00000000000E+00 0.  1.
         -4    1    4    4    0  501  0.31895002300E+03 -0.42289129979E+01 -0.20440304750E+03  0.37885037509E+03  0.00000000000E+00 0. -1.
</event>
<event>
 8    1  0.7096247E-006  0.1680855E+04  0.7818608E-02  0.8312398E-01
         -2   -1    0    0    0  501 -0.00000000000E+00  0.00000000000E+00  0.24197467373E+04  0.24197467373E+04  0.00000000000E+00 0.  1.
          2   -1    0    0  502    0  0.00000000000E+00 -0.00000000000E+00 -0.17442539323E+04  0.17442539323E+04  0.00000000000E+00 0. -1.
    9000010    2    1    2  502    0  0.12781262235E+04 -0.41175786973E+03  0.15346073592E+04  0.22746243036E+04  0.10078416488E+04 0.  0.
   -9000010    2    1    2    0  501 -0.12781262235E+04  0.41175786973E+03 -0.85911455425E+03  0.18893763660E+04  0.10141568165E+04 0.  0.
        -13    1    3    3    0    0  0.66365268124E+02 -0.34333254085E+03  0.44073693341E+02  0.35245437155E+03  0.10566000000E+00 0.  1.
         13    1    4    4    0    0 -0.27352606135E+03 -0.12572987948E+02 -0.74398883234E+03  0.79277612229E+03  0.10566000000E+00 0. -1.
          4    1    3    3  502    0  0.12117609554E+04 -0.68425328881E+02  0.14905336659E+04  0.19221699321E+04  0.00000000000E+00 0.  1.
         -4    1    4    4    0  501 -0.10046001622E+04  0.42433085767E+03 -0.11512572191E+03  0.10966002437E+04  0.00000000000E+00 0. -1.
</event>
<event>
 8    1  0.7096247E-006  0.1507687E+04  0.7818608E-02  0.8405089E-01
         -2   -1    0    0    0  501 -0.00000000000E+00  0.00000000000E+00  0.87353331376E+03  0.87353331376E+03  0.00000000000E+00 0. -1.
          2   -1    0    0  502    0  0.00000000000E+00 -0.00000000000E+00 -0.27488590497E+04  0.27488590497E+04  0.00000000000E+00 0.  1.
    9000010    2    1    2  502    0 -0.71861436889E+03 -0.84774810748E+03 -0.13610385040E+04  0.20376912479E+04  0.10318315499E+04 0.  0.
   -9000010    2    1    2    0  501  0.71861436889E+03  0.84774810748E+03 -0.51428723200E+03  0.15847011156E+04  0.10058343820E+04 0.  0.
        -13    1    3    3    0    0  0.81560626201E+01 -0.54160850510E+03 -0.10659340274E+04  0.11956678703E+04  0.10566000000E+00 0.  1.
         13    1    4    4    0    0  0.46756786457E+02  0.76489597292E+03 -0.58375533396E+02  0.76854392231E+03  0.10566000000E+00 0. -1.
          4    1    3    3  502    0 -0.72677043151E+03 -0.30613960238E+03 -0.29510447660E+03  0.84202337757E+03  0.00000000000E+00 0.  1.
         -4    1    4    4    0  501  0.67185758244E+03  0.82852134566E+02 -0.45591169860E+03  0.81615719332E+03  0.00000000000E+00 0. -1.
</event>
<event>
 8    1  0.7096247E-006  0.1236872E+04  0.7818608E-02  0.8579302E-01
          1   -1    0    0  502    0  0.00000000000E+00  0.00000000000E+00  0.93364190554E+03  0.93364190554E+03  0.00000000000E+00 0. -1.
         -1   -1    0    0    0  501 -0.00000000000E+00 -0.00000000000E+00 -0.17223931831E+04  0.17223931831E+04  0.00000000000E+00 0.  1.
    9000010    2    1    2  502    0 -0.69693740469E+03  0.19323987237E+03 -0.68585013409E+03  0.14102091503E+04  0.99761517973E+03 0.  0.
   -9000010    2    1    2    0  501  0.69693740469E+03 -0.19323987237E+03 -0.10290114346E+03  0.12458259383E+04  0.10091730421E+04 0.  0.
        -13    1    3    3    0    0 -0.44528251125E+01 -0.34369258361E+03 -0.10688836258E+03  0.35995770988E+03  0.10566000000E+00 0.  1.
         13    1    4    4    0    0 -0.38649028263E+02 -0.92999064273E+02  0.35807225212E+03  0.37196548528E+03  0.10566000000E+00 0. -1.
          4    1    3    3  502    0 -0.69248457958E+03  0.53693245598E+03 -0.57896177151E+03  0.10502514404E+04  0.00000000000E+00 0.  1.
         -4    1    4    4    0  501  0.73558643296E+03 -0.10024080809E+03 -0.46097339558E+03  0.87386045304E+03  0.00000000000E+00 0. -1.
</event>
<event>
 8    1  0.7096247E-006  0.1193467E+04  0.7818608E-02  0.8611498E-01
         -2   -1    0    0    0  501 -0.00000000000E+00  0.00000000000E+00  0.43145550410E+03  0.43145550410E+03  0.00000000000E+00 0.  1.
          2   -1    0    0  502    0  0.00000000000E+00 -0.00000000000E+00 -0.33334683593E+04  0.33334683593E+04  0.00000000000E+00 0. -1.
    9000010    2    1    2  502    0 -0.18055838635E+03 -0.63832493326E+03 -0.16317134407E+04  0.20195713444E+04  0.98798765744E+03 0.  0.
   -9000010    2    1    2    0  501  0.18055838635E+03  0.63832493326E+03 -0.12702994145E+04  0.17453525190E+04  0.99626038858E+03 0.  0.
        -13    1    3    3    0    0  0.11192876519E+02 -0.54509568643E+03 -0.21366430547E+03  0.58558264527E+03  0.10566000000E+00 0.  1.
         13    1    4    4    0    0  0.52209056791E+03  0.14425856106E+03 -0.86562183509E+03  0.10211220623E+04  0.10566000000E+00 0. -1.
          4    1    3    3  502    0 -0.19175126287E+03 -0.93229246828E+02 -0.14180491352E+04  0.14339886991E+04  0.00000000000E+00 0.  1.
         -4    1    4    4    0  501 -0.34153218156E+03  0.49406637219E+03 -0.40467757942E+03  0.72423045673E+03  0.00000000000E+00 0. -1.
</event>
<event>
 8    1  0.7096247E-006  0.1173260E+04  0.7818608E-02  0.8626975E-01
          2   -1    0    0  502    0  0.00000000000E+00  0.00000000000E+00  0.23910656598E+04  0.23910656598E+04  0.00000000000E+00 0.  1.
         -2   -1    0    0    0  501 -0.00000000000E+00 -0.00000000000E+00 -0.57925326642E+03  0.57925326642E+03  0.00000000000E+00 0. -1.
    9000010    2    1    2  502    0 -0.44181385871E+03 -0.41211526902E+03  0.80560301979E+03  0.14381496607E+04  0.10267617740E+04 0.  0.
   -9000010    2    1    2    0  501  0.44181385871E+03  0.41211526902E+03  0.10062093736E+04  0.15321692655E+04  0.98490957650E+03 0.  0.
        -13    1    3    3    0    0 -0.69982260436E+03 -0.30224722374E+03  0.86346547052E+03  0.11518149555E+04  0.10566000000E+00 0.  1.
         13    1    4    4    0    0  0.43565187809E+03 -0.98698882589E+02  0.90805011810E+03  0.10119728536E+04  0.10566000000E+00 0. -1.
          4    1    3    3  502    0  0.25800874565E+03 -0.10986804527E+03 -0.57862450733E+02  0.28633470521E+03  0.00000000000E+00 0.  1.
         -4    1    4    4    0  501  0.61619806151E+01  0.51081415161E+03  0.98159255500E+02  0.52019641187E+03  0.00000000000E+00 0. -1.
</event>
<event>
 8    1  0.7096247E-006  0.1078946E+04  0.7818608E-02  0.8703758E-01
         -2   -1    0    0    0  501 -0.00000000000E+00  0.00000000000E+00  0.59526616082E+03  0.59526616082E+03  0.00000000000E+00 0.  1.
          2   -1    0    0  502    0  0.00000000000E+00 -0.00000000000E+00 -0.19557371680E+04  0.19557371680E+04  0.00000000000E+00 0. -1.
    9000010    2    1    2  502    0  0.38445417739E+03 -0.11302805469E+02 -0.68006441867E+03  0.12810981610E+04  0.10152793293E+04 0.  0.
   -9000010    2    1    2    0  501 -0.38445417739E+03  0.11302805469E+02 -0.68040658851E+03  0.12699051679E+04  0.10008862282E+04 0.  0.
        -13    1    3    3    0    0  0.35602999493E+03  0.47609278188E+03 -0.42037905586E+03  0.72810731079E+03  0.10566000000E+00 0.  1.
         13    1    4    4    0    0  0.33992017081E+03 -0.54344265755E+02 -0.19786424753E+03  0.39705074407E+03  0.10566000000E+00 0. -1.
          4    1    3    3  502    0  0.28424182461E+02 -0.48739558735E+03 -0.25968536281E+03  0.55299085017E+03  0.00000000000E+00 0.  1.
         -4    1    4    4    0  501 -0.72437434821E+03  0.65647071224E+02 -0.48254234097E+03  0.87285442379E+03  0.00000000000E+00 0. -1.
</event>
<event>
 8    1  0.7096247E-006  0.1173439E+04  0.7818608E-02  0.8626837E-01
         -2   -1    0    0    0  501 -0.00000000000E+00  0.00000000000E+00  0.15282864754E+04  0.15282864754E+04  0.00000000000E+00 0. -1.
          2   -1    0    0  502    0  0.00000000000E+00 -0.00000000000E+00 -0.92463121169E+03  0.92463121169E+03  0.00000000000E+00 0.  1.
    9000010    2    1    2  502    0  0.48633673365E+03 -0.42886489299E+03  0.49965796690E+03  0.12821423511E+04  0.98680413943E+03 0.  0.
   -9000010    2    1    2    0  501 -0.48633673365E+03  0.42886489299E+03  0.10399729684E+03  0.11707753360E+04  0.96925277137E+03 0.  0.
        -13    1    3    3    0    0  0.11283979003E+03 -0.38205407400E+03  0.73655409197E+03  0.83738287255E+03  0.10566000000E+00 0.  1.
         13    1    4    4    0    0 -0.63269245907E+03  0.19194277335E+03 -0.26173471304E+03  0.71108849462E+03  0.10566000000E+00 0. -1.
          4    1    3    3  502    0  0.37349694362E+03 -0.46810818997E+02 -0.23689612507E+03  0.44475947853E+03  0.00000000000E+00 0.  1.
         -4    1    4    4    0  501  0.14635572542E+03  0.23692211964E+03  0.36573200987E+03  0.45968684143E+03  0.00000000000E+00 0. -1.
</event>
<event>
 8    1  0.7096247E-006  0.1068357E+04  0.7818608E-02  0.8712888E-01
          2   -1    0    0  502    0  0.00000000000E+00  0.00000000000E+00  0.13610320919E+04  0.13610320919E+04  0.00000000000E+00 0. -1.
         -2   -1    0    0    0  501 -0.00000000000E+00 -0.00000000000E+00 -0.88859113845E+03  0.88859113845E+03  0.00000000000E+00 0.  1.
    9000010    2    1    2  502    0 -0.34339786110E+03 -0.75335413117E+02  0.50343781298E+03  0.11831283346E+04  0.10113088100E+04 0.  0.
   -9000010    2    1    2    0  501  0.34339786110E+03  0.75335413117E+02 -0.30996859489E+02  0.10664948958E+04  0.10064060025E+04 0.  0.
        -13    1    3    3    0    0 -0.60736695574E+01  0.19920341141E+03 -0.24602001398E+03  0.31661450854E+03  0.10566000000E+00 0.  1.
         13    1    4    4    0    0  0.40968580900E+03  0.16213503247E+03  0.41623510937E+03  0.60612037442E+03  0.10566000000E+00 0. -1.
          4    1    3    3  502    0 -0.33732419155E+03 -0.27453882452E+03  0.74945782696E+03  0.86651382607E+03  0.00000000000E+00 0.  1.
         -4    1    4    4    0  501 -0.66287947895E+02 -0.86799619351E+02 -0.44723196886E+03  0.46037452137E+03  0.00000000000E+00 0. -1.
</event>
<event>
 8    1  0.7096247E-006  0.1154168E+04  0.7818608E-02  0.8641897E-01
          2   -1    0    0  502    0  0.00000000000E+00  0.00000000000E+00  0.22238691761E+04  0.22238691761E+04  0.00000000000E+00 0.  1.
         -2   -1    0    0    0  501 -0.00000000000E+00 -0.00000000000E+00 -0.12687823240E+04  0.12687823240E+04  0.00000000000E+00 0. -1.
    9000010    2    1    2  502    0  0.40834734123E+03  0.39304903257E+03  0.17485599510E+04  0.21016531961E+04  0.10189451218E+04 0.  0.
   -9000010    2    1    2    0  501 -0.40834734123E+03 -0.39304903257E+03 -0.79347309893E+03  0.13909983040E+04  0.99198872476E+03 0.  0.
        -13    1    3    3    0    0  0.38592588236E+03  0.71341520136E+03  0.10034191480E+04  0.12902519265E+04  0.10566000000E+00 0.  1.
         13    1    4    4    0    0  0.10468298608E+03 -0.38239119403E+03  0.54158749500E+02  0.40014339200E+03  0.10566000000E+00 0. -1.
          4    1    3    3  502    0  0.22421458864E+02 -0.32036616879E+03  0.74514080308E+03  0.81140126962E+03  0.00000000000E+00 0.  1.
         -4    1    4    4    0  501 -0.51303032731E+03 -0.10657838535E+02 -0.84763184843E+03  0.99085491205E+03  0.00000000000E+00 0. -1.
</event>
<event>
 8    1  0.7096247E-006  0.1201985E+04  0.7818608E-02  0.8605069E-01
         -4   -1    0    0    0  501 -0.00000000000E+00  0.00000000000E+00  0.42927427641E+04  0.42927427641E+04  0.00000000000E+00 0. -1.
          4   -1    0    0  502    0  0.00000000000E+00 -0.00000000000E+00 -0.14219298410E+04  0.14219298410E+04  0.00000000000E+00 0.  1.
    9000010    2    1    2  502    0  0.62747360331E+03 -0.17838888060E+03 -0.10610326431E+04  0.16031444021E+04  0.10093245210E+04 0.  0.
   -9000010    2    1    2    0  501 -0.62747360331E+03  0.17838888060E+03  0.39318455662E+04  0.41115282030E+04  0.10098063637E+04 0.  0.
        -13    1    3    3    0    0 -0.12360611354E+03  0.29021171976E+03 -0.24939065152E+03  0.40211568214E+03  0.10566000000E+00 0.  1.
         13    1    4    4    0    0  0.10075613370E+03 -0.28261755097E+03  0.15443275114E+04  0.15732043581E+04  0.10566000000E+00 0. -1.
          4    1    3    3  502    0  0.75107971685E+03 -0.46860060037E+03 -0.81164199156E+03  0.12010287200E+04  0.00000000000E+00 0.  1.
         -4    1    4    4    0  501 -0.72822973700E+03  0.46100643157E+03  0.23875180548E+04  0.25383238449E+04  0.00000000000E+00 0. -1.
</event>
<event>
 8    1  0.7096247E-006  0.1083259E+04  0.7818608E-02  0.8700071E-01
          1   -1    0    0  502    0  0.00000000000E+00  0.00000000000E+00  0.14140477686E+04  0.14140477686E+04  0.00000000000E+00 0. -1.
         -1   -1    0    0    0  501 -0.00000000000E+00 -0.00000000000E+00 -0.10395212921E+04  0.10395212921E+04  0.00000000000E+00 0.  1.
    9000010    2    1    2  502    0  0.12941307998E+03  0.38625701729E+03 -0.36444143850E+03  0.11375619402E+04  0.99764090587E+03 0.  0.
   -9000010    2    1    2    0  501 -0.12941307998E+03 -0.38625701729E+03  0.73896791507E+03  0.13160071205E+04  0.10098806529E+04 0.  0.
        -13    1    3    3    0    0 -0.36715133546E+03  0.12541479591E+03 -0.42255219300E+03  0.57365437428E+03  0.10566000000E+00 0.  1.
         13    1    4    4    0    0  0.39129876140E+01 -0.64885411090E+03  0.16286585155E+03  0.66899347192E+03  0.10566000000E+00 0. -1.
          4    1    3    3  502    0  0.49656441544E+03  0.26084222138E+03  0.58110754502E+02  0.56390756594E+03  0.00000000000E+00 0.  1.
         -4    1    4    4    0  501 -0.13332606759E+03  0.26259709362E+03  0.57610206351E+03  0.64701364859E+03  0.00000000000E+00 0. -1.
</event>
<event>
 8    1  0.7096247E-006  0.1182964E+04  0.7818608E-02  0.8619502E-01
         -1   -1    0    0    0  501 -0.00000000000E+00  0.00000000000E+00  0.19545437342E+04  0.19545437342E+04  0.00000000000E+00 0.  1.
          1   -1    0    0  502    0  0.00000000000E+00 -0.00000000000E+00 -0.99044960816E+03  0.99044960816E+03  0.00000000000E+00 0. -1.
    9000010    2    1    2  502    0 -0.57531614557E+03  0.27461011456E+03  0.12568676145E+04  0.17252353349E+04  0.99514892256E+03 0.  0.
   -9000010    2    1    2    0  501  0.57531614557E+03 -0.27461011456E+03 -0.29277348850E+03  0.12197580074E+04  0.99784462656E+03 0.  0.
        -13    1    3    3    0    0 -0.40462737066E+03  0.24134612038E+02 -0.26834984348E+02  0.40623381953E+03  0.10566000000E+00 0.  1.
         13    1    4    4    0    0  0.66026790814E+03 -0.14654961134E+03  0.19861806655E+03  0.70489690497E+03  0.10566000000E+00 0. -1.
          4    1    3    3  502    0 -0.17068877491E+03  0.25047550252E+03  0.12837025989E+04  0.13190015154E+04  0.00000000000E+00 0.  1.
         -4    1    4    4    0  501 -0.84951762575E+02 -0.12806050322E+03 -0.49139155505E+03  0.51486110246E+03  0.00000000000E+00 0. -1.
</event>
<event>
 8    1  0.7096247E-006  0.2681424E+04  0.7818608E-02  0.7936462E-01
          2   -1    0    0  502    0  0.00000000000E+00  0.00000000000E+00  0.20602160350E+04  0.20602160350E+04  0.00000000000E+00 0.  1.
         -2   -1    0    0    0  501 -0.00000000000E+00 -0.00000000000E+00 -0.35608571498E+04  0.35608571498E+04  0.00000000000E+00 0. -1.
    9000010    2    1    2  502    0 -0.84478804789E+03  0.23216731545E+04 -0.11386341259E+04  0.28887207245E+04  0.97179559041E+03 0.  0.
   -9000010    2    1    2    0  501  0.84478804789E+03 -0.23216731545E+04 -0.36200698889E+03  0.27323524603E+04  0.11094448274E+04 0.  0.
        -13    1    3    3    0    0 -0.69518478177E+03  0.75529092051E+03 -0.74016941105E+03  0.12655421856E+04  0.10566000000E+00 0.  1.
         13    1    4    4    0    0  0.11182819559E+04 -0.18303150289E+04 -0.25634102245E+03  0.21601662827E+04  0.10566000000E+00 0. -1.
          4    1    3    3  502    0 -0.14960326612E+03  0.15663822340E+04 -0.39846471486E+03  0.16231785389E+04  0.00000000000E+00 0.  1.
         -4    1    4    4    0  501 -0.27349390805E+03 -0.49135812557E+03 -0.10566596644E+03  0.57218617754E+03  0.00000000000E+00 0. -1.
</event>
<event>
 8    1  0.7096247E-006  0.1734338E+04  0.7818608E-02  0.8286079E-01
         -2   -1    0    0    0  501 -0.00000000000E+00  0.00000000000E+00  0.14194450811E+04  0.14194450811E+04  0.00000000000E+00 0. -1.
          2   -1    0    0  502    0  0.00000000000E+00 -0.00000000000E+00 -0.22297213741E+04  0.22297213741E+04  0.00000000000E+00 0.  1.
    9000010    2    1    2  502    0 -0.17917294180E+03  0.14014370163E+04  0.19035184518E+01  0.17315210184E+04  0.10010158641E+04 0.  0.
   -9000010    2    1    2    0  501  0.17917294180E+03 -0.14014370163E+04 -0.81217981147E+03  0.19176454368E+04  0.10107419658E+04 0.  0.
        -13    1    3    3    0    0 -0.39123958250E+03  0.10585111123E+04 -0.36531655152E+03  0.11861578224E+04  0.10566000000E+00 0.  1.
         13    1    4    4    0    0  0.44269508482E+03 -0.22839774301E+03 -0.42429714444E+03  0.65434894748E+03  0.10566000000E+00 0. -1.
          4    1    3    3  502    0  0.21206664070E+03  0.34292590400E+03  0.36722006997E+03  0.54536319597E+03  0.00000000000E+00 0.  1.
         -4    1    4    4    0  501 -0.26352214301E+03 -0.11730392733E+04 -0.38788266704E+03  0.12632964893E+04  0.00000000000E+00 0. -1.
</event>
<event>
 8    1  0.7096247E-006  0.1108680E+04  0.7818608E-02  0.8678696E-01
         -2   -1    0    0    0  501 -0.00000000000E+00  0.00000000000E+00  0.38928466085E+03  0.38928466085E+03  0.00000000000E+00 0. -1.
          2   -1    0    0  502    0  0.00000000000E+00 -0.00000000000E+00 -0.31762444352E+04  0.31762444352E+04  0.00000000000E+00 0.  1.
    9000010    2    1    2  502    0 -0.25090185903E+03  0.30200953152E+03 -0.14599355380E+04  0.18085268574E+04  0.99257046040E+03 0.  0.
   -9000010    2    1    2    0  501  0.25090185903E+03 -0.30200953152E+03 -0.13270242363E+04  0.17570022386E+04  0.10825442452E+04 0.  0.
        -13    1    3    3    0    0  0.36286627738E+03  0.27075233103E+03 -0.63140316842E+03  0.77694834595E+03  0.10566000000E+00 0.  1.
         13    1    4    4    0    0  0.15325769421E+03 -0.70191276693E+03 -0.67433244896E+03  0.98533939132E+03  0.10566000000E+00 0. -1.
          4    1    3    3  502    0 -0.61376813641E+03  0.31257200494E+02 -0.82853236959E+03  0.10315785115E+04  0.00000000000E+00 0.  1.
         -4    1    4    4    0  501  0.97644164816E+02  0.39990323541E+03 -0.65269178734E+03  0.77166284728E+03  0.00000000000E+00 0. -1.
</event>
<event>
 8    1  0.7096247E-006  0.1443207E+04  0.7818608E-02  0.8442953E-01
         -2   -1    0    0    0  501 -0.00000000000E+00  0.00000000000E+00  0.10355911617E+04  0.10355911617E+04  0.00000000000E+00 0.  1.
          2   -1    0    0  502    0  0.00000000000E+00 -0.00000000000E+00 -0.20371686272E+04  0.20371686272E+04  0.00000000000E+00 0. -1.
    9000010    2    1    2  502    0  0.24743838053E+03  0.10169661276E+04 -0.66940466844E+03  0.15799515501E+04  0.97606272016E+03 0.  0.
   -9000010    2    1    2    0  501 -0.24743838053E+03 -0.10169661276E+04 -0.33217279713E+03  0.14928082388E+04  0.10112822622E+04 0.  0.
        -13    1    3    3    0    0  0.28279334553E+03  0.18260569531E+03 -0.66441785263E+03  0.74482750372E+03  0.10566000000E+00 0.  1.
         13    1    4    4    0    0 -0.35658478096E+03 -0.45718072663E+03  0.29042802587E+03  0.64847156622E+03  0.10566000000E+00 0. -1.
          4    1    3    3  502    0 -0.35354964997E+02  0.83436043228E+03 -0.49868158123E+01  0.83512404638E+03  0.00000000000E+00 0.  1.
         -4    1    4    4    0  501  0.10914640043E+03 -0.55978540096E+03 -0.62260082300E+03  0.84433667258E+03  0.00000000000E+00 0. -1.
</event>
<event>
 8    1  0.7096247E-006  0.1134534E+04  0.7818608E-02  0.8657561E-01
          1   -1    0    0  502    0  0.00000000000E+00  0.00000000000E+00  0.22593576197E+04  0.22593576197E+04  0.00000000000E+00 0. -1.
         -1   -1    0    0    0  501 -0.00000000000E+00 -0.00000000000E+00 -0.57034657497E+03  0.57034657497E+03  0.00000000000E+00 0.  1.
    9000010    2    1    2  502    0 -0.52147221582E+03 -0.32001636619E+03  0.84812064378E+03  0.13918684281E+04  0.91850168662E+03 0.  0.
   -9000010    2    1    2    0  501  0.52147221582E+03  0.32001636619E+03  0.84089040097E+03  0.14378357666E+04  0.99294072264E+03 0.  0.
        -13    1    3    3    0    0 -0.65584782071E+03 -0.21274302488E+02  0.23550657717E+03  0.69717452545E+03  0.10566000000E+00 0.  1.
         13    1    4    4    0    0  0.39220889552E+03 -0.11045615597E+03 -0.78042942972E+02  0.41487238066E+03  0.10566000000E+00 0. -1.
          4    1    3    3  502    0  0.13437560489E+03 -0.29874206370E+03  0.61261406661E+03  0.69469390268E+03  0.00000000000E+00 0.  1.
         -4    1    4    4    0  501  0.12926332030E+03  0.43047252215E+03  0.91893334394E+03  0.10229633859E+04  0.00000000000E+00 0. -1.
</event>
<event>
 8    1  0.7096247E-006  0.1642619E+04  0.7818608E-02  0.8331840E-01
         -2   -1    0    0    0  501 -0.00000000000E+00  0.00000000000E+00  0.27020305050E+04  0.27020305050E+04  0.00000000000E+00 0.  1.
          2   -1    0    0  502    0  0.00000000000E+00 -0.00000000000E+00 -0.11524710361E+04  0.11524710361E+04  0.00000000000E+00 0. -1.
    9000010    2    1    2  502    0 -0.63115141924E+02  0.12995336208E+04  0.71506480582E+02  0.16465535552E+04  0.10066053250E+04 0.  0.
   -9000010    2    1    2    0  501  0.63115141924E+02 -0.12995336208E+04  0.14780529883E+04  0.22079479859E+04  0.99881055241E+03 0.  0.
        -13    1    3    3    0    0  0.44273435716E+03  0.88292505960E+03  0.82405840010E+02  0.99114131460E+03  0.10566000000E+00 0.  1.
         13    1    4    4    0    0 -0.26622536916E+03 -0.70539049447E+03  0.23215974005E+03  0.78889153433E+03  0.10566000000E+00 0. -1.
          4    1    3    3  502    0 -0.50584949909E+03  0.41660856125E+03 -0.10899359428E+02  0.65541224055E+03  0.00000000000E+00 0.  1.
         -4    1    4    4    0  501  0.32934051109E+03 -0.59414312638E+03  0.12458932482E+04  0.14190564516E+04  0.00000000000E+00 0. -1.
</event>
<event>
 8    1  0.7096247E-006  0.1118790E+04  0.7818608E-02  0.8670360E-01
          2   -1    0    0  502    0  0.00000000000E+00  0.00000000000E+00  0.19741492677E+04  0.19741492677E+04  0.00000000000E+00 0. -1.
         -2   -1    0    0    0  501 -0.00000000000E+00 -0.00000000000E+00 -0.69596054922E+03  0.69596054922E+03  0.00000000000E+00 0.  1.
    9000010    2    1    2  502    0  0.42958597908E+03 -0.16854630883E+03  0.10404671595E+04  0.15323835044E+04  0.10259996701E+04 0.  0.
   -9000010    2    1    2    0  501 -0.42958597908E+03  0.16854630883E+03  0.23772155892E+03  0.11377263124E+04  0.10124019216E+04 0.  0.
        -13    1    3    3    0    0  0.61419104569E+02 -0.53474846629E+03  0.78977474818E+03  0.95575749677E+03  0.10566000000E+00 0.  1.
         13    1    4    4    0    0  0.24331307884E+03 -0.81338052541E+02  0.32564536483E+03  0.41456247771E+03  0.10566000000E+00 0. -1.
          4    1    3    3  502    0  0.36816687452E+03  0.36620215746E+03  0.25069241134E+03  0.57662600767E+03  0.00000000000E+00 0.  1.
         -4    1    4    4    0  501 -0.67289905792E+03  0.24988436137E+03 -0.87923805904E+02  0.72316383472E+03  0.00000000000E+00 0. -1.
</event>
<event>
 8    1  0.7096247E-006  0.1755032E+04  0.7818608E-02  0.8276157E-01
         -2   -1    0    0    0  501 -0.00000000000E+00  0.00000000000E+00  0.14264335070E+04  0.14264335070E+04  0.00000000000E+00 0.  1.
          2   -1    0    0  502    0  0.00000000000E+00 -0.00000000000E+00 -0.22072438947E+04  0.22072438947E+04  0.00000000000E+00 0. -1.
    9000010    2    1    2  502    0 -0.10798530325E+04  0.96551604300E+03 -0.65943569460E+03  0.18809750464E+04  0.10024509407E+04 0.  0.
   -9000010    2    1    2    0  501  0.10798530325E+04 -0.96551604300E+03 -0.12137469317E+03  0.17527023553E+04  0.97924967661E+03 0.  0.
        -13    1    3    3    0    0 -0.16968544314E+03  0.77930850129E+03 -0.49164076086E+03  0.93692344336E+03  0.10566000000E+00 0.  1.
         13    1    4    4    0    0  0.10432408773E+04 -0.53888203602E+03 -0.40157524480E+03  0.12409706141E+04  0.10566000000E+00 0. -1.
          4    1    3    3  502    0 -0.91016758939E+03  0.18620754171E+03 -0.16779493373E+03  0.94405160302E+03  0.00000000000E+00 0.  1.
         -4    1    4    4    0  501  0.36612155261E+02 -0.42663400699E+03  0.28020055163E+03  0.51173174121E+03  0.00000000000E+00 0. -1.
</event>
<event>
 8    1  0.7096247E-006  0.1607798E+04  0.7818608E-02  0.8350027E-01
         -4   -1    0    0    0  501 -0.00000000000E+00  0.00000000000E+00  0.14850367851E+04  0.14850367851E+04  0.00000000000E+00 0. -1.
          4   -1    0    0  502    0  0.00000000000E+00 -0.00000000000E+00 -0.18810415862E+04  0.18810415862E+04  0.00000000000E+00 0.  1.
    9000010    2    1    2  502    0  0.28423098723E+03 -0.12231436635E+04  0.26221028840E+03  0.16244092729E+04  0.99653578706E+03 0.  0.
   -9000010    2    1    2    0  501 -0.28423098723E+03  0.12231436635E+04 -0.65821508945E+03  0.17416690984E+04  0.10115811726E+04 0.  0.
        -13    1    3    3    0    0  0.72396442817E+02 -0.85341316807E+03 -0.31009923377E+03  0.91088793290E+03  0.10566000000E+00 0.  1.
         13    1    4    4    0    0  0.27553704146E+03  0.25613262753E+03 -0.48055351884E+03  0.61029196270E+03  0.10566000000E+00 0. -1.
          4    1    3    3  502    0  0.21183454441E+03 -0.36973049539E+03  0.57230952217E+03  0.71352133997E+03  0.00000000000E+00 0.  1.
         -4    1    4    4    0  501 -0.55976802869E+03  0.96701103593E+03 -0.17766157060E+03  0.11313771357E+04  0.00000000000E+00 0. -1.
</event>
<event>
 8    1  0.7096247E-006  0.1273679E+04  0.7818608E-02  0.8553054E-01
         -2   -1    0    0    0  501 -0.00000000000E+00  0.00000000000E+00  0.11734277345E+04  0.11734277345E+04  0.00000000000E+00 0.  1.
          2   -1    0    0  502    0  0.00000000000E+00 -0.00000000000E+00 -0.15608441836E+04  0.15608441836E+04  0.00000000000E+00 0. -1.
    9000010    2    1    2  502    0  0.66984713033E+03 -0.40977082788E+03 -0.65807705679E+03  0.14519263301E+04  0.10287941222E+04 0.  0.
   -9000010    2    1    2    0  501 -0.66984713033E+03  0.40977082788E+03  0.27066060769E+03  0.12823455879E+04  0.97700856338E+03 0.  0.
        -13    1    3    3    0    0 -0.99648758124E+02  0.18967705592E+03 -0.38232531926E+03  0.43826923398E+03  0.10566000000E+00 0.  1.
         13    1    4    4    0    0 -0.23979613605E+03  0.44972018400E+03 -0.28079194834E+03  0.58188878678E+03  0.10566000000E+00 0. -1.
          4    1    3    3  502    0  0.76949588845E+03 -0.59944788380E+03 -0.27575173752E+03  0.10136570961E+04  0.00000000000E+00 0.  1.
         -4    1    4    4    0  501 -0.43005099427E+03 -0.39949356118E+02  0.55145255602E+03  0.70045680115E+03  0.00000000000E+00 0. -1.
</event>
<event>
 8    1  0.7096247E-006  0.1214437E+04  0.7818608E-02  0.8595770E-01
         -2   -1    0    0    0  501 -0.00000000000E+00  0.00000000000E+00  0.60392915705E+03  0.60392915705E+03  0.00000000000E+00 0.  1.
          2   -1    0    0  502    0  0.00000000000E+00 -0.00000000000E+00 -0.25624031693E+04  0.25624031693E+04  0.00000000000E+00 0. -1.
    9000010    2    1    2  502    0 -0.64686389603E+03  0.22038176305E+03 -0.63010625192E+03  0.13609701696E+04  0.99408495230E+03 0.  0.
   -9000010    2    1    2    0  501  0.64686389603E+03 -0.22038176305E+03 -0.13283677603E+04  0.18053621567E+04  0.10137902095E+04 0.  0.
        -13    1    3    3    0    0 -0.10253543225E+03  0.55690096834E+03 -0.28682746322E+03  0.63476153651E+03  0.10566000000E+00 0.  1.
         13    1    4    4    0    0  0.19430441726E+03 -0.35734415629E+03 -0.12644106025E+04  0.13282255966E+04  0.10566000000E+00 0. -1.
          4    1    3    3  502    0 -0.54432846379E+03 -0.33651920529E+03 -0.34327878870E+03  0.72620863310E+03  0.00000000000E+00 0.  1.
         -4    1    4    4    0  501  0.45255947877E+03  0.13696239325E+03 -0.63957157855E+02  0.47713656015E+03  0.00000000000E+00 0. -1.
</event>
<event>
 8    1  0.7096247E-006  0.1162273E+04  0.7818608E-02  0.8635526E-01
          2   -1    0    0  502    0  0.00000000000E+00  0.00000000000E+00  0.10575308282E+04  0.10575308282E+04  0.00000000000E+00 0.  1.
         -2   -1    0    0    0  501 -0.00000000000E+00 -0.00000000000E+00 -0.13032087053E+04  0.13032087053E+04  0.00000000000E+00 0. -1.
    9000010    2    1    2  502    0  0.28362750113E+03 -0.53301792190E+03 -0.28950494127E+03  0.12038308922E+04  0.10004214320E+04 0.  0.
   -9000010    2    1    2    0  501 -0.28362750113E+03  0.53301792190E+03  0.43827064260E+02  0.11569086413E+04  0.98588241095E+03 0.  0.
        -13    1    3    3    0    0 -0.20826528165E+03 -0.30050892866E+03  0.24580218283E+03  0.44056641723E+03  0.10566000000E+00 0.  1.
         13    1    4    4    0    0  0.32196338379E+03  0.43374678286E+03 -0.15256721315E+02  0.54039751188E+03  0.10566000000E+00 0. -1.
          4    1    3    3  502    0  0.49189278278E+03 -0.23250899324E+03 -0.53530712409E+03  0.76326447500E+03  0.00000000000E+00 0.  1.
         -4    1    4    4    0  501 -0.60559088492E+03  0.99271139045E+02  0.59083785575E+02  0.61651112939E+03  0.00000000000E+00 0. -1.
</event>
<event>
 8    1  0.7096247E-006  0.1325396E+04  0.7818608E-02  0.8517681E-01
          2   -1    0    0  502    0  0.00000000000E+00  0.00000000000E+00  0.31989609446E+04  0.31989609446E+04  0.00000000000E+00 0.  1.
         -2   -1    0    0    0  501 -0.00000000000E+00 -0.00000000000E+00 -0.55685680085E+03  0.55685680085E+03  0.00000000000E+00 0. -1.
    9000010    2    1    2  502    0 -0.45869821838E+03 -0.88829979100E+03  0.10519847395E+04  0.16301063673E+04  0.74235726056E+03 0.  0.
   -9000010    2    1    2    0  501  0.45869821838E+03  0.88829979100E+03  0.15901194043E+04  0.21257113782E+04  0.99533339602E+03 0.  0.
        -13    1    3    3    0    0 -0.35649172563E+03 -0.15323894160E+03  0.71829674328E+03  0.81640599351E+03  0.10566000000E+00 0.  1.
         13    1    4    4    0    0  0.27322134154E+03  0.10961309587E+04  0.12233898939E+04  0.16651834204E+04  0.10566000000E+00 0. -1.
          4    1    3    3  502    0 -0.10220649275E+03 -0.73506084940E+03  0.33368799624E+03  0.81370037380E+03  0.00000000000E+00 0.  1.
         -4    1    4    4    0  501  0.18547687684E+03 -0.20783116766E+03  0.36672951035E+03  0.46052795773E+03  0.00000000000E+00 0. -1.
</event>
<event>
 8    1  0.7096247E-006  0.1496716E+04  0.7818608E-02  0.8411392E-01
         -2   -1    0    0    0  501 -0.00000000000E+00  0.00000000000E+00  0.10391594620E+04  0.10391594620E+04  0.00000000000E+00 0.  1.
          2   -1    0    0  502    0  0.00000000000E+00 -0.00000000000E+00 -0.21562556882E+04  0.21562556882E+04  0.00000000000E+00 0. -1.
    9000010    2    1    2  502    0  0.96178454691E+02  0.10952341566E+04 -0.58238302521E+03  0.16040946356E+04  0.10125025724E+04 0.  0.
   -9000010    2    1    2    0  501 -0.96178454691E+02 -0.10952341566E+04 -0.53471320094E+03  0.15913205146E+04  0.10186238854E+04 0.  0.
        -13    1    3    3    0    0  0.14230044505E+03 -0.17376147207E+03 -0.77909971249E+02  0.23772345408E+03  0.10566000000E+00 0.  1.
         13    1    4    4    0    0  0.32105499931E+03 -0.27592601671E+02 -0.25625731643E+03  0.41171044150E+03  0.10566000000E+00 0. -1.
          4    1    3    3  502    0 -0.46121990363E+02  0.12689956287E+04 -0.50447305396E+03  0.13663711815E+04  0.00000000000E+00 0.  1.
         -4    1    4    4    0  501 -0.41723345401E+03 -0.10676415549E+04 -0.27845588452E+03  0.11796100731E+04  0.00000000000E+00 0. -1.
</event>
<event>
 8    1  0.7096247E-006  0.1058696E+04  0.7818608E-02  0.8721314E-01
         -1   -1    0    0    0  501 -0.00000000000E+00  0.00000000000E+00  0.58266010003E+03  0.58266010003E+03  0.00000000000E+00 0.  1.
          1   -1    0    0  502    0  0.00000000000E+00 -0.00000000000E+00 -0.19444297176E+04  0.19444297176E+04  0.00000000000E+00 0. -1.
    9000010    2    1    2  502    0 -0.15665886993E+03  0.25333156230E+03 -0.63485605550E+03  0.13024358856E+04  0.10975327526E+04 0.  0.
   -9000010    2    1    2    0  501  0.15665886993E+03 -0.25333156230E+03 -0.72691356205E+03  0.12246539320E+04  0.93949722961E+03 0.  0.
        -13    1    3    3    0    0 -0.20847038264E+03 -0.14324222226E+03 -0.82260607792E+03  0.86061548050E+03  0.10566000000E+00 0.  1.
         13    1    4    4    0    0  0.41355369452E+03 -0.45616341985E+03 -0.29504190739E+03  0.68276017908E+03  0.10566000000E+00 0. -1.
          4    1    3    3  502    0  0.51811512702E+02  0.39657378456E+03  0.18775002242E+03  0.44182040511E+03  0.00000000000E+00 0.  1.
         -4    1    4    4    0  501 -0.25689482459E+03  0.20283185755E+03 -0.43187165466E+03  0.54189375291E+03  0.00000000000E+00 0. -1.
</event>
<event>
 8    1  0.7096247E-006  0.1867072E+04  0.7818608E-02  0.8224770E-01
         -2   -1    0    0    0  501 -0.00000000000E+00  0.00000000000E+00  0.85678269055E+03  0.85678269055E+03  0.00000000000E+00 0. -1.
          2   -1    0    0  502    0  0.00000000000E+00 -0.00000000000E+00 -0.53931312666E+04  0.53931312666E+04  0.00000000000E+00 0.  1.
    9000010    2    1    2  502    0  0.12798834422E+04  0.91361739910E+03 -0.72245933831E+03  0.20049258430E+04  0.10124138300E+04 0.  0.
   -9000010    2    1    2    0  501 -0.12798834422E+04 -0.91361739910E+03 -0.38138892378E+04  0.42449881141E+04  0.10006870608E+04 0.  0.
        -13    1    3    3    0    0  0.45592065720E+03  0.91624574908E+03 -0.24392263698E+03  0.10520780306E+04  0.10566000000E+00 0.  1.
         13    1    4    4    0    0 -0.33363205377E+03  0.44875838777E+02 -0.17389268431E+04  0.17712116658E+04  0.10566000000E+00 0. -1.
          4    1    3    3  502    0  0.82396278498E+03 -0.26283499860E+01 -0.47853670134E+03  0.95284781250E+03  0.00000000000E+00 0.  1.
         -4    1    4    4    0  501 -0.94625138841E+03 -0.95849323787E+03 -0.20749623947E+04  0.24737764484E+04  0.00000000000E+00 0. -1.
</event>
<event>
 7    1  0.7096247E-006  0.1442342E+04  0.7818608E-02  0.8443475E-01
         -2   -1    0    0    0  501 -0.00000000000E+00  0.00000000000E+00  0.96943136559E+03  0.96943136559E+03  0.00000000000E+00 0. -1.
          2   -1    0    0  502    0  0.00000000000E+00 -0.00000000000E+00 -0.32823656941E+04  0.32823656941E+04  0.00000000000E+00 0.  1.
    9000010    2    1    2  502    0  0.11168651562E+04 -0.24926078736E+03 -0.24718323484E+04  0.29499341883E+04  0.11325360212E+04 0.  0.
        -13    1    3    3    0    0  0.81182862172E+02  0.37773855498E+03 -0.44775950787E+03  0.59140989261E+03  0.10566000000E+00 0.  1.
         13    1    1    2    0    0 -0.97374473949E+03  0.39877366246E+03  0.19669441146E+02  0.10524191891E+04  0.10566000000E+00 0. -1.
          4    1    3    3  502    0  0.10356822940E+04 -0.62699934233E+03 -0.20240728406E+04  0.23585242957E+04  0.00000000000E+00 0.  1.
         -4    1    1    2    0  501 -0.14312041669E+03 -0.14951287510E+03  0.13922857876E+03  0.24944368229E+03  0.00000000000E+00 0. -1.
</event>
<event>
 8    1  0.7096247E-006  0.1416702E+04  0.7818608E-02  0.8459111E-01
          2   -1    0    0  502    0  0.00000000000E+00  0.00000000000E+00  0.11207005828E+04  0.11207005828E+04  0.00000000000E+00 0.  1.
         -2   -1    0    0    0  501 -0.00000000000E+00 -0.00000000000E+00 -0.18023365184E+04  0.18023365184E+04  0.00000000000E+00 0. -1.
    9000010    2    1    2  502    0 -0.34672871604E+03  0.94452150957E+03 -0.22410595535E+03  0.14334540653E+04  0.99610511170E+03 0.  0.
   -9000010    2    1    2    0  501  0.34672871604E+03 -0.94452150957E+03 -0.45752998025E+03  0.14895830359E+04  0.99859013293E+03 0.  0.
        -13    1    3    3    0    0  0.23009506770E+03  0.76886893375E+03 -0.21313275073E+03  0.83037868353E+03  0.10566000000E+00 0.  1.
         13    1    4    4    0    0 -0.86031736256E+02 -0.33437440942E+03 -0.63318211317E+03  0.72119851977E+03  0.10566000000E+00 0. -1.
          4    1    3    3  502    0 -0.57682378374E+03  0.17565257582E+03 -0.10973204626E+02  0.60307538177E+03  0.00000000000E+00 0.  1.
         -4    1    4    4    0  501  0.43276045230E+03 -0.61014710015E+03  0.17565213292E+03  0.76838451618E+03  0.00000000000E+00 0. -1.
</event>
<event>
 7    1  0.7096247E-006  0.1272853E+04  0.7818608E-02  0.8553632E-01
          2   -1    0    0  502    0  0.00000000000E+00  0.00000000000E+00  0.43643524534E+03  0.43643524534E+03  0.00000000000E+00 0.  1.
         -2   -1    0    0    0  501 -0.00000000000E+00 -0.00000000000E+00 -0.37871073641E+04  0.37871073641E+04  0.00000000000E+00 0. -1.
    9000010    2    1    2  502    0  0.89174811896E+03 -0.37232435329E+03 -0.20521664177E+04  0.24744211876E+04  0.98870272383E+03 0.  0.
        -13    1    3    3    0    0  0.65768783048E+03  0.19281313293E+03 -0.15050299009E+04  0.16537367385E+04  0.10566000000E+00 0.  1.
         13    1    1    2    0    0 -0.76459587206E+03  0.55618609985E+03 -0.10962489585E+04  0.14476572852E+04  0.10566000000E+00 0. -1.
          4    1    3    3  502    0  0.23406028848E+03 -0.56513748623E+03 -0.54713651682E+03  0.82068444911E+03  0.00000000000E+00 0.  1.
         -4    1    1    2    0  501 -0.12715224690E+03 -0.18386174656E+03 -0.20225674253E+03  0.30146413657E+03  0.00000000000E+00 0. -1.
</event>
<event>
 8    1  0.7096247E-006  0.1087510E+04  0.7818608E-02  0.8696454E-01
          4   -1    0    0  502    0  0.00000000000E+00  0.00000000000E+00  0.92544714614E+03  0.92544714614E+03  0.00000000000E+00 0.  1.
         -4   -1    0    0    0  501 -0.00000000000E+00 -0.00000000000E+00 -0.19914071875E+04  0.19914071875E+04  0.00000000000E+00 0. -1.
    9000010    2    1    2  502    0 -0.22530631157E+03  0.30014363768E+03  0.34001768146E+03  0.11392697246E+04  0.10205265035E+04 0.  0.
   -9000010    2    1    2    0  501  0.22530631157E+03 -0.30014363768E+03 -0.14059777228E+04  0.17775846091E+04  0.10208744037E+04 0.  0.
        -13    1    3    3    0    0  0.33830611555E+03  0.14008147001E+02  0.37621637291E+03  0.50614822573E+03  0.10566000000E+00 0.  1.
         13    1    4    4    0    0 -0.12157403584E+03  0.26865622462E+03 -0.99806144846E+02  0.31131606276E+03  0.10566000000E+00 0. -1.
          4    1    3    3  502    0 -0.56361242712E+03  0.28613549068E+03 -0.36198691447E+02  0.63312149883E+03  0.00000000000E+00 0.  1.
         -4    1    4    4    0  501  0.34688034741E+03 -0.56879986230E+03 -0.13061715780E+04  0.14662685463E+04  0.00000000000E+00 0. -1.
</event>
<event>
 8    1  0.7096247E-006  0.1375821E+04  0.7818608E-02  0.8484757E-01
         -2   -1    0    0    0  501 -0.00000000000E+00  0.00000000000E+00  0.36154892554E+04  0.36154892554E+04  0.00000000000E+00 0. -1.
          2   -1    0    0  502    0  0.00000000000E+00 -0.00000000000E+00 -0.76297207487E+03  0.76297207487E+03  0.00000000000E+00 0.  1.
    9000010    2    1    2  502    0 -0.41140340597E+03 -0.87097680778E+03  0.19231437676E+03  0.13785411479E+04  0.96723188268E+03 0.  0.
   -9000010    2    1    2    0  501  0.41140340597E+03  0.87097680778E+03  0.26602028037E+04  0.29999201823E+04  0.99749124362E+03 0.  0.
        -13    1    3    3    0    0 -0.25208106354E+02  0.21220941288E+03  0.52867211313E+02  0.22014367295E+03  0.10566000000E+00 0.  1.
         13    1    4    4    0    0  0.37709735597E+03  0.57642447908E+03  0.58521550154E+03  0.90384998223E+03  0.10566000000E+00 0. -1.
          4    1    3    3  502    0 -0.38619529962E+03 -0.10831862207E+04  0.13944716544E+03  0.11583974750E+04  0.00000000000E+00 0.  1.
         -4    1    4    4    0  501  0.34306050001E+02  0.29455232870E+03  0.20749873022E+04  0.20960702001E+04  0.00000000000E+00 0. -1.
</event>
<event>
 8    1  0.7096247E-006  0.1044377E+04  0.7818608E-02  0.8733977E-01
         -1   -1    0    0    0  501 -0.00000000000E+00  0.00000000000E+00  0.10187686879E+04  0.10187686879E+04  0.00000000000E+00 0. -1.
          1   -1    0    0  502    0  0.00000000000E+00 -0.00000000000E+00 -0.20001855908E+04  0.20001855908E+04  0.00000000000E+00 0.  1.
    9000010    2    1    2  502    0 -0.80177416376E+02 -0.29355913476E+03  0.53811645250E+03  0.11755917074E+04  0.99992057801E+03 0.  0.
   -9000010    2    1    2    0  501  0.80177416376E+02  0.29355913476E+03 -0.15195333554E+04  0.18433625713E+04  0.99819765951E+03 0.  0.
        -13    1    3    3    0    0  0.34386699237E+03 -0.37153405363E+03  0.27072447637E+02  0.50696645849E+03  0.10566000000E+00 0.  1.
         13    1    4    4    0    0  0.24529937076E+03  0.58505907023E+03 -0.63540721665E+03  0.89789099510E+03  0.10566000000E+00 0. -1.
          4    1    3    3  502    0 -0.42404440875E+03  0.77974918870E+02  0.51104400486E+03  0.66862524890E+03  0.00000000000E+00 0.  1.
         -4    1    4    4    0  501 -0.16512195438E+03 -0.29149993548E+03 -0.88412613876E+03  0.94547157622E+03  0.00000000000E+00 0. -1.
</event>
<event>
 8    1  0.7096247E-006  0.1545115E+04  0.7818608E-02  0.8383999E-01
          1   -1    0    0  502    0  0.00000000000E+00  0.00000000000E+00  0.20268295855E+04  0.20268295855E+04  0.00000000000E+00 0. -1.
         -1   -1    0    0    0  501 -0.00000000000E+00 -0.00000000000E+00 -0.11789733374E+04  0.11789733374E+04  0.00000000000E+00 0.  1.
    9000010    2    1    2  502    0 -0.99726747114E+03  0.62497212870E+03  0.37684991279E+03  0.15949975198E+04  0.10083990583E+04 0.  0.
   -9000010    2    1    2    0  501  0.99726747114E+03 -0.62497212870E+03  0.47100633532E+03  0.16108054031E+04  0.99383827054E+03 0.  0.
        -13    1    3    3    0    0 -0.71702291025E+03  0.10819332632E+03 -0.21946937271E+03  0.75762422507E+03  0.10566000000E+00 0.  1.
         13    1    4    4    0    0 -0.16611150945E+03  0.36968748100E+02  0.16652680416E+03  0.23809852913E+03  0.10566000000E+00 0. -1.
          4    1    3    3  502    0 -0.28024456089E+03  0.51677880238E+03  0.59631928550E+03  0.83737329475E+03  0.00000000000E+00 0.  1.
         -4    1    4    4    0  501  0.11633789806E+04 -0.66194087680E+03  0.30447953117E+03  0.13727068739E+04  0.00000000000E+00 0. -1.
</event>
<event>
 8    1  0.7096247E-006  0.1929313E+04  0.7818608E-02  0.8197795E-01
         -2   -1    0    0    0  501 -0.00000000000E+00  0.00000000000E+00  0.11323661119E+04  0.11323661119E+04  0.00000000000E+00 0.  1.
          2   -1    0    0  502    0  0.00000000000E+00 -0.00000000000E+00 -0.33027800630E+04  0.33027800630E+04  0.00000000000E+00 0. -1.
    9000010    2    1    2  502    0  0.56596133785E+03 -0.15478189408E+04 -0.93330762925E+03  0.21443008079E+04  0.10054387672E+04 0.  0.
   -9000010    2    1    2    0  501 -0.56596133785E+03  0.15478189408E+04 -0.12371063218E+04  0.22908453669E+04  0.10007420918E+04 0.  0.
        -13    1    3    3    0    0  0.33152535085E+03 -0.39458993361E+03  0.15831435073E+03  0.53914165001E+03  0.10566000000E+00 0.  1.
         13    1    4    4    0    0  0.25808641523E+03  0.61454751484E+03 -0.29174829557E+03  0.72759489062E+03  0.10566000000E+00 0. -1.
          4    1    3    3  502    0  0.23443598700E+03 -0.11532290072E+04 -0.10916219800E+04  0.16051591579E+04  0.00000000000E+00 0.  1.
         -4    1    4    4    0  501 -0.82404775309E+03  0.93327142594E+03 -0.94535802626E+03  0.15632504763E+04  0.00000000000E+00 0. -1.
</event>
<event>
 8    1  0.7096247E-006  0.1412236E+04  0.7818608E-02  0.8461869E-01
         -1   -1    0    0    0  501 -0.00000000000E+00  0.00000000000E+00  0.14131031074E+04  0.14131031074E+04  0.00000000000E+00 0.  1.
          1   -1    0    0  502    0  0.00000000000E+00 -0.00000000000E+00 -0.14634460008E+04  0.14634460008E+04  0.00000000000E+00 0. -1.
    9000010    2    1    2  502    0 -0.14731560595E+03  0.98500236845E+03  0.24616488619E+03  0.14320829207E+04  0.99916604575E+03 0.  0.
   -9000010    2    1    2    0  501  0.14731560595E+03 -0.98500236845E+03 -0.29650777962E+03  0.14444661875E+04  0.10033115916E+04 0.  0.
        -13    1    3    3    0    0 -0.21056884773E+03  0.11169166027E+04 -0.10513249172E+02  0.11366408740E+04  0.10566000000E+00 0.  1.
         13    1    4    4    0    0 -0.48799427752E+02 -0.97630347461E+03  0.11917573373E+03  0.98476023750E+03  0.10566000000E+00 0. -1.
          4    1    3    3  502    0  0.63253241779E+02 -0.13191423421E+03  0.25667813536E+03  0.29544204669E+03  0.00000000000E+00 0.  1.
         -4    1    4    4    0  501  0.19611503370E+03 -0.86988938319E+01 -0.41568351335E+03  0.45970595000E+03  0.00000000000E+00 0. -1.
</event>
<event>
 8    1  0.7096247E-006  0.1232105E+04  0.7818608E-02  0.8582771E-01
         -2   -1    0    0    0  501 -0.00000000000E+00  0.00000000000E+00  0.67781695481E+03  0.67781695481E+03  0.00000000000E+00 0.  1.
          2   -1    0    0  502    0  0.00000000000E+00 -0.00000000000E+00 -0.25476067415E+04  0.25476067415E+04  0.00000000000E+00 0. -1.
    9000010    2    1    2  502    0  0.62938170112E+03  0.42198703520E+03 -0.14984609504E+04  0.19427357822E+04  0.97705819478E+03 0.  0.
   -9000010    2    1    2    0  501 -0.62938170112E+03 -0.42198703520E+03 -0.37132883627E+03  0.12826879141E+04  0.96602732712E+03 0.  0.
        -13    1    3    3    0    0  0.50546514319E+03  0.25834144771E+01 -0.15320419581E+03  0.52817915690E+03  0.10566000000E+00 0.  1.
         13    1    4    4    0    0 -0.26968372305E+03  0.30318776209E+03 -0.21147244708E+03  0.45757265717E+03  0.10566000000E+00 0. -1.
          4    1    3    3  502    0  0.12391655793E+03  0.41940362072E+03 -0.13452567546E+04  0.14145566253E+04  0.00000000000E+00 0.  1.
         -4    1    4    4    0  501 -0.35969797807E+03 -0.72517479728E+03 -0.15985638920E+03  0.82511525692E+03  0.00000000000E+00 0. -1.
</event>
<event>
 8    1  0.7096247E-006  0.1262239E+04  0.7818608E-02  0.8561113E-01
          2   -1    0    0  502    0  0.00000000000E+00  0.00000000000E+00  0.23938789288E+04  0.23938789288E+04  0.00000000000E+00 0.  1.
         -2   -1    0    0    0  501 -0.00000000000E+00 -0.00000000000E+00 -0.75854147863E+03  0.75854147863E+03  0.00000000000E+00 0. -1.
    9000010    2    1    2  502    0  0.18020191871E+03  0.67326491115E+03  0.13433508435E+04  0.18154275879E+04  0.10027100609E+04 0.  0.
   -9000010    2    1    2    0  501 -0.18020191871E+03 -0.67326491115E+03  0.29198660671E+03  0.13369928195E+04  0.11029665674E+04 0.  0.
        -13    1    3    3    0    0  0.27681321802E+03  0.90140085679E+03  0.12101253042E+04  0.15341291749E+04  0.10566000000E+00 0.  1.
         13    1    4    4    0    0  0.43114436024E+03 -0.15476333748E+03 -0.59076761878E+02  0.46187360279E+03  0.10566000000E+00 0. -1.
          4    1    3    3  502    0 -0.96611299310E+02 -0.22813594565E+03  0.13322553925E+03  0.28129841300E+03  0.00000000000E+00 0.  1.
         -4    1    4    4    0  501 -0.61134627895E+03 -0.51850157367E+03  0.35106336859E+03  0.87511921670E+03  0.00000000000E+00 0. -1.
</event>
<event>
 8    1  0.7096247E-006  0.1272613E+04  0.7818608E-02  0.8553801E-01
         -1   -1    0    0    0  501 -0.00000000000E+00  0.00000000000E+00  0.16933866863E+04  0.16933866863E+04  0.00000000000E+00 0. -1.
          1   -1    0    0  502    0  0.00000000000E+00 -0.00000000000E+00 -0.95879939236E+03  0.95879939236E+03  0.00000000000E+00 0.  1.
    9000010    2    1    2  502    0  0.10293141668E+03  0.79243633053E+03  0.29845500745E+03  0.12935576296E+04  0.97245346174E+03 0.  0.
   -9000010    2    1    2    0  501 -0.10293141668E+03 -0.79243633053E+03  0.43613228651E+03  0.13586284490E+04  0.10085185555E+04 0.  0.
        -13    1    3    3    0    0  0.12530128154E+03 -0.19623369412E+03  0.18650995360E+03  0.29831870176E+03  0.10566000000E+00 0.  1.
         13    1    4    4    0    0 -0.35519604726E+03 -0.93272078026E+03  0.33573836481E+03  0.10530206772E+04  0.10566000000E+00 0. -1.
          4    1    3    3  502    0 -0.22369864862E+02  0.98867002465E+03  0.11194505385E+03  0.99523892788E+03  0.00000000000E+00 0.  1.
         -4    1    4    4    0  501  0.25226463058E+03  0.14028444973E+03  0.10039392170E+03  0.30560777181E+03  0.00000000000E+00 0. -1.
</event>
<event>
 8    1  0.7096247E-006  0.1176900E+04  0.7818608E-02  0.8624163E-01
         -1   -1    0    0    0  501 -0.00000000000E+00  0.00000000000E+00  0.73437112324E+03  0.73437112324E+03  0.00000000000E+00 0.  1.
          1   -1    0    0  502    0  0.00000000000E+00 -0.00000000000E+00 -0.19260009555E+04  0.19260009555E+04  0.00000000000E+00 0. -1.
    9000010    2    1    2  502    0  0.39546117307E+03  0.39226283838E+03 -0.77545977751E+03  0.13921588022E+04  0.10131676023E+04 0.  0.
   -9000010    2    1    2    0  501 -0.39546117307E+03 -0.39226283838E+03 -0.41617005478E+03  0.12682132765E+04  0.10606166727E+04 0.  0.
        -13    1    3    3    0    0  0.55572751985E+03  0.44528613715E+03 -0.12860303555E+03  0.72363773545E+03  0.10566000000E+00 0.  1.
         13    1    4    4    0    0  0.11617099682E+03 -0.12951657650E+03 -0.63077170631E+03  0.65432652455E+03  0.10566000000E+00 0. -1.
          4    1    3    3  502    0 -0.16026634678E+03 -0.53023298773E+02 -0.64685674196E+03  0.66852106679E+03  0.00000000000E+00 0.  1.
         -4    1    4    4    0  501 -0.51163216990E+03 -0.26274626188E+03  0.21460165153E+03  0.61388675197E+03  0.00000000000E+00 0. -1.
</event>
<event>
 8    1  0.7096247E-006  0.1198915E+04  0.7818608E-02  0.8607380E-01
          2   -1    0    0  502    0  0.00000000000E+00  0.00000000000E+00  0.19157929608E+04  0.19157929608E+04  0.00000000000E+00 0. -1.
         -2   -1    0    0    0  501 -0.00000000000E+00 -0.00000000000E+00 -0.75144118774E+03  0.75144118774E+03  0.00000000000E+00 0.  1.
    9000010    2    1    2  502    0  0.22326969244E+03  0.52951650378E+03  0.56566729594E+03  0.12844320545E+04  0.99977453940E+03 0.  0.
   -9000010    2    1    2    0  501 -0.22326969244E+03 -0.52951650378E+03  0.59868447716E+03  0.13828020941E+04  0.11061109550E+04 0.  0.
        -13    1    3    3    0    0  0.28687340529E+03  0.75243407334E+03  0.65295663380E+03  0.10367283936E+04  0.10566000000E+00 0.  1.
         13    1    4    4    0    0  0.17785830231E+03 -0.60975426405E+03  0.71610967024E+03  0.95720787147E+03  0.10566000000E+00 0. -1.
          4    1    3    3  502    0 -0.63603712846E+02 -0.22291756956E+03 -0.87289337865E+02  0.24770366088E+03  0.00000000000E+00 0.  1.
         -4    1    4    4    0  501 -0.40112799476E+03  0.80237760269E+02 -0.11742519307E+03  0.42559422261E+03  0.00000000000E+00 0. -1.
</event>
<event>
 8    1  0.7096247E-006  0.1875903E+04  0.7818608E-02  0.8220877E-01
          2   -1    0    0  502    0  0.00000000000E+00  0.00000000000E+00  0.84073583245E+03  0.84073583245E+03  0.00000000000E+00 0.  1.
         -2   -1    0    0    0  501 -0.00000000000E+00 -0.00000000000E+00 -0.44689942464E+04  0.44689942464E+04  0.00000000000E+00 0. -1.
    9000010    2    1    2  502    0 -0.16062934335E+04  0.28753074384E+02 -0.24707931601E+04  0.30945302160E+04  0.94355343449E+03 0.  0.
   -9000010    2    1    2    0  501  0.16062934335E+04 -0.28753074384E+02 -0.11574652538E+04  0.22151998629E+04  0.99316629279E+03 0.  0.
        -13    1    3    3    0    0 -0.45732687394E+03 -0.40580614323E+03 -0.10617251891E+04  0.12251885095E+04  0.10566000000E+00 0.  1.
         13    1    4    4    0    0  0.72450396192E+03 -0.32026302608E+03 -0.99592002000E+03  0.12725294080E+04  0.10566000000E+00 0. -1.
          4    1    3    3  502    0 -0.11489665595E+04  0.43455921761E+03 -0.14090679710E+04  0.18693417064E+04  0.00000000000E+00 0.  1.
         -4    1    4    4    0  501  0.88178947153E+03  0.29150995170E+03 -0.16154523382E+03  0.94267045494E+03  0.00000000000E+00 0. -1.
</event>
<event>
 7    1  0.7096247E-006  0.1594809E+04  0.7818608E-02  0.8356933E-01
         -2   -1    0    0    0  501 -0.00000000000E+00  0.00000000000E+00  0.13852939236E+04  0.13852939236E+04  0.00000000000E+00 0.  1.
          2   -1    0    0  502    0  0.00000000000E+00 -0.00000000000E+00 -0.18835162294E+04  0.18835162294E+04  0.00000000000E+00 0. -1.
    9000010    2    1    2  502    0 -0.10602587526E+04  0.20662374329E+03 -0.45411597090E+03  0.15407753576E+04  0.10004625900E+04 0.  0.
        -13    1    3    3    0    0 -0.46709362136E+03 -0.26002991639E+03 -0.56513702513E+03  0.77792793809E+03  0.10566000000E+00 0.  1.
         13    1    1    2    0    0  0.77340720126E+03 -0.63562450417E+03 -0.42404319277E+03  0.10871935659E+04  0.10566000000E+00 0. -1.
          4    1    3    3  502    0 -0.59316513125E+03  0.46665365968E+03  0.11102105422E+03  0.76284741955E+03  0.00000000000E+00 0.  1.
         -4    1    1    2    0  501  0.28685155136E+03  0.42900076088E+03  0.37993685786E+03  0.64084122941E+03  0.00000000000E+00 0. -1.
</event>
<event>
 8    1  0.7096247E-006  0.1168702E+04  0.7818608E-02  0.8630510E-01
          2   -1    0    0  502    0  0.00000000000E+00  0.00000000000E+00  0.16933356894E+04  0.16933356894E+04  0.00000000000E+00 0. -1.
         -2   -1    0    0    0  501 -0.00000000000E+00 -0.00000000000E+00 -0.88686529515E+03  0.88686529515E+03  0.00000000000E+00 0.  1.
    9000010    2    1    2  502    0 -0.14315624494E+02  0.60065405175E+03  0.79055773301E+03  0.14089883328E+04  0.99963811739E+03 0.  0.
   -9000010    2    1    2    0  501  0.14315624494E+02 -0.60065405175E+03  0.15912661257E+02  0.11712126518E+04  0.10052341199E+04 0.  0.
        -13    1    3    3    0    0 -0.19744280676E+03 -0.14153372000E+03 -0.74943602387E+02  0.25422826464E+03  0.10566000000E+00 0.  1.
         13    1    4    4    0    0  0.47532893628E+03 -0.51292846002E+03 -0.28056205046E+02  0.69987167722E+03  0.10566000000E+00 0. -1.
          4    1    3    3  502    0  0.18312718227E+03  0.74218777175E+03  0.86550133540E+03  0.11547600682E+04  0.00000000000E+00 0.  1.
         -4    1    4    4    0  501 -0.46101331179E+03 -0.87725591727E+02  0.43968866303E+02  0.47134097455E+03  0.00000000000E+00 0. -1.
</event>
<event>
 8    1  0.7096247E-006  0.1205455E+04  0.7818608E-02  0.8602466E-01
          2   -1    0    0  502    0  0.00000000000E+00  0.00000000000E+00  0.12728729049E+04  0.12728729049E+04  0.00000000000E+00 0.  1.
         -2   -1    0    0    0  501 -0.00000000000E+00 -0.00000000000E+00 -0.12202797442E+04  0.12202797442E+04  0.00000000000E+00 0. -1.
    9000010    2    1    2  502    0 -0.59545065616E+03  0.26448362042E+03  0.34246695645E+03  0.12439896919E+04  0.10028527648E+04 0.  0.
   -9000010    2    1    2    0  501  0.59545065616E+03 -0.26448362042E+03 -0.28987379572E+03  0.12491629572E+04  0.10256062630E+04 0.  0.
        -13    1    3    3    0    0  0.19297532946E+03 -0.18308515897E+03  0.18449236170E+03  0.32372379571E+03  0.10566000000E+00 0.  1.
         13    1    4    4    0    0 -0.94355972916E+02  0.19591306965E+03  0.19192428556E+03  0.29003434803E+03  0.10566000000E+00 0. -1.
          4    1    3    3  502    0 -0.78842598562E+03  0.44756877939E+03  0.15797459475E+03  0.92026589618E+03  0.00000000000E+00 0.  1.
         -4    1    4    4    0  501  0.68980662907E+03 -0.46039669007E+03 -0.48179808128E+03  0.95912860914E+03  0.00000000000E+00 0. -1.
</event>
<event>
 8    1  0.7096247E-006  0.1813238E+04  0.7818608E-02  0.8248985E-01
         -2   -1    0    0    0  501 -0.00000000000E+00  0.00000000000E+00  0.10249438312E+04  0.10249438312E+04  0.00000000000E+00 0. -1.
          2   -1    0    0  502    0  0.00000000000E+00 -0.00000000000E+00 -0.32412481176E+04  0.32412481176E+04  0.00000000000E+00 0.  1.
    9000010    2    1    2  502    0 -0.10872184905E+04  0.10308269943E+04 -0.90062613393E+03  0.20372070947E+04  0.10461534185E+04 0.  0.
   -9000010    2    1    2    0  501  0.10872184905E+04 -0.10308269943E+04 -0.13156781524E+04  0.22289848541E+04  0.99635141427E+03 0.  0.
        -13    1    3    3    0    0 -0.75016686798E+02 -0.21155126380E+03 -0.12373103930E+03  0.25630220788E+03  0.10566000000E+00 0.  1.
         13    1    4    4    0    0  0.10624840433E+04 -0.91291939374E+03 -0.14717445430E+04  0.20318282833E+04  0.10566000000E+00 0. -1.
          4    1    3    3  502    0 -0.10122018037E+04  0.12423782581E+04 -0.77689509463E+03  0.17809048868E+04  0.00000000000E+00 0.  1.
         -4    1    4    4    0  501  0.24734447258E+02 -0.11790760057E+03  0.15606639058E+03  0.19715657083E+03  0.00000000000E+00 0. -1.
</event>
<event>
 8    1  0.7096247E-006  0.1022053E+04  0.7818608E-02  0.8754143E-01
         -2   -1    0    0    0  501 -0.00000000000E+00  0.00000000000E+00  0.25616003732E+03  0.25616003732E+03  0.00000000000E+00 0.  1.
          2   -1    0    0  502    0  0.00000000000E+00 -0.00000000000E+00 -0.42329057746E+04  0.42329057746E+04  0.00000000000E+00 0. -1.
    9000010    2    1    2  502    0  0.18326252924E+02 -0.31273239051E+03 -0.16189715152E+04  0.19307109081E+04  0.10042103585E+04 0.  0.
   -9000010    2    1    2    0  501 -0.18326252924E+02  0.31273239051E+03 -0.23577742220E+04  0.25583549038E+04  0.94230734475E+03 0.  0.
        -13    1    3    3    0    0 -0.26786249771E+03 -0.21133517603E+03 -0.64966867750E+02  0.34732345066E+03  0.10566000000E+00 0.  1.
         13    1    4    4    0    0 -0.34320196330E+03 -0.35890937727E+02 -0.33765191087E+03  0.48278832950E+03  0.10566000000E+00 0. -1.
          4    1    3    3  502    0  0.28618875064E+03 -0.10139721448E+03 -0.15540046475E+04  0.15833874575E+04  0.00000000000E+00 0.  1.
         -4    1    4    4    0  501  0.32487571038E+03  0.34862332824E+03 -0.20201223112E+04  0.20755665743E+04  0.00000000000E+00 0. -1.
</event>
<event>
 8    1  0.7096247E-006  0.1022952E+04  0.7818608E-02  0.8753321E-01
          1   -1    0    0  502    0  0.00000000000E+00  0.00000000000E+00  0.16550475312E+04  0.16550475312E+04  0.00000000000E+00 0. -1.
         -1   -1    0    0    0  501 -0.00000000000E+00 -0.00000000000E+00 -0.63226743054E+03  0.63226743054E+03  0.00000000000E+00 0.  1.
    9000010    2    1    2  502    0  0.87590109917E+02  0.15609617033E+03  0.51028339397E+03  0.11439521205E+04  0.10080670960E+04 0.  0.
   -9000010    2    1    2    0  501 -0.87590109917E+02 -0.15609617033E+03  0.51249670664E+03  0.11433628412E+04  0.10062741528E+04 0.  0.
        -13    1    3    3    0    0 -0.20658427084E+03  0.49213269699E+03  0.11159058964E+03  0.54527435596E+03  0.10566000000E+00 0.  1.
         13    1    4    4    0    0 -0.13861372356E+02  0.35703330638E+03  0.51275186599E+03  0.62496352433E+03  0.10566000000E+00 0. -1.
          4    1    3    3  502    0  0.29417438076E+03 -0.33603652666E+03  0.39869280433E+03  0.59867776455E+03  0.00000000000E+00 0.  1.
         -4    1    4    4    0  501 -0.73728737561E+02 -0.51312947671E+03 -0.25515935174E+00  0.51839931686E+03  0.00000000000E+00 0. -1.
</event>
<event>
 8    1  0.7096247E-006  0.1339890E+04  0.7818608E-02  0.8508065E-01
         -2   -1    0    0    0  501 -0.00000000000E+00  0.00000000000E+00  0.29546344469E+04  0.29546344469E+04  0.00000000000E+00 0. -1.
          2   -1    0    0  502    0  0.00000000000E+00 -0.00000000000E+00 -0.63305084515E+03  0.63305084515E+03  0.00000000000E+00 0.  1.
    9000010    2    1    2  502    0 -0.50784029656E+03 -0.72829876327E+03  0.15063677711E+04  0.20055184982E+04  0.98216074534E+03 0.  0.
   -9000010    2    1    2    0  501  0.50784029656E+03  0.72829876327E+03  0.81521583063E+03  0.15821667938E+04  0.10248678244E+04 0.  0.
        -13    1    3    3    0    0 -0.26405875993E+03 -0.91692108323E+03  0.13673924469E+04  0.16674031955E+04  0.10566000000E+00 0.  1.
         13    1    4    4    0    0  0.65783637367E+03  0.77180601323E+03  0.93961402132E+03  0.13825005377E+04  0.10566000000E+00 0. -1.
          4    1    3    3  502    0 -0.24378153662E+03  0.18862231996E+03  0.13897532422E+03  0.33811530271E+03  0.00000000000E+00 0.  1.
         -4    1    4    4    0  501 -0.14999607712E+03 -0.43507249966E+02 -0.12439819070E+03  0.19966625603E+03  0.00000000000E+00 0. -1.
</event>
<event>
 8    1  0.7096247E-006  0.1050310E+04  0.7818608E-02  0.8728704E-01
         -2   -1    0    0    0  501 -0.00000000000E+00  0.00000000000E+00  0.30639479247E+03  0.30639479247E+03  0.00000000000E+00 0. -1.
          2   -1    0    0  502    0  0.00000000000E+00 -0.00000000000E+00 -0.36056996205E+04  0.36056996205E+04  0.00000000000E+00 0.  1.
    9000010    2    1    2  502    0 -0.64554714756E+02 -0.30144085979E+03 -0.17357002125E+04  0.20330005042E+04  0.10126213108E+04 0.  0.
   -9000010    2    1    2    0  501  0.64554714756E+02  0.30144085979E+03 -0.15636046155E+04  0.18790939087E+04  0.99554036646E+03 0.  0.
        -13    1    3    3    0    0  0.20255176940E+03 -0.22727871924E+03 -0.31118433063E+02  0.30602484139E+03  0.10566000000E+00 0.  1.
         13    1    4    4    0    0 -0.25276471300E+03  0.54642441760E+03 -0.11776105693E+04  0.13225869757E+04  0.10566000000E+00 0. -1.
          4    1    3    3  502    0 -0.26710648416E+03 -0.74162140552E+02 -0.17045817795E+04  0.17269756628E+04  0.00000000000E+00 0.  1.
         -4    1    4    4    0  501  0.31731942776E+03 -0.24498355780E+03 -0.38599404619E+03  0.55650693304E+03  0.00000000000E+00 0. -1.
</event>
<event>
 8    1  0.7096247E-006  0.1167755E+04  0.7818608E-02  0.8631247E-01
          2   -1    0    0  502    0  0.00000000000E+00  0.00000000000E+00  0.15163118173E+04  0.15163118173E+04  0.00000000000E+00 0.  1.
         -2   -1    0    0    0  501 -0.00000000000E+00 -0.00000000000E+00 -0.92655772682E+03  0.92655772682E+03  0.00000000000E+00 0. -1.
    9000010    2    1    2  502    0  0.61391230732E+03 -0.20071631967E+03  0.50683436639E+03  0.12839659264E+04  0.98717377562E+03 0.  0.
   -9000010    2    1    2    0  501 -0.61391230732E+03  0.20071631967E+03  0.82919724088E+02  0.11589036177E+04  0.95864829440E+03 0.  0.
        -13    1    3    3    0    0  0.37459349257E+03  0.78212878315E+02  0.75089736280E+03  0.84278372055E+03  0.10566000000E+00 0.  1.
         13    1    4    4    0    0 -0.22135322978E+03  0.33379471444E+03  0.45198300351E+03  0.60390794857E+03  0.10566000000E+00 0. -1.
          4    1    3    3  502    0  0.23931881475E+03 -0.27892919799E+03 -0.24406299640E+03  0.44118220589E+03  0.00000000000E+00 0.  1.
         -4    1    4    4    0  501 -0.39255907753E+03 -0.13307839476E+03 -0.36906327942E+03  0.55499566910E+03  0.00000000000E+00 0. -1.
</event>
<event>
 8    1  0.7096247E-006  0.1442008E+04  0.7818608E-02  0.8443676E-01
          2   -1    0    0  502    0  0.00000000000E+00  0.00000000000E+00  0.33184090796E+04  0.33184090796E+04  0.00000000000E+00 0.  1.
         -2   -1    0    0    0  501 -0.00000000000E+00 -0.00000000000E+00 -0.69230151985E+03  0.69230151985E+03  0.00000000000E+00 0. -1.
    9000010    2    1    2  502    0 -0.10432901557E+04 -0.12834255746E+03  0.19233833639E+04  0.23986773948E+04  0.97433234505E+03 0.  0.
   -9000010    2    1    2    0  501  0.10432901557E+04  0.12834255746E+03  0.70272419582E+03  0.16120332047E+04  0.99995179710E+03 0.  0.
        -13    1    3    3    0    0 -0.78171913142E+03 -0.48856920842E+03  0.16066435724E+04  0.18523196948E+04  0.10566000000E+00 0.  1.
         13    1    4    4    0    0  0.11797609860E+04  0.21029641124E+02  0.36976250321E+03  0.12365284267E+04  0.10566000000E+00 0. -1.
          4    1    3    3  502    0 -0.26157102427E+03  0.36022665096E+03  0.31673979153E+03  0.54635769999E+03  0.00000000000E+00 0.  1.
         -4    1    4    4    0  501 -0.13647083036E+03  0.10731291634E+03  0.33296169261E+03  0.37550477800E+03  0.00000000000E+00 0. -1.
</event>
<event>
 8    1  0.7096247E-006  0.2435829E+04  0.7818608E-02  0.8010965E-01
         -4   -1    0    0    0  501 -0.00000000000E+00  0.00000000000E+00  0.17912301718E+04  0.17912301718E+04  0.00000000000E+00 0. -1.
          4   -1    0    0  502    0  0.00000000000E+00 -0.00000000000E+00 -0.34400625546E+04  0.34400625546E+04  0.00000000000E+00 0.  1.
    9000010    2    1    2  502    0 -0.21586513921E+04 -0.45398336746E+03 -0.13266085530E+04  0.27691655468E+04  0.10210342025E+04 0.  0.
   -9000010    2    1    2    0  501  0.21586513921E+04  0.45398336746E+03 -0.32222382985E+03  0.24621271796E+04  0.10451628207E+04 0.  0.
        -13    1    3    3    0    0 -0.90237459512E+03 -0.59518010704E+03 -0.97813504124E+03  0.14578297019E+04  0.10566000000E+00 0.  1.
         13    1    4    4    0    0  0.53045112386E+03 -0.27333238798E+03  0.15417407074E+03  0.61632673508E+03  0.10566000000E+00 0. -1.
          4    1    3    3  502    0 -0.12562767969E+04  0.14119673957E+03 -0.34847351172E+03  0.13113358449E+04  0.00000000000E+00 0.  1.
         -4    1    4    4    0  501  0.16282002682E+04  0.72731575544E+03 -0.47639790058E+03  0.18458004446E+04  0.00000000000E+00 0. -1.
</event>
<event>
 8    1  0.7096247E-006  0.1274350E+04  0.7818608E-02  0.8552584E-01
         -2   -1    0    0    0  501 -0.00000000000E+00  0.00000000000E+00  0.63047813252E+03  0.63047813252E+03  0.00000000000E+00 0.  1.
          2   -1    0    0  502    0  0.00000000000E+00 -0.00000000000E+00 -0.25855400206E+04  0.25855400206E+04  0.00000000000E+00 0. -1.
    9000010    2    1    2  502    0 -0.85624886663E+03  0.32353564326E+02 -0.92262193283E+03  0.16060848801E+04  0.99702985739E+03 0.  0.
   -9000010    2    1    2    0  501  0.85624886663E+03 -0.32353564326E+02 -0.10324399552E+04  0.16099332730E+04  0.88979998176E+03 0.  0.
        -13    1    3    3    0    0 -0.18841201475E+03 -0.33048762491E+03 -0.72818566590E+03  0.82156894580E+03  0.10566000000E+00 0.  1.
         13    1    4    4    0    0  0.48380051695E+03  0.31474539899E+03 -0.92392048224E+03  0.10893836216E+04  0.10566000000E+00 0. -1.
          4    1    3    3  502    0 -0.66783685187E+03  0.36284118923E+03 -0.19443626693E+03  0.78451593433E+03  0.00000000000E+00 0.  1.
         -4    1    4    4    0  501  0.37244834967E+03 -0.34709896331E+03 -0.10851947299E+03  0.52054965136E+03  0.00000000000E+00 0. -1.
</event>
<event>
 8    1  0.7096247E-006  0.1281262E+04  0.7818608E-02  0.8547760E-01
          2   -1    0    0  502    0  0.00000000000E+00  0.00000000000E+00  0.14780471261E+04  0.14780471261E+04  0.00000000000E+00 0. -1.
         -2   -1    0    0    0  501 -0.00000000000E+00 -0.00000000000E+00 -0.11485880979E+04  0.11485880979E+04  0.00000000000E+00 0.  1.
    9000010    2    1    2  502    0  0.29089689268E+03  0.75591496793E+03  0.40371309607E+03  0.13464830487E+04  0.99699744005E+03 0.  0.
   -9000010    2    1    2    0  501 -0.29089689268E+03 -0.75591496793E+03 -0.74254067933E+02  0.12801521754E+04  0.98855828588E+03 0.  0.
        -13    1    3    3    0    0 -0.55486627788E+02  0.19408443077E+03 -0.31281567472E+03  0.37229180711E+03  0.10566000000E+00 0.  1.
         13    1    4    4    0    0 -0.48188807660E+03  0.11156093494E+02  0.29303067456E+02  0.48290709015E+03  0.10566000000E+00 0. -1.
          4    1    3    3  502    0  0.34638352047E+03  0.56183053717E+03  0.71652877078E+03  0.97419124155E+03  0.00000000000E+00 0.  1.
         -4    1    4    4    0  501  0.19099118392E+03 -0.76707106143E+03 -0.10355713539E+03  0.79724508522E+03  0.00000000000E+00 0. -1.
</event>
<event>
 8    1  0.7096247E-006  0.2083523E+04  0.7818608E-02  0.8135208E-01
         -4   -1    0    0    0  501 -0.00000000000E+00  0.00000000000E+00  0.27537265158E+04  0.27537265158E+04  0.00000000000E+00 0.  1.
          4   -1    0    0  502    0  0.00000000000E+00 -0.00000000000E+00 -0.16643713679E+04  0.16643713679E+04  0.00000000000E+00 0. -1.
    9000010    2    1    2  502    0 -0.18225246662E+04 -0.10661343944E+03  0.37765939501E+02  0.20872889644E+04  0.10111312330E+04 0.  0.
   -9000010    2    1    2    0  501  0.18225246662E+04  0.10661343944E+03  0.10515892084E+04  0.23308089194E+04  0.99692917052E+03 0.  0.
        -13    1    3    3    0    0 -0.14778149317E+04 -0.50006939256E+03  0.82288128443E+02  0.15622988565E+04  0.10566000000E+00 0.  1.
         13    1    4    4    0    0  0.28487501901E+03 -0.37254293271E+03  0.25964547089E+03  0.53605764138E+03  0.10566000000E+00 0. -1.
          4    1    3    3  502    0 -0.34470973446E+03  0.39345595312E+03 -0.44522188943E+02  0.52499010789E+03  0.00000000000E+00 0.  1.
         -4    1    4    4    0  501  0.15376496472E+04  0.47915637215E+03  0.79194373750E+03  0.17947512780E+04  0.00000000000E+00 0. -1.
</event>
<event>
 8    1  0.7096247E-006  0.1423520E+04  0.7818608E-02  0.8454920E-01
          2   -1    0    0  502    0  0.00000000000E+00  0.00000000000E+00  0.36168793297E+04  0.36168793297E+04  0.00000000000E+00 0.  1.
         -2   -1    0    0    0  501 -0.00000000000E+00 -0.00000000000E+00 -0.58839828848E+03  0.58839828848E+03  0.00000000000E+00 0. -1.
    9000010    2    1    2  502    0  0.10102344351E+04 -0.13255974656E+03  0.19698788680E+04  0.24280330568E+04  0.98831982168E+03 0.  0.
   -9000010    2    1    2    0  501 -0.10102344351E+04  0.13255974656E+03  0.10586021732E+04  0.17772445614E+04  0.99990698048E+03 0.  0.
        -13    1    3    3    0    0  0.14295883292E+02  0.31058334449E+03  0.28808521100E+03  0.42386257928E+03  0.10566000000E+00 0.  1.
         13    1    4    4    0    0 -0.84478929332E+03 -0.28344135776E+03  0.97673686024E+03  0.13221281552E+04  0.10566000000E+00 0. -1.
          4    1    3    3  502    0  0.99593855181E+03 -0.44314309105E+03  0.16817936570E+04  0.20041704775E+04  0.00000000000E+00 0.  1.
         -4    1    4    4    0  501 -0.16544514178E+03  0.41600110432E+03  0.81865312957E+02  0.45511640621E+03  0.00000000000E+00 0. -1.
</event>
<event>
 8    1  0.7096247E-006  0.1181423E+04  0.7818608E-02  0.8620684E-01
         -2   -1    0    0    0  501 -0.00000000000E+00  0.00000000000E+00  0.10668202610E+04  0.10668202610E+04  0.00000000000E+00 0. -1.
          2   -1    0    0  502    0  0.00000000000E+00 -0.00000000000E+00 -0.14036732638E+04  0.14036732638E+04  0.00000000000E+00 0.  1.
    9000010    2    1    2  502    0  0.57908276537E+03  0.26799147334E+03 -0.49067526747E+03  0.12816192934E+04  0.99731114307E+03 0.  0.
   -9000010    2    1    2    0  501 -0.57908276537E+03 -0.26799147334E+03  0.15382226467E+03  0.11888742314E+04  0.99126402644E+03 0.  0.
        -13    1    3    3    0    0 -0.20631735453E+03  0.22668888111E+03  0.71652021909E+02  0.31478361299E+03  0.10566000000E+00 0.  1.
         13    1    4    4    0    0 -0.18852718225E+03  0.28061060806E+03  0.35085344050E+03  0.48721962161E+03  0.10566000000E+00 0. -1.
          4    1    3    3  502    0  0.78540011991E+03  0.41302592231E+02 -0.56232728938E+03  0.96683568038E+03  0.00000000000E+00 0.  1.
         -4    1    4    4    0  501 -0.39055558313E+03 -0.54860208140E+03 -0.19703117583E+03  0.70165460982E+03  0.00000000000E+00 0. -1.
</event>
<event>
 8    1  0.7096247E-006  0.1108128E+04  0.7818608E-02  0.8679153E-01
          2   -1    0    0  502    0  0.00000000000E+00  0.00000000000E+00  0.19335778851E+04  0.19335778851E+04  0.00000000000E+00 0.  1.
         -2   -1    0    0    0  501 -0.00000000000E+00 -0.00000000000E+00 -0.82663605174E+03  0.82663605174E+03  0.00000000000E+00 0. -1.
    9000010    2    1    2  502    0  0.36438746310E+03 -0.34714963116E+03  0.12176930052E+04  0.16461418566E+04  0.98677032154E+03 0.  0.
   -9000010    2    1    2    0  501 -0.36438746310E+03  0.34714963116E+03 -0.11075117187E+03  0.11140720802E+04  0.98772450012E+03 0.  0.
        -13    1    3    3    0    0  0.23915799352E+03 -0.26449838034E+02  0.12746652458E+04  0.12971767959E+04  0.10566000000E+00 0.  1.
         13    1    4    4    0    0  0.28132867805E+03  0.14715102858E+03  0.19453933021E+03  0.37235038938E+03  0.10566000000E+00 0. -1.
          4    1    3    3  502    0  0.12522946958E+03 -0.32069979312E+03 -0.56972240644E+02  0.34896506067E+03  0.00000000000E+00 0.  1.
         -4    1    4    4    0  501 -0.64571614115E+03  0.19999860257E+03 -0.30529050208E+03  0.74172169082E+03  0.00000000000E+00 0. -1.
</event>
<event>
 8    1  0.7096247E-006  0.1180052E+04  0.7818608E-02  0.8621737E-01
          2   -1    0    0  502    0  0.00000000000E+00  0.00000000000E+00  0.31882591900E+04  0.31882591900E+04  0.00000000000E+00 0. -1.
         -2   -1    0    0    0  501 -0.00000000000E+00 -0.00000000000E+00 -0.45058212998E+03  0.45058212998E+03  0.00000000000E+00 0.  1.
    9000010    2    1    2  502    0  0.26273738690E+03  0.58232529657E+03  0.16946243238E+04  0.20687655051E+04  0.99995271438E+03 0.  0.
   -9000010    2    1    2    0  501 -0.26273738690E+03 -0.58232529657E+03  0.10430527362E+04  0.15700758148E+04  0.98440102005E+03 0.  0.
        -13    1    3    3    0    0  0.85279332894E+01 -0.27726969992E+03  0.53941136929E+03  0.60656067184E+03  0.10566000000E+00 0.  1.
         13    1    4    4    0    0 -0.49195411603E+03 -0.25480183841E+02  0.19462032422E+03  0.52966515253E+03  0.10566000000E+00 0. -1.
          4    1    3    3  502    0  0.25420945361E+03  0.85959499649E+03  0.11552129545E+04  0.14622048333E+04  0.00000000000E+00 0.  1.
         -4    1    4    4    0  501  0.22921672913E+03 -0.55684511273E+03  0.84843241199E+03  0.10404106623E+04  0.00000000000E+00 0. -1.
</event>
<event>
 8    1  0.7096247E-006  0.1157170E+04  0.7818608E-02  0.8639532E-01
          1   -1    0    0  502    0  0.00000000000E+00  0.00000000000E+00  0.96395318006E+03  0.96395318006E+03  0.00000000000E+00 0. -1.
         -1   -1    0    0    0  501 -0.00000000000E+00 -0.00000000000E+00 -0.14096690830E+04  0.14096690830E+04  0.00000000000E+00 0.  1.
    9000010    2    1    2  502    0  0.21152447979E+03 -0.52009639906E+03 -0.77904415861E+02  0.11488286191E+04  0.99924733083E+03 0.  0.
   -9000010    2    1    2    0  501 -0.21152447979E+03  0.52009639906E+03 -0.36781148705E+03  0.12247936439E+04  0.10244956371E+04 0.  0.
        -13    1    3    3    0    0  0.17260215219E+03  0.41508796901E+00 -0.46694826008E+03  0.49782764487E+03  0.10566000000E+00 0.  1.
         13    1    4    4    0    0 -0.11635455599E+03  0.42717379397E+03 -0.72173035514E+03  0.84670570428E+03  0.10566000000E+00 0. -1.
          4    1    3    3  502    0  0.38922327600E+02 -0.52051148703E+03  0.38904384422E+03  0.65100097422E+03  0.00000000000E+00 0.  1.
         -4    1    4    4    0  501 -0.95169923792E+02  0.92922605088E+02  0.35391886809E+03  0.37808793967E+03  0.00000000000E+00 0. -1.
</event>
<event>
 8    1  0.7096247E-006  0.1540224E+04  0.7818608E-02  0.8386719E-01
          2   -1    0    0  502    0  0.00000000000E+00  0.00000000000E+00  0.39041431365E+04  0.39041431365E+04  0.00000000000E+00 0.  1.
         -2   -1    0    0    0  501 -0.00000000000E+00 -0.00000000000E+00 -0.86011299857E+03  0.86011299857E+03  0.00000000000E+00 0. -1.
    9000010    2    1    2  502    0  0.21941896453E+03  0.11129335927E+04  0.22035347129E+03  0.15400307910E+04  0.10180242243E+04 0.  0.
   -9000010    2    1    2    0  501 -0.21941896453E+03 -0.11129335927E+04  0.28236766667E+04  0.32242253440E+04  0.10656984975E+04 0.  0.
        -13    1    3    3    0    0  0.16580385554E+03  0.13427652360E+03 -0.34714437015E+03  0.40746819286E+03  0.10566000000E+00 0.  1.
         13    1    4    4    0    0  0.23623918154E+03 -0.69851727635E+03  0.71377475212E+03  0.10262600763E+04  0.10566000000E+00 0. -1.
          4    1    3    3  502    0  0.53615108985E+02  0.97865706907E+03  0.56749784143E+03  0.11325625982E+04  0.00000000000E+00 0.  1.
         -4    1    4    4    0  501 -0.45565814607E+03 -0.41441631632E+03  0.21099019145E+04  0.21979652678E+04  0.00000000000E+00 0. -1.
</event>
<event>
 8    1  0.7096247E-006  0.1922091E+04  0.7818608E-02  0.8200871E-01
          1   -1    0    0  502    0  0.00000000000E+00  0.00000000000E+00  0.11227024603E+04  0.11227024603E+04  0.00000000000E+00 0.  1.
         -1   -1    0    0    0  501 -0.00000000000E+00 -0.00000000000E+00 -0.33272005805E+04  0.33272005805E+04  0.00000000000E+00 0. -1.
    9000010    2    1    2  502    0  0.15916849703E+04  0.40130435276E+03 -0.86999543002E+03  0.21112708600E+04  0.10030285977E+04 0.  0.
   -9000010    2    1    2    0  501 -0.15916849703E+04 -0.40130435276E+03 -0.13345026902E+04  0.23386321809E+04  0.99689358468E+03 0.  0.
        -13    1    3    3    0    0  0.16026073742E+04  0.30273415315E+03 -0.10256961222E+04  0.19266683445E+04  0.10566000000E+00 0.  1.
         13    1    4    4    0    0 -0.76597215874E+03  0.42336722626E+02 -0.78113793810E+02  0.77110798335E+03  0.10566000000E+00 0. -1.
          4    1    3    3  502    0 -0.10922403956E+02  0.98570199605E+02  0.15570069222E+03  0.18460251547E+03  0.00000000000E+00 0.  1.
         -4    1    4    4    0  501 -0.82571281154E+03 -0.44364107538E+03 -0.12563888963E+04  0.15675241975E+04  0.00000000000E+00 0. -1.
</event>
<event>
 8    1  0.7096247E-006  0.1149223E+04  0.7818608E-02  0.8645812E-01
         -1   -1    0    0    0  501 -0.00000000000E+00  0.00000000000E+00  0.94796395157E+03  0.94796395157E+03  0.00000000000E+00 0. -1.
          1   -1    0    0  502    0  0.00000000000E+00 -0.00000000000E+00 -0.14830994578E+04  0.14830994578E+04  0.00000000000E+00 0.  1.
    9000010    2    1    2  502    0  0.54229086196E+03 -0.24440286582E+03 -0.56435158226E+03  0.12710696088E+04  0.97124307067E+03 0.  0.
   -9000010    2    1    2    0  501 -0.54229086196E+03  0.24440286582E+03  0.29216076004E+02  0.11599938006E+04  0.99544959613E+03 0.  0.
        -13    1    3    3    0    0  0.78239122139E+03 -0.32421644101E+03 -0.56495499579E+03  0.10180503339E+04  0.10566000000E+00 0.  1.
         13    1    4    4    0    0 -0.29672090089E+03  0.17219565842E+03  0.51039006596E+03  0.61497371359E+03  0.10566000000E+00 0. -1.
          4    1    3    3  502    0 -0.24010035943E+03  0.79813575190E+02  0.60341352416E+00  0.25301927494E+03  0.00000000000E+00 0.  1.
         -4    1    4    4    0  501 -0.24556996107E+03  0.72207207391E+02 -0.48117398996E+03  0.54502008697E+03  0.00000000000E+00 0. -1.
</event>
<event>
 8    1  0.7096247E-006  0.1334541E+04  0.7818608E-02  0.8511599E-01
          2   -1    0    0  502    0  0.00000000000E+00  0.00000000000E+00  0.12861703159E+04  0.12861703159E+04  0.00000000000E+00 0.  1.
         -2   -1    0    0    0  501 -0.00000000000E+00 -0.00000000000E+00 -0.13886713480E+04  0.13886713480E+04  0.00000000000E+00 0. -1.
    9000010    2    1    2  502    0 -0.85381884156E+03 -0.28814426258E+03  0.19752298454E+02  0.13383349843E+04  0.98930108996E+03 0.  0.
   -9000010    2    1    2    0  501  0.85381884156E+03  0.28814426258E+03 -0.12225333057E+03  0.13365066796E+04  0.97942355362E+03 0.  0.
        -13    1    3    3    0    0  0.49727093374E+02 -0.41747934602E+03  0.60011875939E+02  0.42469191726E+03  0.10566000000E+00 0.  1.
         13    1    4    4    0    0  0.91395969188E+03  0.88418461283E+02  0.21212000397E+03  0.94240917330E+03  0.10566000000E+00 0. -1.
          4    1    3    3  502    0 -0.90354593494E+03  0.12933508343E+03 -0.40259577485E+02  0.91364306703E+03  0.00000000000E+00 0.  1.
         -4    1    4    4    0  501 -0.60140850319E+02  0.19972580130E+03 -0.33437333454E+03  0.39409750625E+03  0.00000000000E+00 0. -1.
</event>
<event>
 8    1  0.7096247E-006  0.1297912E+04  0.7818608E-02  0.8536267E-01
         -2   -1    0    0    0  501 -0.00000000000E+00  0.00000000000E+00  0.88182127819E+03  0.88182127819E+03  0.00000000000E+00 0. -1.
          2   -1    0    0  502    0  0.00000000000E+00 -0.00000000000E+00 -0.19481422107E+04  0.19481422107E+04  0.00000000000E+00 0.  1.
    9000010    2    1    2  502    0 -0.68232774620E+03  0.40355583435E+03 -0.33554300670E+03  0.13393612373E+04  0.10260950005E+04 0.  0.
   -9000010    2    1    2    0  501  0.68232774620E+03 -0.40355583435E+03 -0.73077792577E+03  0.14906022515E+04  0.10292862726E+04 0.  0.
        -13    1    3    3    0    0 -0.33878451934E+03  0.55405036837E+03 -0.59702524856E+03  0.88214846813E+03  0.10566000000E+00 0.  1.
         13    1    4    4    0    0  0.46778639460E+03 -0.22417910171E+02  0.16273035502E+03  0.49579013028E+03  0.10566000000E+00 0. -1.
          4    1    3    3  502    0 -0.34354322685E+03 -0.15049453402E+03  0.26148224187E+03  0.45721276917E+03  0.00000000000E+00 0.  1.
         -4    1    4    4    0  501  0.21454135159E+03 -0.38113792418E+03 -0.89350828079E+03  0.99481212127E+03  0.00000000000E+00 0. -1.
</event>
<event>
 8    1  0.7096247E-006  0.1146513E+04  0.7818608E-02  0.8647965E-01
         -1   -1    0    0    0  501 -0.00000000000E+00  0.00000000000E+00  0.75215598814E+03  0.75215598814E+03  0.00000000000E+00 0.  1.
          1   -1    0    0  502    0  0.00000000000E+00 -0.00000000000E+00 -0.18876221732E+04  0.18876221732E+04  0.00000000000E+00 0. -1.
    9000010    2    1    2  502    0 -0.55242277232E+03 -0.15061334358E+03 -0.92319573344E+03  0.14654958739E+04  0.98363229698E+03 0.  0.
   -9000010    2    1    2    0  501  0.55242277232E+03  0.15061334358E+03 -0.21227045162E+03  0.11742822874E+04  0.10030078999E+04 0.  0.
        -13    1    3    3    0    0 -0.54315883124E+03  0.91531767254E+02 -0.10546413645E+04  0.11898184733E+04  0.10566000000E+00 0.  1.
         13    1    4    4    0    0  0.10642424138E+03  0.20031023031E+03 -0.56154075294E+03  0.60562227163E+03  0.10566000000E+00 0. -1.
          4    1    3    3  502    0 -0.92639410857E+01 -0.24214511083E+03  0.13144563110E+03  0.27567740067E+03  0.00000000000E+00 0.  1.
         -4    1    4    4    0  501  0.44599853094E+03 -0.49696886730E+02  0.34927030132E+03  0.56866001577E+03  0.00000000000E+00 0. -1.
</event>
<event>
 8    1  0.7096247E-006  0.1803264E+04  0.7818608E-02  0.8253566E-01
          2   -1    0    0  502    0  0.00000000000E+00  0.00000000000E+00  0.31464054529E+04  0.31464054529E+04  0.00000000000E+00 0.  1.
         -2   -1    0    0    0  501 -0.00000000000E+00 -0.00000000000E+00 -0.10756964166E+04  0.10756964166E+04  0.00000000000E+00 0. -1.
    9000010    2    1    2  502    0  0.14619094958E+04  0.21732782336E+03  0.62860072134E+03  0.19282976644E+04  0.10671374133E+04 0.  0.
   -9000010    2    1    2    0  501 -0.14619094958E+04 -0.21732782336E+03  0.14421083150E+04  0.22938042052E+04  0.99872447789E+03 0.  0.
        -13    1    3    3    0    0  0.12480154684E+04  0.24215076664E+03  0.91763148319E+03  0.15678734494E+04  0.10566000000E+00 0.  1.
         13    1    4    4    0    0 -0.15298547416E+04  0.10987530840E+02  0.13432229232E+04  0.20358841050E+04  0.10566000000E+00 0. -1.
          4    1    3    3  502    0  0.21389402746E+03 -0.24822943282E+02 -0.28903076185E+03  0.36042421505E+03  0.00000000000E+00 0.  1.
         -4    1    4    4    0  501  0.67945245780E+02 -0.22831535420E+03  0.98885391780E+02  0.25792010021E+03  0.00000000000E+00 0. -1.
</event>
<event>
 8    1  0.7096247E-006  0.1214687E+04  0.7818608E-02  0.8595584E-01
         -4   -1    0    0    0  501 -0.00000000000E+00  0.00000000000E+00  0.63772937392E+03  0.63772937392E+03  0.00000000000E+00 0. -1.
          4   -1    0    0  502    0  0.00000000000E+00 -0.00000000000E+00 -0.23170866180E+04  0.23170866180E+04  0.00000000000E+00 0.  1.
    9000010    2    1    2  502    0  0.38569363276E+03  0.66908616716E+03 -0.81072144086E+03  0.14223470081E+04  0.87713504056E+03 0.  0.
   -9000010    2    1    2    0  501 -0.38569363276E+03 -0.66908616716E+03 -0.86863580319E+03  0.15324689838E+04  0.99874779110E+03 0.  0.
        -13    1    3    3    0    0 -0.11593336322E+03  0.57476344931E+03 -0.18496538666E+03  0.61482174067E+03  0.10566000000E+00 0.  1.
         13    1    4    4    0    0 -0.61145611272E+03 -0.16322842630E+03 -0.72064996264E+03  0.95909252773E+03  0.10566000000E+00 0. -1.
          4    1    3    3  502    0  0.50162699598E+03  0.94322717847E+02 -0.62575605420E+03  0.80752526744E+03  0.00000000000E+00 0.  1.
         -4    1    4    4    0  501  0.22576247996E+03 -0.50585774086E+03 -0.14798584055E+03  0.57337645605E+03  0.00000000000E+00 0. -1.
</event>
<event>
 8    1  0.7096247E-006  0.1712346E+04  0.7818608E-02  0.8296781E-01
          2   -1    0    0  502    0  0.00000000000E+00  0.00000000000E+00  0.36222871750E+04  0.36222871750E+04  0.00000000000E+00 0.  1.
         -2   -1    0    0    0  501 -0.00000000000E+00 -0.00000000000E+00 -0.10159413038E+04  0.10159413038E+04  0.00000000000E+00 0. -1.
    9000010    2    1    2  502    0  0.11500460843E+04  0.78827786900E+03  0.25739457744E+03  0.17311098798E+04  0.99322779483E+03 0.  0.
   -9000010    2    1    2    0  501 -0.11500460843E+04 -0.78827786900E+03  0.23489512938E+04  0.29071185990E+04  0.99487605920E+03 0.  0.
        -13    1    3    3    0    0  0.76267076405E+03  0.15602581188E+03  0.52927284577E+03  0.94135036237E+03  0.10566000000E+00 0.  1.
         13    1    4    4    0    0 -0.59815335382E+03  0.35623271050E+02  0.40021462540E+03  0.72057491607E+03  0.10566000000E+00 0. -1.
          4    1    3    3  502    0  0.38737532030E+03  0.63225205712E+03 -0.27187826833E+03  0.78975951739E+03  0.00000000000E+00 0.  1.
         -4    1    4    4    0  501 -0.55189273052E+03 -0.82390114005E+03  0.19487366684E+04  0.21865436829E+04  0.00000000000E+00 0. -1.
</event>
<event>
 8    1  0.7096247E-006  0.1125490E+04  0.7818608E-02  0.8664887E-01
          1   -1    0    0  502    0  0.00000000000E+00  0.00000000000E+00  0.18656541803E+04  0.18656541803E+04  0.00000000000E+00 0. -1.
         -1   -1    0    0    0  501 -0.00000000000E+00 -0.00000000000E+00 -0.95756001904E+03  0.95756001904E+03  0.00000000000E+00 0.  1.
    9000010    2    1    2  502    0 -0.50064793269E+03 -0.19360962585E+03 -0.31014919112E+03  0.11577310559E+04  0.97776052140E+03 0.  0.
   -9000010    2    1    2    0  501  0.50064793269E+03  0.19360962585E+03  0.12182433523E+04  0.16654831434E+04  0.10007917845E+04 0.  0.
        -13    1    3    3    0    0 -0.42233977673E+03 -0.53922914545E+03  0.28101647066E+01  0.68494296588E+03  0.10566000000E+00 0.  1.
         13    1    4    4    0    0  0.57537356402E+03 -0.75956841083E+02  0.20686203942E+03  0.61612993305E+03  0.10566000000E+00 0. -1.
          4    1    3    3  502    0 -0.78308155957E+02  0.34561951961E+03 -0.31295935583E+03  0.47278808997E+03  0.00000000000E+00 0.  1.
         -4    1    4    4    0  501 -0.74725631335E+02  0.26956646693E+03  0.10113813129E+04  0.10493532104E+04  0.00000000000E+00 0. -1.
</event>
<event>
 8    1  0.7096247E-006  0.1320749E+04  0.7818608E-02  0.8520790E-01
          2   -1    0    0  502    0  0.00000000000E+00  0.00000000000E+00  0.15276412776E+04  0.15276412776E+04  0.00000000000E+00 0. -1.
         -2   -1    0    0    0  501 -0.00000000000E+00 -0.00000000000E+00 -0.11462845788E+04  0.11462845788E+04  0.00000000000E+00 0.  1.
    9000010    2    1    2  502    0 -0.85029787066E+03  0.13198957259E+03  0.10736891676E+03  0.13217958444E+04  0.99759132609E+03 0.  0.
   -9000010    2    1    2    0  501  0.85029787066E+03 -0.13198957259E+03  0.27398778202E+03  0.13521300120E+04  0.10063590555E+04 0.  0.
        -13    1    3    3    0    0 -0.17596939828E+03  0.10460961158E+03  0.50050661166E+03  0.54075436146E+03  0.10566000000E+00 0.  1.
         13    1    4    4    0    0 -0.22482959992E+03 -0.72244435390E+01  0.13119533403E+03  0.26040884858E+03  0.10566000000E+00 0. -1.
          4    1    3    3  502    0 -0.67432847238E+03  0.27379961013E+02 -0.39313769490E+03  0.78104148294E+03  0.00000000000E+00 0.  1.
         -4    1    4    4    0  501  0.10751274706E+04 -0.12476512905E+03  0.14279244798E+03  0.10917211634E+04  0.00000000000E+00 0. -1.
</event>
<event>
 8    1  0.7096247E-006  0.1274906E+04  0.7818608E-02  0.8552194E-01
          2   -1    0    0  502    0  0.00000000000E+00  0.00000000000E+00  0.10777643545E+04  0.10777643545E+04  0.00000000000E+00 0.  1.
         -2   -1    0    0    0  501 -0.00000000000E+00 -0.00000000000E+00 -0.16857317268E+04  0.16857317268E+04  0.00000000000E+00 0. -1.
    9000010    2    1    2  502    0  0.70689971566E+03 -0.36820953377E+03  0.14452983815E+03  0.12831119554E+04  0.99508891420E+03 0.  0.
   -9000010    2    1    2    0  501 -0.70689971566E+03  0.36820953377E+03 -0.75249721051E+03  0.14803841259E+04  0.99498725608E+03 0.  0.
        -13    1    3    3    0    0  0.27955084357E+03  0.17191316517E+03  0.42713142932E+03  0.53865023862E+03  0.10566000000E+00 0.  1.
         13    1    4    4    0    0 -0.28477553222E+03 -0.32289637014E+03 -0.43064619226E+03  0.60894607616E+03  0.10566000000E+00 0. -1.
          4    1    3    3  502    0  0.42734887209E+03 -0.54012269894E+03 -0.28260159117E+03  0.74446171675E+03  0.00000000000E+00 0.  1.
         -4    1    4    4    0  501 -0.42212418343E+03  0.69110590391E+03 -0.32185101826E+03  0.87143804978E+03  0.00000000000E+00 0. -1.
</event>
<event>
 8    1  0.7096247E-006  0.1899547E+04  0.7818608E-02  0.8210563E-01
          2   -1    0    0  502    0  0.00000000000E+00  0.00000000000E+00  0.10516750541E+04  0.10516750541E+04  0.00000000000E+00 0.  1.
         -2   -1    0    0    0  501 -0.00000000000E+00 -0.00000000000E+00 -0.34626154805E+04  0.34626154805E+04  0.00000000000E+00 0. -1.
    9000010    2    1    2  502    0 -0.16150054952E+04  0.13032536850E+03 -0.14198890036E+04  0.23699098332E+04  0.98750209294E+03 0.  0.
   -9000010    2    1    2    0  501  0.16150054952E+04 -0.13032536850E+03 -0.99105142287E+03  0.21443807015E+04  0.99546884376E+03 0.  0.
        -13    1    3    3    0    0 -0.15207125681E+04 -0.13903806838E+02 -0.78376868559E+03  0.17108633477E+04  0.10566000000E+00 0.  1.
         13    1    4    4    0    0  0.14690544848E+04 -0.44131108833E+03 -0.93470213480E+03  0.17962585137E+04  0.10566000000E+00 0. -1.
          4    1    3    3  502    0 -0.94292927119E+02  0.14422917534E+03 -0.63612031797E+03  0.65904648550E+03  0.00000000000E+00 0.  1.
         -4    1    4    4    0  501  0.14595101042E+03  0.31098571983E+03 -0.56349288068E+02  0.34812218781E+03  0.00000000000E+00 0. -1.
</event>
<event>
 8    1  0.7096247E-006  0.1293686E+04  0.7818608E-02  0.8539168E-01
         -2   -1    0    0    0  501 -0.00000000000E+00  0.00000000000E+00  0.58928630909E+03  0.58928630909E+03  0.00000000000E+00 0. -1.
          2   -1    0    0  502    0  0.00000000000E+00 -0.00000000000E+00 -0.31791840342E+04  0.31791840342E+04  0.00000000000E+00 0.  1.
    9000010    2    1    2  502    0 -0.65464818771E+03 -0.47231921474E+03 -0.66601467451E+03  0.14412688827E+04  0.99097464912E+03 0.  0.
   -9000010    2    1    2    0  501  0.65464818771E+03  0.47231921474E+03 -0.19238830506E+04  0.23272014606E+04  0.10309660303E+04 0.  0.
        -13    1    3    3    0    0 -0.75177185738E+02  0.26883802182E+03  0.15469760811E+02  0.27957971296E+03  0.10566000000E+00 0.  1.
         13    1    4    4    0    0 -0.11862462518E+03 -0.10172121786E+03 -0.93085421842E+03  0.94387954474E+03  0.10566000000E+00 0. -1.
          4    1    3    3  502    0 -0.57947100197E+03 -0.74115723656E+03 -0.68148443532E+03  0.11616891697E+04  0.00000000000E+00 0.  1.
         -4    1    4    4    0  501  0.77327281289E+03  0.57404043260E+03 -0.99302883216E+03  0.13833219159E+04  0.00000000000E+00 0. -1.
</event>
<event>
 8    1  0.7096247E-006  0.1130469E+04  0.7818608E-02  0.8660845E-01
          1   -1    0    0  502    0  0.00000000000E+00  0.00000000000E+00  0.10764959023E+04  0.10764959023E+04  0.00000000000E+00 0.  1.
         -1   -1    0    0    0  501 -0.00000000000E+00 -0.00000000000E+00 -0.11922185263E+04  0.11922185263E+04  0.00000000000E+00 0. -1.
    9000010    2    1    2  502    0  0.50370758493E+03  0.85792409781E+02  0.13834265586E+02  0.11455309801E+04  0.10251673867E+04 0.  0.
   -9000010    2    1    2    0  501 -0.50370758493E+03 -0.85792409781E+02 -0.12955688961E+03  0.11231834485E+04  0.99180361095E+03 0.  0.
        -13    1    3    3    0    0 -0.23373461512E+03  0.59535512525E+02  0.27220868924E+03  0.36369482980E+03  0.10566000000E+00 0.  1.
         13    1    4    4    0    0 -0.69437996393E+02 -0.24000307115E+03  0.36812755141E+03  0.44490562458E+03  0.10566000000E+00 0. -1.
          4    1    3    3  502    0  0.73744220005E+03  0.26256897256E+02 -0.25837442366E+03  0.78183615027E+03  0.00000000000E+00 0.  1.
         -4    1    4    4    0  501 -0.43426958853E+03  0.15421066137E+03 -0.49768444103E+03  0.67827782394E+03  0.00000000000E+00 0. -1.
</event>
<event>
 8    1  0.7096247E-006  0.1236187E+04  0.7818608E-02  0.8579800E-01
         -1   -1    0    0    0  501 -0.00000000000E+00  0.00000000000E+00  0.98976252613E+03  0.98976252613E+03  0.00000000000E+00 0. -1.
          1   -1    0    0  502    0  0.00000000000E+00 -0.00000000000E+00 -0.19089115466E+04  0.19089115466E+04  0.00000000000E+00 0.  1.
    9000010    2    1    2  502    0 -0.44950475327E+03  0.56795313351E+03  0.17152122555E+03  0.12564286088E+04  0.10122094808E+04 0.  0.
   -9000010    2    1    2    0  501  0.44950475327E+03 -0.56795313351E+03 -0.10906702461E+04  0.16422454640E+04  0.99135427235E+03 0.  0.
        -13    1    3    3    0    0 -0.15109591765E+03 -0.21746538516E+03  0.30694933991E+03  0.40538756581E+03  0.10566000000E+00 0.  1.
         13    1    4    4    0    0  0.16038227973E+03 -0.46624005994E+03 -0.12152032112E+04  0.13114195076E+04  0.10566000000E+00 0. -1.
          4    1    3    3  502    0 -0.29840883562E+03  0.78541851867E+03 -0.13542811436E+03  0.85104104296E+03  0.00000000000E+00 0.  1.
         -4    1    4    4    0  501  0.28912247354E+03 -0.10171307357E+03  0.12453296514E+03  0.33082595643E+03  0.00000000000E+00 0. -1.
</event>
<event>
 8    1  0.7096247E-006  0.1202957E+04  0.7818608E-02  0.8604339E-01
         -4   -1    0    0    0  501 -0.00000000000E+00  0.00000000000E+00  0.13896986294E+04  0.13896986294E+04  0.00000000000E+00 0.  1.
          4   -1    0    0  502    0  0.00000000000E+00 -0.00000000000E+00 -0.10414041286E+04  0.10414041286E+04  0.00000000000E+00 0. -1.
    9000010    2    1    2  502    0 -0.47882805847E+03  0.43945693475E+03  0.16245749889E+03  0.12117397348E+04  0.10097138401E+04 0.  0.
   -9000010    2    1    2    0  501  0.47882805847E+03 -0.43945693475E+03  0.18583700184E+03  0.12193630232E+04  0.10148458424E+04 0.  0.
        -13    1    3    3    0    0  0.21839639480E+03 -0.15007093927E+03  0.13705779713E+03  0.29833391190E+03  0.10566000000E+00 0.  1.
         13    1    4    4    0    0  0.45202865255E+03 -0.72694072738E+03  0.30257935964E+03  0.90792455848E+03  0.10566000000E+00 0. -1.
          4    1    3    3  502    0 -0.69722445327E+03  0.58952787402E+03  0.25399701760E+02  0.91340582291E+03  0.00000000000E+00 0.  1.
         -4    1    4    4    0  501  0.26799405927E+02  0.28748379263E+03 -0.11674235779E+03  0.31143846469E+03  0.00000000000E+00 0. -1.
</event>
<event>
 8    1  0.7096247E-006  0.1055242E+04  0.7818608E-02  0.8724350E-01
          1   -1    0    0  502    0  0.00000000000E+00  0.00000000000E+00  0.74187864105E+03  0.74187864105E+03  0.00000000000E+00 0. -1.
         -1   -1    0    0    0  501 -0.00000000000E+00 -0.00000000000E+00 -0.17556127713E+04  0.17556127713E+04  0.00000000000E+00 0.  1.
    9000010    2    1    2  502    0  0.11044955545E+03  0.30947569700E+03 -0.98065017327E+03  0.14374022525E+04  0.99823652603E+03 0.  0.
   -9000010    2    1    2    0  501 -0.11044955545E+03 -0.30947569700E+03 -0.33083956991E+02  0.10600891598E+04  0.10073331957E+04 0.  0.
        -13    1    3    3    0    0 -0.82482544056E+02  0.65185234330E+03 -0.64194556296E+03  0.91859074919E+03  0.10566000000E+00 0.  1.
         13    1    4    4    0    0  0.18950659478E+03 -0.13752446593E+03 -0.45673744162E+03  0.51325902811E+03  0.10566000000E+00 0. -1.
          4    1    3    3  502    0  0.19293209950E+03 -0.34237664629E+03 -0.33870461031E+03  0.51881150333E+03  0.00000000000E+00 0.  1.
         -4    1    4    4    0  501 -0.29995615022E+03 -0.17195123107E+03  0.42365348463E+03  0.54683013172E+03  0.00000000000E+00 0. -1.
</event>
<event>
 8    1  0.7096247E-006  0.1047351E+04  0.7818608E-02  0.8731329E-01
          2   -1    0    0  502    0  0.00000000000E+00  0.00000000000E+00  0.19964192326E+04  0.19964192326E+04  0.00000000000E+00 0. -1.
         -2   -1    0    0    0  501 -0.00000000000E+00 -0.00000000000E+00 -0.67879719566E+03  0.67879719566E+03  0.00000000000E+00 0.  1.
    9000010    2    1    2  502    0  0.30559026664E+03 -0.14634568058E+03  0.76451300053E+02  0.10531060245E+04  0.99417555208E+03 0.  0.
   -9000010    2    1    2    0  501 -0.30559026664E+03  0.14634568058E+03  0.12411707368E+04  0.16221104037E+04  0.98789417166E+03 0.  0.
        -13    1    3    3    0    0  0.10696192723E+03 -0.14120874609E+02  0.52986540499E+03  0.54073802487E+03  0.10566000000E+00 0.  1.
         13    1    4    4    0    0  0.12175913698E+03  0.39466130588E+03  0.97915827549E+03  0.10627011684E+04  0.10566000000E+00 0. -1.
          4    1    3    3  502    0  0.19862833941E+03 -0.13222480597E+03 -0.45341410493E+03  0.51236799967E+03  0.00000000000E+00 0.  1.
         -4    1    4    4    0  501 -0.42734940362E+03 -0.24831562530E+03  0.26201246135E+03  0.55940923522E+03  0.00000000000E+00 0. -1.
</event>
<event>
 8    1  0.7096247E-006  0.1300108E+04  0.7818608E-02  0.8534765E-01
          2   -1    0    0  502    0  0.00000000000E+00  0.00000000000E+00  0.21841945366E+04  0.21841945366E+04  0.00000000000E+00 0. -1.
         -2   -1    0    0    0  501 -0.00000000000E+00 -0.00000000000E+00 -0.89224867343E+03  0.89224867343E+03  0.00000000000E+00 0.  1.
    9000010    2    1    2  502    0 -0.77747705693E+03 -0.56173884152E+01  0.12202603740E+04  0.18099955451E+04  0.10874494764E+04 0.  0.
   -9000010    2    1    2    0  501  0.77747705693E+03  0.56173884152E+01  0.71685489121E+02  0.12664476649E+04  0.99712022820E+03 0.  0.
        -13    1    3    3    0    0  0.26010129877E+03 -0.84966399524E+01  0.44219681728E+03  0.51309152681E+03  0.10566000000E+00 0.  1.
         13    1    4    4    0    0 -0.11381273981E+03  0.72007838743E+02 -0.27626646967E+03  0.30734612737E+03  0.10566000000E+00 0. -1.
          4    1    3    3  502    0 -0.10375783557E+04  0.28792515371E+01  0.77806355675E+03  0.12969040183E+04  0.00000000000E+00 0.  1.
         -4    1    4    4    0  501  0.89128979673E+03 -0.66390450328E+02  0.34795195879E+03  0.95910153753E+03  0.00000000000E+00 0. -1.
</event>
<event>
 8    1  0.7096247E-006  0.1112571E+04  0.7818608E-02  0.8675477E-01
          2   -1    0    0  502    0  0.00000000000E+00  0.00000000000E+00  0.15814414587E+04  0.15814414587E+04  0.00000000000E+00 0. -1.
         -2   -1    0    0    0  501 -0.00000000000E+00 -0.00000000000E+00 -0.78362794015E+03  0.78362794015E+03  0.00000000000E+00 0.  1.
    9000010    2    1    2  502    0 -0.48726200466E+03 -0.11866225650E+02  0.36054138870E+03  0.11741206863E+04  0.10054870584E+04 0.  0.
   -9000010    2    1    2    0  501  0.48726200466E+03  0.11866225650E+02  0.43727212981E+03  0.11909487125E+04  0.99477980063E+03 0.  0.
        -13    1    3    3    0    0  0.23182981991E+02 -0.25483660485E+03 -0.23895721578E+03  0.35011385000E+03  0.10566000000E+00 0.  1.
         13    1    4    4    0    0 -0.13375209325E+03 -0.21265615065E+03 -0.16223548027E+03  0.29905287673E+03  0.10566000000E+00 0. -1.
          4    1    3    3  502    0 -0.51044498665E+03  0.24297037920E+03  0.59949860448E+03  0.82400683634E+03  0.00000000000E+00 0.  1.
         -4    1    4    4    0  501  0.62101409791E+03  0.22452237630E+03  0.59950761008E+03  0.89189583574E+03  0.00000000000E+00 0. -1.
</event>
<event>
 8    1  0.7096247E-006  0.1555589E+04  0.7818608E-02  0.8378207E-01
         -2   -1    0    0    0  501 -0.00000000000E+00  0.00000000000E+00  0.40854787856E+04  0.40854787856E+04  0.00000000000E+00 0. -1.
          2   -1    0    0  502    0  0.00000000000E+00 -0.00000000000E+00 -0.10661177375E+04  0.10661177375E+04  0.00000000000E+00 0.  1.
    9000010    2    1    2  502    0 -0.97655618554E+03  0.71291465805E+03  0.32216407245E+04  0.35734178541E+04  0.96355431023E+03 0.  0.
   -9000010    2    1    2    0  501  0.97655618554E+03 -0.71291465805E+03 -0.20227967640E+03  0.15781786690E+04  0.99389212224E+03 0.  0.
        -13    1    3    3    0    0 -0.78734262743E+03  0.53875291613E+03  0.11883187322E+04  0.15238978109E+04  0.10566000000E+00 0.  1.
         13    1    4    4    0    0  0.53987913643E+02  0.23573039586E+03 -0.35901930868E+02  0.24448409796E+03  0.10566000000E+00 0. -1.
          4    1    3    3  502    0 -0.18921355811E+03  0.17416174191E+03  0.20333219923E+04  0.20495200432E+04  0.00000000000E+00 0.  1.
         -4    1    4    4    0  501  0.92256827190E+03 -0.94864505391E+03 -0.16637774553E+03  0.13336945710E+04  0.00000000000E+00 0. -1.
</event>
<event>
 8    1  0.7096247E-006  0.1208541E+04  0.7818608E-02  0.8600159E-01
          2   -1    0    0  502    0  0.00000000000E+00  0.00000000000E+00  0.26817130288E+04  0.26817130288E+04  0.00000000000E+00 0.  1.
         -2   -1    0    0    0  501 -0.00000000000E+00 -0.00000000000E+00 -0.55635380470E+03  0.55635380470E+03  0.00000000000E+00 0. -1.
    9000010    2    1    2  502    0 -0.44981590804E+03  0.60470327914E+03  0.88358100637E+03  0.15406074370E+04  0.10123020662E+04 0.  0.
   -9000010    2    1    2    0  501  0.44981590804E+03 -0.60470327914E+03  0.12417782177E+04  0.16974593965E+04  0.87826809907E+03 0.  0.
        -13    1    3    3    0    0 -0.61617572913E+03  0.31466833355E+03  0.97354890421E+03  0.11943559643E+04  0.10566000000E+00 0.  1.
         13    1    4    4    0    0 -0.11290657385E+03  0.56367248693E+02 -0.54392417825E+02  0.13741800255E+03  0.10566000000E+00 0. -1.
          4    1    3    3  502    0  0.16635982108E+03  0.29003494558E+03 -0.89967897842E+02  0.34625147274E+03  0.00000000000E+00 0.  1.
         -4    1    4    4    0  501  0.56272248189E+03 -0.66107052783E+03  0.12961706356E+04  0.15600413940E+04  0.00000000000E+00 0. -1.
</event>
<event>
 8    1  0.7096247E-006  0.1170873E+04  0.7818608E-02  0.8628824E-01
         -2   -1    0    0    0  501 -0.00000000000E+00  0.00000000000E+00  0.61364610997E+03  0.61364610997E+03  0.00000000000E+00 0. -1.
          2   -1    0    0  502    0  0.00000000000E+00 -0.00000000000E+00 -0.22805850649E+04  0.22805850649E+04  0.00000000000E+00 0.  1.
    9000010    2    1    2  502    0  0.43413852900E+03 -0.45429933233E+03 -0.64146697191E+03  0.13519276610E+04  0.10106257363E+04 0.  0.
   -9000010    2    1    2    0  501 -0.43413852900E+03  0.45429933233E+03 -0.10254719830E+04  0.15423035138E+04  0.96552741811E+03 0.  0.
        -13    1    3    3    0    0 -0.15026851531E+03 -0.18784713778E+03  0.18625865024E+03  0.30423587859E+03  0.10566000000E+00 0.  1.
         13    1    4    4    0    0 -0.28202023744E+03 -0.26368231953E+03 -0.19016555458E+03  0.43037975007E+03  0.10566000000E+00 0. -1.
          4    1    3    3  502    0  0.58440704431E+03 -0.26645219455E+03 -0.82772562215E+03  0.10476917824E+04  0.00000000000E+00 0.  1.
         -4    1    4    4    0  501 -0.15211829156E+03  0.71798165186E+03 -0.83530642843E+03  0.11119237638E+04  0.00000000000E+00 0. -1.
</event>
<event>
 8    1  0.7096247E-006  0.1225981E+04  0.7818608E-02  0.8587251E-01
          2   -1    0    0  502    0  0.00000000000E+00  0.00000000000E+00  0.19532001054E+04  0.19532001054E+04  0.00000000000E+00 0. -1.
         -2   -1    0    0    0  501 -0.00000000000E+00 -0.00000000000E+00 -0.79302983022E+03  0.79302983022E+03  0.00000000000E+00 0.  1.
    9000010    2    1    2  502    0 -0.54371878300E+03 -0.47052327907E+03  0.34188379726E+03  0.12689254563E+04  0.98806123886E+03 0.  0.
   -9000010    2    1    2    0  501  0.54371878300E+03  0.47052327907E+03  0.81828647792E+03  0.14773044793E+04  0.99790455128E+03 0.  0.
        -13    1    3    3    0    0 -0.20970344062E+03  0.28017821494E+03  0.27400419742E+03  0.44447010754E+03  0.10566000000E+00 0.  1.
         13    1    4    4    0    0  0.44266324669E+03  0.11268681331E+03 -0.11639508143E+03  0.47137765540E+03  0.10566000000E+00 0. -1.
          4    1    3    3  502    0 -0.33401534238E+03 -0.75070149401E+03  0.67879599846E+02  0.82445534878E+03  0.00000000000E+00 0.  1.
         -4    1    4    4    0  501  0.10105553631E+03  0.35783646576E+03  0.93468155934E+03  0.10059268239E+04  0.00000000000E+00 0. -1.
</event>
<event>
 8    1  0.7096247E-006  0.1326998E+04  0.7818608E-02  0.8516612E-01
         -2   -1    0    0    0  501 -0.00000000000E+00  0.00000000000E+00  0.12571668252E+04  0.12571668252E+04  0.00000000000E+00 0.  1.
          2   -1    0    0  502    0  0.00000000000E+00 -0.00000000000E+00 -0.17624105600E+04  0.17624105600E+04  0.00000000000E+00 0. -1.
    9000010    2    1    2  502    0 -0.36779075689E+03 -0.77234123596E+03 -0.93710874600E+03  0.16273715546E+04  0.10190114568E+04 0.  0.
   -9000010    2    1    2    0  501  0.36779075689E+03  0.77234123596E+03  0.43186501110E+03  0.13922058306E+04  0.10099250771E+04 0.  0.
        -13    1    3    3    0    0 -0.24998021575E+03 -0.25720953565E+03 -0.10301556967E+04  0.10908105354E+04  0.10566000000E+00 0.  1.
         13    1    4    4    0    0  0.61481181794E+02  0.38243715742E+03  0.72083187440E+03  0.81831333693E+03  0.10566000000E+00 0. -1.
          4    1    3    3  502    0 -0.11781054114E+03 -0.51513170032E+03  0.93046950691E+02  0.53656101918E+03  0.00000000000E+00 0.  1.
         -4    1    4    4    0  501  0.30630957510E+03  0.38990407854E+03 -0.28896686329E+03  0.57389249371E+03  0.00000000000E+00 0. -1.
</event>
<event>
 8    1  0.7096247E-006  0.1139563E+04  0.7818608E-02  0.8653518E-01
         -2   -1    0    0    0  501 -0.00000000000E+00  0.00000000000E+00  0.69413284756E+03  0.69413284756E+03  0.00000000000E+00 0.  1.
          2   -1    0    0  502    0  0.00000000000E+00 -0.00000000000E+00 -0.19978288538E+04  0.19978288538E+04  0.00000000000E+00 0. -1.
    9000010    2    1    2  502    0  0.57437988470E+03  0.37362090470E+02 -0.99426572174E+03  0.15167527852E+04  0.99028607388E+03 0.  0.
   -9000010    2    1    2    0  501 -0.57437988470E+03 -0.37362090470E+02 -0.30943028452E+03  0.11752089162E+04  0.97676031758E+03 0.  0.
        -13    1    3    3    0    0 -0.89630433033E+02  0.25453245535E+03  0.35700092469E+02  0.27220377131E+03  0.10566000000E+00 0.  1.
         13    1    4    4    0    0 -0.67797690910E+03  0.12645550271E+03 -0.53860098307E+03  0.87506269122E+03  0.10566000000E+00 0. -1.
          4    1    3    3  502    0  0.66401031774E+03 -0.21717036488E+03 -0.10299658142E+04  0.12445490139E+04  0.00000000000E+00 0.  1.
         -4    1    4    4    0  501  0.10359702440E+03 -0.16381759318E+03  0.22917069855E+03  0.30014622499E+03  0.00000000000E+00 0. -1.
</event>
<event>
 8    1  0.7096247E-006  0.1678481E+04  0.7818608E-02  0.8313589E-01
         -1   -1    0    0    0  501 -0.00000000000E+00  0.00000000000E+00  0.23051203670E+04  0.23051203670E+04  0.00000000000E+00 0.  1.
          1   -1    0    0  502    0  0.00000000000E+00 -0.00000000000E+00 -0.12251536202E+04  0.12251536202E+04  0.00000000000E+00 0. -1.
    9000010    2    1    2  502    0 -0.38376700873E+03  0.12782183534E+04  0.62470322950E+03  0.17855385925E+04  0.10083524504E+04 0.  0.
   -9000010    2    1    2    0  501  0.38376700873E+03 -0.12782183534E+04  0.45526351731E+03  0.17447353947E+04  0.10274811198E+04 0.  0.
        -13    1    3    3    0    0 -0.54339770866E+03  0.38721425448E+03  0.57191900511E+03  0.87881016620E+03  0.10566000000E+00 0.  1.
         13    1    4    4    0    0  0.31000859722E+03 -0.14439920130E+04  0.30251781554E+03  0.15075593865E+04  0.10566000000E+00 0. -1.
          4    1    3    3  502    0  0.15963069992E+03  0.89100409891E+03  0.52784224388E+02  0.90672842626E+03  0.00000000000E+00 0.  1.
         -4    1    4    4    0  501  0.73758411509E+02  0.16577365958E+03  0.15274570176E+03  0.23717600824E+03  0.00000000000E+00 0. -1.
</event>
<event>
 8    1  0.7096247E-006  0.1397527E+04  0.7818608E-02  0.8471028E-01
         -4   -1    0    0    0  501 -0.00000000000E+00  0.00000000000E+00  0.31373116022E+04  0.31373116022E+04  0.00000000000E+00 0. -1.
          4   -1    0    0  502    0  0.00000000000E+00 -0.00000000000E+00 -0.68770848564E+03  0.68770848564E+03  0.00000000000E+00 0.  1.
    9000010    2    1    2  502    0 -0.61679101993E+03 -0.75874381721E+03  0.63805332691E+03  0.15385950550E+04  0.10020176410E+04 0.  0.
   -9000010    2    1    2    0  501  0.61679101993E+03  0.75874381721E+03  0.18115497897E+04  0.22864250328E+04  0.99493891670E+03 0.  0.
        -13    1    3    3    0    0 -0.27277015589E+03 -0.96176561155E+03  0.43079770851E+03  0.10885693944E+04  0.10566000000E+00 0.  1.
         13    1    4    4    0    0 -0.12447685292E+03  0.11415205702E+03 -0.54614308359E+02  0.17750468410E+03  0.10566000000E+00 0. -1.
          4    1    3    3  502    0 -0.34402086405E+03  0.20302179434E+03  0.20725561840E+03  0.45002566064E+03  0.00000000000E+00 0.  1.
         -4    1    4    4    0  501  0.74126787285E+03  0.64459176019E+03  0.18661640980E+04  0.21089203487E+04  0.00000000000E+00 0. -1.
</event>
<event>
 8    1  0.7096247E-006  0.1259600E+04  0.7818608E-02  0.8562984E-01
         -2   -1    0    0    0  501 -0.00000000000E+00  0.00000000000E+00  0.11466459265E+04  0.11466459265E+04  0.00000000000E+00 0.  1.
          2   -1    0    0  502    0  0.00000000000E+00 -0.00000000000E+00 -0.16752337323E+04  0.16752337323E+04  0.00000000000E+00 0. -1.
    9000010    2    1    2  502    0  0.32385871400E+03  0.70542807611E+03  0.32504126139E+03  0.12967237591E+04  0.98657359010E+03 0.  0.
   -9000010    2    1    2    0  501 -0.32385871400E+03 -0.70542807611E+03 -0.85362906722E+03  0.15251558997E+04  0.99744909482E+03 0.  0.
        -13    1    3    3    0    0  0.12883463207E+03  0.32885780605E+03  0.66515336615E+03  0.75311010529E+03  0.10566000000E+00 0.  1.
         13    1    4    4    0    0 -0.22156888123E+03 -0.93764362709E+03 -0.48773639742E+03  0.10798866353E+04  0.10566000000E+00 0. -1.
          4    1    3    3  502    0  0.19502408194E+03  0.37657027006E+03 -0.34011210477E+03  0.54361365384E+03  0.00000000000E+00 0.  1.
         -4    1    4    4    0  501 -0.10228983277E+03  0.23221555098E+03 -0.36589266979E+03  0.44526926439E+03  0.00000000000E+00 0. -1.
</event>
<event>
 8    1  0.7096247E-006  0.1131500E+04  0.7818608E-02  0.8660010E-01
         -2   -1    0    0    0  501 -0.00000000000E+00  0.00000000000E+00  0.65413527808E+03  0.65413527808E+03  0.00000000000E+00 0. -1.
          2   -1    0    0  502    0  0.00000000000E+00 -0.00000000000E+00 -0.19728702490E+04  0.19728702490E+04  0.00000000000E+00 0.  1.
    9000010    2    1    2  502    0  0.38185240492E+03  0.33838745879E+03 -0.53428577355E+03  0.12361270041E+04  0.99107585531E+03 0.  0.
   -9000010    2    1    2    0  501 -0.38185240492E+03 -0.33838745879E+03 -0.78444919733E+03  0.13908785230E+04  0.10290117546E+04 0.  0.
        -13    1    3    3    0    0  0.26944931421E+03 -0.29677126165E+03 -0.42085494924E+03  0.58120135421E+03  0.10566000000E+00 0.  1.
         13    1    4    4    0    0  0.29492144675E+03 -0.35863829077E+03 -0.24387548026E+03  0.52447625723E+03  0.10566000000E+00 0. -1.
          4    1    3    3  502    0  0.11240309071E+03  0.63515872044E+03 -0.11343082431E+03  0.65492564987E+03  0.00000000000E+00 0.  1.
         -4    1    4    4    0  501 -0.67677385166E+03  0.20250831979E+02 -0.54057371706E+03  0.86640226574E+03  0.00000000000E+00 0. -1.
</event>
<event>
 8    1  0.7096247E-006  0.1347162E+04  0.7818608E-02  0.8503287E-01
         -1   -1    0    0    0  501 -0.00000000000E+00  0.00000000000E+00  0.34934332061E+04  0.34934332061E+04  0.00000000000E+00 0. -1.
          1   -1    0    0  502    0  0.00000000000E+00 -0.00000000000E+00 -0.98174439939E+03  0.98174439939E+03  0.00000000000E+00 0.  1.
    9000010    2    1    2  502    0  0.62988010462E+03  0.64811123233E+03  0.27922164018E+04  0.31010904217E+04  0.10017446047E+04 0.  0.
   -9000010    2    1    2    0  501 -0.62988010462E+03 -0.64811123233E+03 -0.28052759509E+03  0.13740871839E+04  0.99630454258E+03 0.  0.
        -13    1    3    3    0    0 -0.11267901703E+03  0.47549554709E+03  0.17020339325E+04  0.17707941989E+04  0.10566000000E+00 0.  1.
         13    1    4    4    0    0 -0.55951423936E+03 -0.23224796430E+03  0.28427068022E+03  0.66918243533E+03  0.10566000000E+00 0. -1.
          4    1    3    3  502    0  0.74255912165E+03  0.17261568524E+03  0.10901824693E+04  0.13302962228E+04  0.00000000000E+00 0.  1.
         -4    1    4    4    0  501 -0.70365865263E+02 -0.41586326803E+03 -0.56479827531E+03  0.70490474852E+03  0.00000000000E+00 0. -1.
</event>
<event>
 7    1  0.7096247E-006  0.2182046E+04  0.7818608E-02  0.8098052E-01
          2   -1    0    0  502    0  0.00000000000E+00  0.00000000000E+00  0.38128182532E+04  0.38128182532E+04  0.00000000000E+00 0. -1.
         -2   -1    0    0    0  501 -0.00000000000E+00 -0.00000000000E+00 -0.12980140574E+04  0.12980140574E+04  0.00000000000E+00 0.  1.
    9000010    2    1    2  502    0 -0.35924978885E+03 -0.17940377160E+04  0.71659109647E+03  0.21990157810E+04  0.98718583281E+03 0.  0.
        -13    1    3    3    0    0  0.28491849982E+03 -0.91397796314E+03  0.14688870971E+03  0.96856108370E+03  0.10566000000E+00 0.  1.
         13    1    1    2    0    0  0.51853764435E+03  0.19092406700E+04  0.12769440687E+04  0.23547117425E+04  0.10566000000E+00 0. -1.
          4    1    3    3  502    0 -0.64416828867E+03 -0.88005975287E+03  0.56970238677E+03  0.12304546974E+04  0.00000000000E+00 0.  1.
         -4    1    1    2    0  501 -0.15928785550E+03 -0.11520295397E+03  0.52126903061E+03  0.55710478708E+03  0.00000000000E+00 0. -1.
</event>
<event>
 8    1  0.7096247E-006  0.1216279E+04  0.7818608E-02  0.8594404E-01
          2   -1    0    0  502    0  0.00000000000E+00  0.00000000000E+00  0.66467491684E+03  0.66467491684E+03  0.00000000000E+00 0.  1.
         -2   -1    0    0    0  501 -0.00000000000E+00 -0.00000000000E+00 -0.22356112773E+04  0.22356112773E+04  0.00000000000E+00 0. -1.
    9000010    2    1    2  502    0 -0.46664768959E+03 -0.40029100488E+03 -0.78607529588E+03  0.15107463590E+04  0.11342165736E+04 0.  0.
   -9000010    2    1    2    0  501  0.46664768959E+03  0.40029100488E+03 -0.78486106456E+03  0.13895398351E+04  0.96789519465E+03 0.  0.
        -13    1    3    3    0    0 -0.45605923996E+03 -0.70677455361E+03 -0.22400394443E+03  0.87045854483E+03  0.10566000000E+00 0.  1.
         13    1    4    4    0    0  0.97193103430E+02  0.18732538690E+03  0.21577719300E+03  0.30182297479E+03  0.10566000000E+00 0. -1.
          4    1    3    3  502    0 -0.10588449625E+02  0.30648354873E+03 -0.56207135145E+03  0.64028781421E+03  0.00000000000E+00 0.  1.
         -4    1    4    4    0  501  0.36945458616E+03  0.21296561798E+03 -0.10006382576E+04  0.10877168603E+04  0.00000000000E+00 0. -1.
</event>
<event>
 8    1  0.7096247E-006  0.1200993E+04  0.7818608E-02  0.8605815E-01
          1   -1    0    0  502    0  0.00000000000E+00  0.00000000000E+00  0.47565294000E+03  0.47565294000E+03  0.00000000000E+00 0. -1.
         -1   -1    0    0    0  501 -0.00000000000E+00 -0.00000000000E+00 -0.30577471212E+04  0.30577471212E+04  0.00000000000E+00 0.  1.
    9000010    2    1    2  502    0 -0.13247704619E+03  0.63272921404E+03 -0.11319722583E+04  0.16515162655E+04  0.10140258160E+04 0.  0.
   -9000010    2    1    2    0  501  0.13247704619E+03 -0.63272921404E+03 -0.14501219229E+04  0.18818837957E+04  0.10103151010E+04 0.  0.
        -13    1    3    3    0    0 -0.57371756711E+01  0.60250133592E+03 -0.13035547682E+04  0.14360695735E+04  0.10566000000E+00 0.  1.
         13    1    4    4    0    0  0.20892783974E+03 -0.39971074623E+01  0.81635858793E+02  0.22434625847E+03  0.10566000000E+00 0. -1.
          4    1    3    3  502    0 -0.12673987051E+03  0.30227878114E+02  0.17158250989E+03  0.21544669200E+03  0.00000000000E+00 0.  1.
         -4    1    4    4    0  501 -0.76450793550E+02 -0.62873210657E+03 -0.15317577817E+04  0.16575375372E+04  0.00000000000E+00 0. -1.
</event>
<event>
 8    1  0.7096247E-006  0.1446422E+04  0.7818608E-02  0.8441018E-01
         -2   -1    0    0    0  501 -0.00000000000E+00  0.00000000000E+00  0.55149076860E+03  0.55149076860E+03  0.00000000000E+00 0.  1.
          2   -1    0    0  502    0  0.00000000000E+00 -0.00000000000E+00 -0.39454219011E+04  0.39454219011E+04  0.00000000000E+00 0. -1.
    9000010    2    1    2  502    0 -0.10051974976E+04  0.30535538313E+03 -0.12556125903E+04  0.19151933565E+04  0.99385043978E+03 0.  0.
   -9000010    2    1    2    0  501  0.10051974976E+04 -0.30535538313E+03 -0.21383185422E+04  0.25817193132E+04  0.99458760545E+03 0.  0.
        -13    1    3    3    0    0 -0.68257865350E+03  0.66499206808E+03 -0.93705211391E+03  0.13364859686E+04  0.10566000000E+00 0.  1.
         13    1    4    4    0    0  0.86382033678E+02 -0.47710920348E+03 -0.97917396185E+03  0.10926466522E+04  0.10566000000E+00 0. -1.
          4    1    3    3  502    0 -0.32261884413E+03 -0.35963668495E+03 -0.31856047641E+03  0.57870738796E+03  0.00000000000E+00 0.  1.
         -4    1    4    4    0  501  0.91881546396E+03  0.17175382035E+03 -0.11591445803E+04  0.14890726610E+04  0.00000000000E+00 0. -1.
</event>
<event>
 8    1  0.7096247E-006  0.1264794E+04  0.7818608E-02  0.8559305E-01
         -2   -1    0    0    0  501 -0.00000000000E+00  0.00000000000E+00  0.25279913079E+04  0.25279913079E+04  0.00000000000E+00 0.  1.
          2   -1    0    0  502    0  0.00000000000E+00 -0.00000000000E+00 -0.69907102760E+03  0.69907102760E+03  0.00000000000E+00 0. -1.
    9000010    2    1    2  502    0 -0.56420449565E+03 -0.49082849576E+03  0.41619224978E+03  0.13293839959E+04  0.10172543903E+04 0.  0.
   -9000010    2    1    2    0  501  0.56420449565E+03  0.49082849576E+03  0.14127280305E+04  0.18976783396E+04  0.10228114524E+04 0.  0.
        -13    1    3    3    0    0 -0.16089845867E+03 -0.46032040247E+03 -0.25155831860E+03  0.54869370850E+03  0.10566000000E+00 0.  1.
         13    1    4    4    0    0 -0.21065796371E+03  0.58505839872E+02 -0.12305901830E+02  0.21897752706E+03  0.10566000000E+00 0. -1.
          4    1    3    3  502    0 -0.40330603699E+03 -0.30508093298E+02  0.66775056838E+03  0.78069028738E+03  0.00000000000E+00 0.  1.
         -4    1    4    4    0  501  0.77486245936E+03  0.43232265589E+03  0.14250339323E+04  0.16787008125E+04  0.00000000000E+00 0. -1.
</event>
<event>
 8    1  0.7096247E-006  0.1098142E+04  0.7818608E-02  0.8687484E-01
          2   -1    0    0  502    0  0.00000000000E+00  0.00000000000E+00  0.27526110858E+04  0.27526110858E+04  0.00000000000E+00 0. -1.
         -2   -1    0    0    0  501 -0.00000000000E+00 -0.00000000000E+00 -0.44646877312E+03  0.44646877312E+03  0.00000000000E+00 0.  1.
    9000010    2    1    2  502    0  0.31821405712E+03  0.32944527506E+03  0.13634842380E+04  0.17457016876E+04  0.98923745353E+03 0.  0.
   -9000010    2    1    2    0  501 -0.31821405712E+03 -0.32944527506E+03  0.94265807477E+03  0.14533781714E+04  0.10069307264E+04 0.  0.
        -13    1    3    3    0    0  0.62763338203E+03  0.25064648597E+03  0.12220600178E+04  0.13964877448E+04  0.10566000000E+00 0.  1.
         13    1    4    4    0    0 -0.42822271568E+03  0.23076491758E+03  0.64988945877E+03  0.81177796299E+03  0.10566000000E+00 0. -1.
          4    1    3    3  502    0 -0.30941932490E+03  0.78798789087E+02  0.14142422019E+03  0.34921394279E+03  0.00000000000E+00 0.  1.
         -4    1    4    4    0  501  0.11000865856E+03 -0.56021019264E+03  0.29276861600E+03  0.64160020839E+03  0.00000000000E+00 0. -1.
</event>
<event>
 8    1  0.7096247E-006  0.1119700E+04  0.7818608E-02  0.8669615E-01
          1   -1    0    0  502    0  0.00000000000E+00  0.00000000000E+00  0.20990292525E+04  0.20990292525E+04  0.00000000000E+00 0. -1.
         -1   -1    0    0    0  501 -0.00000000000E+00 -0.00000000000E+00 -0.73770436181E+03  0.73770436181E+03  0.00000000000E+00 0.  1.
    9000010    2    1    2  502    0 -0.39361021378E+02  0.50375086935E+03  0.12987674595E+04  0.17138694583E+04  0.99761584682E+03 0.  0.
   -9000010    2    1    2    0  501  0.39361021378E+02 -0.50375086935E+03  0.62557431174E+02  0.11228641560E+04  0.10007978079E+04 0.  0.
        -13    1    3    3    0    0 -0.79220699571E+02  0.78512795902E+03  0.71612902771E+03  0.10656184246E+04  0.10566000000E+00 0.  1.
         13    1    4    4    0    0  0.37942892720E+03  0.10722204904E+03  0.14210827444E+03  0.41911531996E+03  0.10566000000E+00 0. -1.
          4    1    3    3  502    0  0.39859678193E+02 -0.28137708966E+03  0.58263843182E+03  0.64825103376E+03  0.00000000000E+00 0.  1.
         -4    1    4    4    0  501 -0.34006790583E+03 -0.61097291839E+03 -0.79550843262E+02  0.70374883605E+03  0.00000000000E+00 0. -1.
</event>
<event>
 8    1  0.7096247E-006  0.1200364E+04  0.7818608E-02  0.8606288E-01
          2   -1    0    0  502    0  0.00000000000E+00  0.00000000000E+00  0.23706480463E+04  0.23706480463E+04  0.00000000000E+00 0.  1.
         -2   -1    0    0    0  501 -0.00000000000E+00 -0.00000000000E+00 -0.62345033530E+03  0.62345033530E+03  0.00000000000E+00 0. -1.
    9000010    2    1    2  502    0 -0.67359995955E+03 -0.13969329196E+03  0.11053189028E+04  0.16262695657E+04  0.97456231301E+03 0.  0.
   -9000010    2    1    2    0  501  0.67359995955E+03  0.13969329196E+03  0.64187880817E+03  0.13678288159E+04  0.99282231239E+03 0.  0.
        -13    1    3    3    0    0 -0.29562005952E+03  0.42199183508E+03  0.50427355537E+03  0.72094393560E+03  0.10566000000E+00 0.  1.
         13    1    4    4    0    0  0.82443085264E+03  0.11116199326E+03  0.14074762292E+03  0.84371388755E+03  0.10566000000E+00 0. -1.
          4    1    3    3  502    0 -0.37797990003E+03 -0.56168512704E+03  0.60104534745E+03  0.90532563006E+03  0.00000000000E+00 0.  1.
         -4    1    4    4    0  501 -0.15083089309E+03  0.28531298695E+02  0.50113118525E+03  0.52411492838E+03  0.00000000000E+00 0. -1.
</event>
<event>
 8    1  0.7096247E-006  0.1281184E+04  0.7818608E-02  0.8547814E-01
          2   -1    0    0  502    0  0.00000000000E+00  0.00000000000E+00  0.25646582013E+04  0.25646582013E+04  0.00000000000E+00 0.  1.
         -2   -1    0    0    0  501 -0.00000000000E+00 -0.00000000000E+00 -0.68164471303E+03  0.68164471303E+03  0.00000000000E+00 0. -1.
    9000010    2    1    2  502    0 -0.16002496096E+03  0.79454349995E+03  0.54217168262E+03  0.13935279641E+04  0.99552131656E+03 0.  0.
   -9000010    2    1    2    0  501  0.16002496096E+03 -0.79454349995E+03  0.13408418057E+04  0.18527749503E+04  0.98894433975E+03 0.  0.
        -13    1    3    3    0    0  0.18071392109E+03 -0.16817550336E+03  0.23092755879E+02  0.24793912104E+03  0.10566000000E+00 0.  1.
         13    1    4    4    0    0  0.25774221673E+03 -0.69197329888E+03  0.29143103270E+03  0.79384517044E+03  0.10566000000E+00 0. -1.
          4    1    3    3  502    0 -0.34073888205E+03  0.96271900331E+03  0.51907892674E+03  0.11455888430E+04  0.00000000000E+00 0.  1.
         -4    1    4    4    0  501 -0.97717255773E+02 -0.10257020108E+03  0.10494107730E+04  0.10589297798E+04  0.00000000000E+00 0. -1.
</event>
<event>
 8    1  0.7096247E-006  0.1055157E+04  0.7818608E-02  0.8724425E-01
          2   -1    0    0  502    0  0.00000000000E+00  0.00000000000E+00  0.15581813897E+04  0.15581813897E+04  0.00000000000E+00 0.  1.
         -2   -1    0    0    0  501 -0.00000000000E+00 -0.00000000000E+00 -0.88333062169E+03  0.88333062169E+03  0.00000000000E+00 0. -1.
    9000010    2    1    2  502    0  0.17242485298E+02  0.33298899239E+03  0.86959313960E+03  0.13629952688E+04  0.99518083886E+03 0.  0.
   -9000010    2    1    2    0  501 -0.17242485298E+02 -0.33298899239E+03 -0.19474237158E+03  0.10785167426E+04  0.10070227408E+04 0.  0.
        -13    1    3    3    0    0 -0.18876654898E+03  0.62391712121E+03  0.37086887839E+03  0.74996607942E+03  0.10566000000E+00 0.  1.
         13    1    4    4    0    0 -0.28701226157E+03  0.92944274171E+01 -0.47879380395E+03  0.55830631604E+03  0.10566000000E+00 0. -1.
          4    1    3    3  502    0  0.20600903427E+03 -0.29092812882E+03  0.49872426121E+03  0.61302918940E+03  0.00000000000E+00 0.  1.
         -4    1    4    4    0  501  0.26976977627E+03 -0.34228341980E+03  0.28405143237E+03  0.52021042655E+03  0.00000000000E+00 0. -1.
</event>
<event>
 8    1  0.7096247E-006  0.1214321E+04  0.7818608E-02  0.8595856E-01
         -1   -1    0    0    0  501 -0.00000000000E+00  0.00000000000E+00  0.10917666321E+04  0.10917666321E+04  0.00000000000E+00 0.  1.
          1   -1    0    0  502    0  0.00000000000E+00 -0.00000000000E+00 -0.13515248211E+04  0.13515248211E+04  0.00000000000E+00 0. -1.
    9000010    2    1    2  502    0  0.55508524524E+03 -0.41767524547E+03 -0.13081528269E+03  0.11909814194E+04  0.95851544746E+03 0.  0.
   -9000010    2    1    2    0  501 -0.55508524524E+03  0.41767524547E+03 -0.12894290639E+03  0.12523100338E+04  0.10339641713E+04 0.  0.
        -13    1    3    3    0    0  0.18669672478E+03  0.47395122764E+02  0.36832355380E+03  0.41564915031E+03  0.10566000000E+00 0.  1.
         13    1    4    4    0    0 -0.60198595138E+03  0.68620604874E+03  0.68984026080E+02  0.91543685419E+03  0.10566000000E+00 0. -1.
          4    1    3    3  502    0  0.36838852046E+03 -0.46507036823E+03 -0.49913883649E+03  0.77533226910E+03  0.00000000000E+00 0.  1.
         -4    1    4    4    0  501  0.46900706139E+02 -0.26853080327E+03 -0.19792693247E+03  0.33687317961E+03  0.00000000000E+00 0. -1.
</event>
<event>
 8    1  0.7096247E-006  0.1345248E+04  0.7818608E-02  0.8504542E-01
          2   -1    0    0  502    0  0.00000000000E+00  0.00000000000E+00  0.15282536850E+04  0.15282536850E+04  0.00000000000E+00 0. -1.
         -2   -1    0    0    0  501 -0.00000000000E+00 -0.00000000000E+00 -0.16120445769E+04  0.16120445769E+04  0.00000000000E+00 0.  1.
    9000010    2    1    2  502    0  0.10164091099E+04  0.67701325477E+02  0.75857605277E+03  0.16263807727E+04  0.10158768832E+04 0.  0.
   -9000010    2    1    2    0  501 -0.10164091099E+04 -0.67701325477E+02 -0.84236694467E+03  0.15139174892E+04  0.73803329623E+03 0.  0.
        -13    1    3    3    0    0  0.20679828041E+03 -0.24213564952E+03  0.68621130426E+03  0.75649267465E+03  0.10566000000E+00 0.  1.
         13    1    4    4    0    0  0.37842050018E+02  0.14903976486E+03 -0.11449274833E+02  0.15419458265E+03  0.10566000000E+00 0. -1.
          4    1    3    3  502    0  0.80961082953E+03  0.30983697499E+03  0.72364748513E+02  0.86988809808E+03  0.00000000000E+00 0.  1.
         -4    1    4    4    0  501 -0.10542511600E+04 -0.21674109034E+03 -0.83091766984E+03  0.13597229065E+04  0.00000000000E+00 0. -1.
</event>
<event>
 8    1  0.7096247E-006  0.1031851E+04  0.7818608E-02  0.8745228E-01
         -1   -1    0    0    0  501 -0.00000000000E+00  0.00000000000E+00  0.48789595115E+03  0.48789595115E+03  0.00000000000E+00 0.  1.
          1   -1    0    0  502    0  0.00000000000E+00 -0.00000000000E+00 -0.23159210360E+04  0.23159210360E+04  0.00000000000E+00 0. -1.
    9000010    2    1    2  502    0 -0.20572236587E+03  0.11206077454E+03 -0.12534634130E+04  0.16255931964E+04  0.10082179345E+04 0.  0.
   -9000010    2    1    2    0  501  0.20572236587E+03 -0.11206077454E+03 -0.57456167183E+03  0.11782237908E+04  0.10016041520E+04 0.  0.
        -13    1    3    3    0    0 -0.98833277492E+02 -0.37969975235E+03 -0.97378473739E+03  0.10498555351E+04  0.10566000000E+00 0.  1.
         13    1    4    4    0    0  0.44965788569E+03 -0.34660269574E+03 -0.71906632178E+02  0.57227285255E+03  0.10566000000E+00 0. -1.
          4    1    3    3  502    0 -0.10688908838E+03  0.49176052689E+03 -0.27967867566E+03  0.57573766130E+03  0.00000000000E+00 0.  1.
         -4    1    4    4    0  501 -0.24393551982E+03  0.23454192119E+03 -0.50265503965E+03  0.60595093821E+03  0.00000000000E+00 0. -1.
</event>
<event>
 8    1  0.7096247E-006  0.1566892E+04  0.7818608E-02  0.8372010E-01
         -2   -1    0    0    0  501 -0.00000000000E+00  0.00000000000E+00  0.75770771578E+03  0.75770771578E+03  0.00000000000E+00 0.  1.
          2   -1    0    0  502    0  0.00000000000E+00 -0.00000000000E+00 -0.32641843198E+04  0.32641843198E+04  0.00000000000E+00 0. -1.
    9000010    2    1    2  502    0 -0.10832574515E+04 -0.52906235731E+03 -0.10757889246E+04  0.18950386772E+04  0.99020002708E+03 0.  0.
   -9000010    2    1    2    0  501  0.10832574515E+04  0.52906235731E+03 -0.14306876794E+04  0.21268533584E+04  0.10115751518E+04 0.  0.
        -13    1    3    3    0    0 -0.21007867394E+03 -0.40953015907E+03  0.52593884799E+02  0.46326464177E+03  0.10566000000E+00 0.  1.
         13    1    4    4    0    0  0.60263855704E+03 -0.24857497051E+03 -0.49332043196E+03  0.81751318408E+03  0.10566000000E+00 0. -1.
          4    1    3    3  502    0 -0.87317877758E+03 -0.11953219824E+03 -0.11283828094E+04  0.14317740354E+04  0.00000000000E+00 0.  1.
         -4    1    4    4    0  501  0.48061889449E+03  0.77763732782E+03 -0.93736724748E+03  0.13093401743E+04  0.00000000000E+00 0. -1.
</event>
<event>
 8    1  0.7096247E-006  0.1497404E+04  0.7818608E-02  0.8410994E-01
         -2   -1    0    0    0  501 -0.00000000000E+00  0.00000000000E+00  0.12516587331E+04  0.12516587331E+04  0.00000000000E+00 0.  1.
          2   -1    0    0  502    0  0.00000000000E+00 -0.00000000000E+00 -0.30314997396E+04  0.30314997396E+04  0.00000000000E+00 0. -1.
    9000010    2    1    2  502    0 -0.11089438501E+04  0.22383390357E+02 -0.22578224499E+04  0.27064020862E+04  0.99829482532E+03 0.  0.
   -9000010    2    1    2    0  501  0.11089438501E+04 -0.22383390357E+02  0.47798144345E+03  0.15767563865E+04  0.10136256525E+04 0.  0.
        -13    1    3    3    0    0 -0.35700849626E+03  0.12644928085E+02 -0.17798774525E+04  0.18153728867E+04  0.10566000000E+00 0.  1.
         13    1    4    4    0    0  0.11497033092E+04  0.28997669736E+03  0.34546944774E+03  0.12350114715E+04  0.10566000000E+00 0. -1.
          4    1    3    3  502    0 -0.75193535379E+03  0.97384622712E+01 -0.47794499746E+03  0.89102919959E+03  0.00000000000E+00 0.  1.
         -4    1    4    4    0  501 -0.40759459178E+02 -0.31236008772E+03  0.13251199571E+03  0.34174491499E+03  0.00000000000E+00 0. -1.
</event>
<event>
 8    1  0.7096247E-006  0.1791578E+04  0.7818608E-02  0.8258972E-01
          1   -1    0    0  502    0  0.00000000000E+00  0.00000000000E+00  0.15016939464E+04  0.15016939464E+04  0.00000000000E+00 0. -1.
         -1   -1    0    0    0  501 -0.00000000000E+00 -0.00000000000E+00 -0.26287962397E+04  0.26287962397E+04  0.00000000000E+00 0.  1.
    9000010    2    1    2  502    0 -0.40810328968E+03  0.14317411427E+04  0.32890192652E+03  0.18232060406E+04  0.99973636239E+03 0.  0.
   -9000010    2    1    2    0  501  0.40810328968E+03 -0.14317411427E+04 -0.14560042199E+04  0.23072841455E+04  0.99356974843E+03 0.  0.
        -13    1    3    3    0    0  0.25331017931E+03  0.85587107950E+03  0.31370867126E+03  0.94609433634E+03  0.10566000000E+00 0.  1.
         13    1    4    4    0    0  0.24823002913E+03 -0.10704507543E+04 -0.15511238500E+04  0.19009124583E+04  0.10566000000E+00 0. -1.
          4    1    3    3  502    0 -0.66141346900E+03  0.57587006321E+03  0.15193255266E+02  0.87711170422E+03  0.00000000000E+00 0.  1.
         -4    1    4    4    0  501  0.15987326055E+03 -0.36129038838E+03  0.95119630083E+02  0.40637168725E+03  0.00000000000E+00 0. -1.
</event>
<event>
 8    1  0.7096247E-006  0.1363970E+04  0.7818608E-02  0.8492363E-01
         -2   -1    0    0    0  501 -0.00000000000E+00  0.00000000000E+00  0.41425920083E+03  0.41425920083E+03  0.00000000000E+00 0. -1.
          2   -1    0    0  502    0  0.00000000000E+00 -0.00000000000E+00 -0.46596199588E+04  0.46596199588E+04  0.00000000000E+00 0.  1.
    9000010    2    1    2  502    0  0.70480256316E+03 -0.60175843674E+03 -0.16370011905E+04  0.21294886159E+04  0.99804258339E+03 0.  0.
   -9000010    2    1    2    0  501 -0.70480256316E+03  0.60175843674E+03 -0.26083595675E+04  0.29443905438E+04  0.10035119190E+04 0.  0.
        -13    1    3    3    0    0  0.48829287666E+03 -0.32963337162E+03 -0.16788606973E+04  0.17792305486E+04  0.10566000000E+00 0.  1.
         13    1    4    4    0    0 -0.73511941912E+03  0.12923986157E+03 -0.21859461937E+04  0.23098623931E+04  0.10566000000E+00 0. -1.
          4    1    3    3  502    0  0.21650968650E+03 -0.27212506512E+03  0.41859506725E+02  0.35025806732E+03  0.00000000000E+00 0.  1.
         -4    1    4    4    0  501  0.30316855954E+02  0.47251857517E+03 -0.42241337382E+03  0.63452815069E+03  0.00000000000E+00 0. -1.
</event>
<event>
 8    1  0.7096247E-006  0.1099848E+04  0.7818608E-02  0.8686054E-01
         -2   -1    0    0    0  501 -0.00000000000E+00  0.00000000000E+00  0.56223007810E+03  0.56223007810E+03  0.00000000000E+00 0.  1.
          2   -1    0    0  502    0  0.00000000000E+00 -0.00000000000E+00 -0.24037934864E+04  0.24037934864E+04  0.00000000000E+00 0. -1.
    9000010    2    1    2  502    0 -0.35494160974E+03  0.30119335520E+03 -0.42191517007E+03  0.11537091499E+04  0.96764219017E+03 0.  0.
   -9000010    2    1    2    0  501  0.35494160974E+03 -0.30119335520E+03 -0.14196482382E+04  0.18123144146E+04  0.10258564391E+04 0.  0.
        -13    1    3    3    0    0  0.29207804011E+03  0.28615455901E+03 -0.26663361588E+03  0.48814701622E+03  0.10566000000E+00 0.  1.
         13    1    4    4    0    0  0.37937811473E+03 -0.57573994802E+03 -0.13679282332E+04  0.15318720260E+04  0.10566000000E+00 0. -1.
          4    1    3    3  502    0 -0.64701964984E+03  0.15038796189E+02 -0.15528155419E+03  0.66556213365E+03  0.00000000000E+00 0.  1.
         -4    1    4    4    0  501 -0.24436504995E+02  0.27454659282E+03 -0.51720004984E+02  0.28044238859E+03  0.00000000000E+00 0. -1.
</event>
<event>
 8    1  0.7096247E-006  0.1106286E+04  0.7818608E-02  0.8680683E-01
         -1   -1    0    0    0  501 -0.00000000000E+00  0.00000000000E+00  0.99708908883E+03  0.99708908883E+03  0.00000000000E+00 0. -1.
          1   -1    0    0  502    0  0.00000000000E+00 -0.00000000000E+00 -0.12926309505E+04  0.12926309505E+04  0.00000000000E+00 0.  1.
    9000010    2    1    2  502    0  0.28335861734E+03  0.38983032423E+03 -0.40553400699E+03  0.11837083064E+04  0.10022214007E+04 0.  0.
   -9000010    2    1    2    0  501 -0.28335861734E+03 -0.38983032423E+03  0.10999214537E+03  0.11060117329E+04  0.98939572143E+03 0.  0.
        -13    1    3    3    0    0  0.50605790500E+02  0.65422912890E+03 -0.13022123179E+02  0.65631264348E+03  0.10566000000E+00 0.  1.
         13    1    4    4    0    0 -0.63706967382E+03 -0.14369333197E+03 -0.27594849290E+02  0.65365666050E+03  0.10566000000E+00 0. -1.
          4    1    3    3  502    0  0.23275282684E+03 -0.26439880467E+03 -0.39251188381E+03  0.52739566290E+03  0.00000000000E+00 0.  1.
         -4    1    4    4    0  501  0.35371105648E+03 -0.24613699226E+03  0.13758699466E+03  0.45235507241E+03  0.00000000000E+00 0. -1.
</event>
<event>
 8    1  0.7096247E-006  0.1477675E+04  0.7818608E-02  0.8422464E-01
         -2   -1    0    0    0  501 -0.00000000000E+00  0.00000000000E+00  0.74794221077E+03  0.74794221077E+03  0.00000000000E+00 0.  1.
          2   -1    0    0  502    0  0.00000000000E+00 -0.00000000000E+00 -0.35284652337E+04  0.35284652337E+04  0.00000000000E+00 0. -1.
    9000010    2    1    2  502    0 -0.28408559276E+03  0.10787989344E+04 -0.22564879116E+04  0.26825206082E+04  0.92718248121E+03 0.  0.
   -9000010    2    1    2    0  501  0.28408559276E+03 -0.10787989344E+04 -0.52403511129E+03  0.15938868362E+04  0.10106189609E+04 0.  0.
        -13    1    3    3    0    0 -0.22680218572E+03  0.58918584742E+03 -0.36800047609E+03  0.73075546923E+03  0.10566000000E+00 0.  1.
         13    1    4    4    0    0  0.16397598839E+03 -0.12677155614E+04 -0.40847759068E+03  0.13419555964E+04  0.10566000000E+00 0. -1.
          4    1    3    3  502    0 -0.57283407045E+02  0.48961308693E+03 -0.18884874355E+04  0.19517651390E+04  0.00000000000E+00 0.  1.
         -4    1    4    4    0  501  0.12010960437E+03  0.18891662706E+03 -0.11555752061E+03  0.25193123984E+03  0.00000000000E+00 0. -1.
</event>
<event>
 8    1  0.7096247E-006  0.1565877E+04  0.7818608E-02  0.8372564E-01
         -2   -1    0    0    0  501 -0.00000000000E+00  0.00000000000E+00  0.17982422060E+04  0.17982422060E+04  0.00000000000E+00 0. -1.
          2   -1    0    0  502    0  0.00000000000E+00 -0.00000000000E+00 -0.16218560195E+04  0.16218560195E+04  0.00000000000E+00 0.  1.
    9000010    2    1    2  502    0 -0.51550246467E+02  0.12130569027E+04 -0.59427193414E+03  0.16748408088E+04  0.98882158455E+03 0.  0.
   -9000010    2    1    2    0  501  0.51550246467E+02 -0.12130569027E+04  0.77065812065E+03  0.17452574167E+04  0.98886047284E+03 0.  0.
        -13    1    3    3    0    0  0.36264911948E+03  0.10636019088E+04 -0.46277196005E+03  0.12152865105E+04  0.10566000000E+00 0.  1.
         13    1    4    4    0    0 -0.14723099161E+03  0.13466927664E+03  0.14195175823E+03  0.24487362412E+03  0.10566000000E+00 0. -1.
          4    1    3    3  502    0 -0.41419936595E+03  0.14945499385E+03 -0.13149997410E+03  0.45955429834E+03  0.00000000000E+00 0.  1.
         -4    1    4    4    0  501  0.19878123808E+03 -0.13477261793E+04  0.62870636242E+03  0.15003837926E+04  0.00000000000E+00 0. -1.
</event>
<event>
 8    1  0.7096247E-006  0.1404145E+04  0.7818608E-02  0.8466893E-01
         -4   -1    0    0    0  501 -0.00000000000E+00  0.00000000000E+00  0.19966403173E+04  0.19966403173E+04  0.00000000000E+00 0. -1.
          4   -1    0    0  502    0  0.00000000000E+00 -0.00000000000E+00 -0.15210165006E+04  0.15210165006E+04  0.00000000000E+00 0.  1.
    9000010    2    1    2  502    0 -0.78338164239E+03 -0.60804412994E+03 -0.80446945940E+03  0.16135343212E+04  0.98636577033E+03 0.  0.
   -9000010    2    1    2    0  501  0.78338164239E+03  0.60804412994E+03  0.12800932761E+04  0.19041224967E+04  0.10018179602E+04 0.  0.
        -13    1    3    3    0    0 -0.13580211253E+03  0.18611311370E+03  0.95806118996E+02  0.24951779187E+03  0.10566000000E+00 0.  1.
         13    1    4    4    0    0  0.38072459158E+02  0.37876702679E+03  0.10092345379E+04  0.10786418944E+04  0.10566000000E+00 0. -1.
          4    1    3    3  502    0 -0.64757952986E+03 -0.79415724365E+03 -0.90027557840E+03  0.13640165293E+04  0.00000000000E+00 0.  1.
         -4    1    4    4    0  501  0.74530918323E+03  0.22927710315E+03  0.27085873814E+03  0.82548060224E+03  0.00000000000E+00 0. -1.
</event>
<event>
 8    1  0.7096247E-006  0.1057867E+04  0.7818608E-02  0.8722042E-01
         -1   -1    0    0    0  501 -0.00000000000E+00  0.00000000000E+00  0.90416519211E+03  0.90416519211E+03  0.00000000000E+00 0.  1.
          1   -1    0    0  502    0  0.00000000000E+00 -0.00000000000E+00 -0.13256906549E+04  0.13256906549E+04  0.00000000000E+00 0. -1.
    9000010    2    1    2  502    0  0.31013083047E+03  0.19856058920E+03  0.72907014002E+02  0.10768917411E+04  0.10093428307E+04 0.  0.
   -9000010    2    1    2    0  501 -0.31013083047E+03 -0.19856058920E+03 -0.49443247675E+03  0.11529641058E+04  0.97429734461E+03 0.  0.
        -13    1    3    3    0    0 -0.80016205302E+02  0.47047874223E+03 -0.21234529237E+03  0.52234411488E+03  0.10566000000E+00 0.  1.
         13    1    4    4    0    0  0.33544137088E+03 -0.47857773819E+02 -0.32323528799E+03  0.46828660282E+03  0.10566000000E+00 0. -1.
          4    1    3    3  502    0  0.39014703577E+03 -0.27191815303E+03  0.28525230637E+03  0.55454762623E+03  0.00000000000E+00 0.  1.
         -4    1    4    4    0  501 -0.64557220135E+03 -0.15070281538E+03 -0.17119718875E+03  0.68467750303E+03  0.00000000000E+00 0. -1.
</event>
<event>
 8    1  0.7096247E-006  0.1119873E+04  0.7818608E-02  0.8669473E-01
          2   -1    0    0  502    0  0.00000000000E+00  0.00000000000E+00  0.36565870280E+04  0.36565870280E+04  0.00000000000E+00 0.  1.
         -2   -1    0    0    0  501 -0.00000000000E+00 -0.00000000000E+00 -0.38863684716E+03  0.38863684716E+03  0.00000000000E+00 0. -1.
    9000010    2    1    2  502    0 -0.48965750175E+03  0.10654966428E+03  0.93563430465E+03  0.14562714884E+04  0.99709467756E+03 0.  0.
   -9000010    2    1    2    0  501  0.48965750175E+03 -0.10654966428E+03  0.23323158762E+04  0.25889523867E+04  0.10059124288E+04 0.  0.
        -13    1    3    3    0    0  0.22416648811E+03  0.29512856614E+03  0.23768272091E+03  0.44027783492E+03  0.10566000000E+00 0.  1.
         13    1    4    4    0    0  0.33331329898E+03  0.35060411505E+03  0.18264502618E+04  0.18894289007E+04  0.10566000000E+00 0. -1.
          4    1    3    3  502    0 -0.71382398986E+03 -0.18857890186E+03  0.69795158374E+03  0.10159936535E+04  0.00000000000E+00 0.  1.
         -4    1    4    4    0  501  0.15634420277E+03 -0.45715377933E+03  0.50586561440E+03  0.69952348605E+03  0.00000000000E+00 0. -1.
</event>
<event>
 8    1  0.7096247E-006  0.1183234E+04  0.7818608E-02  0.8619296E-01
         -2   -1    0    0    0  501 -0.00000000000E+00  0.00000000000E+00  0.53784327441E+03  0.53784327441E+03  0.00000000000E+00 0.  1.
          2   -1    0    0  502    0  0.00000000000E+00 -0.00000000000E+00 -0.28613263241E+04  0.28613263241E+04  0.00000000000E+00 0. -1.
    9000010    2    1    2  502    0 -0.80749140132E+02 -0.63541785379E+03 -0.16697652189E+04  0.20448410504E+04  0.99145487165E+03 0.  0.
   -9000010    2    1    2    0  501  0.80749140132E+02  0.63541785379E+03 -0.65371783079E+03  0.13543285481E+04  0.99828980833E+03 0.  0.
        -13    1    3    3    0    0 -0.28370359393E+03 -0.51319953133E+03 -0.30750546692E+03  0.66213375651E+03  0.10566000000E+00 0.  1.
         13    1    4    4    0    0  0.30648021207E+03  0.19084918237E+03  0.16403590861E+03  0.39656187573E+03  0.10566000000E+00 0. -1.
          4    1    3    3  502    0  0.20295445380E+03 -0.12221832247E+03 -0.13622597520E+04  0.13827072938E+04  0.00000000000E+00 0.  1.
         -4    1    4    4    0  501 -0.22573107194E+03  0.44456867143E+03 -0.81775373940E+03  0.95776667240E+03  0.00000000000E+00 0. -1.
</event>
<event>
 8    1  0.7096247E-006  0.1744624E+04  0.7818608E-02  0.8281129E-01
          1   -1    0    0  502    0  0.00000000000E+00  0.00000000000E+00  0.24706249534E+04  0.24706249534E+04  0.00000000000E+00 0. -1.
         -1   -1    0    0    0  501 -0.00000000000E+00 -0.00000000000E+00 -0.13987018660E+04  0.13987018660E+04  0.00000000000E+00 0.  1.
    9000010    2    1    2  502    0  0.11677600659E+04 -0.81576875982E+03 -0.13180394830E+03  0.17503885529E+04  0.10086354962E+04 0.  0.
   -9000010    2    1    2    0  501 -0.11677600659E+04  0.81576875982E+03  0.12037270357E+04  0.21189382665E+04  0.10058818817E+04 0.  0.
        -13    1    3    3    0    0 -0.30754737170E+02  0.16249661411E+03 -0.11815640764E+03  0.20325341642E+03  0.10566000000E+00 0.  1.
         13    1    4    4    0    0 -0.91396359280E+03  0.55105935683E+03  0.24857117406E+03  0.10958026754E+04  0.10566000000E+00 0. -1.
          4    1    3    3  502    0  0.11985148031E+04 -0.97826537393E+03 -0.13647540652E+02  0.15471351364E+04  0.00000000000E+00 0.  1.
         -4    1    4    4    0  501 -0.25379647312E+03  0.26470940299E+03  0.95515586162E+03  0.10231355911E+04  0.00000000000E+00 0. -1.
</event>
<event>
 8    1  0.7096247E-006  0.1095127E+04  0.7818608E-02  0.8690016E-01
         -2   -1    0    0    0  501 -0.00000000000E+00  0.00000000000E+00  0.55119739659E+03  0.55119739659E+03  0.00000000000E+00 0. -1.
          2   -1    0    0  502    0  0.00000000000E+00 -0.00000000000E+00 -0.21765230384E+04  0.21765230384E+04  0.00000000000E+00 0.  1.
    9000010    2    1    2  502    0 -0.36644827905E+03 -0.26449062030E+03 -0.79098261219E+03  0.13536862955E+04  0.10012859054E+04 0.  0.
   -9000010    2    1    2    0  501  0.36644827905E+03  0.26449062030E+03 -0.83434302967E+03  0.13740341395E+04  0.99378161385E+03 0.  0.
        -13    1    3    3    0    0 -0.13290873616E+03 -0.60728378142E+03 -0.24541680578E+03  0.66834702292E+03  0.10566000000E+00 0.  1.
         13    1    4    4    0    0  0.24356477113E+01  0.13113089697E+03  0.21696537870E+03  0.25352560273E+03  0.10566000000E+00 0. -1.
          4    1    3    3  502    0 -0.23353954289E+03  0.34279316112E+03 -0.54556580640E+03  0.68533927256E+03  0.00000000000E+00 0.  1.
         -4    1    4    4    0  501  0.36401263134E+03  0.13335972333E+03 -0.10513084084E+04  0.11205085368E+04  0.00000000000E+00 0. -1.
</event>
<event>
 8    1  0.7096247E-006  0.1159406E+04  0.7818608E-02  0.8637774E-01
         -1   -1    0    0    0  501 -0.00000000000E+00  0.00000000000E+00  0.55831705056E+03  0.55831705056E+03  0.00000000000E+00 0. -1.
          1   -1    0    0  502    0  0.00000000000E+00 -0.00000000000E+00 -0.24209206908E+04  0.24209206908E+04  0.00000000000E+00 0.  1.
    9000010    2    1    2  502    0  0.63930405767E+03 -0.29880633226E+02 -0.10445430218E+04  0.15633260176E+04  0.97124434750E+03 0.  0.
   -9000010    2    1    2    0  501 -0.63930405767E+03  0.29880633226E+02 -0.81806061841E+03  0.14159117237E+04  0.96227870373E+03 0.  0.
        -13    1    3    3    0    0  0.87605735434E+03 -0.15262798516E+03 -0.72665339591E+03  0.11483888535E+04  0.10566000000E+00 0.  1.
         13    1    4    4    0    0 -0.67658038296E+03 -0.33965564427E+03 -0.68627623717E+03  0.10218131219E+04  0.10566000000E+00 0. -1.
          4    1    3    3  502    0 -0.23675329667E+03  0.12274735193E+03 -0.31788962593E+03  0.41493716412E+03  0.00000000000E+00 0.  1.
         -4    1    4    4    0  501  0.37276325293E+02  0.36953627749E+03 -0.13178438124E+03  0.39409860181E+03  0.00000000000E+00 0. -1.
</event>
<event>
 8    1  0.7096247E-006  0.1091054E+04  0.7818608E-02  0.8693452E-01
          1   -1    0    0  502    0  0.00000000000E+00  0.00000000000E+00  0.25702864076E+04  0.25702864076E+04  0.00000000000E+00 0.  1.
         -1   -1    0    0    0  501 -0.00000000000E+00 -0.00000000000E+00 -0.53599610859E+03  0.53599610859E+03  0.00000000000E+00 0. -1.
    9000010    2    1    2  502    0  0.18650241781E+03  0.38566526830E+03  0.43312563351E+03  0.11604071528E+04  0.98763662087E+03 0.  0.
   -9000010    2    1    2    0  501 -0.18650241781E+03 -0.38566526830E+03  0.16011646655E+04  0.19458753634E+04  0.10194026647E+04 0.  0.
        -13    1    3    3    0    0  0.36467068527E+03 -0.21247868400E+03  0.42649296262E+02  0.42420616861E+03  0.10566000000E+00 0.  1.
         13    1    4    4    0    0 -0.43810024567E+03  0.16126173187E+03  0.45859845098E+03  0.65440791700E+03  0.10566000000E+00 0. -1.
          4    1    3    3  502    0 -0.17816826745E+03  0.59814395230E+03  0.39047633724E+03  0.73620098420E+03  0.00000000000E+00 0.  1.
         -4    1    4    4    0  501  0.25159782785E+03 -0.54692700017E+03  0.11425662145E+04  0.12914674464E+04  0.00000000000E+00 0. -1.
</event>
<event>
 8    1  0.7096247E-006  0.1651069E+04  0.7818608E-02  0.8327496E-01
         -1   -1    0    0    0  501 -0.00000000000E+00  0.00000000000E+00  0.28597579470E+04  0.28597579470E+04  0.00000000000E+00 0.  1.
          1   -1    0    0  502    0  0.00000000000E+00 -0.00000000000E+00 -0.10506786427E+04  0.10506786427E+04  0.00000000000E+00 0. -1.
    9000010    2    1    2  502    0 -0.89126235511E+02 -0.13019246298E+04  0.15020737676E+04  0.22352654958E+04  0.10184473507E+04 0.  0.
   -9000010    2    1    2    0  501  0.89126235511E+02  0.13019246298E+04  0.30700553672E+03  0.16751710939E+04  0.10044872159E+04 0.  0.
        -13    1    3    3    0    0 -0.55228851957E+03 -0.74014522121E+03  0.91433363035E+03  0.12995551378E+04  0.10566000000E+00 0.  1.
         13    1    4    4    0    0 -0.11655536663E+03  0.59465220857E+03  0.62711258564E+03  0.87204736619E+03  0.10566000000E+00 0. -1.
          4    1    3    3  502    0  0.46316228405E+03 -0.56177940858E+03  0.58774013723E+03  0.93571035806E+03  0.00000000000E+00 0.  1.
         -4    1    4    4    0  501  0.20568160214E+03  0.70727242123E+03 -0.32010704892E+03  0.80312372774E+03  0.00000000000E+00 0. -1.
</event>
<event>
 8    1  0.7096247E-006  0.1266856E+04  0.7818608E-02  0.8557850E-01
          2   -1    0    0  502    0  0.00000000000E+00  0.00000000000E+00  0.27061636485E+04  0.27061636485E+04  0.00000000000E+00 0. -1.
         -2   -1    0    0    0  501 -0.00000000000E+00 -0.00000000000E+00 -0.69004364896E+03  0.69004364896E+03  0.00000000000E+00 0.  1.
    9000010    2    1    2  502    0 -0.61367207579E+03 -0.40289676826E+03  0.16226503871E+04  0.20403205557E+04  0.99548705102E+03 0.  0.
   -9000010    2    1    2    0  501  0.61367207579E+03  0.40289676826E+03  0.39346961245E+03  0.13558867418E+04  0.10699024713E+04 0.  0.
        -13    1    3    3    0    0  0.15880055640E+03  0.14837932757E+03  0.63259444172E+03  0.66888697134E+03  0.10566000000E+00 0.  1.
         13    1    4    4    0    0  0.58281651933E+03 -0.23381421771E+03  0.34522322751E+03  0.71660538066E+03  0.10566000000E+00 0. -1.
          4    1    3    3  502    0 -0.77247263220E+03 -0.55127609583E+03  0.99005594540E+03  0.13714335844E+04  0.00000000000E+00 0.  1.
         -4    1    4    4    0  501  0.30855556463E+02  0.63671098597E+03  0.48246384936E+02  0.63928136113E+03  0.00000000000E+00 0. -1.
</event>
<event>
 8    1  0.7096247E-006  0.1117750E+04  0.7818608E-02  0.8671214E-01
          1   -1    0    0  502    0  0.00000000000E+00  0.00000000000E+00  0.15889690203E+04  0.15889690203E+04  0.00000000000E+00 0. -1.
         -1   -1    0    0    0  501 -0.00000000000E+00 -0.00000000000E+00 -0.90086374203E+03  0.90086374203E+03  0.00000000000E+00 0.  1.
    9000010    2    1    2  502    0 -0.23000661209E+03 -0.44076286929E+03  0.78847402847E+03  0.13691569757E+04  0.10028582064E+04 0.  0.
   -9000010    2    1    2    0  501  0.23000661209E+03  0.44076286929E+03 -0.10036875019E+03  0.11206757866E+04  0.99933246927E+03 0.  0.
        -13    1    3    3    0    0 -0.55140551378E+03 -0.30088643341E+03  0.15788205225E+03  0.64769394008E+03  0.10566000000E+00 0.  1.
         13    1    4    4    0    0  0.24312176292E+03  0.25617757689E+03  0.43145685011E+03  0.55757525696E+03  0.10566000000E+00 0. -1.
          4    1    3    3  502    0  0.32139890169E+03 -0.13987643588E+03  0.63059197622E+03  0.72146303564E+03  0.00000000000E+00 0.  1.
         -4    1    4    4    0  501 -0.13115150831E+02  0.18458529240E+03 -0.53182560030E+03  0.56310052965E+03  0.00000000000E+00 0. -1.
</event>
<event>
 8    1  0.7096247E-006  0.1495000E+04  0.7818608E-02  0.8412382E-01
          2   -1    0    0  502    0  0.00000000000E+00  0.00000000000E+00  0.19691857407E+04  0.19691857407E+04  0.00000000000E+00 0. -1.
         -2   -1    0    0    0  501 -0.00000000000E+00 -0.00000000000E+00 -0.11449653104E+04  0.11449653104E+04  0.00000000000E+00 0.  1.
    9000010    2    1    2  502    0  0.10867586304E+04 -0.20191391206E+02  0.27286154284E+03  0.15372415217E+04  0.10522385953E+04 0.  0.
   -9000010    2    1    2    0  501 -0.10867586304E+04  0.20191391206E+02  0.55135888746E+03  0.15769095294E+04  0.10005973356E+04 0.  0.
        -13    1    3    3    0    0  0.11378104195E+04  0.15660636180E+03  0.49338200495E+03  0.12500255666E+04  0.10566000000E+00 0.  1.
         13    1    4    4    0    0 -0.20647001144E+03 -0.41839852427E+03  0.32236619185E+03  0.56710419109E+03  0.10566000000E+00 0. -1.
          4    1    3    3  502    0 -0.51051789098E+02 -0.17679775300E+03 -0.22052046211E+03  0.28721595507E+03  0.00000000000E+00 0.  1.
         -4    1    4    4    0  501 -0.88028861896E+03  0.43858991548E+03  0.22899269561E+03  0.10098053383E+04  0.00000000000E+00 0. -1.
</event>
<event>
 8    1  0.7096247E-006  0.1084079E+04  0.7818608E-02  0.8699372E-01
         -2   -1    0    0    0  501 -0.00000000000E+00  0.00000000000E+00  0.75552721692E+03  0.75552721692E+03  0.00000000000E+00 0. -1.
          2   -1    0    0  502    0  0.00000000000E+00 -0.00000000000E+00 -0.15560384769E+04  0.15560384769E+04  0.00000000000E+00 0.  1.
    9000010    2    1    2  502    0  0.34134435187E+03 -0.21945070980E+03 -0.42117576628E+03  0.11619722095E+04  0.10040497045E+04 0.  0.
   -9000010    2    1    2    0  501 -0.34134435187E+03  0.21945070980E+03 -0.37933549368E+03  0.11495934843E+04  0.10064766176E+04 0.  0.
        -13    1    3    3    0    0  0.55725773128E+03 -0.41782103974E+03 -0.63368116527E+02  0.69937552836E+03  0.10566000000E+00 0.  1.
         13    1    4    4    0    0 -0.22040394722E+03  0.21771053506E+03 -0.72229525686E+03  0.78593016628E+03  0.10566000000E+00 0. -1.
          4    1    3    3  502    0 -0.21591337941E+03  0.19837032993E+03 -0.35780764976E+03  0.46259668117E+03  0.00000000000E+00 0.  1.
         -4    1    4    4    0  501 -0.12094040465E+03  0.17401747456E+01  0.34295976318E+03  0.36366331798E+03  0.00000000000E+00 0. -1.
</event>
<event>
 8    1  0.7096247E-006  0.9884720E+03  0.7818608E-02  0.8785499E-01
          1   -1    0    0  502    0  0.00000000000E+00  0.00000000000E+00  0.66838762763E+03  0.66838762763E+03  0.00000000000E+00 0.  1.
         -1   -1    0    0    0  501 -0.00000000000E+00 -0.00000000000E+00 -0.16903554463E+04  0.16903554463E+04  0.00000000000E+00 0. -1.
    9000010    2    1    2  502    0 -0.16653580915E+03  0.17906371321E+03 -0.92581366613E+03  0.13280170563E+04  0.92016322914E+03 0.  0.
   -9000010    2    1    2    0  501  0.16653580915E+03 -0.17906371321E+03 -0.96154152545E+02  0.10307260177E+04  0.99667071458E+03 0.  0.
        -13    1    3    3    0    0  0.41296663280E+02  0.54441918558E+02  0.18179252900E+03  0.19421089480E+03  0.10566000000E+00 0.  1.
         13    1    4    4    0    0 -0.33895611288E+03 -0.33694567999E+03  0.52161352561E+02  0.48077484916E+03  0.10566000000E+00 0. -1.
          4    1    3    3  502    0 -0.20783247243E+03  0.12462179466E+03 -0.11076061951E+04  0.11338061615E+04  0.00000000000E+00 0.  1.
         -4    1    4    4    0  501  0.50549192203E+03  0.15788196678E+03 -0.14831550511E+03  0.54995116849E+03  0.00000000000E+00 0. -1.
</event>
<event>
 8    1  0.7096247E-006  0.1201973E+04  0.7818608E-02  0.8605078E-01
         -2   -1    0    0    0  501 -0.00000000000E+00  0.00000000000E+00  0.52473286192E+03  0.52473286192E+03  0.00000000000E+00 0. -1.
          2   -1    0    0  502    0  0.00000000000E+00 -0.00000000000E+00 -0.33273605970E+04  0.33273605970E+04  0.00000000000E+00 0.  1.
    9000010    2    1    2  502    0  0.30768739237E+03  0.67040011364E+03 -0.22382942934E+04  0.25606035390E+04  0.10013097904E+04 0.  0.
   -9000010    2    1    2    0  501 -0.30768739237E+03 -0.67040011364E+03 -0.56433344174E+03  0.12914899200E+04  0.89742193873E+03 0.  0.
        -13    1    3    3    0    0  0.65158300114E+03  0.60530920938E+03 -0.15067982782E+04  0.17496858886E+04  0.10566000000E+00 0.  1.
         13    1    4    4    0    0 -0.15389900052E+03 -0.65255875860E+03 -0.77837862705E+03  0.10273223126E+04  0.10566000000E+00 0. -1.
          4    1    3    3  502    0 -0.34389560877E+03  0.65090904261E+02 -0.73149601513E+03  0.81091765039E+03  0.00000000000E+00 0.  1.
         -4    1    4    4    0  501 -0.15378839185E+03 -0.17841355041E+02  0.21404518531E+03  0.26416760735E+03  0.00000000000E+00 0. -1.
</event>
<event>
 8    1  0.7096247E-006  0.1986572E+04  0.7818608E-02  0.8173881E-01
         -1   -1    0    0    0  501 -0.00000000000E+00  0.00000000000E+00  0.19709094928E+04  0.19709094928E+04  0.00000000000E+00 0. -1.
          1   -1    0    0  502    0  0.00000000000E+00 -0.00000000000E+00 -0.21021951815E+04  0.21021951815E+04  0.00000000000E+00 0.  1.
    9000010    2    1    2  502    0  0.16368435761E+04  0.51223915094E+03  0.37823745114E+03  0.20200578854E+04  0.99796014476E+03 0.  0.
   -9000010    2    1    2    0  501 -0.16368435761E+04 -0.51223915094E+03 -0.50952313979E+03  0.20530467889E+04  0.10068472809E+04 0.  0.
        -13    1    3    3    0    0  0.10591840807E+03  0.93801564831E+02  0.40889650524E+03  0.43268210721E+03  0.10566000000E+00 0.  1.
         13    1    4    4    0    0 -0.62058317007E+03  0.96777055640E+02 -0.59503638807E+03  0.86519222360E+03  0.10566000000E+00 0. -1.
          4    1    3    3  502    0  0.15309251680E+04  0.41843758610E+03 -0.30659054100E+02  0.15873757782E+04  0.00000000000E+00 0.  1.
         -4    1    4    4    0  501 -0.10162604060E+04 -0.60901620658E+03  0.85513248283E+02  0.11878545653E+04  0.00000000000E+00 0. -1.
</event>
<event>
 8    1  0.7096247E-006  0.1292834E+04  0.7818608E-02  0.8539753E-01
          1   -1    0    0  502    0  0.00000000000E+00  0.00000000000E+00  0.11539012336E+04  0.11539012336E+04  0.00000000000E+00 0. -1.
         -1   -1    0    0    0  501 -0.00000000000E+00 -0.00000000000E+00 -0.14534592154E+04  0.14534592154E+04  0.00000000000E+00 0.  1.
    9000010    2    1    2  502    0  0.80901363781E+03 -0.13448336168E+03 -0.22576201678E+03  0.13108187188E+04  0.99734065619E+03 0.  0.
   -9000010    2    1    2    0  501 -0.80901363781E+03  0.13448336168E+03 -0.73795965032E+02  0.12965417303E+04  0.10014917739E+04 0.  0.
        -13    1    3    3    0    0  0.77563766972E+03 -0.39293514406E+03 -0.43906229095E+03  0.97405725121E+03  0.10566000000E+00 0.  1.
         13    1    4    4    0    0 -0.93826916591E+03  0.34289468234E+03  0.87855584618E+02  0.10028182317E+04  0.10566000000E+00 0. -1.
          4    1    3    3  502    0  0.33375968091E+02  0.25845178238E+03  0.21330027418E+03  0.33676146755E+03  0.00000000000E+00 0.  1.
         -4    1    4    4    0  501  0.12925552810E+03 -0.20841132066E+03 -0.16165154965E+03  0.29372349859E+03  0.00000000000E+00 0. -1.
</event>
<event>
 8    1  0.7096247E-006  0.1114673E+04  0.7818608E-02  0.8673744E-01
         -1   -1    0    0    0  501 -0.00000000000E+00  0.00000000000E+00  0.14273065134E+04  0.14273065134E+04  0.00000000000E+00 0.  1.
          1   -1    0    0  502    0  0.00000000000E+00 -0.00000000000E+00 -0.10597179238E+04  0.10597179238E+04  0.00000000000E+00 0. -1.
    9000010    2    1    2  502    0 -0.24949997812E+03  0.43571254050E+03 -0.34229531614E+03  0.11612002222E+04  0.98950705688E+03 0.  0.
   -9000010    2    1    2    0  501  0.24949997812E+03 -0.43571254050E+03  0.70988390583E+03  0.13258242150E+04  0.10008891208E+04 0.  0.
        -13    1    3    3    0    0 -0.42358727000E+03  0.66390425987E+03 -0.11667293080E+03  0.79612035870E+03  0.10566000000E+00 0.  1.
         13    1    4    4    0    0  0.43073305039E+03 -0.44905156167E+03  0.87942332157E+03  0.10772946001E+04  0.10566000000E+00 0. -1.
          4    1    3    3  502    0  0.17408729189E+03 -0.22819171937E+03 -0.22562238534E+03  0.36507986353E+03  0.00000000000E+00 0.  1.
         -4    1    4    4    0  501 -0.18123307228E+03  0.13339021172E+02 -0.16953941574E+03  0.24852961486E+03  0.00000000000E+00 0. -1.
</event>
<event>
 8    1  0.7096247E-006  0.1203919E+04  0.7818608E-02  0.8603617E-01
          2   -1    0    0  502    0  0.00000000000E+00  0.00000000000E+00  0.23599646559E+04  0.23599646559E+04  0.00000000000E+00 0. -1.
         -2   -1    0    0    0  501 -0.00000000000E+00 -0.00000000000E+00 -0.61758842824E+03  0.61758842824E+03  0.00000000000E+00 0.  1.
    9000010    2    1    2  502    0  0.22851192034E+03  0.62121096488E+03  0.98754037086E+03  0.15637116810E+04  0.10157940130E+04 0.  0.
   -9000010    2    1    2    0  501 -0.22851192034E+03 -0.62121096488E+03  0.75483585677E+03  0.14138414031E+04  0.99551473206E+03 0.  0.
        -13    1    3    3    0    0  0.24638021614E+03  0.88683332153E+03  0.61952747564E+03  0.11095002728E+04  0.10566000000E+00 0.  1.
         13    1    4    4    0    0 -0.26891513079E+03 -0.77406685490E+03  0.20915734847E+03  0.84571960543E+03  0.10566000000E+00 0. -1.
          4    1    3    3  502    0 -0.17868295801E+02 -0.26562235665E+03  0.36801289522E+03  0.45421140826E+03  0.00000000000E+00 0.  1.
         -4    1    4    4    0  501  0.40403210458E+02  0.15285589002E+03  0.54567850830E+03  0.56812179763E+03  0.00000000000E+00 0. -1.
</event>
<event>
 8    1  0.7096247E-006  0.1215909E+04  0.7818608E-02  0.8594678E-01
         -1   -1    0    0    0  501 -0.00000000000E+00  0.00000000000E+00  0.76866708705E+03  0.76866708705E+03  0.00000000000E+00 0.  1.
          1   -1    0    0  502    0  0.00000000000E+00 -0.00000000000E+00 -0.21888487414E+04  0.21888487414E+04  0.00000000000E+00 0. -1.
    9000010    2    1    2  502    0  0.55689534998E+03  0.42331790951E+03 -0.19396605947E+03  0.12290937394E+04  0.99182564223E+03 0.  0.
   -9000010    2    1    2    0  501 -0.55689534998E+03 -0.42331790951E+03 -0.12262155949E+04  0.17284220891E+04  0.99725009382E+03 0.  0.
        -13    1    3    3    0    0  0.47649076548E+02  0.61746428041E+02  0.37573152961E+03  0.38374112287E+03  0.10566000000E+00 0.  1.
         13    1    4    4    0    0  0.21434844849E+03  0.11492860627E+03 -0.43933590053E+03  0.50216519848E+03  0.10566000000E+00 0. -1.
          4    1    3    3  502    0  0.50924627343E+03  0.36157148147E+03 -0.56969758908E+03  0.84535261649E+03  0.00000000000E+00 0.  1.
         -4    1    4    4    0  501 -0.77124379846E+03 -0.53824651578E+03 -0.78687969438E+03  0.12262568906E+04  0.00000000000E+00 0. -1.
</event>
<event>
 8    1  0.7096247E-006  0.1449479E+04  0.7818608E-02  0.8439182E-01
          1   -1    0    0  502    0  0.00000000000E+00  0.00000000000E+00  0.17971523857E+04  0.17971523857E+04  0.00000000000E+00 0. -1.
         -1   -1    0    0    0  501 -0.00000000000E+00 -0.00000000000E+00 -0.13565614724E+04  0.13565614724E+04  0.00000000000E+00 0.  1.
    9000010    2    1    2  502    0  0.10139607320E+04 -0.14116604084E+03 -0.36832584013E+03  0.14745294715E+04  0.99525324453E+03 0.  0.
   -9000010    2    1    2    0  501 -0.10139607320E+04  0.14116604084E+03  0.80891675343E+03  0.16791843866E+04  0.10570097791E+04 0.  0.
        -13    1    3    3    0    0  0.66955888927E+03  0.38435181697E+03 -0.34545134379E+03  0.84579670577E+03  0.10566000000E+00 0.  1.
         13    1    4    4    0    0 -0.62078807536E+03  0.32020739594E+03  0.98928019846E+03  0.12110268094E+04  0.10566000000E+00 0. -1.
          4    1    3    3  502    0  0.34440184278E+03 -0.52551785781E+03 -0.22874496340E+02  0.62873276578E+03  0.00000000000E+00 0.  1.
         -4    1    4    4    0  501 -0.39317265668E+03 -0.17904135510E+03 -0.18036344502E+03  0.46815757721E+03  0.00000000000E+00 0. -1.
</event>
<event>
 8    1  0.7096247E-006  0.1162881E+04  0.7818608E-02  0.8635050E-01
         -2   -1    0    0    0  501 -0.00000000000E+00  0.00000000000E+00  0.94756349726E+03  0.94756349726E+03  0.00000000000E+00 0. -1.
          2   -1    0    0  502    0  0.00000000000E+00 -0.00000000000E+00 -0.16517973300E+04  0.16517973300E+04  0.00000000000E+00 0.  1.
    9000010    2    1    2  502    0  0.11084638193E+03 -0.58375951041E+03  0.12725502529E+03  0.11696498010E+04  0.99941219180E+03 0.  0.
   -9000010    2    1    2    0  501 -0.11084638193E+03  0.58375951041E+03 -0.83148885803E+03  0.14297110263E+04  0.99981888920E+03 0.  0.
        -13    1    3    3    0    0  0.50260110225E+03 -0.58404034223E+03  0.99303471545E+02  0.77689907965E+03  0.10566000000E+00 0.  1.
         13    1    4    4    0    0 -0.43889920402E+03  0.64501909868E+03 -0.75845727717E+03  0.10880898866E+04  0.10566000000E+00 0. -1.
          4    1    3    3  502    0 -0.39175472032E+03  0.28083181231E+00  0.27951553747E+02  0.39275072135E+03  0.00000000000E+00 0.  1.
         -4    1    4    4    0  501  0.32805282209E+03 -0.61259588268E+02 -0.73031580861E+02  0.34162113962E+03  0.00000000000E+00 0. -1.
</event>
<event>
 8    1  0.7096247E-006  0.1132381E+04  0.7818608E-02  0.8659298E-01
          2   -1    0    0  502    0  0.00000000000E+00  0.00000000000E+00  0.36369748963E+04  0.36369748963E+04  0.00000000000E+00 0. -1.
         -2   -1    0    0    0  501 -0.00000000000E+00 -0.00000000000E+00 -0.35259687700E+03  0.35259687700E+03  0.00000000000E+00 0.  1.
    9000010    2    1    2  502    0  0.17953854947E+03 -0.52053923522E+03  0.16385404186E+04  0.19954919059E+04  0.99698448177E+03 0.  0.
   -9000010    2    1    2    0  501 -0.17953854947E+03  0.52053923522E+03  0.16458376007E+04  0.19940798674E+04  0.98202745563E+03 0.  0.
        -13    1    3    3    0    0 -0.15137814736E+03  0.10438462462E+03 -0.27191895309E+02  0.18587873383E+03  0.10566000000E+00 0.  1.
         13    1    4    4    0    0 -0.58589629941E+03  0.36665023582E+03  0.10278871252E+04  0.12386520183E+04  0.10566000000E+00 0. -1.
          4    1    3    3  502    0  0.33091669682E+03 -0.62492385984E+03  0.16657323140E+04  0.18096131721E+04  0.00000000000E+00 0.  1.
         -4    1    4    4    0  501  0.40635774994E+03  0.15388899940E+03  0.61795047545E+03  0.75542784909E+03  0.00000000000E+00 0. -1.
</event>
<event>
 8    1  0.7096247E-006  0.1587180E+04  0.7818608E-02  0.8361022E-01
          2   -1    0    0  502    0  0.00000000000E+00  0.00000000000E+00  0.24331471098E+04  0.24331471098E+04  0.00000000000E+00 0.  1.
         -2   -1    0    0    0  501 -0.00000000000E+00 -0.00000000000E+00 -0.11481160405E+04  0.11481160405E+04  0.00000000000E+00 0. -1.
    9000010    2    1    2  502    0  0.28966147708E+02  0.12063650381E+04  0.12079775173E+04  0.20042802786E+04  0.10496542812E+04 0.  0.
   -9000010    2    1    2    0  501 -0.28966147708E+02 -0.12063650381E+04  0.77053552042E+02  0.15769828716E+04  0.10123152102E+04 0.  0.
        -13    1    3    3    0    0  0.41256538597E+03  0.16030666792E+03  0.56555427065E+03  0.71816437512E+03  0.10566000000E+00 0.  1.
         13    1    4    4    0    0  0.10396172398E+03 -0.12942170854E+04  0.27060347646E+03  0.13262850964E+04  0.10566000000E+00 0. -1.
          4    1    3    3  502    0 -0.38359923826E+03  0.10460583702E+04  0.64242324663E+03  0.12861159035E+04  0.00000000000E+00 0.  1.
         -4    1    4    4    0  501 -0.13292787169E+03  0.87852047324E+02 -0.19354992441E+03  0.25069777528E+03  0.00000000000E+00 0. -1.
</event>
<event>
 8    1  0.7096247E-006  0.1151748E+04  0.7818608E-02  0.8643810E-01
         -1   -1    0    0    0  501 -0.00000000000E+00  0.00000000000E+00  0.56789323366E+03  0.56789323366E+03  0.00000000000E+00 0. -1.
          1   -1    0    0  502    0  0.00000000000E+00 -0.00000000000E+00 -0.23505563549E+04  0.23505563549E+04  0.00000000000E+00 0.  1.
    9000010    2    1    2  502    0  0.48026977710E+03 -0.32403540309E+03 -0.10059981643E+04  0.15285744121E+04  0.99440908355E+03 0.  0.
   -9000010    2    1    2    0  501 -0.48026977710E+03  0.32403540309E+03 -0.77666495691E+03  0.13898751765E+04  0.99643692705E+03 0.  0.
        -13    1    3    3    0    0  0.67139018654E+03 -0.51061442896E+03 -0.91958698432E+03  0.12478509969E+04  0.10566000000E+00 0.  1.
         13    1    4    4    0    0 -0.27651426460E+03  0.21200607178E+02 -0.94722708955E+03  0.98698975406E+03  0.10566000000E+00 0. -1.
          4    1    3    3  502    0 -0.19112040944E+03  0.18657902587E+03 -0.86411180015E+02  0.28072341518E+03  0.00000000000E+00 0.  1.
         -4    1    4    4    0  501 -0.20375551250E+03  0.30283479591E+03  0.17056213264E+03  0.40288542240E+03  0.00000000000E+00 0. -1.
</event>
<event>
 8    1  0.7096247E-006  0.1285904E+04  0.7818608E-02  0.8544538E-01
         -2   -1    0    0    0  501 -0.00000000000E+00  0.00000000000E+00  0.18089347197E+04  0.18089347197E+04  0.00000000000E+00 0. -1.
          2   -1    0    0  502    0  0.00000000000E+00 -0.00000000000E+00 -0.13083518822E+04  0.13083518822E+04  0.00000000000E+00 0.  1.
    9000010    2    1    2  502    0 -0.76728098424E+03  0.15986178779E+03 -0.60618173456E+03  0.14155986318E+04  0.10110327843E+04 0.  0.
   -9000010    2    1    2    0  501  0.76728098424E+03 -0.15986178779E+03  0.11067645720E+04  0.17016879702E+04  0.10278804551E+04 0.  0.
        -13    1    3    3    0    0  0.16462127845E+03  0.16236959248E+03 -0.39866687057E+03  0.46086802312E+03  0.10566000000E+00 0.  1.
         13    1    4    4    0    0  0.30988364186E+03 -0.56302898037E+03  0.35655621595E+03  0.73495703992E+03  0.10566000000E+00 0. -1.
          4    1    3    3  502    0 -0.93190226270E+03 -0.25078046866E+01 -0.20751486398E+03  0.95473060864E+03  0.00000000000E+00 0.  1.
         -4    1    4    4    0  501  0.45739734238E+03  0.40316719258E+03  0.75020835610E+03  0.96673093028E+03  0.00000000000E+00 0. -1.
</event>
<event>
 8    1  0.7096247E-006  0.1378129E+04  0.7818608E-02  0.8483285E-01
         -4   -1    0    0    0  501 -0.00000000000E+00  0.00000000000E+00  0.36186180883E+03  0.36186180883E+03  0.00000000000E+00 0.  1.
          4   -1    0    0  502    0  0.00000000000E+00 -0.00000000000E+00 -0.52739756337E+04  0.52739756337E+04  0.00000000000E+00 0. -1.
    9000010    2    1    2  502    0 -0.96393626430E+03 -0.65066342924E+02 -0.26765633785E+04  0.30176313594E+04  0.10043409540E+04 0.  0.
   -9000010    2    1    2    0  501  0.96393626430E+03  0.65066342924E+02 -0.22355504464E+04  0.26182060830E+04  0.96120265525E+03 0.  0.
        -13    1    3    3    0    0 -0.90752508488E+03 -0.39406004981E+02 -0.27645760395E+04  0.29099888836E+04  0.10566000000E+00 0.  1.
         13    1    4    4    0    0  0.10030985576E+04  0.15127717987E+03 -0.11703670597E+04  0.15488223162E+04  0.10566000000E+00 0. -1.
          4    1    3    3  502    0 -0.56411179417E+02 -0.25660337942E+02  0.88012661066E+02  0.10764247588E+03  0.00000000000E+00 0.  1.
         -4    1    4    4    0  501 -0.39162293340E+02 -0.86210836941E+02 -0.10651833867E+04  0.10693837669E+04  0.00000000000E+00 0. -1.
</event>
<event>
 8    1  0.7096247E-006  0.1520268E+04  0.7818608E-02  0.8397929E-01
         -2   -1    0    0    0  501 -0.00000000000E+00  0.00000000000E+00  0.12671363771E+04  0.12671363771E+04  0.00000000000E+00 0.  1.
          2   -1    0    0  502    0  0.00000000000E+00 -0.00000000000E+00 -0.22958765383E+04  0.22958765383E+04  0.00000000000E+00 0. -1.
    9000010    2    1    2  502    0 -0.41680631647E+03  0.10798629216E+04 -0.13236617440E+04  0.20203658041E+04  0.99497041915E+03 0.  0.
   -9000010    2    1    2    0  501  0.41680631647E+03 -0.10798629216E+04  0.29492158278E+03  0.15426471113E+04  0.97619154623E+03 0.  0.
        -13    1    3    3    0    0  0.11384163524E+02  0.98037662268E+03 -0.53360401821E+03  0.11162442299E+04  0.10566000000E+00 0.  1.
         13    1    4    4    0    0 -0.28981976150E+03 -0.55483604572E+03  0.20037606209E+03  0.65725878405E+03  0.10566000000E+00 0. -1.
          4    1    3    3  502    0 -0.42819047999E+03  0.99486298973E+02 -0.79005772578E+03  0.90412157418E+03  0.00000000000E+00 0.  1.
         -4    1    4    4    0  501  0.70662607797E+03 -0.52502687593E+03  0.94545520694E+02  0.88538832723E+03  0.00000000000E+00 0. -1.
</event>
<event>
 8    1  0.7096247E-006  0.1067352E+04  0.7818608E-02  0.8713760E-01
         -2   -1    0    0    0  501 -0.00000000000E+00  0.00000000000E+00  0.14504188168E+04  0.14504188168E+04  0.00000000000E+00 0. -1.
          2   -1    0    0  502    0  0.00000000000E+00 -0.00000000000E+00 -0.85960308389E+03  0.85960308389E+03  0.00000000000E+00 0.  1.
    9000010    2    1    2  502    0  0.10719244669E+03  0.43088707619E+03 -0.43509727722E+02  0.10694278690E+04  0.97192025266E+03 0.  0.
   -9000010    2    1    2    0  501 -0.10719244669E+03 -0.43088707619E+03  0.63432546068E+03  0.12405940317E+04  0.96930432191E+03 0.  0.
        -13    1    3    3    0    0  0.19368708363E+03 -0.24688395249E+03 -0.19516163355E+03  0.36953274109E+03  0.10566000000E+00 0.  1.
         13    1    4    4    0    0  0.22548786940E+03  0.19297310149E+03  0.39519413274E+03  0.49422850065E+03  0.10566000000E+00 0. -1.
          4    1    3    3  502    0 -0.86494636948E+02  0.67777102867E+03  0.15165190583E+03  0.69989512791E+03  0.00000000000E+00 0.  1.
         -4    1    4    4    0  501 -0.33268031608E+03 -0.62386017767E+03  0.23913132794E+03  0.74636553109E+03  0.00000000000E+00 0. -1.
</event>
<event>
 8    1  0.7096247E-006  0.1459534E+04  0.7818608E-02  0.8433176E-01
          1   -1    0    0  502    0  0.00000000000E+00  0.00000000000E+00  0.88464296214E+03  0.88464296214E+03  0.00000000000E+00 0.  1.
         -1   -1    0    0    0  501 -0.00000000000E+00 -0.00000000000E+00 -0.27407727958E+04  0.27407727958E+04  0.00000000000E+00 0. -1.
    9000010    2    1    2  502    0  0.10609317171E+04 -0.80124951547E+02 -0.29691215306E+03  0.14902341937E+04  0.10003224526E+04 0.  0.
   -9000010    2    1    2    0  501 -0.10609317171E+04  0.80124951547E+02 -0.15592176806E+04  0.21351815643E+04  0.99792004711E+03 0.  0.
        -13    1    3    3    0    0  0.44367139715E+03 -0.28761992825E+03  0.29908172638E+03  0.60746968813E+03  0.10566000000E+00 0.  1.
         13    1    4    4    0    0 -0.62346257970E+03 -0.14176008652E+03 -0.15129233988E+04  0.16424794465E+04  0.10566000000E+00 0. -1.
          4    1    3    3  502    0  0.61726031999E+03  0.20749497670E+03 -0.59599387943E+03  0.88276450558E+03  0.00000000000E+00 0.  1.
         -4    1    4    4    0  501 -0.43746913744E+03  0.22188503807E+03 -0.46294281880E+02  0.49270211778E+03  0.00000000000E+00 0. -1.
</event>
<event>
 8    1  0.7096247E-006  0.1624802E+04  0.7818608E-02  0.8341087E-01
         -2   -1    0    0    0  501 -0.00000000000E+00  0.00000000000E+00  0.18552935081E+04  0.18552935081E+04  0.00000000000E+00 0. -1.
          2   -1    0    0  502    0  0.00000000000E+00 -0.00000000000E+00 -0.17161221558E+04  0.17161221558E+04  0.00000000000E+00 0.  1.
    9000010    2    1    2  502    0  0.12657588127E+04  0.19887503529E+03 -0.66841186757E+03  0.17588487807E+04  0.10025357635E+04 0.  0.
   -9000010    2    1    2    0  501 -0.12657588127E+04 -0.19887503529E+03  0.80758321989E+03  0.18125668832E+04  0.99574665336E+03 0.  0.
        -13    1    3    3    0    0  0.23083503964E+03  0.10481636904E+03 -0.67351358679E+03  0.71964703119E+03  0.10566000000E+00 0.  1.
         13    1    4    4    0    0  0.14987875063E+03 -0.11591083730E+03  0.20140594562E+02  0.19053770442E+03  0.10566000000E+00 0. -1.
          4    1    3    3  502    0  0.10349237730E+04  0.94058666245E+02  0.51017192227E+01  0.10392017495E+04  0.00000000000E+00 0.  1.
         -4    1    4    4    0  501 -0.14156375633E+04 -0.82964197990E+02  0.78744262532E+03  0.16220291788E+04  0.00000000000E+00 0. -1.
</event>
<event>
 8    1  0.7096247E-006  0.1110908E+04  0.7818608E-02  0.8676851E-01
         -2   -1    0    0    0  501 -0.00000000000E+00  0.00000000000E+00  0.38921032929E+03  0.38921032929E+03  0.00000000000E+00 0. -1.
          2   -1    0    0  502    0  0.00000000000E+00 -0.00000000000E+00 -0.31857647329E+04  0.31857647329E+04  0.00000000000E+00 0.  1.
    9000010    2    1    2  502    0 -0.38390393679E+03  0.31550235760E+03 -0.12600435985E+04  0.16704145058E+04  0.97757392595E+03 0.  0.
   -9000010    2    1    2    0  501  0.38390393679E+03 -0.31550235760E+03 -0.15365108051E+04  0.19045605564E+04  0.10097333749E+04 0.  0.
        -13    1    3    3    0    0 -0.45114731735E+03 -0.12319144344E+03 -0.17713359632E+03  0.50008634834E+03  0.10566000000E+00 0.  1.
         13    1    4    4    0    0 -0.14924989727E+03  0.22926582319E+03 -0.12584013992E+03  0.30112140657E+03  0.10566000000E+00 0. -1.
          4    1    3    3  502    0  0.67243380559E+02  0.43869380104E+03 -0.10829100022E+04  0.11703281574E+04  0.00000000000E+00 0.  1.
         -4    1    4    4    0  501  0.53315383407E+03 -0.54476818079E+03 -0.14106706652E+04  0.16034391499E+04  0.00000000000E+00 0. -1.
</event>
<event>
 8    1  0.7096247E-006  0.9778092E+03  0.7818608E-02  0.8795725E-01
          2   -1    0    0  502    0  0.00000000000E+00  0.00000000000E+00  0.85323844651E+03  0.85323844651E+03  0.00000000000E+00 0.  1.
         -2   -1    0    0    0  501 -0.00000000000E+00 -0.00000000000E+00 -0.15852394281E+04  0.15852394281E+04  0.00000000000E+00 0. -1.
    9000010    2    1    2  502    0  0.19732718098E+03  0.15447232299E+03 -0.10052674700E+04  0.13607896100E+04  0.88226184410E+03 0.  0.
   -9000010    2    1    2    0  501 -0.19732718098E+03 -0.15447232299E+03  0.27326648839E+03  0.10776882646E+04  0.10118980715E+04 0.  0.
        -13    1    3    3    0    0  0.17742709039E+03  0.44414279834E+03 -0.22559295240E+03  0.52880562502E+03  0.10566000000E+00 0.  1.
         13    1    4    4    0    0 -0.38762832394E+03  0.57190414836E+02  0.55356893584E+03  0.67820722420E+03  0.10566000000E+00 0. -1.
          4    1    3    3  502    0  0.19900090587E+02 -0.28967047535E+03 -0.77967451757E+03  0.83198398497E+03  0.00000000000E+00 0.  1.
         -4    1    4    4    0  501  0.19030114296E+03 -0.21166273782E+03 -0.28030244745E+03  0.39948104041E+03  0.00000000000E+00 0. -1.
</event>
<event>
 8    1  0.7096247E-006  0.1175723E+04  0.7818608E-02  0.8625071E-01
          1   -1    0    0  502    0  0.00000000000E+00  0.00000000000E+00  0.21103432413E+04  0.21103432413E+04  0.00000000000E+00 0. -1.
         -1   -1    0    0    0  501 -0.00000000000E+00 -0.00000000000E+00 -0.72598217855E+03  0.72598217855E+03  0.00000000000E+00 0.  1.
    9000010    2    1    2  502    0 -0.58079712292E+03  0.33932834634E+03  0.25836951682E+03  0.12206038558E+04  0.98521568241E+03 0.  0.
   -9000010    2    1    2    0  501  0.58079712292E+03 -0.33932834634E+03  0.11259915459E+04  0.16157215641E+04  0.94352010392E+03 0.  0.
        -13    1    3    3    0    0  0.14512626061E+03 -0.62241316082E+02  0.35194868398E+03  0.38575056742E+03  0.10566000000E+00 0.  1.
         13    1    4    4    0    0 -0.12465823303E+03 -0.35129296994E+03  0.12924106497E+03  0.39452463780E+03  0.10566000000E+00 0. -1.
          4    1    3    3  502    0 -0.72592338353E+03  0.40156966242E+03 -0.93579167154E+02  0.83485328835E+03  0.00000000000E+00 0.  1.
         -4    1    4    4    0  501  0.70545535596E+03  0.11964623597E+02  0.99675048096E+03  0.12211969263E+04  0.00000000000E+00 0. -1.
</event>
<event>
 8    1  0.7096247E-006  0.1076489E+04  0.7818608E-02  0.8705867E-01
          1   -1    0    0  502    0  0.00000000000E+00  0.00000000000E+00  0.82088212299E+03  0.82088212299E+03  0.00000000000E+00 0.  1.
         -1   -1    0    0    0  501 -0.00000000000E+00 -0.00000000000E+00 -0.14218907029E+04  0.14218907029E+04  0.00000000000E+00 0. -1.
    9000010    2    1    2  502    0 -0.60664874366E+03  0.83105384829E+02 -0.27677676188E+03  0.11920653563E+04  0.98462441290E+03 0.  0.
   -9000010    2    1    2    0  501  0.60664874366E+03 -0.83105384829E+02 -0.32423181804E+03  0.10507074696E+04  0.78989284828E+03 0.  0.
        -13    1    3    3    0    0 -0.28269232427E+03 -0.98221605551E+02  0.35190400261E+03  0.46195115783E+03  0.10566000000E+00 0.  1.
         13    1    4    4    0    0  0.68281729162E+02  0.29608388489E+03 -0.23925914807E+03  0.38674670332E+03  0.10566000000E+00 0. -1.
          4    1    3    3  502    0 -0.32395641939E+03  0.18132699038E+03 -0.62868076449E+03  0.73011419843E+03  0.00000000000E+00 0.  1.
         -4    1    4    4    0  501  0.53836701450E+03 -0.37918926972E+03 -0.84972669971E+02  0.66396076632E+03  0.00000000000E+00 0. -1.
</event>
<event>
 8    1  0.7096247E-006  0.1078117E+04  0.7818608E-02  0.8704469E-01
          1   -1    0    0  502    0  0.00000000000E+00  0.00000000000E+00  0.26262932665E+04  0.26262932665E+04  0.00000000000E+00 0. -1.
         -1   -1    0    0    0  501 -0.00000000000E+00 -0.00000000000E+00 -0.45010689938E+03  0.45010689938E+03  0.00000000000E+00 0.  1.
    9000010    2    1    2  502    0  0.38844015947E+03 -0.11356687561E+03  0.12872717298E+04  0.16792504545E+04  0.99951507722E+03 0.  0.
   -9000010    2    1    2    0  501 -0.38844015947E+03  0.11356687561E+03  0.88891463730E+03  0.13971497114E+04  0.99903698182E+03 0.  0.
        -13    1    3    3    0    0 -0.52550637261E+02 -0.10401598280E+03 -0.14186379036E+03  0.18359259335E+03  0.10566000000E+00 0.  1.
         13    1    4    4    0    0  0.16216239412E+03 -0.25935878575E+03  0.59718760287E+03  0.67096696341E+03  0.10566000000E+00 0. -1.
          4    1    3    3  502    0  0.44099079673E+03 -0.95508928057E+01  0.14291355202E+04  0.14956578611E+04  0.00000000000E+00 0.  1.
         -4    1    4    4    0  501 -0.55060255359E+03  0.37292566135E+03  0.29172703443E+03  0.72618274803E+03  0.00000000000E+00 0. -1.
</event>
<event>
 8    1  0.7096247E-006  0.1219142E+04  0.7818608E-02  0.8592286E-01
          2   -1    0    0  502    0  0.00000000000E+00  0.00000000000E+00  0.15265703452E+04  0.15265703452E+04  0.00000000000E+00 0. -1.
         -2   -1    0    0    0  501 -0.00000000000E+00 -0.00000000000E+00 -0.97978831900E+03  0.97978831900E+03  0.00000000000E+00 0.  1.
    9000010    2    1    2  502    0  0.62080128890E+03 -0.31232485284E+03  0.18529329229E+03  0.12626349566E+04  0.10377727957E+04 0.  0.
   -9000010    2    1    2    0  501 -0.62080128890E+03  0.31232485284E+03  0.36148873393E+03  0.12437237076E+04  0.96604011410E+03 0.  0.
        -13    1    3    3    0    0 -0.29398644996E+03 -0.84991454633E+02  0.57878100247E+02  0.31145058320E+03  0.10566000000E+00 0.  1.
         13    1    4    4    0    0 -0.26130120974E+03  0.47394654955E+03 -0.18320604346E+03  0.57137388772E+03  0.10566000000E+00 0. -1.
          4    1    3    3  502    0  0.91478773885E+03 -0.22733339820E+03  0.12741519204E+03  0.95118437343E+03  0.00000000000E+00 0.  1.
         -4    1    4    4    0  501 -0.35950007915E+03 -0.16162169671E+03  0.54469477739E+03  0.67234981987E+03  0.00000000000E+00 0. -1.
</event>
<event>
 8    1  0.7096247E-006  0.1174969E+04  0.7818608E-02  0.8625653E-01
          2   -1    0    0  502    0  0.00000000000E+00  0.00000000000E+00  0.50893727756E+03  0.50893727756E+03  0.00000000000E+00 0.  1.
         -2   -1    0    0    0  501 -0.00000000000E+00 -0.00000000000E+00 -0.35597796519E+04  0.35597796519E+04  0.00000000000E+00 0. -1.
    9000010    2    1    2  502    0  0.54383724825E+03  0.32914778428E+03 -0.25237739402E+04  0.27864419007E+04  0.99535237402E+03 0.  0.
   -9000010    2    1    2    0  501 -0.54383724825E+03 -0.32914778428E+03 -0.52706843414E+03  0.12822750287E+04  0.98098465763E+03 0.  0.
        -13    1    3    3    0    0  0.26317157772E+03  0.58118003179E+03 -0.21957194608E+04  0.22865286944E+04  0.10566000000E+00 0.  1.
         13    1    4    4    0    0  0.19348214467E+03  0.18287934255E+03 -0.71745232306E+02  0.27573099891E+03  0.10566000000E+00 0. -1.
          4    1    3    3  502    0  0.28066567053E+03 -0.25203224751E+03 -0.32805447938E+03  0.49991320631E+03  0.00000000000E+00 0.  1.
         -4    1    4    4    0  501 -0.73731939293E+03 -0.51202712683E+03 -0.45532320184E+03  0.10065440298E+04  0.00000000000E+00 0. -1.
</event>
<event>
 8    1  0.7096247E-006  0.1157916E+04  0.7818608E-02  0.8638944E-01
          2   -1    0    0  502    0  0.00000000000E+00  0.00000000000E+00  0.15242232193E+04  0.15242232193E+04  0.00000000000E+00 0.  1.
         -2   -1    0    0    0  501 -0.00000000000E+00 -0.00000000000E+00 -0.89629780565E+03  0.89629780565E+03  0.00000000000E+00 0. -1.
    9000010    2    1    2  502    0  0.36486482537E+03  0.48945500087E+03  0.48237275410E+03  0.12693736348E+04  0.10029623184E+04 0.  0.
   -9000010    2    1    2    0  501 -0.36486482537E+03 -0.48945500087E+03  0.14555265953E+03  0.11511473901E+04  0.96501927362E+03 0.  0.
        -13    1    3    3    0    0 -0.20580544643E+03 -0.19398938654E+03  0.94567841859E+02  0.29821276256E+03  0.10566000000E+00 0.  1.
         13    1    4    4    0    0  0.47912938491E+02 -0.22793994071E+03  0.49724748872E+03  0.54909684250E+03  0.10566000000E+00 0. -1.
          4    1    3    3  502    0  0.57067027181E+03  0.68344438741E+03  0.38780491224E+03  0.97116087224E+03  0.00000000000E+00 0.  1.
         -4    1    4    4    0  501 -0.41277776386E+03 -0.26151506016E+03 -0.35169482919E+03  0.60205054764E+03  0.00000000000E+00 0. -1.
</event>
<event>
 8    1  0.7096247E-006  0.1036815E+04  0.7818608E-02  0.8740749E-01
          2   -1    0    0  502    0  0.00000000000E+00  0.00000000000E+00  0.26743593306E+04  0.26743593306E+04  0.00000000000E+00 0.  1.
         -2   -1    0    0    0  501 -0.00000000000E+00 -0.00000000000E+00 -0.45636843735E+03  0.45636843735E+03  0.00000000000E+00 0. -1.
    9000010    2    1    2  502    0 -0.32645617390E+03  0.10801504682E+03  0.16548868304E+04  0.19559499903E+04  0.98430130516E+03 0.  0.
   -9000010    2    1    2    0  501  0.32645617390E+03 -0.10801504682E+03  0.56310406287E+03  0.11747777777E+04  0.97199575999E+03 0.  0.
        -13    1    3    3    0    0  0.31497243799E+03 -0.14985560821E+03  0.62030845481E+03  0.71165084857E+03  0.10566000000E+00 0.  1.
         13    1    4    4    0    0  0.54322396700E+02 -0.34211810906E+03 -0.14917169497E+03  0.37715769789E+03  0.10566000000E+00 0. -1.
          4    1    3    3  502    0 -0.64142861189E+03  0.25787065503E+03  0.10345783756E+04  0.12442991418E+04  0.00000000000E+00 0.  1.
         -4    1    4    4    0  501  0.27213377720E+03  0.23410306224E+03  0.71227575785E+03  0.79762007977E+03  0.00000000000E+00 0. -1.
</event>
<event>
 8    1  0.7096247E-006  0.1340609E+04  0.7818608E-02  0.8507591E-01
          1   -1    0    0  502    0  0.00000000000E+00  0.00000000000E+00  0.34388343698E+04  0.34388343698E+04  0.00000000000E+00 0. -1.
         -1   -1    0    0    0  501 -0.00000000000E+00 -0.00000000000E+00 -0.52587898103E+03  0.52587898103E+03  0.00000000000E+00 0.  1.
    9000010    2    1    2  502    0  0.65238646631E+03 -0.60153687640E+03  0.16032278497E+04  0.20847523090E+04  0.99418204412E+03 0.  0.
   -9000010    2    1    2    0  501 -0.65238646631E+03  0.60153687640E+03  0.13097275391E+04  0.18799610418E+04  0.10155848448E+04 0.  0.
        -13    1    3    3    0    0  0.59809737416E+03 -0.63417124781E+03  0.17332532020E+04  0.19401186340E+04  0.10566000000E+00 0.  1.
         13    1    4    4    0    0 -0.20832117297E+03  0.54157817103E+03  0.13090204120E+04  0.14318655931E+04  0.10566000000E+00 0. -1.
          4    1    3    3  502    0  0.54289092153E+02  0.32634371404E+02 -0.13002535229E+03  0.14463367506E+03  0.00000000000E+00 0.  1.
         -4    1    4    4    0  501 -0.44406529334E+03  0.59958705376E+02  0.70712702185E+00  0.44809544868E+03  0.00000000000E+00 0. -1.
</event>
<event>
 8    1  0.7096247E-006  0.1102140E+04  0.7818608E-02  0.8684138E-01
          2   -1    0    0  502    0  0.00000000000E+00  0.00000000000E+00  0.23687389402E+04  0.23687389402E+04  0.00000000000E+00 0.  1.
         -2   -1    0    0    0  501 -0.00000000000E+00 -0.00000000000E+00 -0.60968198305E+03  0.60968198305E+03  0.00000000000E+00 0. -1.
    9000010    2    1    2  502    0  0.57767595906E+03  0.11269609000E+03  0.14146684874E+04  0.17500001151E+04  0.84546055584E+03 0.  0.
   -9000010    2    1    2    0  501 -0.57767595906E+03 -0.11269609000E+03  0.34438846977E+03  0.12284208081E+04  0.10217653064E+04 0.  0.
        -13    1    3    3    0    0  0.17762347613E+03 -0.31753168365E+03  0.89321520402E+03  0.96447388832E+03  0.10566000000E+00 0.  1.
         13    1    4    4    0    0  0.19890076063E+03  0.24730153932E+03  0.39648189974E+02  0.31983050834E+03  0.10566000000E+00 0. -1.
          4    1    3    3  502    0  0.40005248293E+03  0.43022777365E+03  0.52145328336E+03  0.78552622683E+03  0.00000000000E+00 0.  1.
         -4    1    4    4    0  501 -0.77657671969E+03 -0.35999762932E+03  0.30474027980E+03  0.90859029976E+03  0.00000000000E+00 0. -1.
</event>
<event>
 8    1  0.7096247E-006  0.1168060E+04  0.7818608E-02  0.8631010E-01
          2   -1    0    0  502    0  0.00000000000E+00  0.00000000000E+00  0.29220007259E+04  0.29220007259E+04  0.00000000000E+00 0.  1.
         -2   -1    0    0    0  501 -0.00000000000E+00 -0.00000000000E+00 -0.46909585219E+03  0.46909585219E+03  0.00000000000E+00 0. -1.
    9000010    2    1    2  502    0  0.26054672282E+03  0.47411682076E+03  0.11632709678E+04  0.16753959801E+04  0.10775346821E+04 0.  0.
   -9000010    2    1    2    0  501 -0.26054672282E+03 -0.47411682076E+03  0.12896339060E+04  0.17157005980E+04  0.99388207357E+03 0.  0.
        -13    1    3    3    0    0  0.60503857076E+03  0.22404567419E+03  0.10541891093E+04  0.12359542166E+04  0.10566000000E+00 0.  1.
         13    1    4    4    0    0 -0.44615883523E+03 -0.48479434744E+03  0.32748061968E+03  0.73574916446E+03  0.10566000000E+00 0. -1.
          4    1    3    3  502    0 -0.34449184794E+03  0.25007114656E+03  0.10908185848E+03  0.43944176348E+03  0.00000000000E+00 0.  1.
         -4    1    4    4    0  501  0.18561211241E+03  0.10677526686E+02  0.96215328630E+03  0.97995143359E+03  0.00000000000E+00 0. -1.
</event>
<event>
 8    1  0.7096247E-006  0.1132468E+04  0.7818608E-02  0.8659228E-01
         -2   -1    0    0    0  501 -0.00000000000E+00  0.00000000000E+00  0.57758782021E+03  0.57758782021E+03  0.00000000000E+00 0.  1.
          2   -1    0    0  502    0  0.00000000000E+00 -0.00000000000E+00 -0.22599657101E+04  0.22599657101E+04  0.00000000000E+00 0. -1.
    9000010    2    1    2  502    0 -0.12118634526E+01  0.56490533335E+03 -0.66818743271E+03  0.13307515157E+04  0.10026493141E+04 0.  0.
   -9000010    2    1    2    0  501  0.12118634526E+01 -0.56490533335E+03 -0.10141904572E+04  0.15068020147E+04  0.96059904411E+03 0.  0.
        -13    1    3    3    0    0 -0.38002309817E+03  0.53254664308E+03 -0.12238149209E+03  0.66558299480E+03  0.10566000000E+00 0.  1.
         13    1    4    4    0    0  0.32967005528E+03 -0.68260288538E+03 -0.77287016902E+03  0.10825697916E+04  0.10566000000E+00 0. -1.
          4    1    3    3  502    0  0.37881123472E+03  0.32358690271E+02 -0.54580594062E+03  0.66516852090E+03  0.00000000000E+00 0.  1.
         -4    1    4    4    0  501 -0.32845819182E+03  0.11769755203E+03 -0.24132028822E+03  0.42423222300E+03  0.00000000000E+00 0. -1.
</event>
<event>
 8    1  0.7096247E-006  0.1196717E+04  0.7818608E-02  0.8609039E-01
          2   -1    0    0  502    0  0.00000000000E+00  0.00000000000E+00  0.91367475965E+03  0.91367475965E+03  0.00000000000E+00 0. -1.
         -2   -1    0    0    0  501 -0.00000000000E+00 -0.00000000000E+00 -0.16512500081E+04  0.16512500081E+04  0.00000000000E+00 0.  1.
    9000010    2    1    2  502    0 -0.63232671308E+03 -0.25084343311E+03 -0.65381676229E+03  0.13529597479E+04  0.96967222339E+03 0.  0.
   -9000010    2    1    2    0  501  0.63232671308E+03  0.25084343311E+03 -0.83758486170E+02  0.12119650198E+04  0.99954200778E+03 0.  0.
        -13    1    3    3    0    0 -0.82261512315E+03 -0.78941291325E+02 -0.23034606762E+03  0.85789666648E+03  0.10566000000E+00 0.  1.
         13    1    4    4    0    0  0.38474562894E+03  0.16935477951E+03 -0.54131926299E+03  0.68537347189E+03  0.10566000000E+00 0. -1.
          4    1    3    3  502    0  0.19028841007E+03 -0.17190214179E+03 -0.42347069467E+03  0.49506308144E+03  0.00000000000E+00 0.  1.
         -4    1    4    4    0  501  0.24758108415E+03  0.81488653600E+02  0.45756077682E+03  0.52659154795E+03  0.00000000000E+00 0. -1.
</event>
<event>
 8    1  0.7096247E-006  0.1429944E+04  0.7818608E-02  0.8450993E-01
          1   -1    0    0  502    0  0.00000000000E+00  0.00000000000E+00  0.26687467212E+04  0.26687467212E+04  0.00000000000E+00 0. -1.
         -1   -1    0    0    0  501 -0.00000000000E+00 -0.00000000000E+00 -0.80509548317E+03  0.80509548317E+03  0.00000000000E+00 0.  1.
    9000010    2    1    2  502    0 -0.38793089876E+02 -0.10075051989E+04  0.56213974149E+03  0.15538835733E+04  0.10401833688E+04 0.  0.
   -9000010    2    1    2    0  501  0.38793089876E+02  0.10075051989E+04  0.13015114965E+04  0.19199586311E+04  0.98779417893E+03 0.  0.
        -13    1    3    3    0    0 -0.15484751662E+03 -0.76945986270E+02 -0.25631376424E+03  0.30918472651E+03  0.10566000000E+00 0.  1.
         13    1    4    4    0    0 -0.11307470396E+03 -0.14178943845E+03  0.43908405963E+03  0.47506310750E+03  0.10566000000E+00 0. -1.
          4    1    3    3  502    0  0.11605442674E+03 -0.93055921258E+03  0.81845350572E+03  0.12446988468E+04  0.00000000000E+00 0.  1.
         -4    1    4    4    0  501  0.15186779383E+03  0.11492946373E+04  0.86242743690E+03  0.14448955236E+04  0.00000000000E+00 0. -1.
</event>
<event>
 8    1  0.7096247E-006  0.1297497E+04  0.7818608E-02  0.8536552E-01
         -1   -1    0    0    0  501 -0.00000000000E+00  0.00000000000E+00  0.61403585224E+03  0.61403585224E+03  0.00000000000E+00 0.  1.
          1   -1    0    0  502    0  0.00000000000E+00 -0.00000000000E+00 -0.27619437231E+04  0.27619437231E+04  0.00000000000E+00 0. -1.
    9000010    2    1    2  502    0 -0.81275222988E+03  0.24839066792E+03 -0.12055314443E+04  0.17607060106E+04  0.96151728086E+03 0.  0.
   -9000010    2    1    2    0  501  0.81275222988E+03 -0.24839066792E+03 -0.94237642648E+03  0.16152735647E+04  0.99938543543E+03 0.  0.
        -13    1    3    3    0    0  0.11583240199E+03  0.32790584227E+03 -0.38714426871E+03  0.52040376892E+03  0.10566000000E+00 0.  1.
         13    1    4    4    0    0  0.89552166627E+03 -0.50848087254E+03 -0.81882455451E+03  0.13156692269E+04  0.10566000000E+00 0. -1.
          4    1    3    3  502    0 -0.92858463187E+03 -0.79515174348E+02 -0.81838717564E+03  0.12403022417E+04  0.00000000000E+00 0.  1.
         -4    1    4    4    0  501 -0.82769436391E+02  0.26009020461E+03 -0.12355187197E+03  0.29960433776E+03  0.00000000000E+00 0. -1.
</event>
<event>
 8    1  0.7096247E-006  0.1052729E+04  0.7818608E-02  0.8726566E-01
          2   -1    0    0  502    0  0.00000000000E+00  0.00000000000E+00  0.17653170536E+04  0.17653170536E+04  0.00000000000E+00 0. -1.
         -2   -1    0    0    0  501 -0.00000000000E+00 -0.00000000000E+00 -0.69158190831E+03  0.69158190831E+03  0.00000000000E+00 0.  1.
    9000010    2    1    2  502    0 -0.83767970454E+02  0.30983452878E+03  0.91474710936E+03  0.14028078725E+04  0.10139492813E+04 0.  0.
   -9000010    2    1    2    0  501  0.83767970454E+02 -0.30983452878E+03  0.15898803591E+03  0.10540910894E+04  0.99137093012E+03 0.  0.
        -13    1    3    3    0    0 -0.53603370225E+03  0.28599497611E+03  0.47087563259E+03  0.76866711185E+03  0.10566000000E+00 0.  1.
         13    1    4    4    0    0 -0.95365931427E+02 -0.27645892554E+03 -0.38323364413E+03  0.48207077857E+03  0.10566000000E+00 0. -1.
          4    1    3    3  502    0  0.45226573180E+03  0.23839552662E+02  0.44387147677E+03  0.63414076065E+03  0.00000000000E+00 0.  1.
         -4    1    4    4    0  501  0.17913390188E+03 -0.33375603231E+02  0.54222168004E+03  0.57202031083E+03  0.00000000000E+00 0. -1.
</event>
<event>
 8    1  0.7096247E-006  0.1275288E+04  0.7818608E-02  0.8551927E-01
         -2   -1    0    0    0  501 -0.00000000000E+00  0.00000000000E+00  0.72884953543E+03  0.72884953543E+03  0.00000000000E+00 0. -1.
          2   -1    0    0  502    0  0.00000000000E+00 -0.00000000000E+00 -0.29504075233E+04  0.29504075233E+04  0.00000000000E+00 0.  1.
    9000010    2    1    2  502    0  0.76791334293E+03 -0.14616328189E+03 -0.20518919071E+03  0.12954975865E+04  0.10125002644E+04 0.  0.
   -9000010    2    1    2    0  501 -0.76791334293E+03  0.14616328189E+03 -0.20163687972E+04  0.23837594723E+04  0.10027519575E+04 0.  0.
        -13    1    3    3    0    0 -0.10796149341E+03 -0.18258239623E+03 -0.34776414798E+03  0.40734743065E+03  0.10566000000E+00 0.  1.
         13    1    4    4    0    0 -0.69757118392E+03  0.44711419105E+03 -0.89097005053E+03  0.12166940037E+04  0.10566000000E+00 0. -1.
          4    1    3    3  502    0  0.87587483634E+03  0.36419114348E+02  0.14257495727E+03  0.88815015581E+03  0.00000000000E+00 0.  1.
         -4    1    4    4    0  501 -0.70342159009E+02 -0.30095090916E+03 -0.11253987467E+04  0.11670654686E+04  0.00000000000E+00 0. -1.
</event>
<event>
 8    1  0.7096247E-006  0.1270928E+04  0.7818608E-02  0.8554984E-01
          1   -1    0    0  502    0  0.00000000000E+00  0.00000000000E+00  0.20298614909E+04  0.20298614909E+04  0.00000000000E+00 0.  1.
         -1   -1    0    0    0  501 -0.00000000000E+00 -0.00000000000E+00 -0.98534589713E+03  0.98534589713E+03  0.00000000000E+00 0. -1.
    9000010    2    1    2  502    0  0.31911572914E+03 -0.70073636441E+03  0.11984415700E+04  0.17871033023E+04  0.10791708462E+04 0.  0.
   -9000010    2    1    2    0  501 -0.31911572914E+03  0.70073636441E+03 -0.15392597626E+03  0.12281040857E+04  0.94428816482E+03 0.  0.
        -13    1    3    3    0    0  0.81334596207E+02 -0.45933348862E+03 -0.72221720314E+02  0.47203660701E+03  0.10566000000E+00 0.  1.
         13    1    4    4    0    0 -0.46437021437E+02 -0.16258284319E+03  0.19476362385E+03  0.25791948006E+03  0.10566000000E+00 0. -1.
          4    1    3    3  502    0  0.23778113293E+03 -0.24140287579E+03  0.12706632904E+04  0.13150666953E+04  0.00000000000E+00 0.  1.
         -4    1    4    4    0  501 -0.27267870770E+03  0.86331920760E+03 -0.34868960011E+03  0.97018460566E+03  0.00000000000E+00 0. -1.
</event>
<event>
 8    1  0.7096247E-006  0.1069272E+04  0.7818608E-02  0.8712095E-01
         -2   -1    0    0    0  501 -0.00000000000E+00  0.00000000000E+00  0.76546350541E+03  0.76546350541E+03  0.00000000000E+00 0. -1.
          2   -1    0    0  502    0  0.00000000000E+00 -0.00000000000E+00 -0.15428206142E+04  0.15428206142E+04  0.00000000000E+00 0.  1.
    9000010    2    1    2  502    0 -0.91506806537E+02 -0.30832493776E+03 -0.60106806424E+03  0.12460370570E+04  0.10430185840E+04 0.  0.
   -9000010    2    1    2    0  501  0.91506806537E+02  0.30832493776E+03 -0.17628904453E+03  0.10622470626E+04  0.99692187855E+03 0.  0.
        -13    1    3    3    0    0 -0.47721654940E+03  0.82315303448E+02 -0.48410862353E+03  0.68474273618E+03  0.10566000000E+00 0.  1.
         13    1    4    4    0    0  0.27899456474E+03  0.10696699964E+03 -0.53343254008E+03  0.61141654553E+03  0.10566000000E+00 0. -1.
          4    1    3    3  502    0  0.38570974286E+03 -0.39064024121E+03 -0.11695944071E+03  0.56129432080E+03  0.00000000000E+00 0.  1.
         -4    1    4    4    0  501 -0.18748775820E+03  0.20135793812E+03  0.35714349556E+03  0.45083051709E+03  0.00000000000E+00 0. -1.
</event>
<event>
 8    1  0.7096247E-006  0.1164686E+04  0.7818608E-02  0.8633640E-01
         -2   -1    0    0    0  501 -0.00000000000E+00  0.00000000000E+00  0.38517250596E+03  0.38517250596E+03  0.00000000000E+00 0. -1.
          2   -1    0    0  502    0  0.00000000000E+00 -0.00000000000E+00 -0.35952232977E+04  0.35952232977E+04  0.00000000000E+00 0.  1.
    9000010    2    1    2  502    0 -0.48980815283E+03  0.35287854821E+03 -0.13192208237E+04  0.17591156666E+04  0.99484121860E+03 0.  0.
   -9000010    2    1    2    0  501  0.48980815283E+03 -0.35287854821E+03 -0.18908299680E+04  0.22212801371E+04  0.99720217767E+03 0.  0.
        -13    1    3    3    0    0 -0.14535197557E+03 -0.30178520052E+03 -0.13148359609E+03  0.35984642733E+03  0.10566000000E+00 0.  1.
         13    1    4    4    0    0  0.65906323694E+03  0.56550502639E+02 -0.14620674000E+04  0.16047440304E+04  0.10566000000E+00 0. -1.
          4    1    3    3  502    0 -0.34445617726E+03  0.65466374873E+03 -0.11877372276E+04  0.13992692392E+04  0.00000000000E+00 0.  1.
         -4    1    4    4    0  501 -0.16925508412E+03 -0.40942905085E+03 -0.42876256795E+03  0.61653610669E+03  0.00000000000E+00 0. -1.
</event>
<event>
 8    1  0.7096247E-006  0.1590683E+04  0.7818608E-02  0.8359142E-01
         -2   -1    0    0    0  501 -0.00000000000E+00  0.00000000000E+00  0.81989447033E+03  0.81989447033E+03  0.00000000000E+00 0.  1.
          2   -1    0    0  502    0  0.00000000000E+00 -0.00000000000E+00 -0.32238207463E+04  0.32238207463E+04  0.00000000000E+00 0. -1.
    9000010    2    1    2  502    0 -0.17228795768E+03  0.12279411221E+04 -0.78425371389E+03  0.17737456195E+04  0.99679340662E+03 0.  0.
   -9000010    2    1    2    0  501  0.17228795768E+03 -0.12279411221E+04 -0.16196725621E+04  0.22699695971E+04  0.99594187768E+03 0.  0.
        -13    1    3    3    0    0  0.23631955333E+03  0.91691032006E+03 -0.15163243518E+03  0.95893893074E+03  0.10566000000E+00 0.  1.
         13    1    4    4    0    0 -0.71804430439E+02  0.13990447621E+02  0.10667576206E+03  0.12934967426E+03  0.10566000000E+00 0. -1.
          4    1    3    3  502    0 -0.40860751101E+03  0.31103080200E+03 -0.63262127870E+03  0.81480668880E+03  0.00000000000E+00 0.  1.
         -4    1    4    4    0  501  0.24409238811E+03 -0.12419315697E+04 -0.17263483241E+04  0.21406199228E+04  0.00000000000E+00 0. -1.
</event>
<event>
 8    1  0.7096247E-006  0.1110574E+04  0.7818608E-02  0.8677127E-01
         -2   -1    0    0    0  501 -0.00000000000E+00  0.00000000000E+00  0.37732517099E+03  0.37732517099E+03  0.00000000000E+00 0.  1.
          2   -1    0    0  502    0  0.00000000000E+00 -0.00000000000E+00 -0.35384783007E+04  0.35384783007E+04  0.00000000000E+00 0. -1.
    9000010    2    1    2  502    0 -0.15890677143E+02  0.47584006383E+03 -0.10430453588E+04  0.15252729824E+04  0.10059014715E+04 0.  0.
   -9000010    2    1    2    0  501  0.15890677143E+02 -0.47584006383E+03 -0.21181077709E+04  0.23905304893E+04  0.10007892941E+04 0.  0.
        -13    1    3    3    0    0  0.10345998545E+03 -0.29095438393E+03 -0.15364835988E+03  0.34491484713E+03  0.10566000000E+00 0.  1.
         13    1    4    4    0    0  0.39451776094E+03 -0.35677338062E+03 -0.51996482077E+03  0.74383797619E+03  0.10566000000E+00 0. -1.
          4    1    3    3  502    0 -0.11935066259E+03  0.76679444776E+03 -0.88939699888E+03  0.11803581352E+04  0.00000000000E+00 0.  1.
         -4    1    4    4    0  501 -0.37862708380E+03 -0.11906668321E+03 -0.15981429501E+04  0.16466925131E+04  0.00000000000E+00 0. -1.
</event>
<event>
 8    1  0.7096247E-006  0.1126144E+04  0.7818608E-02  0.8664354E-01
         -1   -1    0    0    0  501 -0.00000000000E+00  0.00000000000E+00  0.12286334978E+04  0.12286334978E+04  0.00000000000E+00 0.  1.
          1   -1    0    0  502    0  0.00000000000E+00 -0.00000000000E+00 -0.10677871085E+04  0.10677871085E+04  0.00000000000E+00 0. -1.
    9000010    2    1    2  502    0  0.36946981073E+03  0.37856946764E+03  0.28948134663E+03  0.11565514149E+04  0.98690878118E+03 0.  0.
   -9000010    2    1    2    0  501 -0.36946981073E+03 -0.37856946764E+03 -0.12863495732E+03  0.11398691913E+04  0.10014649461E+04 0.  0.
        -13    1    3    3    0    0 -0.17396135923E+03  0.45663414572E+03  0.35451455847E+03  0.60370347098E+03  0.10566000000E+00 0.  1.
         13    1    4    4    0    0  0.47598380957E+02  0.20816148301E+03 -0.32938156515E+03  0.39254176275E+03  0.10566000000E+00 0. -1.
          4    1    3    3  502    0  0.54343116995E+03 -0.78064678081E+02 -0.65033211838E+02  0.55284794391E+03  0.00000000000E+00 0.  1.
         -4    1    4    4    0  501 -0.41706819168E+03 -0.58673095065E+03  0.20074660782E+03  0.74732742859E+03  0.00000000000E+00 0. -1.
</event>
<event>
 8    1  0.7096247E-006  0.1382302E+04  0.7818608E-02  0.8480631E-01
         -1   -1    0    0    0  501 -0.00000000000E+00  0.00000000000E+00  0.80189087899E+03  0.80189087899E+03  0.00000000000E+00 0.  1.
          1   -1    0    0  502    0  0.00000000000E+00 -0.00000000000E+00 -0.25250720840E+04  0.25250720840E+04  0.00000000000E+00 0. -1.
    9000010    2    1    2  502    0 -0.73719117792E+03  0.60750592935E+03 -0.12560383371E+04  0.18672357865E+04  0.99820984335E+03 0.  0.
   -9000010    2    1    2    0  501  0.73719117792E+03 -0.60750592935E+03 -0.46714286793E+03  0.14597271764E+04  0.10000333412E+04 0.  0.
        -13    1    3    3    0    0 -0.55847703407E+03 -0.16210828766E+03 -0.42294200993E+03  0.71906581718E+03  0.10566000000E+00 0.  1.
         13    1    4    4    0    0  0.40649710397E+03  0.18082617265E+03 -0.40658431346E+03  0.60270126544E+03  0.10566000000E+00 0. -1.
          4    1    3    3  502    0 -0.17871414384E+03  0.76961421701E+03 -0.83309632712E+03  0.11481699693E+04  0.00000000000E+00 0.  1.
         -4    1    4    4    0  501  0.33069407395E+03 -0.78833210201E+03 -0.60558554472E+02  0.85702591100E+03  0.00000000000E+00 0. -1.
</event>
<event>
 8    1  0.7096247E-006  0.1071418E+04  0.7818608E-02  0.8710238E-01
          2   -1    0    0  502    0  0.00000000000E+00  0.00000000000E+00  0.62519728003E+03  0.62519728003E+03  0.00000000000E+00 0. -1.
         -2   -1    0    0    0  501 -0.00000000000E+00 -0.00000000000E+00 -0.18651509267E+04  0.18651509267E+04  0.00000000000E+00 0.  1.
    9000010    2    1    2  502    0 -0.46444830722E+03 -0.15860568763E+03 -0.79282912591E+03  0.13881155460E+04  0.10283086851E+04 0.  0.
   -9000010    2    1    2    0  501  0.46444830722E+03  0.15860568763E+03 -0.44712452076E+03  0.11022326607E+04  0.87984572914E+03 0.  0.
        -13    1    3    3    0    0  0.47793662688E+02  0.38727008860E+03 -0.24980010610E+03  0.46331680294E+03  0.10566000000E+00 0.  1.
         13    1    4    4    0    0  0.47858282699E+03  0.31155757610E+03  0.58256874173E+02  0.57402397169E+03  0.10566000000E+00 0. -1.
          4    1    3    3  502    0 -0.51224196991E+03 -0.54587577622E+03 -0.54302901981E+03  0.92479874306E+03  0.00000000000E+00 0.  1.
         -4    1    4    4    0  501 -0.14134519771E+02 -0.15295188847E+03 -0.50538139494E+03  0.52820868905E+03  0.00000000000E+00 0. -1.
</event>
<event>
 8    1  0.7096247E-006  0.1210843E+04  0.7818608E-02  0.8598442E-01
          2   -1    0    0  502    0  0.00000000000E+00  0.00000000000E+00  0.14894890489E+04  0.14894890489E+04  0.00000000000E+00 0. -1.
         -2   -1    0    0    0  501 -0.00000000000E+00 -0.00000000000E+00 -0.98749668905E+03  0.98749668905E+03  0.00000000000E+00 0.  1.
    9000010    2    1    2  502    0 -0.62980976275E+03 -0.22332550702E+03  0.18028578784E+03  0.12214162731E+04  0.10063896500E+04 0.  0.
   -9000010    2    1    2    0  501  0.62980976275E+03  0.22332550702E+03  0.32170657204E+03  0.12555694648E+04  0.10131263214E+04 0.  0.
        -13    1    3    3    0    0 -0.19753280652E+01 -0.29628479562E+03 -0.30449062547E+03  0.42485660428E+03  0.10566000000E+00 0.  1.
         13    1    4    4    0    0  0.28621168674E+03 -0.72190104416E+01  0.66108413383E+03  0.72041757815E+03  0.10566000000E+00 0. -1.
          4    1    3    3  502    0 -0.62783443469E+03  0.72959288595E+02  0.48477641331E+03  0.79655966887E+03  0.00000000000E+00 0.  1.
         -4    1    4    4    0  501  0.34359807601E+03  0.23054451746E+03 -0.33937756179E+03  0.53515188668E+03  0.00000000000E+00 0. -1.
</event>
<event>
 8    1  0.7096247E-006  0.1566335E+04  0.7818608E-02  0.8372314E-01
          2   -1    0    0  502    0  0.00000000000E+00  0.00000000000E+00  0.26122154957E+04  0.26122154957E+04  0.00000000000E+00 0.  1.
         -2   -1    0    0    0  501 -0.00000000000E+00 -0.00000000000E+00 -0.11144817339E+04  0.11144817339E+04  0.00000000000E+00 0. -1.
    9000010    2    1    2  502    0  0.27425757694E+02 -0.12186021977E+04  0.66487135241E+01  0.15581253185E+04  0.97054974861E+03 0.  0.
   -9000010    2    1    2    0  501 -0.27425757694E+02  0.12186021977E+04  0.14910850483E+04  0.21685719110E+04  0.99680791711E+03 0.  0.
        -13    1    3    3    0    0 -0.44925141592E+03 -0.51791478313E+03 -0.13537866811E+03  0.69884901963E+03  0.10566000000E+00 0.  1.
         13    1    4    4    0    0  0.12774605819E+03  0.11611822141E+04  0.70321331739E+03  0.13635146389E+04  0.10566000000E+00 0. -1.
          4    1    3    3  502    0  0.47667717362E+03 -0.70068741453E+03  0.14202738163E+03  0.85927629890E+03  0.00000000000E+00 0.  1.
         -4    1    4    4    0  501 -0.15517181588E+03  0.57419983606E+02  0.78787173094E+03  0.80505727211E+03  0.00000000000E+00 0. -1.
</event>
<event>
 8    1  0.7096247E-006  0.1000854E+04  0.7818608E-02  0.8773789E-01
          2   -1    0    0  502    0  0.00000000000E+00  0.00000000000E+00  0.14604112675E+04  0.14604112675E+04  0.00000000000E+00 0. -1.
         -2   -1    0    0    0  501 -0.00000000000E+00 -0.00000000000E+00 -0.68775785059E+03  0.68775785059E+03  0.00000000000E+00 0.  1.
    9000010    2    1    2  502    0  0.17484914354E+02 -0.16840948782E+03  0.44223202502E+03  0.10947189151E+04  0.98700195610E+03 0.  0.
   -9000010    2    1    2    0  501 -0.17484914354E+02  0.16840948782E+03  0.33042139184E+03  0.10534502029E+04  0.98585574808E+03 0.  0.
        -13    1    3    3    0    0  0.28773928852E+03  0.90645542901E+02  0.61302663952E+03  0.68323655093E+03  0.10566000000E+00 0.  1.
         13    1    4    4    0    0  0.36559553277E+03  0.40757699881E+03  0.15580758783E+03  0.56925839399E+03  0.10566000000E+00 0. -1.
          4    1    3    3  502    0 -0.27025437416E+03 -0.25905503072E+03 -0.17079461450E+03  0.41148236419E+03  0.00000000000E+00 0.  1.
         -4    1    4    4    0  501 -0.38308044713E+03 -0.23916751098E+03  0.17461380401E+03  0.48419180893E+03  0.00000000000E+00 0. -1.
</event>
<event>
 8    1  0.7096247E-006  0.1594807E+04  0.7818608E-02  0.8356934E-01
          1   -1    0    0  502    0  0.00000000000E+00  0.00000000000E+00  0.16115625237E+04  0.16115625237E+04  0.00000000000E+00 0. -1.
         -1   -1    0    0    0  501 -0.00000000000E+00 -0.00000000000E+00 -0.15872530142E+04  0.15872530142E+04  0.00000000000E+00 0.  1.
    9000010    2    1    2  502    0 -0.47549367831E+03  0.11336374883E+04  0.13275585794E+03  0.16036017831E+04  0.10211201535E+04 0.  0.
   -9000010    2    1    2    0  501  0.47549367831E+03 -0.11336374883E+04 -0.10844634842E+03  0.15952137548E+04  0.10108007320E+04 0.  0.
        -13    1    3    3    0    0 -0.40284752377E+03  0.97900067715E+03  0.52065027907E+03  0.11797479297E+04  0.10566000000E+00 0.  1.
         13    1    4    4    0    0 -0.74959366336E+02 -0.31291765759E+03 -0.44686038314E+03  0.55065468328E+03  0.10566000000E+00 0. -1.
          4    1    3    3  502    0 -0.72646154542E+02  0.15463681118E+03 -0.38789442113E+03  0.42385385345E+03  0.00000000000E+00 0.  1.
         -4    1    4    4    0  501  0.55045304465E+03 -0.82071983074E+03  0.33841403472E+03  0.10445590715E+04  0.00000000000E+00 0. -1.
</event>
<event>
 8    1  0.7096247E-006  0.1273674E+04  0.7818608E-02  0.8553057E-01
          2   -1    0    0  502    0  0.00000000000E+00  0.00000000000E+00  0.23710605841E+04  0.23710605841E+04  0.00000000000E+00 0. -1.
         -2   -1    0    0    0  501 -0.00000000000E+00 -0.00000000000E+00 -0.76024791081E+03  0.76024791081E+03  0.00000000000E+00 0.  1.
    9000010    2    1    2  502    0  0.24279453569E+02  0.80121858941E+03  0.29874108251E+03  0.12876826580E+04  0.96246541418E+03 0.  0.
   -9000010    2    1    2    0  501 -0.24279453569E+02 -0.80121858941E+03  0.13120715907E+04  0.18436258369E+04  0.10172923116E+04 0.  0.
        -13    1    3    3    0    0  0.36397834921E+03 -0.15503296472E+02  0.42586914098E+02  0.36678910468E+03  0.10566000000E+00 0.  1.
         13    1    4    4    0    0 -0.49488072879E+03 -0.36621698798E+03  0.42016479903E+03  0.74535916679E+03  0.10566000000E+00 0. -1.
          4    1    3    3  502    0 -0.33969889565E+03  0.81672188588E+03  0.25615416841E+03  0.92089355333E+03  0.00000000000E+00 0.  1.
         -4    1    4    4    0  501  0.47060127522E+03 -0.43500160142E+03  0.89190679172E+03  0.10982666701E+04  0.00000000000E+00 0. -1.
</event>
<event>
 8    1  0.7096247E-006  0.1107311E+04  0.7818608E-02  0.8679831E-01
         -2   -1    0    0    0  501 -0.00000000000E+00  0.00000000000E+00  0.77420573277E+03  0.77420573277E+03  0.00000000000E+00 0. -1.
          2   -1    0    0  502    0  0.00000000000E+00 -0.00000000000E+00 -0.17655579707E+04  0.17655579707E+04  0.00000000000E+00 0.  1.
    9000010    2    1    2  502    0  0.44927526807E+03 -0.15676633554E+03 -0.90304584426E+03  0.14285753008E+04  0.99945567320E+03 0.  0.
   -9000010    2    1    2    0  501 -0.44927526807E+03  0.15676633554E+03 -0.88306393637E+02  0.11111884027E+04  0.10002588148E+04 0.  0.
        -13    1    3    3    0    0 -0.58627227651E+02 -0.44782738573E+03 -0.64840492774E+03  0.79019964611E+03  0.10566000000E+00 0.  1.
         13    1    4    4    0    0 -0.60276081127E+03 -0.26229736875E+03 -0.60642348481E+01  0.65738671371E+03  0.10566000000E+00 0. -1.
          4    1    3    3  502    0  0.50790249572E+03  0.29106105019E+03 -0.25464091652E+03  0.63837565466E+03  0.00000000000E+00 0.  1.
         -4    1    4    4    0  501  0.15348554320E+03  0.41906370429E+03 -0.82242158789E+02  0.45380168896E+03  0.00000000000E+00 0. -1.
</event>
<event>
 8    1  0.7096247E-006  0.1252806E+04  0.7818608E-02  0.8567824E-01
         -2   -1    0    0    0  501 -0.00000000000E+00  0.00000000000E+00  0.89584298532E+03  0.89584298532E+03  0.00000000000E+00 0.  1.
          2   -1    0    0  502    0  0.00000000000E+00 -0.00000000000E+00 -0.17537313530E+04  0.17537313530E+04  0.00000000000E+00 0. -1.
    9000010    2    1    2  502    0 -0.72243589916E+03  0.25037488821E+03 -0.46820647352E+03  0.13323437968E+04  0.98555643063E+03 0.  0.
   -9000010    2    1    2    0  501  0.72243589916E+03 -0.25037488821E+03 -0.38968189411E+03  0.13172305415E+04  0.99932132359E+03 0.  0.
        -13    1    3    3    0    0 -0.55055688740E+03  0.53592364167E+03 -0.13340166773E+02  0.76844323614E+03  0.10566000000E+00 0.  1.
         13    1    4    4    0    0 -0.23649757078E+01  0.23731072205E+03  0.15895882240E+03  0.28563944106E+03  0.10566000000E+00 0. -1.
          4    1    3    3  502    0 -0.17187901176E+03 -0.28554875345E+03 -0.45486630675E+03  0.56390056065E+03  0.00000000000E+00 0.  1.
         -4    1    4    4    0  501  0.72480087486E+03 -0.48768561026E+03 -0.54864071651E+03  0.10315911004E+04  0.00000000000E+00 0. -1.
</event>
<event>
 8    1  0.7096247E-006  0.1355582E+04  0.7818608E-02  0.8497794E-01
         -1   -1    0    0    0  501 -0.00000000000E+00  0.00000000000E+00  0.99470817286E+03  0.99470817286E+03  0.00000000000E+00 0.  1.
          1   -1    0    0  502    0  0.00000000000E+00 -0.00000000000E+00 -0.24235928095E+04  0.24235928095E+04  0.00000000000E+00 0. -1.
    9000010    2    1    2  502    0 -0.48459952402E+03  0.76920048789E+03  0.11902568563E+03  0.13605766866E+04  0.10052341603E+04 0.  0.
   -9000010    2    1    2    0  501  0.48459952402E+03 -0.76920048789E+03 -0.15479103222E+04  0.20577242957E+04  0.10058314085E+04 0.  0.
        -13    1    3    3    0    0 -0.10424205930E+03  0.89294163593E+02  0.48195710712E+03  0.50112126162E+03  0.10566000000E+00 0.  1.
         13    1    4    4    0    0  0.59173576751E+03 -0.87029421920E+03 -0.87430311838E+03  0.13681992547E+04  0.10566000000E+00 0. -1.
          4    1    3    3  502    0 -0.38035746472E+03  0.67990632430E+03 -0.36293142149E+03  0.85945542496E+03  0.00000000000E+00 0.  1.
         -4    1    4    4    0  501 -0.10713624349E+03  0.10109373131E+03 -0.67360720384E+03  0.68952504105E+03  0.00000000000E+00 0. -1.
</event>
<event>
 8    1  0.7096247E-006  0.1533556E+04  0.7818608E-02  0.8390445E-01
         -2   -1    0    0    0  501 -0.00000000000E+00  0.00000000000E+00  0.14418719972E+04  0.14418719972E+04  0.00000000000E+00 0.  1.
          2   -1    0    0  502    0  0.00000000000E+00 -0.00000000000E+00 -0.18404330419E+04  0.18404330419E+04  0.00000000000E+00 0. -1.
    9000010    2    1    2  502    0 -0.11304887880E+04 -0.25522087085E+03 -0.75213455025E+03  0.17030682462E+04  0.99578736535E+03 0.  0.
   -9000010    2    1    2    0  501  0.11304887880E+04  0.25522087085E+03  0.35357350555E+03  0.15792367928E+04  0.10128336642E+04 0.  0.
        -13    1    3    3    0    0  0.13887162036E+03  0.14060376435E+02  0.80656256833E+02  0.16120937956E+03  0.10566000000E+00 0.  1.
         13    1    4    4    0    0  0.85082834972E+03  0.55199443254E+03 -0.36597858200E+02  0.10148626255E+04  0.10566000000E+00 0. -1.
          4    1    3    3  502    0 -0.12693604083E+04 -0.26928124728E+03 -0.83279080708E+03  0.15418588667E+04  0.00000000000E+00 0.  1.
         -4    1    4    4    0  501  0.27966043823E+03 -0.29677356169E+03  0.39017136375E+03  0.56437416730E+03  0.00000000000E+00 0. -1.
</event>
<event>
 8    1  0.7096247E-006  0.1359340E+04  0.7818608E-02  0.8495356E-01
          2   -1    0    0  502    0  0.00000000000E+00  0.00000000000E+00  0.25497384731E+04  0.25497384731E+04  0.00000000000E+00 0.  1.
         -2   -1    0    0    0  501 -0.00000000000E+00 -0.00000000000E+00 -0.72481725752E+03  0.72481725752E+03  0.00000000000E+00 0. -1.
    9000010    2    1    2  502    0  0.10521841771E+03  0.91238705903E+03  0.92864620666E+03  0.16421491838E+04  0.99536380477E+03 0.  0.
   -9000010    2    1    2    0  501 -0.10521841771E+03 -0.91238705903E+03  0.89627500889E+03  0.16324065468E+04  0.10089208004E+04 0.  0.
        -13    1    3    3    0    0  0.41831048565E+03  0.90372056640E+03  0.50864549563E+03  0.11182194668E+04  0.10566000000E+00 0.  1.
         13    1    4    4    0    0  0.56897327119E+02 -0.61938430775E+03 -0.54510490446E+02  0.62437619369E+03  0.10566000000E+00 0. -1.
          4    1    3    3  502    0 -0.31309206794E+03  0.86664926276E+01  0.42000071104E+03  0.52392971701E+03  0.00000000000E+00 0.  1.
         -4    1    4    4    0  501 -0.16211574483E+03 -0.29300275128E+03  0.95078549933E+03  0.10080303531E+04  0.00000000000E+00 0. -1.
</event>
<event>
 8    1  0.7096247E-006  0.1122650E+04  0.7818608E-02  0.8667202E-01
          1   -1    0    0  502    0  0.00000000000E+00  0.00000000000E+00  0.26015036071E+04  0.26015036071E+04  0.00000000000E+00 0.  1.
         -1   -1    0    0    0  501 -0.00000000000E+00 -0.00000000000E+00 -0.48517980600E+03  0.48517980600E+03  0.00000000000E+00 0. -1.
    9000010    2    1    2  502    0  0.19513820126E+03 -0.46690043007E+03  0.11142752770E+04  0.15795824312E+04  0.99869731892E+03 0.  0.
   -9000010    2    1    2    0  501 -0.19513820126E+03  0.46690043007E+03  0.10020485241E+04  0.15071009819E+04  0.10055730683E+04 0.  0.
        -13    1    3    3    0    0  0.28739471739E+03 -0.25025504387E+03  0.12506846395E+04  0.13074537809E+04  0.10566000000E+00 0.  1.
         13    1    4    4    0    0 -0.32161291428E+03  0.41967609369E+03  0.11745375790E+04  0.12880611111E+04  0.10566000000E+00 0. -1.
          4    1    3    3  502    0 -0.92256516123E+02 -0.21664538620E+03 -0.13640936250E+03  0.27212865029E+03  0.00000000000E+00 0.  1.
         -4    1    4    4    0  501  0.12647471302E+03  0.47224336384E+02 -0.17248905485E+03  0.21903987085E+03  0.00000000000E+00 0. -1.
</event>
<event>
 8    1  0.7096247E-006  0.1099315E+04  0.7818608E-02  0.8686501E-01
          2   -1    0    0  502    0  0.00000000000E+00  0.00000000000E+00  0.24802701149E+04  0.24802701149E+04  0.00000000000E+00 0. -1.
         -2   -1    0    0    0  501 -0.00000000000E+00 -0.00000000000E+00 -0.49235655008E+03  0.49235655008E+03  0.00000000000E+00 0.  1.
    9000010    2    1    2  502    0  0.33899320084E+03 -0.31035124144E+03  0.11474688868E+04  0.15906773795E+04  0.10011670171E+04 0.  0.
   -9000010    2    1    2    0  501 -0.33899320084E+03  0.31035124144E+03  0.84044467802E+03  0.13819492855E+04  0.99609351351E+03 0.  0.
        -13    1    3    3    0    0  0.42446869363E+03 -0.27742020502E+03  0.13096630485E+04  0.14044048397E+04  0.10566000000E+00 0.  1.
         13    1    4    4    0    0  0.59152923434E+02  0.18664161904E+03  0.93429890895E+03  0.95459343426E+03  0.10566000000E+00 0. -1.
          4    1    3    3  502    0 -0.85475492790E+02 -0.32931036419E+02 -0.16219416162E+03  0.18627253982E+03  0.00000000000E+00 0.  1.
         -4    1    4    4    0  501 -0.39814612427E+03  0.12370962240E+03 -0.93854230921E+02  0.42735585127E+03  0.00000000000E+00 0. -1.
</event>
<event>
 8    1  0.7096247E-006  0.1118327E+04  0.7818608E-02  0.8670740E-01
         -2   -1    0    0    0  501 -0.00000000000E+00  0.00000000000E+00  0.55702464582E+03  0.55702464582E+03  0.00000000000E+00 0.  1.
          2   -1    0    0  502    0  0.00000000000E+00 -0.00000000000E+00 -0.22455068879E+04  0.22455068879E+04  0.00000000000E+00 0. -1.
    9000010    2    1    2  502    0 -0.15348762220E+03 -0.50023315630E+03 -0.86143618349E+03  0.14184220351E+04  0.99802660813E+03 0.  0.
   -9000010    2    1    2    0  501  0.15348762220E+03  0.50023315630E+03 -0.82704605859E+03  0.13841094986E+04  0.97875546504E+03 0.  0.
        -13    1    3    3    0    0 -0.41389973558E+02  0.30277285709E+03 -0.15309991697E+03  0.34179544854E+03  0.10566000000E+00 0.  1.
         13    1    4    4    0    0  0.27791777002E+03  0.65058549211E+03 -0.92597676387E+03  0.11653037148E+04  0.10566000000E+00 0. -1.
          4    1    3    3  502    0 -0.11209764864E+03 -0.80300601339E+03 -0.70833626652E+03  0.10766265865E+04  0.00000000000E+00 0.  1.
         -4    1    4    4    0  501 -0.12443014782E+03 -0.15035233582E+03  0.98930705279E+02  0.21880578379E+03  0.00000000000E+00 0. -1.
</event>
<event>
 8    1  0.7096247E-006  0.1416621E+04  0.7818608E-02  0.8459161E-01
         -1   -1    0    0    0  501 -0.00000000000E+00  0.00000000000E+00  0.10054164657E+04  0.10054164657E+04  0.00000000000E+00 0.  1.
          1   -1    0    0  502    0  0.00000000000E+00 -0.00000000000E+00 -0.26400725223E+04  0.26400725223E+04  0.00000000000E+00 0. -1.
    9000010    2    1    2  502    0  0.93631255298E+03  0.37446888560E+03  0.84400388191E+02  0.14158306923E+04  0.99022471213E+03 0.  0.
   -9000010    2    1    2    0  501 -0.93631255298E+03 -0.37446888560E+03 -0.17190564448E+04  0.22296582957E+04  0.99965639703E+03 0.  0.
        -13    1    3    3    0    0  0.10260928518E+04  0.37940866602E+02  0.20535540658E+03  0.10471279311E+04  0.10566000000E+00 0.  1.
         13    1    4    4    0    0 -0.10080165822E+04 -0.45993037735E+02 -0.15595534479E+04  0.18575305536E+04  0.10566000000E+00 0. -1.
          4    1    3    3  502    0 -0.89780298835E+02  0.33652801900E+03 -0.12095501839E+03  0.36870276118E+03  0.00000000000E+00 0.  1.
         -4    1    4    4    0  501  0.71704029230E+02 -0.32847584787E+03 -0.15950299691E+03  0.37212774213E+03  0.00000000000E+00 0. -1.
</event>
<event>
 8    1  0.7096247E-006  0.1100226E+04  0.7818608E-02  0.8685737E-01
         -1   -1    0    0    0  501 -0.00000000000E+00  0.00000000000E+00  0.66304949609E+03  0.66304949609E+03  0.00000000000E+00 0.  1.
          1   -1    0    0  502    0  0.00000000000E+00 -0.00000000000E+00 -0.18468455669E+04  0.18468455669E+04  0.00000000000E+00 0. -1.
    9000010    2    1    2  502    0  0.26060080100E+03 -0.13815312757E+03 -0.49842071790E+03  0.12561051952E+04  0.11146201081E+04 0.  0.
   -9000010    2    1    2    0  501 -0.26060080100E+03  0.13815312757E+03 -0.68537535293E+03  0.12537898678E+04  0.10075964440E+04 0.  0.
        -13    1    3    3    0    0 -0.14120712207E+03  0.31478290823E+03  0.14352595433E+03  0.37366755461E+03  0.10566000000E+00 0.  1.
         13    1    4    4    0    0  0.15920497412E+03  0.48127823188E+03 -0.30731557355E+03  0.59280505495E+03  0.10566000000E+00 0. -1.
          4    1    3    3  502    0  0.40180792307E+03 -0.45293603580E+03 -0.64194667223E+03  0.88243764060E+03  0.00000000000E+00 0.  1.
         -4    1    4    4    0  501 -0.41980577512E+03 -0.34312510431E+03 -0.37805977938E+03  0.66098481285E+03  0.00000000000E+00 0. -1.
</event>
<event>
 8    1  0.7096247E-006  0.1089200E+04  0.7818608E-02  0.8695021E-01
         -2   -1    0    0    0  501 -0.00000000000E+00  0.00000000000E+00  0.65204493336E+03  0.65204493336E+03  0.00000000000E+00 0. -1.
          2   -1    0    0  502    0  0.00000000000E+00 -0.00000000000E+00 -0.18374926377E+04  0.18374926377E+04  0.00000000000E+00 0.  1.
    9000010    2    1    2  502    0  0.32495550389E+03  0.24661365237E+03 -0.47422392284E+03  0.11956588391E+04  0.10189687715E+04 0.  0.
   -9000010    2    1    2    0  501 -0.32495550389E+03 -0.24661365237E+03 -0.71122378151E+03  0.12938787320E+04  0.10009338303E+04 0.  0.
        -13    1    3    3    0    0 -0.10932599707E+03 -0.54434360911E+02 -0.63238862394E+03  0.64407348659E+03  0.10566000000E+00 0.  1.
         13    1    4    4    0    0 -0.45048021877E+03 -0.50759347914E+03 -0.73852493266E+03  0.10029968369E+04  0.10566000000E+00 0. -1.
          4    1    3    3  502    0  0.43428150096E+03  0.30104801328E+03  0.15816470110E+03  0.55158535246E+03  0.00000000000E+00 0.  1.
         -4    1    4    4    0  501  0.12552471489E+03  0.26097982677E+03  0.27301151149E+02  0.29088189508E+03  0.00000000000E+00 0. -1.
</event>
<event>
 8    1  0.7096247E-006  0.1407840E+04  0.7818608E-02  0.8464594E-01
          1   -1    0    0  502    0  0.00000000000E+00  0.00000000000E+00  0.16579918760E+04  0.16579918760E+04  0.00000000000E+00 0. -1.
         -1   -1    0    0    0  501 -0.00000000000E+00 -0.00000000000E+00 -0.12249884273E+04  0.12249884273E+04  0.00000000000E+00 0.  1.
    9000010    2    1    2  502    0 -0.86976708093E+03 -0.46138202602E+03 -0.65473881372E+01  0.14132016777E+04  0.10137691870E+04 0.  0.
   -9000010    2    1    2    0  501  0.86976708093E+03  0.46138202602E+03  0.43955083688E+03  0.14697786256E+04  0.99883738464E+03 0.  0.
        -13    1    3    3    0    0 -0.41651663640E+03 -0.19029027909E+03  0.50237701148E+03  0.67976405579E+03  0.10566000000E+00 0.  1.
         13    1    4    4    0    0  0.38131296207E+03  0.43521127540E+03  0.70595189696E+03  0.91278503563E+03  0.10566000000E+00 0. -1.
          4    1    3    3  502    0 -0.45325044453E+03 -0.27109174694E+03 -0.50892439962E+03  0.73343762192E+03  0.00000000000E+00 0.  1.
         -4    1    4    4    0  501  0.48845411886E+03  0.26170750626E+02 -0.26640106008E+03  0.55699358994E+03  0.00000000000E+00 0. -1.
</event>
<event>
 8    1  0.7096247E-006  0.1244489E+04  0.7818608E-02  0.8573793E-01
         -2   -1    0    0    0  501 -0.00000000000E+00  0.00000000000E+00  0.81836197983E+03  0.81836197983E+03  0.00000000000E+00 0. -1.
          2   -1    0    0  502    0  0.00000000000E+00 -0.00000000000E+00 -0.19973629196E+04  0.19973629196E+04  0.00000000000E+00 0.  1.
    9000010    2    1    2  502    0  0.31064667847E+03 -0.70876572449E+03 -0.25916366742E+03  0.12528763816E+04  0.95062253820E+03 0.  0.
   -9000010    2    1    2    0  501 -0.31064667847E+03  0.70876572449E+03 -0.91983727235E+03  0.15628485178E+04  0.99877158093E+03 0.  0.
        -13    1    3    3    0    0  0.39501093593E+03 -0.83258473654E+03 -0.43736504032E+03  0.10200584163E+04  0.10566000000E+00 0.  1.
         13    1    4    4    0    0 -0.21726958459E+03  0.87259423763E+03 -0.10112926869E+04  0.13532699973E+04  0.10566000000E+00 0. -1.
          4    1    3    3  502    0 -0.84364257465E+02  0.12381901204E+03  0.17820137291E+03  0.23281796534E+03  0.00000000000E+00 0.  1.
         -4    1    4    4    0  501 -0.93377093880E+02 -0.16382851313E+03  0.91455414567E+02  0.20957852044E+03  0.00000000000E+00 0. -1.
</event>
<event>
 8    1  0.7096247E-006  0.1126112E+04  0.7818608E-02  0.8664380E-01
          4   -1    0    0  502    0  0.00000000000E+00  0.00000000000E+00  0.13109048613E+04  0.13109048613E+04  0.00000000000E+00 0.  1.
         -4   -1    0    0    0  501 -0.00000000000E+00 -0.00000000000E+00 -0.96803114978E+03  0.96803114978E+03  0.00000000000E+00 0. -1.
    9000010    2    1    2  502    0  0.54242109027E+03 -0.11105410351E+03  0.14538364790E+03  0.11462679384E+04  0.99309623317E+03 0.  0.
   -9000010    2    1    2    0  501 -0.54242109027E+03  0.11105410351E+03  0.19749006359E+03  0.11326680727E+04  0.96818437532E+03 0.  0.
        -13    1    3    3    0    0  0.75882112449E+03 -0.21693238575E+03  0.31697261068E+03  0.85049444798E+03  0.10566000000E+00 0.  1.
         13    1    4    4    0    0 -0.59682618247E+03 -0.26580093323E+03 -0.84603978441E+02  0.65879395301E+03  0.10566000000E+00 0. -1.
          4    1    3    3  502    0 -0.21640003422E+03  0.10587828225E+03 -0.17158896277E+03  0.29577349037E+03  0.00000000000E+00 0.  1.
         -4    1    4    4    0  501  0.54405092197E+02  0.37685503673E+03  0.28209404203E+03  0.47387411969E+03  0.00000000000E+00 0. -1.
</event>
<event>
 8    1  0.7096247E-006  0.1066524E+04  0.7818608E-02  0.8714479E-01
          4   -1    0    0  502    0  0.00000000000E+00  0.00000000000E+00  0.16398226747E+04  0.16398226747E+04  0.00000000000E+00 0.  1.
         -4   -1    0    0    0  501 -0.00000000000E+00 -0.00000000000E+00 -0.80395368130E+03  0.80395368130E+03  0.00000000000E+00 0. -1.
    9000010    2    1    2  502    0  0.37143542112E+03  0.49346486643E+02  0.87059888687E+03  0.13769297484E+04  0.99879615662E+03 0.  0.
   -9000010    2    1    2    0  501 -0.37143542112E+03 -0.49346486643E+02 -0.34729893462E+02  0.10668466076E+04  0.99827660035E+03 0.  0.
        -13    1    3    3    0    0  0.73187593513E+02  0.51024345693E+03  0.37626551594E+03  0.63818536401E+03  0.10566000000E+00 0.  1.
         13    1    4    4    0    0 -0.12590910379E+03 -0.86114188159E+02  0.47552935870E+03  0.49939657384E+03  0.10566000000E+00 0. -1.
          4    1    3    3  502    0  0.29824782761E+03 -0.46089697029E+03  0.49433337093E+03  0.73874438442E+03  0.00000000000E+00 0.  1.
         -4    1    4    4    0  501 -0.24552631733E+03  0.36767701516E+02 -0.51025925216E+03  0.56745003374E+03  0.00000000000E+00 0. -1.
</event>
<event>
 8    1  0.7096247E-006  0.1113975E+04  0.7818608E-02  0.8674319E-01
         -1   -1    0    0    0  501 -0.00000000000E+00  0.00000000000E+00  0.11808523800E+04  0.11808523800E+04  0.00000000000E+00 0. -1.
          1   -1    0    0  502    0  0.00000000000E+00 -0.00000000000E+00 -0.11831134779E+04  0.11831134779E+04  0.00000000000E+00 0.  1.
    9000010    2    1    2  502    0  0.44989932804E+03  0.21117948921E+03 -0.39626828838E+03  0.11799591189E+04  0.99411708757E+03 0.  0.
   -9000010    2    1    2    0  501 -0.44989932804E+03 -0.21117948921E+03  0.39400719048E+03  0.11840067391E+04  0.99981203737E+03 0.  0.
        -13    1    3    3    0    0 -0.24533950126E+03  0.23581599372E+03  0.63381836436E+02  0.34614725498E+03  0.10566000000E+00 0.  1.
         13    1    4    4    0    0 -0.52325249511E+03 -0.33948789880E+03  0.64213317387E+03  0.89519843119E+03  0.10566000000E+00 0. -1.
          4    1    3    3  502    0  0.69523882930E+03 -0.24636504507E+02 -0.45965012482E+03  0.83381186389E+03  0.00000000000E+00 0.  1.
         -4    1    4    4    0  501  0.73353167069E+02  0.12830840959E+03 -0.24812598338E+03  0.28880830791E+03  0.00000000000E+00 0. -1.
</event>
<event>
 8    1  0.7096247E-006  0.1305744E+04  0.7818608E-02  0.8530923E-01
         -2   -1    0    0    0  501 -0.00000000000E+00  0.00000000000E+00  0.34760831317E+04  0.34760831317E+04  0.00000000000E+00 0. -1.
          2   -1    0    0  502    0  0.00000000000E+00 -0.00000000000E+00 -0.64941692998E+03  0.64941692998E+03  0.00000000000E+00 0.  1.
    9000010    2    1    2  502    0  0.19508417938E+02 -0.78169440829E+03  0.39382021208E+03  0.13649319663E+04  0.10471476433E+04 0.  0.
   -9000010    2    1    2    0  501 -0.19508417938E+02  0.78169440829E+03  0.24328459896E+04  0.27605680953E+04  0.10443035351E+04 0.  0.
        -13    1    3    3    0    0  0.20522856728E+03 -0.57224682069E+03  0.71524360971E+03  0.93870049590E+03  0.10566000000E+00 0.  1.
         13    1    4    4    0    0 -0.44868038229E+03  0.48847588955E+03  0.19160367442E+04  0.20275896026E+04  0.10566000000E+00 0. -1.
          4    1    3    3  502    0 -0.18572014934E+03 -0.20944758760E+03 -0.32142339763E+03  0.42623147041E+03  0.00000000000E+00 0.  1.
         -4    1    4    4    0  501  0.42917196436E+03  0.29321851873E+03  0.51680924539E+03  0.73297849275E+03  0.00000000000E+00 0. -1.
</event>
<event>
 8    1  0.7096247E-006  0.2015828E+04  0.7818608E-02  0.8161978E-01
         -1   -1    0    0    0  501 -0.00000000000E+00  0.00000000000E+00  0.25428291442E+04  0.25428291442E+04  0.00000000000E+00 0.  1.
          1   -1    0    0  502    0  0.00000000000E+00 -0.00000000000E+00 -0.17314551178E+04  0.17314551178E+04  0.00000000000E+00 0. -1.
    9000010    2    1    2  502    0  0.14455636908E+04 -0.97715111785E+03  0.99983264254E+03  0.22547439842E+04  0.10196697651E+04 0.  0.
   -9000010    2    1    2    0  501 -0.14455636908E+04  0.97715111785E+03 -0.18845861611E+03  0.20195402778E+04  0.99927353226E+03 0.  0.
        -13    1    3    3    0    0  0.96702852392E+02  0.83051342987E+02 -0.14433586039E+03  0.19256640151E+03  0.10566000000E+00 0.  1.
         13    1    4    4    0    0 -0.21714057672E+03  0.68929303063E+03  0.87652092339E+02  0.72798201392E+03  0.10566000000E+00 0. -1.
          4    1    3    3  502    0  0.13488608384E+04 -0.10602024608E+04  0.11441685029E+04  0.20621775827E+04  0.00000000000E+00 0.  1.
         -4    1    4    4    0  501 -0.12284231141E+04  0.28785808722E+03 -0.27611070845E+03  0.12915582639E+04  0.00000000000E+00 0. -1.
</event>
<event>
 8    1  0.7096247E-006  0.1337899E+04  0.7818608E-02  0.8509378E-01
          1   -1    0    0  502    0  0.00000000000E+00  0.00000000000E+00  0.31891923772E+04  0.31891923772E+04  0.00000000000E+00 0. -1.
         -1   -1    0    0    0  501 -0.00000000000E+00 -0.00000000000E+00 -0.83781682497E+03  0.83781682497E+03  0.00000000000E+00 0.  1.
    9000010    2    1    2  502    0  0.77517695795E+03 -0.44792956406E+03  0.11834542068E+02  0.13258527823E+04  0.97785752205E+03 0.  0.
   -9000010    2    1    2    0  501 -0.77517695795E+03  0.44792956406E+03  0.23395410101E+04  0.27011564198E+04  0.10105709554E+04 0.  0.
        -13    1    3    3    0    0  0.30178246148E+03 -0.46228220337E+03 -0.41313085128E+03  0.68953216100E+03  0.10566000000E+00 0.  1.
         13    1    4    4    0    0 -0.93899915712E+03  0.16021760646E+03  0.13102045042E+04  0.16198842404E+04  0.10566000000E+00 0. -1.
          4    1    3    3  502    0  0.47339449647E+03  0.14352639308E+02  0.42496539334E+03  0.63632062129E+03  0.00000000000E+00 0.  1.
         -4    1    4    4    0  501  0.16382219917E+03  0.28771195760E+03  0.10293365060E+04  0.10812721794E+04  0.00000000000E+00 0. -1.
</event>
<event>
 8    1  0.7096247E-006  0.1121221E+04  0.7818608E-02  0.8668370E-01
          2   -1    0    0  502    0  0.00000000000E+00  0.00000000000E+00  0.10564992976E+04  0.10564992976E+04  0.00000000000E+00 0.  1.
         -2   -1    0    0    0  501 -0.00000000000E+00 -0.00000000000E+00 -0.12179525324E+04  0.12179525324E+04  0.00000000000E+00 0. -1.
    9000010    2    1    2  502    0 -0.41170666273E+03  0.17283053854E+03  0.90050894658E+02  0.11402802817E+04  0.10453502696E+04 0.  0.
   -9000010    2    1    2    0  501  0.41170666273E+03 -0.17283053854E+03 -0.25150412944E+03  0.11341715483E+04  0.10117895051E+04 0.  0.
        -13    1    3    3    0    0 -0.72416273201E+03  0.15129837160E+03 -0.13837941443E+03  0.75262987795E+03  0.10566000000E+00 0.  1.
         13    1    4    4    0    0 -0.24618386425E+03  0.83061239137E+02 -0.33433846587E+03  0.42342400190E+03  0.10566000000E+00 0. -1.
          4    1    3    3  502    0  0.31245606927E+03  0.21532166942E+02  0.22843030908E+03  0.38765040377E+03  0.00000000000E+00 0.  1.
         -4    1    4    4    0  501  0.65789052699E+03 -0.25589177768E+03  0.82834336424E+02  0.71074754637E+03  0.00000000000E+00 0. -1.
</event>
<event>
 8    1  0.7096247E-006  0.1235598E+04  0.7818608E-02  0.8580227E-01
         -2   -1    0    0    0  501 -0.00000000000E+00  0.00000000000E+00  0.21714380229E+04  0.21714380229E+04  0.00000000000E+00 0.  1.
          2   -1    0    0  502    0  0.00000000000E+00 -0.00000000000E+00 -0.70327053625E+03  0.70327053625E+03  0.00000000000E+00 0. -1.
    9000010    2    1    2  502    0 -0.27937917465E+03 -0.65501696694E+03  0.75619352090E+03  0.14469287693E+04  0.10073104151E+04 0.  0.
   -9000010    2    1    2    0  501  0.27937917465E+03  0.65501696694E+03  0.71197396576E+03  0.14277797898E+04  0.10121997086E+04 0.  0.
        -13    1    3    3    0    0  0.79630504663E+02 -0.71077641661E+03  0.80896725281E+03  0.10798019073E+04  0.10566000000E+00 0.  1.
         13    1    4    4    0    0 -0.25428136986E+03 -0.11641440254E+03  0.61677148242E+02  0.28638332695E+03  0.10566000000E+00 0. -1.
          4    1    3    3  502    0 -0.35900967931E+03  0.55759449664E+02 -0.52773731910E+02  0.36712686206E+03  0.00000000000E+00 0.  1.
         -4    1    4    4    0  501  0.53366054451E+03  0.77143136948E+03  0.65029681752E+03  0.11413964629E+04  0.00000000000E+00 0. -1.
</event>
<event>
 8    1  0.7096247E-006  0.1025925E+04  0.7818608E-02  0.8750608E-01
          2   -1    0    0  502    0  0.00000000000E+00  0.00000000000E+00  0.25405358641E+04  0.25405358641E+04  0.00000000000E+00 0.  1.
         -2   -1    0    0    0  501 -0.00000000000E+00 -0.00000000000E+00 -0.42156042535E+03  0.42156042535E+03  0.00000000000E+00 0. -1.
    9000010    2    1    2  502    0 -0.21007979715E+03  0.19285373607E+03  0.88462482512E+03  0.13682034031E+04  0.10040385383E+04 0.  0.
   -9000010    2    1    2    0  501  0.21007979715E+03 -0.19285373607E+03  0.12343506137E+04  0.15938928864E+04  0.96723679164E+03 0.  0.
        -13    1    3    3    0    0 -0.56038150572E+03  0.31428822552E+03  0.71261540278E+03  0.95949218032E+03  0.10566000000E+00 0.  1.
         13    1    4    4    0    0  0.48476216806E+03  0.20175846570E+03  0.70054910509E+03  0.87548266566E+03  0.10566000000E+00 0. -1.
          4    1    3    3  502    0  0.35030170857E+03 -0.12143448944E+03  0.17200942234E+03  0.40871122278E+03  0.00000000000E+00 0.  1.
         -4    1    4    4    0  501 -0.27468237091E+03 -0.39461220177E+03  0.53380150856E+03  0.71841022071E+03  0.00000000000E+00 0. -1.
</event>
<event>
 8    1  0.7096247E-006  0.1635196E+04  0.7818608E-02  0.8335677E-01
         -2   -1    0    0    0  501 -0.00000000000E+00  0.00000000000E+00  0.95796285462E+03  0.95796285462E+03  0.00000000000E+00 0. -1.
          2   -1    0    0  502    0  0.00000000000E+00 -0.00000000000E+00 -0.30957058926E+04  0.30957058926E+04  0.00000000000E+00 0.  1.
    9000010    2    1    2  502    0 -0.79819672531E+03 -0.10116001989E+04 -0.16991524977E+04  0.23519679150E+04  0.99205891365E+03 0.  0.
   -9000010    2    1    2    0  501  0.79819672531E+03  0.10116001989E+04 -0.43859054021E+03  0.17017008321E+04  0.10212595583E+04 0.  0.
        -13    1    3    3    0    0 -0.10134391337E+04 -0.80836601054E+03 -0.15494928253E+04  0.20202580309E+04  0.10566000000E+00 0.  1.
         13    1    4    4    0    0 -0.21174696144E+03  0.52836518221E+02 -0.18530360172E+03  0.28629689015E+03  0.10566000000E+00 0. -1.
          4    1    3    3  502    0  0.21524240835E+03 -0.20323418836E+03 -0.14965967237E+03  0.33170988410E+03  0.00000000000E+00 0.  1.
         -4    1    4    4    0  501  0.10099436867E+04  0.95876368068E+03 -0.25328693849E+03  0.14154039420E+04  0.00000000000E+00 0. -1.
</event>
<event>
 8    1  0.7096247E-006  0.2138979E+04  0.7818608E-02  0.8114040E-01
          2   -1    0    0  502    0  0.00000000000E+00  0.00000000000E+00  0.40284837140E+04  0.40284837140E+04  0.00000000000E+00 0.  1.
         -2   -1    0    0    0  501 -0.00000000000E+00 -0.00000000000E+00 -0.11461814726E+04  0.11461814726E+04  0.00000000000E+00 0. -1.
    9000010    2    1    2  502    0 -0.14251442580E+04  0.12365580727E+04  0.16854837953E+04  0.27199644115E+04  0.99861842163E+03 0.  0.
   -9000010    2    1    2    0  501  0.14251442580E+04 -0.12365580727E+04  0.11968184461E+04  0.24547007751E+04  0.10164002553E+04 0.  0.
        -13    1    3    3    0    0 -0.59685598532E+03 -0.20195931573E+01  0.23780997032E+03  0.64249104205E+03  0.10566000000E+00 0.  1.
         13    1    4    4    0    0  0.15863128561E+04 -0.11363989760E+04  0.11204403708E+04  0.22501506051E+04  0.10566000000E+00 0. -1.
          4    1    3    3  502    0 -0.82828827272E+03  0.12385776658E+04  0.14476738250E+04  0.20774733694E+04  0.00000000000E+00 0.  1.
         -4    1    4    4    0  501 -0.16116859807E+03 -0.10015909669E+03  0.76378075351E+02  0.20455017000E+03  0.00000000000E+00 0. -1.
</event>
<event>
 8    1  0.7096247E-006  0.1832852E+04  0.7818608E-02  0.8240064E-01
          2   -1    0    0  502    0  0.00000000000E+00  0.00000000000E+00  0.91024875713E+03  0.91024875713E+03  0.00000000000E+00 0.  1.
         -2   -1    0    0    0  501 -0.00000000000E+00 -0.00000000000E+00 -0.40947948108E+04  0.40947948108E+04  0.00000000000E+00 0. -1.
    9000010    2    1    2  502    0 -0.10219526995E+04  0.11501390025E+04 -0.23882588529E+04  0.30182513256E+04  0.10192417139E+04 0.  0.
   -9000010    2    1    2    0  501  0.10219526995E+04 -0.11501390025E+04 -0.79628720083E+03  0.19867922423E+04  0.97265773164E+03 0.  0.
        -13    1    3    3    0    0 -0.70984986264E+03  0.69389529157E+02 -0.10604883709E+04  0.12780208645E+04  0.10566000000E+00 0.  1.
         13    1    4    4    0    0  0.56166715651E+03 -0.47175489195E+03  0.13528026258E+03  0.74587092274E+03  0.10566000000E+00 0. -1.
          4    1    3    3  502    0 -0.31210283683E+03  0.10807494733E+04 -0.13277704820E+04  0.17402304611E+04  0.00000000000E+00 0.  1.
         -4    1    4    4    0  501  0.46028554296E+03 -0.67838411055E+03 -0.93156746341E+03  0.12409213196E+04  0.00000000000E+00 0. -1.
</event>
<event>
 8    1  0.7096247E-006  0.1249347E+04  0.7818608E-02  0.8570301E-01
          1   -1    0    0  502    0  0.00000000000E+00  0.00000000000E+00  0.18130967741E+04  0.18130967741E+04  0.00000000000E+00 0. -1.
         -1   -1    0    0    0  501 -0.00000000000E+00 -0.00000000000E+00 -0.89870928654E+03  0.89870928654E+03  0.00000000000E+00 0.  1.
    9000010    2    1    2  502    0 -0.64059301656E+03 -0.41704473841E+03  0.73615299092E+03  0.14520759546E+04  0.99111937992E+03 0.  0.
   -9000010    2    1    2    0  501  0.64059301656E+03  0.41704473841E+03  0.17823449663E+03  0.12597301060E+04  0.98532567078E+03 0.  0.
        -13    1    3    3    0    0 -0.57445552581E+03  0.21549641361E+03  0.40357619646E+03  0.73437838538E+03  0.10566000000E+00 0.  1.
         13    1    4    4    0    0  0.89052457921E+03  0.40722381298E+03  0.22630819720E+03  0.10050276968E+04  0.10566000000E+00 0. -1.
          4    1    3    3  502    0 -0.66137490759E+02 -0.63254115202E+03  0.33257679446E+03  0.71769756924E+03  0.00000000000E+00 0.  1.
         -4    1    4    4    0  501 -0.24993156264E+03  0.98209254380E+01 -0.48073700560E+02  0.25470240923E+03  0.00000000000E+00 0. -1.
</event>
<event>
 8    1  0.7096247E-006  0.1803743E+04  0.7818608E-02  0.8253345E-01
          2   -1    0    0  502    0  0.00000000000E+00  0.00000000000E+00  0.23266710002E+04  0.23266710002E+04  0.00000000000E+00 0.  1.
         -2   -1    0    0    0  501 -0.00000000000E+00 -0.00000000000E+00 -0.14006790751E+04  0.14006790751E+04  0.00000000000E+00 0. -1.
    9000010    2    1    2  502    0  0.11800404518E+04 -0.89837789049E+03  0.53438184024E+03  0.18684751014E+04  0.10030239038E+04 0.  0.
   -9000010    2    1    2    0  501 -0.11800404518E+04  0.89837789049E+03  0.39161008490E+03  0.18588749739E+04  0.10499901942E+04 0.  0.
        -13    1    3    3    0    0  0.13101318488E+03 -0.50606158779E+03 -0.16486615890E+03  0.54812740012E+03  0.10566000000E+00 0.  1.
         13    1    4    4    0    0 -0.34750547638E+03  0.47020597257E+03 -0.33494971310E+03  0.67382863862E+03  0.10566000000E+00 0. -1.
          4    1    3    3  502    0  0.10490272669E+04 -0.39231630270E+03  0.69924799913E+03  0.13203477013E+04  0.00000000000E+00 0.  1.
         -4    1    4    4    0  501 -0.83253497542E+03  0.42817191792E+03  0.72655979799E+03  0.11850463352E+04  0.00000000000E+00 0. -1.
</event>
<event>
 8    1  0.7096247E-006  0.1179346E+04  0.7818608E-02  0.8622280E-01
          2   -1    0    0  502    0  0.00000000000E+00  0.00000000000E+00  0.42890101958E+04  0.42890101958E+04  0.00000000000E+00 0. -1.
         -2   -1    0    0    0  501 -0.00000000000E+00 -0.00000000000E+00 -0.35186670056E+03  0.35186670056E+03  0.00000000000E+00 0.  1.
    9000010    2    1    2  502    0 -0.28640294749E+03  0.61846982539E+03  0.13164689996E+04  0.17664168263E+04  0.96052392170E+03 0.  0.
   -9000010    2    1    2    0  501  0.28640294749E+03 -0.61846982539E+03  0.26206744956E+04  0.28744600700E+04  0.96439323354E+03 0.  0.
        -13    1    3    3    0    0 -0.17224889976E+03 -0.20813564165E+03  0.93498375079E+02  0.28588824058E+03  0.10566000000E+00 0.  1.
         13    1    4    4    0    0 -0.22076590765E+03  0.40933533377E+02  0.15659024490E+03  0.27374012512E+03  0.10566000000E+00 0. -1.
          4    1    3    3  502    0 -0.11415404774E+03  0.82660546705E+03  0.12229706245E+04  0.14805285857E+04  0.00000000000E+00 0.  1.
         -4    1    4    4    0  501  0.50716885515E+03 -0.65940335877E+03  0.24640842507E+04  0.26007199449E+04  0.00000000000E+00 0. -1.
</event>
<event>
 8    1  0.7096247E-006  0.1491985E+04  0.7818608E-02  0.8414127E-01
         -1   -1    0    0    0  501 -0.00000000000E+00  0.00000000000E+00  0.82851212104E+03  0.82851212104E+03  0.00000000000E+00 0. -1.
          1   -1    0    0  502    0  0.00000000000E+00 -0.00000000000E+00 -0.33082032844E+04  0.33082032844E+04  0.00000000000E+00 0.  1.
    9000010    2    1    2  502    0  0.30464283745E+03 -0.10890165916E+04 -0.21223281150E+04  0.25828608684E+04  0.94240609220E+03 0.  0.
   -9000010    2    1    2    0  501 -0.30464283745E+03  0.10890165916E+04 -0.35736304831E+03  0.15538545370E+04  0.10039876387E+04 0.  0.
        -13    1    3    3    0    0  0.77713350294E+02 -0.63469953780E+03 -0.19410072825E+04  0.20436223110E+04  0.10566000000E+00 0.  1.
         13    1    4    4    0    0  0.25216255995E+01  0.11191033679E+03 -0.50657364455E+03  0.51879393847E+03  0.10566000000E+00 0. -1.
          4    1    3    3  502    0  0.22692948716E+03 -0.45431705382E+03 -0.18132083255E+03  0.53923855746E+03  0.00000000000E+00 0.  1.
         -4    1    4    4    0  501 -0.30716446305E+03  0.97710625483E+03  0.14921059624E+03  0.10350605985E+04  0.00000000000E+00 0. -1.
</event>
<event>
 8    1  0.7096247E-006  0.1056401E+04  0.7818608E-02  0.8723330E-01
          2   -1    0    0  502    0  0.00000000000E+00  0.00000000000E+00  0.83573500032E+03  0.83573500032E+03  0.00000000000E+00 0. -1.
         -2   -1    0    0    0  501 -0.00000000000E+00 -0.00000000000E+00 -0.14726793082E+04  0.14726793082E+04  0.00000000000E+00 0.  1.
    9000010    2    1    2  502    0 -0.33267399941E+03 -0.12867003677E+03  0.35436919205E+02  0.10516261886E+04  0.98865256643E+03 0.  0.
   -9000010    2    1    2    0  501  0.33267399941E+03  0.12867003677E+03 -0.67238122706E+03  0.12567881199E+04  0.10000959432E+04 0.  0.
        -13    1    3    3    0    0 -0.57445119585E+03 -0.77751303597E+02  0.33009473891E+03  0.66708469435E+03  0.10566000000E+00 0.  1.
         13    1    4    4    0    0  0.40426756038E+03  0.37473528251E+03 -0.15239015673E+02  0.55144449503E+03  0.10566000000E+00 0. -1.
          4    1    3    3  502    0  0.24177719643E+03 -0.50918733172E+02 -0.29465781970E+03  0.38454149427E+03  0.00000000000E+00 0.  1.
         -4    1    4    4    0  501 -0.71593560968E+02 -0.24606524574E+03 -0.65714221139E+03  0.70534362485E+03  0.00000000000E+00 0. -1.
</event>
<event>
 8    1  0.7096247E-006  0.1324661E+04  0.7818608E-02  0.8518171E-01
         -1   -1    0    0    0  501 -0.00000000000E+00  0.00000000000E+00  0.49704751886E+03  0.49704751886E+03  0.00000000000E+00 0.  1.
          1   -1    0    0  502    0  0.00000000000E+00 -0.00000000000E+00 -0.35575904398E+04  0.35575904398E+04  0.00000000000E+00 0. -1.
    9000010    2    1    2  502    0 -0.80140557827E+03 -0.32680815436E+03 -0.16992167759E+04  0.21501316477E+04  0.99331464309E+03 0.  0.
   -9000010    2    1    2    0  501  0.80140557827E+03  0.32680815436E+03 -0.13613261451E+04  0.19045063110E+04  0.10123640377E+04 0.  0.
        -13    1    3    3    0    0  0.20943367442E+03 -0.14554438868E+03 -0.16442604004E+03  0.30344944697E+03  0.10566000000E+00 0.  1.
         13    1    4    4    0    0  0.96716688960E+03  0.77600967409E+02 -0.75885164303E+03  0.12317830693E+04  0.10566000000E+00 0. -1.
          4    1    3    3  502    0 -0.10108392527E+04 -0.18126376567E+03 -0.15347907359E+04  0.18466822007E+04  0.00000000000E+00 0.  1.
         -4    1    4    4    0  501 -0.16576131134E+03  0.24920718695E+03 -0.60247450202E+03  0.67272324172E+03  0.00000000000E+00 0. -1.
</event>
<event>
 8    1  0.7096247E-006  0.1371374E+04  0.7818608E-02  0.8487601E-01
          4   -1    0    0  502    0  0.00000000000E+00  0.00000000000E+00  0.23900364565E+04  0.23900364565E+04  0.00000000000E+00 0.  1.
         -4   -1    0    0    0  501 -0.00000000000E+00 -0.00000000000E+00 -0.96001856943E+03  0.96001856943E+03  0.00000000000E+00 0. -1.
    9000010    2    1    2  502    0  0.68817602509E+03 -0.63304919091E+03  0.14255421978E+04  0.19767779074E+04  0.10005712458E+04 0.  0.
   -9000010    2    1    2    0  501 -0.68817602509E+03  0.63304919091E+03  0.44756892459E+01  0.13732771185E+04  0.10057497167E+04 0.  0.
        -13    1    3    3    0    0 -0.36546944954E+01 -0.66428123639E+03  0.83223631324E+03  0.10648475055E+04  0.10566000000E+00 0.  1.
         13    1    4    4    0    0 -0.40133546322E+02  0.20486194694E+03  0.43695814939E+03  0.48426393044E+03  0.10566000000E+00 0. -1.
          4    1    3    3  502    0  0.69183071958E+03  0.31232045478E+02  0.59330588455E+03  0.91193040188E+03  0.00000000000E+00 0.  1.
         -4    1    4    4    0  501 -0.64804247877E+03  0.42818724397E+03 -0.43248246014E+03  0.88901318804E+03  0.00000000000E+00 0. -1.
</event>
<event>
 8    1  0.7096247E-006  0.1134666E+04  0.7818608E-02  0.8657454E-01
          1   -1    0    0  502    0  0.00000000000E+00  0.00000000000E+00  0.10281077501E+04  0.10281077501E+04  0.00000000000E+00 0.  1.
         -1   -1    0    0    0  501 -0.00000000000E+00 -0.00000000000E+00 -0.14759496378E+04  0.14759496378E+04  0.00000000000E+00 0. -1.
    9000010    2    1    2  502    0 -0.22754694231E+03  0.46544836226E+03  0.26325828012E+03  0.11661273790E+04  0.10110036366E+04 0.  0.
   -9000010    2    1    2    0  501  0.22754694231E+03 -0.46544836226E+03 -0.71110016782E+03  0.13379300089E+04  0.10079550939E+04 0.  0.
        -13    1    3    3    0    0  0.34316725503E+01 -0.19760322336E+03  0.40425511282E+03  0.44997890803E+03  0.10566000000E+00 0.  1.
         13    1    4    4    0    0 -0.39482872382E+03 -0.16958770593E+03 -0.37898131254E+03  0.57295423689E+03  0.10566000000E+00 0. -1.
          4    1    3    3  502    0 -0.23097861486E+03  0.66305158562E+03 -0.14099683270E+03  0.71614847102E+03  0.00000000000E+00 0.  1.
         -4    1    4    4    0  501  0.62237566613E+03 -0.29586065633E+03 -0.33211885528E+03  0.76497577203E+03  0.00000000000E+00 0. -1.
</event>
<event>
 8    1  0.7096247E-006  0.1442392E+04  0.7818608E-02  0.8443444E-01
         -2   -1    0    0    0  501 -0.00000000000E+00  0.00000000000E+00  0.17085583083E+04  0.17085583083E+04  0.00000000000E+00 0.  1.
          2   -1    0    0  502    0  0.00000000000E+00 -0.00000000000E+00 -0.12178343607E+04  0.12178343607E+04  0.00000000000E+00 0. -1.
    9000010    2    1    2  502    0  0.95895438509E+03 -0.39637624075E+03  0.23035686174E+03  0.14527451892E+04  0.99030129962E+03 0.  0.
   -9000010    2    1    2    0  501 -0.95895438509E+03  0.39637624075E+03  0.26036708586E+03  0.14736474798E+04  0.10134782871E+04 0.  0.
        -13    1    3    3    0    0  0.29852764601E+03 -0.10235076725E+03  0.57190667581E+03  0.65320111144E+03  0.10566000000E+00 0.  1.
         13    1    4    4    0    0 -0.12278433986E+03  0.38608107463E+03 -0.26682109513E+03  0.48510627523E+03  0.10566000000E+00 0. -1.
          4    1    3    3  502    0  0.66042673908E+03 -0.29402547350E+03 -0.34154981407E+03  0.79954407773E+03  0.00000000000E+00 0.  1.
         -4    1    4    4    0  501 -0.83617004523E+03  0.10295166120E+02  0.52718818100E+03  0.98854120459E+03  0.00000000000E+00 0. -1.
</event>
<event>
 8    1  0.7096247E-006  0.2543075E+04  0.7818608E-02  0.7977376E-01
         -4   -1    0    0    0  501 -0.00000000000E+00  0.00000000000E+00  0.25147812994E+04  0.25147812994E+04  0.00000000000E+00 0.  1.
          4   -1    0    0  502    0  0.00000000000E+00 -0.00000000000E+00 -0.34710145826E+04  0.34710145826E+04  0.00000000000E+00 0. -1.
    9000010    2    1    2  502    0  0.19216671958E+04  0.13253801715E+04  0.10452519539E+04  0.27499133173E+04  0.10099674229E+04 0.  0.
   -9000010    2    1    2    0  501 -0.19216671958E+04 -0.13253801715E+04 -0.20014852371E+04  0.32358825647E+04  0.10077476907E+04 0.  0.
        -13    1    3    3    0    0  0.14802732632E+04  0.13496229977E+04  0.53215483539E+03  0.20726504648E+04  0.10566000000E+00 0.  1.
         13    1    4    4    0    0 -0.19976558259E+04 -0.10547837798E+04 -0.17329766461E+04  0.28471750364E+04  0.10566000000E+00 0. -1.
          4    1    3    3  502    0  0.44139393263E+03 -0.24242826118E+02  0.51309711848E+03  0.67726285249E+03  0.00000000000E+00 0.  1.
         -4    1    4    4    0  501  0.75988630141E+02 -0.27059639173E+03 -0.26850859097E+03  0.38870752829E+03  0.00000000000E+00 0. -1.
</event>
<event>
 8    1  0.7096247E-006  0.1703710E+04  0.7818608E-02  0.8301029E-01
         -2   -1    0    0    0  501 -0.00000000000E+00  0.00000000000E+00  0.81404268503E+03  0.81404268503E+03  0.00000000000E+00 0. -1.
          2   -1    0    0  502    0  0.00000000000E+00 -0.00000000000E+00 -0.37292056247E+04  0.37292056247E+04  0.00000000000E+00 0.  1.
    9000010    2    1    2  502    0 -0.13695029851E+04 -0.11167806360E+03 -0.19292942538E+04  0.25707102721E+04  0.99918194997E+03 0.  0.
   -9000010    2    1    2    0  501  0.13695029851E+04  0.11167806360E+03 -0.98586868584E+03  0.19725380376E+04  0.10153614273E+04 0.  0.
        -13    1    3    3    0    0 -0.60355592428E+03 -0.87552417363E+01 -0.13711084704E+03  0.61899580251E+03  0.10566000000E+00 0.  1.
         13    1    4    4    0    0  0.77365506010E+03  0.46707770999E+03 -0.89660554242E+03  0.12730299482E+04  0.10566000000E+00 0. -1.
          4    1    3    3  502    0 -0.76594706082E+03 -0.10292282186E+03 -0.17921834068E+04  0.19517144696E+04  0.00000000000E+00 0.  1.
         -4    1    4    4    0  501  0.59584792500E+03 -0.35539964639E+03 -0.89263143420E+02  0.69950808942E+03  0.00000000000E+00 0. -1.
</event>
<event>
 8    1  0.7096247E-006  0.1282958E+04  0.7818608E-02  0.8546581E-01
         -2   -1    0    0    0  501 -0.00000000000E+00  0.00000000000E+00  0.70071423069E+03  0.70071423069E+03  0.00000000000E+00 0.  1.
          2   -1    0    0  502    0  0.00000000000E+00 -0.00000000000E+00 -0.26603553161E+04  0.26603553161E+04  0.00000000000E+00 0. -1.
    9000010    2    1    2  502    0 -0.57414628675E+03 -0.50758457463E+03 -0.15898755507E+04  0.20819999785E+04  0.11044154948E+04 0.  0.
   -9000010    2    1    2    0  501  0.57414628675E+03  0.50758457463E+03 -0.36976553477E+03  0.12790695683E+04  0.95499023594E+03 0.  0.
        -13    1    3    3    0    0  0.22330619853E+02 -0.63270564819E+03 -0.41072696814E+03  0.75466002104E+03  0.10566000000E+00 0.  1.
         13    1    4    4    0    0 -0.18751697460E+03  0.31796174079E+02  0.14930302435E+03  0.24179540254E+03  0.10566000000E+00 0. -1.
          4    1    3    3  502    0 -0.59647690660E+03  0.12512107356E+03 -0.11791485825E+04  0.13273399575E+04  0.00000000000E+00 0.  1.
         -4    1    4    4    0  501  0.76166326135E+03  0.47578840055E+03 -0.51906855912E+03  0.10372741657E+04  0.00000000000E+00 0. -1.
</event>
<event>
 8    1  0.7096247E-006  0.1211512E+04  0.7818608E-02  0.8597944E-01
          4   -1    0    0  502    0  0.00000000000E+00  0.00000000000E+00  0.24675690591E+04  0.24675690591E+04  0.00000000000E+00 0.  1.
         -4   -1    0    0    0  501 -0.00000000000E+00 -0.00000000000E+00 -0.66834847020E+03  0.66834847020E+03  0.00000000000E+00 0. -1.
    9000010    2    1    2  502    0  0.52416911083E+03  0.37724040723E+03  0.14390451462E+04  0.19019753977E+04  0.10628244912E+04 0.  0.
   -9000010    2    1    2    0  501 -0.52416911083E+03 -0.37724040723E+03  0.36017544261E+03  0.12339421315E+04  0.98783766527E+03 0.  0.
        -13    1    3    3    0    0  0.60361515910E+03  0.67081478152E+03  0.85320414546E+03  0.12418941406E+04  0.10566000000E+00 0.  1.
         13    1    4    4    0    0 -0.23650096517E+03 -0.26370404773E+03 -0.32593117964E+03  0.48135608061E+03  0.10566000000E+00 0. -1.
          4    1    3    3  502    0 -0.79446048271E+02 -0.29357437430E+03  0.58584100078E+03  0.66008125714E+03  0.00000000000E+00 0.  1.
         -4    1    4    4    0  501 -0.28766814567E+03 -0.11353635949E+03  0.68610662225E+03  0.75258605093E+03  0.00000000000E+00 0. -1.
</event>
<event>
 8    1  0.7096247E-006  0.1172085E+04  0.7818608E-02  0.8627885E-01
          2   -1    0    0  502    0  0.00000000000E+00  0.00000000000E+00  0.41145647410E+04  0.41145647410E+04  0.00000000000E+00 0.  1.
         -2   -1    0    0    0  501 -0.00000000000E+00 -0.00000000000E+00 -0.33436112106E+03  0.33436112106E+03  0.00000000000E+00 0. -1.
    9000010    2    1    2  502    0  0.62510120829E+03  0.16808823105E+03  0.19440850180E+04  0.22621963102E+04  0.95867638690E+03 0.  0.
   -9000010    2    1    2    0  501 -0.62510120829E+03 -0.16808823105E+03  0.18361186019E+04  0.21867295518E+04  0.99571554089E+03 0.  0.
        -13    1    3    3    0    0  0.35644463021E+03  0.56128009485E+03  0.13113477000E+04  0.14702791982E+04  0.10566000000E+00 0.  1.
         13    1    4    4    0    0 -0.70134494441E+03  0.22983953422E+03  0.88142064254E+03  0.11496144148E+04  0.10566000000E+00 0. -1.
          4    1    3    3  502    0  0.26865657808E+03 -0.39319186380E+03  0.63273731806E+03  0.79191711205E+03  0.00000000000E+00 0.  1.
         -4    1    4    4    0  501  0.76243736121E+02 -0.39792776528E+03  0.95469795934E+03  0.10371151369E+04  0.00000000000E+00 0. -1.
</event>
<event>
 8    1  0.7096247E-006  0.1817340E+04  0.7818608E-02  0.8247109E-01
          2   -1    0    0  502    0  0.00000000000E+00  0.00000000000E+00  0.19763177399E+04  0.19763177399E+04  0.00000000000E+00 0.  1.
         -2   -1    0    0    0  501 -0.00000000000E+00 -0.00000000000E+00 -0.18470032391E+04  0.18470032391E+04  0.00000000000E+00 0. -1.
    9000010    2    1    2  502    0  0.59692746103E+03  0.13932408465E+04 -0.52507691597E+03  0.18951306886E+04  0.10091442460E+04 0.  0.
   -9000010    2    1    2    0  501 -0.59692746103E+03 -0.13932408465E+04  0.65439141676E+03  0.19281902905E+04  0.99611606747E+03 0.  0.
        -13    1    3    3    0    0  0.56838411471E+02  0.11960370939E+04 -0.55421376952E+03  0.13194272426E+04  0.10566000000E+00 0.  1.
         13    1    4    4    0    0  0.23359152716E+02 -0.50595672042E+03  0.67682171720E+03  0.84535525135E+03  0.10566000000E+00 0. -1.
          4    1    3    3  502    0  0.54008904956E+03  0.19720375253E+03  0.29136853544E+02  0.57570344597E+03  0.00000000000E+00 0.  1.
         -4    1    4    4    0  501 -0.62028661375E+03 -0.88728412606E+03 -0.22430300439E+02  0.10828350391E+04  0.00000000000E+00 0. -1.
</event>
<event>
 8    1  0.7096247E-006  0.1354774E+04  0.7818608E-02  0.8498320E-01
          1   -1    0    0  502    0  0.00000000000E+00  0.00000000000E+00  0.19388941120E+04  0.19388941120E+04  0.00000000000E+00 0. -1.
         -1   -1    0    0    0  501 -0.00000000000E+00 -0.00000000000E+00 -0.12105493792E+04  0.12105493792E+04  0.00000000000E+00 0.  1.
    9000010    2    1    2  502    0  0.39477170557E+03  0.81998790631E+03  0.11017590616E+04  0.17552395812E+04  0.10191997310E+04 0.  0.
   -9000010    2    1    2    0  501 -0.39477170557E+03 -0.81998790631E+03 -0.37341432878E+03  0.13942039099E+04  0.98799869208E+03 0.  0.
        -13    1    3    3    0    0  0.23270548878E+03  0.93804732965E+02  0.96708470676E+03  0.99910160326E+03  0.10566000000E+00 0.  1.
         13    1    4    4    0    0  0.71799625830E+02  0.19926872253E+03 -0.12532651324E+03  0.24610964250E+03  0.10566000000E+00 0. -1.
          4    1    3    3  502    0  0.16206621680E+03  0.72618317335E+03  0.13467435480E+03  0.75613797797E+03  0.00000000000E+00 0.  1.
         -4    1    4    4    0  501 -0.46657133140E+03 -0.10192566288E+04 -0.24808781554E+03  0.11480942674E+04  0.00000000000E+00 0. -1.
</event>
<event>
 8    1  0.7096247E-006  0.1166777E+04  0.7818608E-02  0.8632009E-01
         -2   -1    0    0    0  501 -0.00000000000E+00  0.00000000000E+00  0.11680890361E+04  0.11680890361E+04  0.00000000000E+00 0. -1.
          2   -1    0    0  502    0  0.00000000000E+00 -0.00000000000E+00 -0.21417523695E+04  0.21417523695E+04  0.00000000000E+00 0.  1.
    9000010    2    1    2  502    0  0.12197738331E+03 -0.65153297527E+03 -0.16112338770E+04  0.20103629132E+04  0.10030507147E+04 0.  0.
   -9000010    2    1    2    0  501 -0.12197738331E+03  0.65153297527E+03  0.63757054355E+03  0.12994784925E+04  0.91802748022E+03 0.  0.
        -13    1    3    3    0    0  0.30476092630E+03 -0.70283340015E+03 -0.57753458679E+03  0.95937491142E+03  0.10566000000E+00 0.  1.
         13    1    4    4    0    0 -0.23302561397E+02 -0.21243147838E+03 -0.12041023993E+02  0.21404471449E+03  0.10566000000E+00 0. -1.
          4    1    3    3  502    0 -0.18278354299E+03  0.51300424877E+02 -0.10336992902E+04  0.10509880017E+04  0.00000000000E+00 0.  1.
         -4    1    4    4    0  501 -0.98674821912E+02  0.86396445366E+03  0.64961156755E+03  0.10854337780E+04  0.00000000000E+00 0. -1.
</event>
<event>
 8    1  0.7096247E-006  0.1380973E+04  0.7818608E-02  0.8481475E-01
         -2   -1    0    0    0  501 -0.00000000000E+00  0.00000000000E+00  0.11862897824E+04  0.11862897824E+04  0.00000000000E+00 0. -1.
          2   -1    0    0  502    0  0.00000000000E+00 -0.00000000000E+00 -0.16717390698E+04  0.16717390698E+04  0.00000000000E+00 0.  1.
    9000010    2    1    2  502    0 -0.50171861474E+03  0.80528506592E+03  0.37482318988E+02  0.13795962893E+04  0.10008373452E+04 0.  0.
   -9000010    2    1    2    0  501  0.50171861474E+03 -0.80528506592E+03 -0.52293160641E+03  0.14784325629E+04  0.10060316955E+04 0.  0.
        -13    1    3    3    0    0 -0.59129777389E+03  0.58784875876E+03  0.41767492527E+03  0.93255111117E+03  0.10566000000E+00 0.  1.
         13    1    4    4    0    0 -0.28338368445E+03 -0.43338826172E+02 -0.14235687192E+03  0.32007820390E+03  0.10566000000E+00 0. -1.
          4    1    3    3  502    0  0.89579159143E+02  0.21743630716E+03 -0.38019260628E+03  0.44704517814E+03  0.00000000000E+00 0.  1.
         -4    1    4    4    0  501  0.78510229920E+03 -0.76194623974E+03 -0.38057473449E+03  0.11583543590E+04  0.00000000000E+00 0. -1.
</event>
<event>
 8    1  0.7096247E-006  0.1097478E+04  0.7818608E-02  0.8688041E-01
         -1   -1    0    0    0  501 -0.00000000000E+00  0.00000000000E+00  0.62166172480E+03  0.62166172480E+03  0.00000000000E+00 0. -1.
          1   -1    0    0  502    0  0.00000000000E+00 -0.00000000000E+00 -0.20063738230E+04  0.20063738230E+04  0.00000000000E+00 0.  1.
    9000010    2    1    2  502    0 -0.45785260037E+03  0.46064908393E+02 -0.45249939014E+03  0.11924867867E+04  0.10027552338E+04 0.  0.
   -9000010    2    1    2    0  501  0.45785260037E+03 -0.46064908393E+02 -0.93221270810E+03  0.14355487611E+04  0.98996400587E+03 0.  0.
        -13    1    3    3    0    0 -0.28802719026E+03 -0.29981529450E+03  0.17905232035E+03  0.45266833082E+03  0.10566000000E+00 0.  1.
         13    1    4    4    0    0  0.21195259270E+03 -0.43809819696E+03 -0.82916917270E+03  0.96144446530E+03  0.10566000000E+00 0. -1.
          4    1    3    3  502    0 -0.16982541011E+03  0.34588020289E+03 -0.63155171049E+03  0.73981845590E+03  0.00000000000E+00 0.  1.
         -4    1    4    4    0  501  0.24590000766E+03  0.39203328857E+03 -0.10304353540E+03  0.47410429581E+03  0.00000000000E+00 0. -1.
</event>
<event>
 8    1  0.7096247E-006  0.1183015E+04  0.7818608E-02  0.8619463E-01
         -2   -1    0    0    0  501 -0.00000000000E+00  0.00000000000E+00  0.12305929546E+04  0.12305929546E+04  0.00000000000E+00 0.  1.
          2   -1    0    0  502    0  0.00000000000E+00 -0.00000000000E+00 -0.13601210553E+04  0.13601210553E+04  0.00000000000E+00 0. -1.
    9000010    2    1    2  502    0 -0.25684523216E+03  0.58354885531E+03  0.45946699847E+03  0.12709595928E+04  0.99886416691E+03 0.  0.
   -9000010    2    1    2    0  501  0.25684523216E+03 -0.58354885531E+03 -0.58899509917E+03  0.13197544172E+04  0.99415177667E+03 0.  0.
        -13    1    3    3    0    0 -0.45694951586E+03  0.33779391686E+03  0.67901700535E+03  0.88542176110E+03  0.10566000000E+00 0.  1.
         13    1    4    4    0    0  0.56894310715E+03 -0.17916174855E+03 -0.85631368280E+02  0.60260097388E+03  0.10566000000E+00 0. -1.
          4    1    3    3  502    0  0.20010428370E+03  0.24575493845E+03 -0.21955000688E+03  0.38553783167E+03  0.00000000000E+00 0.  1.
         -4    1    4    4    0  501 -0.31209787499E+03 -0.40438710676E+03 -0.50336373089E+03  0.71715344332E+03  0.00000000000E+00 0. -1.
</event>
<event>
 8    1  0.7096247E-006  0.1016700E+04  0.7818608E-02  0.8759057E-01
         -2   -1    0    0    0  501 -0.00000000000E+00  0.00000000000E+00  0.87425714498E+03  0.87425714498E+03  0.00000000000E+00 0. -1.
          2   -1    0    0  502    0  0.00000000000E+00 -0.00000000000E+00 -0.14459506335E+04  0.14459506335E+04  0.00000000000E+00 0.  1.
    9000010    2    1    2  502    0 -0.22351016167E+03  0.56815680734E+02  0.21047874285E+03  0.10339140027E+04  0.98564296268E+03 0.  0.
   -9000010    2    1    2    0  501  0.22351016167E+03 -0.56815680734E+02 -0.78217223137E+03  0.12862937758E+04  0.99477307166E+03 0.  0.
        -13    1    3    3    0    0 -0.40738814304E+03 -0.33215107470E+03  0.28398215717E+03  0.59744063493E+03  0.10566000000E+00 0.  1.
         13    1    4    4    0    0  0.59443951411E+02 -0.49252353004E+03 -0.18589040118E+03  0.52978133548E+03  0.10566000000E+00 0. -1.
          4    1    3    3  502    0  0.18387798137E+03  0.38896675544E+03 -0.73503414319E+02  0.43647336778E+03  0.00000000000E+00 0.  1.
         -4    1    4    4    0  501  0.16406621026E+03  0.43570784931E+03 -0.59628183019E+03  0.75651244029E+03  0.00000000000E+00 0. -1.
</event>
<event>
 8    1  0.7096247E-006  0.1531537E+04  0.7818608E-02  0.8391577E-01
         -2   -1    0    0    0  501 -0.00000000000E+00  0.00000000000E+00  0.16181262651E+04  0.16181262651E+04  0.00000000000E+00 0.  1.
          2   -1    0    0  502    0  0.00000000000E+00 -0.00000000000E+00 -0.14751495701E+04  0.14751495701E+04  0.00000000000E+00 0. -1.
    9000010    2    1    2  502    0 -0.85130086993E+03  0.80899563108E+03 -0.13165489228E+03  0.15445652297E+04  0.99456605409E+03 0.  0.
   -9000010    2    1    2    0  501  0.85130086993E+03 -0.80899563108E+03  0.27463158734E+03  0.15487106055E+04  0.97154255102E+03 0.  0.
        -13    1    3    3    0    0  0.29248235038E+02  0.53331154233E+03  0.19076674805E+03  0.56715837626E+03  0.10566000000E+00 0.  1.
         13    1    4    4    0    0  0.61970163980E+02 -0.72446879996E+03  0.81150824340E+02  0.73162887504E+03  0.10566000000E+00 0. -1.
          4    1    3    3  502    0 -0.88054910497E+03  0.27568408876E+03 -0.32242164033E+03  0.97740685347E+03  0.00000000000E+00 0.  1.
         -4    1    4    4    0  501  0.78933070595E+03 -0.84526831121E+02  0.19348076300E+03  0.81708173042E+03  0.00000000000E+00 0. -1.
</event>
<event>
 8    1  0.7096247E-006  0.1601776E+04  0.7818608E-02  0.8353220E-01
         -4   -1    0    0    0  501 -0.00000000000E+00  0.00000000000E+00  0.20070144863E+04  0.20070144863E+04  0.00000000000E+00 0.  1.
          4   -1    0    0  502    0  0.00000000000E+00 -0.00000000000E+00 -0.12793122224E+04  0.12793122224E+04  0.00000000000E+00 0. -1.
    9000010    2    1    2  502    0  0.42354334069E+03 -0.11597029918E+04  0.32415487490E+03  0.16473127444E+04  0.10412794554E+04 0.  0.
   -9000010    2    1    2    0  501 -0.42354334069E+03  0.11597029918E+04  0.40354738902E+03  0.16390139643E+04  0.99960806789E+03 0.  0.
        -13    1    3    3    0    0 -0.47921187847E+02 -0.10628706175E+04  0.44148666712E+03  0.11519118362E+04  0.10566000000E+00 0.  1.
         13    1    4    4    0    0 -0.90142226470E+02  0.12302190222E+04  0.22351396535E+03  0.12536039915E+04  0.10566000000E+00 0. -1.
          4    1    3    3  502    0  0.47146452854E+03 -0.96832374265E+02 -0.11733179222E+03  0.49540090820E+03  0.00000000000E+00 0.  1.
         -4    1    4    4    0  501 -0.33340111422E+03 -0.70516030414E+02  0.18003342367E+03  0.38540997282E+03  0.00000000000E+00 0. -1.
</event>
<event>
 8    1  0.7096247E-006  0.1228523E+04  0.7818608E-02  0.8585388E-01
          2   -1    0    0  502    0  0.00000000000E+00  0.00000000000E+00  0.31489328108E+04  0.31489328108E+04  0.00000000000E+00 0. -1.
         -2   -1    0    0    0  501 -0.00000000000E+00 -0.00000000000E+00 -0.48329954185E+03  0.48329954185E+03  0.00000000000E+00 0.  1.
    9000010    2    1    2  502    0  0.72366618030E+03  0.71453636521E+01  0.15008933489E+04  0.19412297541E+04  0.99596602195E+03 0.  0.
   -9000010    2    1    2    0  501 -0.72366618030E+03 -0.71453636521E+01  0.11647399201E+04  0.16910025985E+04  0.98950841840E+03 0.  0.
        -13    1    3    3    0    0  0.27976815157E+03 -0.30027292106E+03  0.75899368472E+02  0.41736647093E+03  0.10566000000E+00 0.  1.
         13    1    4    4    0    0 -0.41183513412E+03  0.44655052835E+03  0.33069034876E+03  0.69164417874E+03  0.10566000000E+00 0. -1.
          4    1    3    3  502    0  0.44389802872E+03  0.30741828471E+03  0.14249939804E+04  0.15238632832E+04  0.00000000000E+00 0.  1.
         -4    1    4    4    0  501 -0.31183104618E+03 -0.45369589200E+03  0.83404957135E+03  0.99935841981E+03  0.00000000000E+00 0. -1.
</event>
<event>
 8    1  0.7096247E-006  0.1174496E+04  0.7818608E-02  0.8626019E-01
          2   -1    0    0  502    0  0.00000000000E+00  0.00000000000E+00  0.14179488061E+04  0.14179488061E+04  0.00000000000E+00 0.  1.
         -2   -1    0    0    0  501 -0.00000000000E+00 -0.00000000000E+00 -0.97928574571E+03  0.97928574571E+03  0.00000000000E+00 0. -1.
    9000010    2    1    2  502    0 -0.37425654988E+03 -0.50224908533E+03  0.31353712833E+03  0.12040525550E+04  0.97934412518E+03 0.  0.
   -9000010    2    1    2    0  501  0.37425654988E+03  0.50224908533E+03  0.12512593208E+03  0.11931819968E+04  0.10078217450E+04 0.  0.
        -13    1    3    3    0    0 -0.23204202005E+03 -0.56871100890E+03 -0.21649367825E+03  0.65126433543E+03  0.10566000000E+00 0.  1.
         13    1    4    4    0    0  0.53869941440E+02  0.13689217971E+03 -0.43055809117E+03  0.45499639614E+03  0.10566000000E+00 0. -1.
          4    1    3    3  502    0 -0.14221452983E+03  0.66461923576E+02  0.53003080658E+03  0.55278821958E+03  0.00000000000E+00 0.  1.
         -4    1    4    4    0  501  0.32038660844E+03  0.36535690561E+03  0.55568402325E+03  0.73818560067E+03  0.00000000000E+00 0. -1.
</event>
<event>
 8    1  0.7096247E-006  0.1068541E+04  0.7818608E-02  0.8712728E-01
          2   -1    0    0  502    0  0.00000000000E+00  0.00000000000E+00  0.22043791383E+04  0.22043791383E+04  0.00000000000E+00 0. -1.
         -2   -1    0    0    0  501 -0.00000000000E+00 -0.00000000000E+00 -0.51885447241E+03  0.51885447241E+03  0.00000000000E+00 0.  1.
    9000010    2    1    2  502    0  0.18171799911E+03  0.34918202826E+03  0.79311080844E+03  0.13368999441E+04  0.10016622116E+04 0.  0.
   -9000010    2    1    2    0  501 -0.18171799911E+03 -0.34918202826E+03  0.89241385741E+03  0.13863336665E+04  0.98517461497E+03 0.  0.
        -13    1    3    3    0    0  0.29911111332E+03  0.16458004206E+03 -0.14697652040E+03  0.37169363334E+03  0.10566000000E+00 0.  1.
         13    1    4    4    0    0 -0.22729174593E+03 -0.45258673225E+03  0.10654341291E+04  0.11796805426E+04  0.10566000000E+00 0. -1.
          4    1    3    3  502    0 -0.11739311420E+03  0.18460198620E+03  0.94008732884E+03  0.96520631080E+03  0.00000000000E+00 0.  1.
         -4    1    4    4    0  501  0.45573746821E+02  0.10340470399E+03 -0.17302027170E+03  0.20665312392E+03  0.00000000000E+00 0. -1.
</event>
<event>
 8    1  0.7096247E-006  0.1093447E+04  0.7818608E-02  0.8691432E-01
         -1   -1    0    0    0  501 -0.00000000000E+00  0.00000000000E+00  0.71319186444E+03  0.71319186444E+03  0.00000000000E+00 0. -1.
          1   -1    0    0  502    0  0.00000000000E+00 -0.00000000000E+00 -0.16834997422E+04  0.16834997422E+04  0.00000000000E+00 0.  1.
    9000010    2    1    2  502    0  0.13108938670E+03  0.54995901365E+03 -0.46555255168E+03  0.12431046811E+04  0.10044554374E+04 0.  0.
   -9000010    2    1    2    0  501 -0.13108938670E+03 -0.54995901365E+03 -0.50475532611E+03  0.11535869256E+04  0.86968127015E+03 0.  0.
        -13    1    3    3    0    0  0.38601780771E+03 -0.41270640411E+01 -0.50062345744E+03  0.63217927665E+03  0.10566000000E+00 0.  1.
         13    1    4    4    0    0  0.32540191772E+03 -0.36392115939E+03 -0.64059447830E+02  0.49237043202E+03  0.10566000000E+00 0. -1.
          4    1    3    3  502    0 -0.25492842100E+03  0.55408607770E+03  0.35070905766E+02  0.61092540442E+03  0.00000000000E+00 0.  1.
         -4    1    4    4    0  501 -0.45649130443E+03 -0.18603785426E+03 -0.44069587828E+03  0.66121649357E+03  0.00000000000E+00 0. -1.
</event>
<event>
 8    1  0.7096247E-006  0.1116604E+04  0.7818608E-02  0.8672155E-01
         -1   -1    0    0    0  501 -0.00000000000E+00  0.00000000000E+00  0.10298363973E+04  0.10298363973E+04  0.00000000000E+00 0. -1.
          1   -1    0    0  502    0  0.00000000000E+00 -0.00000000000E+00 -0.12630916050E+04  0.12630916050E+04  0.00000000000E+00 0.  1.
    9000010    2    1    2  502    0 -0.33805971075E+03 -0.34805491751E+03 -0.34945315614E+03  0.11640974005E+04  0.99878859415E+03 0.  0.
   -9000010    2    1    2    0  501  0.33805971075E+03  0.34805491751E+03  0.11619794847E+03  0.11288306019E+04  0.10125857845E+04 0.  0.
        -13    1    3    3    0    0 -0.24079299249E+03  0.57304059723E+01  0.32010243965E+03  0.40059915853E+03  0.10566000000E+00 0.  1.
         13    1    4    4    0    0  0.76316645082E+02  0.97067893813E+02 -0.44436255001E+03  0.46119897370E+03  0.10566000000E+00 0. -1.
          4    1    3    3  502    0 -0.97266718265E+02 -0.35378532349E+03 -0.66955559578E+03  0.76349824194E+03  0.00000000000E+00 0.  1.
         -4    1    4    4    0  501  0.26174306567E+03  0.25098702370E+03  0.56056049848E+03  0.66763162818E+03  0.00000000000E+00 0. -1.
</event>
<event>
 8    1  0.7096247E-006  0.1033978E+04  0.7818608E-02  0.8743305E-01
         -2   -1    0    0    0  501 -0.00000000000E+00  0.00000000000E+00  0.89061467889E+03  0.89061467889E+03  0.00000000000E+00 0.  1.
          2   -1    0    0  502    0  0.00000000000E+00 -0.00000000000E+00 -0.12006092003E+04  0.12006092003E+04  0.00000000000E+00 0. -1.
    9000010    2    1    2  502    0  0.21403813568E+03 -0.15627798495E+03 -0.16813078685E+03  0.10475468603E+04  0.99942550046E+03 0.  0.
   -9000010    2    1    2    0  501 -0.21403813568E+03  0.15627798495E+03 -0.14186373451E+03  0.10436770188E+04  0.99945048319E+03 0.  0.
        -13    1    3    3    0    0 -0.24803465107E+03 -0.14492412930E+03 -0.42937785119E+03  0.51661353219E+03  0.10566000000E+00 0.  1.
         13    1    4    4    0    0  0.35505363911E+03  0.25336568812E+03 -0.16385050277E+03  0.46594447844E+03  0.10566000000E+00 0. -1.
          4    1    3    3  502    0  0.46207278675E+03 -0.11353855643E+02  0.26124706434E+03  0.53093332813E+03  0.00000000000E+00 0.  1.
         -4    1    4    4    0  501 -0.56909177480E+03 -0.97087703177E+02  0.21986768257E+02  0.57773254039E+03  0.00000000000E+00 0. -1.
</event>
<event>
 8    1  0.7096247E-006  0.1398742E+04  0.7818608E-02  0.8470267E-01
         -2   -1    0    0    0  501 -0.00000000000E+00  0.00000000000E+00  0.14619567361E+04  0.14619567361E+04  0.00000000000E+00 0. -1.
          2   -1    0    0  502    0  0.00000000000E+00 -0.00000000000E+00 -0.14835928122E+04  0.14835928122E+04  0.00000000000E+00 0.  1.
    9000010    2    1    2  502    0 -0.92116556156E+03 -0.24417500354E+03 -0.47159155660E+03  0.14909946170E+04  0.10452267350E+04 0.  0.
   -9000010    2    1    2    0  501  0.92116556156E+03  0.24417500354E+03  0.44995548053E+03  0.14545549312E+04  0.10025480983E+04 0.  0.
        -13    1    3    3    0    0 -0.79438607204E+03 -0.53653623409E+03 -0.46511759669E+02  0.95973106488E+03  0.10566000000E+00 0.  1.
         13    1    4    4    0    0  0.36956059115E+03  0.10237105322E+03 -0.31819204375E+03  0.49829815466E+03  0.10566000000E+00 0. -1.
          4    1    3    3  502    0 -0.12677948952E+03  0.29236123055E+03 -0.42507979693E+03  0.53126355216E+03  0.00000000000E+00 0.  1.
         -4    1    4    4    0  501  0.55160497041E+03  0.14180395032E+03  0.76814752428E+03  0.95625677659E+03  0.00000000000E+00 0. -1.
</event>
<event>
 8    1  0.7096247E-006  0.1500258E+04  0.7818608E-02  0.8409350E-01
         -1   -1    0    0    0  501 -0.00000000000E+00  0.00000000000E+00  0.68646730058E+03  0.68646730058E+03  0.00000000000E+00 0.  1.
          1   -1    0    0  502    0  0.00000000000E+00 -0.00000000000E+00 -0.34740780823E+04  0.34740780823E+04  0.00000000000E+00 0. -1.
    9000010    2    1    2  502    0  0.67209567945E+03 -0.92267927515E+03 -0.18760317601E+04  0.23945573572E+04  0.95465183432E+03 0.  0.
   -9000010    2    1    2    0  501 -0.67209567945E+03  0.92267927515E+03 -0.91157902162E+03  0.17659880257E+04  0.99231433887E+03 0.  0.
        -13    1    3    3    0    0  0.11234842290E+03 -0.48513409620E+03 -0.15207586010E+04  0.16002137335E+04  0.10566000000E+00 0.  1.
         13    1    4    4    0    0 -0.28559760716E+03  0.70633065504E+03 -0.10530215083E+02  0.76195792801E+03  0.10566000000E+00 0. -1.
          4    1    3    3  502    0  0.55974725655E+03 -0.43754517895E+03 -0.35527315917E+03  0.79434362367E+03  0.00000000000E+00 0.  1.
         -4    1    4    4    0  501 -0.38649807230E+03  0.21634862011E+03 -0.90104880653E+03  0.10040300977E+04  0.00000000000E+00 0. -1.
</event>
<event>
 8    1  0.7096247E-006  0.1432917E+04  0.7818608E-02  0.8449183E-01
          2   -1    0    0  502    0  0.00000000000E+00  0.00000000000E+00  0.16190388655E+04  0.16190388655E+04  0.00000000000E+00 0.  1.
         -2   -1    0    0    0  501 -0.00000000000E+00 -0.00000000000E+00 -0.12898451654E+04  0.12898451654E+04  0.00000000000E+00 0. -1.
    9000010    2    1    2  502    0 -0.99394832257E+03 -0.24099239405E+03 -0.23822541918E+02  0.14333790988E+04  0.10039907994E+04 0.  0.
   -9000010    2    1    2    0  501  0.99394832257E+03  0.24099239405E+03  0.35301624208E+03  0.14755049321E+04  0.10032366299E+04 0.  0.
        -13    1    3    3    0    0 -0.63718953863E+03 -0.30147092615E+03  0.45066807275E+03  0.83665820405E+03  0.10566000000E+00 0.  1.
         13    1    4    4    0    0  0.30178463461E+03  0.19943624202E+03 -0.33907795128E+03  0.49580505093E+03  0.10566000000E+00 0. -1.
          4    1    3    3  502    0 -0.35675878395E+03  0.60478532091E+02 -0.47449061467E+03  0.59672089470E+03  0.00000000000E+00 0.  1.
         -4    1    4    4    0  501  0.69216368797E+03  0.41556152031E+02  0.69209419336E+03  0.97969988119E+03  0.00000000000E+00 0. -1.
</event>
<event>
 8    1  0.7096247E-006  0.1086269E+04  0.7818608E-02  0.8697508E-01
         -2   -1    0    0    0  501 -0.00000000000E+00  0.00000000000E+00  0.10126217078E+04  0.10126217078E+04  0.00000000000E+00 0. -1.
          2   -1    0    0  502    0  0.00000000000E+00 -0.00000000000E+00 -0.24055432011E+04  0.24055432011E+04  0.00000000000E+00 0.  1.
    9000010    2    1    2  502    0  0.43534298094E+03 -0.40331043144E+02  0.52938286911E+03  0.12122872854E+04  0.99912168237E+03 0.  0.
   -9000010    2    1    2    0  501 -0.43534298094E+03  0.40331043144E+02 -0.19223043624E+04  0.22058776234E+04  0.98969284309E+03 0.  0.
        -13    1    3    3    0    0 -0.26056671154E+03  0.26520347559E+02 -0.91334439407E+02  0.27738120157E+03  0.10566000000E+00 0.  1.
         13    1    4    4    0    0 -0.69401208973E+01 -0.43463786184E+03 -0.90886025056E+03  0.10074647400E+04  0.10566000000E+00 0. -1.
          4    1    3    3  502    0  0.69590969248E+03 -0.66851390703E+02  0.62071730852E+03  0.93490608385E+03  0.00000000000E+00 0.  1.
         -4    1    4    4    0  501 -0.42840286004E+03  0.47496890498E+03 -0.10134441119E+04  0.11984128834E+04  0.00000000000E+00 0. -1.
</event>
<event>
 8    1  0.7096247E-006  0.1020114E+04  0.7818608E-02  0.8755919E-01
          1   -1    0    0  502    0  0.00000000000E+00  0.00000000000E+00  0.70144434212E+03  0.70144434212E+03  0.00000000000E+00 0. -1.
         -1   -1    0    0    0  501 -0.00000000000E+00 -0.00000000000E+00 -0.16566277946E+04  0.16566277946E+04  0.00000000000E+00 0.  1.
    9000010    2    1    2  502    0  0.23720857813E+03  0.85503194082E+02 -0.85180829545E+03  0.13172861308E+04  0.97266986812E+03 0.  0.
   -9000010    2    1    2    0  501 -0.23720857813E+03 -0.85503194082E+02 -0.10337515701E+03  0.10407860059E+04  0.10044751771E+04 0.  0.
        -13    1    3    3    0    0 -0.10819967509E+03 -0.14475462354E+02  0.18781312800E+03  0.21723372417E+03  0.10566000000E+00 0.  1.
         13    1    4    4    0    0 -0.23001730270E+03  0.40565504542E+03  0.14765496578E+03  0.48914821425E+03  0.10566000000E+00 0. -1.
          4    1    3    3  502    0  0.34540825322E+03  0.99978656436E+02 -0.10396214235E+04  0.11000524066E+04  0.00000000000E+00 0.  1.
         -4    1    4    4    0  501 -0.71912754261E+01 -0.49115823950E+03 -0.25103012279E+03  0.55163779169E+03  0.00000000000E+00 0. -1.
</event>
<event>
 8    1  0.7096247E-006  0.1187555E+04  0.7818608E-02  0.8615993E-01
          2   -1    0    0  502    0  0.00000000000E+00  0.00000000000E+00  0.56575144850E+03  0.56575144850E+03  0.00000000000E+00 0.  1.
         -2   -1    0    0    0  501 -0.00000000000E+00 -0.00000000000E+00 -0.24948292784E+04  0.24948292784E+04  0.00000000000E+00 0. -1.
    9000010    2    1    2  502    0 -0.60860212443E+03 -0.18134987133E+03 -0.93077943961E+03  0.15168935935E+04  0.10155449212E+04 0.  0.
   -9000010    2    1    2    0  501  0.60860212443E+03  0.18134987133E+03 -0.99829839028E+03  0.15436871334E+04  0.99150691784E+03 0.  0.
        -13    1    3    3    0    0 -0.50162206409E+03  0.37804591483E+03 -0.49764997804E+03  0.80137314698E+03  0.10566000000E+00 0.  1.
         13    1    4    4    0    0  0.35535138471E+02 -0.32937085499E+03 -0.58395141081E+03  0.67137706808E+03  0.10566000000E+00 0. -1.
          4    1    3    3  502    0 -0.10698006035E+03 -0.55939578616E+03 -0.43312946157E+03  0.71552044650E+03  0.00000000000E+00 0.  1.
         -4    1    4    4    0  501  0.57306698596E+03  0.51072072632E+03 -0.41434697946E+03  0.87231006533E+03  0.00000000000E+00 0. -1.
</event>
<event>
 8    1  0.7096247E-006  0.1255021E+04  0.7818608E-02  0.8566243E-01
         -2   -1    0    0    0  501 -0.00000000000E+00  0.00000000000E+00  0.85936098219E+03  0.85936098219E+03  0.00000000000E+00 0. -1.
          2   -1    0    0  502    0  0.00000000000E+00 -0.00000000000E+00 -0.18534437459E+04  0.18534437459E+04  0.00000000000E+00 0.  1.
    9000010    2    1    2  502    0 -0.28364829195E+03 -0.74491342901E+03 -0.36416610397E+03  0.13272578881E+04  0.99681702435E+03 0.  0.
   -9000010    2    1    2    0  501  0.28364829195E+03  0.74491342901E+03 -0.62991665976E+03  0.13855468400E+04  0.94212137079E+03 0.  0.
        -13    1    3    3    0    0  0.40917617254E+02 -0.83478528099E+03 -0.48871598772E+03  0.96818595558E+03  0.10566000000E+00 0.  1.
         13    1    4    4    0    0 -0.37075945730E+02  0.74851885895E+03 -0.86338109292E+02  0.75439339090E+03  0.10566000000E+00 0. -1.
          4    1    3    3  502    0 -0.32456590920E+03  0.89871851977E+02  0.12454988375E+03  0.35907193254E+03  0.00000000000E+00 0.  1.
         -4    1    4    4    0  501  0.32072423768E+03 -0.36054299403E+01 -0.54357855047E+03  0.63115344909E+03  0.00000000000E+00 0. -1.
</event>
<event>
 8    1  0.7096247E-006  0.1297721E+04  0.7818608E-02  0.8536398E-01
          1   -1    0    0  502    0  0.00000000000E+00  0.00000000000E+00  0.86570272668E+03  0.86570272668E+03  0.00000000000E+00 0. -1.
         -1   -1    0    0    0  501 -0.00000000000E+00 -0.00000000000E+00 -0.21084721643E+04  0.21084721643E+04  0.00000000000E+00 0.  1.
    9000010    2    1    2  502    0 -0.82323800454E+03 -0.47125587514E+02 -0.10345691577E+04  0.16588246922E+04  0.10007119388E+04 0.  0.
   -9000010    2    1    2    0  501  0.82323800454E+03  0.47125587514E+02 -0.20820027993E+03  0.13153501988E+04  0.10034227204E+04 0.  0.
        -13    1    3    3    0    0 -0.57731310734E+03  0.42534473310E+03 -0.80711783687E+03  0.10796516937E+04  0.10566000000E+00 0.  1.
         13    1    4    4    0    0  0.47704763249E+03  0.52355518920E+03 -0.81711933595E+02  0.71299462204E+03  0.10566000000E+00 0. -1.
          4    1    3    3  502    0 -0.24592489720E+03 -0.47247032061E+03 -0.22745132085E+03  0.57917299858E+03  0.00000000000E+00 0.  1.
         -4    1    4    4    0  501  0.34619037204E+03 -0.47642960168E+03 -0.12648834633E+03  0.60235557673E+03  0.00000000000E+00 0. -1.
</event>
<event>
 8    1  0.7096247E-006  0.1091817E+04  0.7818608E-02  0.8692807E-01
          2   -1    0    0  502    0  0.00000000000E+00  0.00000000000E+00  0.17284991871E+04  0.17284991871E+04  0.00000000000E+00 0.  1.
         -2   -1    0    0    0  501 -0.00000000000E+00 -0.00000000000E+00 -0.73286827702E+03  0.73286827702E+03  0.00000000000E+00 0. -1.
    9000010    2    1    2  502    0 -0.36960257425E+03  0.21636195105E+03  0.79885465474E+03  0.13571028576E+04  0.10100202226E+04 0.  0.
   -9000010    2    1    2    0  501  0.36960257425E+03 -0.21636195105E+03  0.19677625533E+03  0.11042646065E+04  0.99862949574E+03 0.  0.
        -13    1    3    3    0    0 -0.21799282744E+03 -0.34026186886E+03  0.43202820782E+02  0.40640559434E+03  0.10566000000E+00 0.  1.
         13    1    4    4    0    0  0.11721082839E+03 -0.43083874462E+03 -0.27755794082E+03  0.52573645853E+03  0.10566000000E+00 0. -1.
          4    1    3    3  502    0 -0.15160974681E+03  0.55662381992E+03  0.75565183395E+03  0.95069726327E+03  0.00000000000E+00 0.  1.
         -4    1    4    4    0  501  0.25239174586E+03  0.21447679356E+03  0.47433419616E+03  0.57852814798E+03  0.00000000000E+00 0. -1.
</event>
<event>
 8    1  0.7096247E-006  0.1399816E+04  0.7818608E-02  0.8469595E-01
         -4   -1    0    0    0  501 -0.00000000000E+00  0.00000000000E+00  0.29892697333E+04  0.29892697333E+04  0.00000000000E+00 0.  1.
          4   -1    0    0  502    0  0.00000000000E+00 -0.00000000000E+00 -0.73052554761E+03  0.73052554761E+03  0.00000000000E+00 0. -1.
    9000010    2    1    2  502    0  0.55598256121E+03  0.82040882277E+03  0.17295369638E+04  0.22286938967E+04  0.99679041480E+03 0.  0.
   -9000010    2    1    2    0  501 -0.55598256121E+03 -0.82040882277E+03  0.52920722183E+03  0.14911013842E+04  0.98037534111E+03 0.  0.
        -13    1    3    3    0    0  0.81944783222E+03  0.45115665122E+03  0.99738531545E+03  0.13674116250E+04  0.10566000000E+00 0.  1.
         13    1    4    4    0    0 -0.18258778891E+03  0.22094219837E+03  0.84816910748E+02  0.29891081478E+03  0.10566000000E+00 0. -1.
          4    1    3    3  502    0 -0.26346527101E+03  0.36925217155E+03  0.73215164838E+03  0.86128227165E+03  0.00000000000E+00 0.  1.
         -4    1    4    4    0  501 -0.37339477230E+03 -0.10413510211E+04  0.44439031109E+03  0.11921905694E+04  0.00000000000E+00 0. -1.
</event>
<event>
 8    1  0.7096247E-006  0.1307137E+04  0.7818608E-02  0.8529976E-01
          2   -1    0    0  502    0  0.00000000000E+00  0.00000000000E+00  0.18513881770E+04  0.18513881770E+04  0.00000000000E+00 0. -1.
         -2   -1    0    0    0  501 -0.00000000000E+00 -0.00000000000E+00 -0.95074140462E+03  0.95074140462E+03  0.00000000000E+00 0.  1.
    9000010    2    1    2  502    0 -0.61936251447E+03  0.47255989257E+03  0.67231631432E+03  0.14339969102E+04  0.99870673144E+03 0.  0.
   -9000010    2    1    2    0  501  0.61936251447E+03 -0.47255989257E+03  0.22833045805E+03  0.13681326715E+04  0.11012399522E+04 0.  0.
        -13    1    3    3    0    0 -0.42141808550E+02 -0.25711072519E+03 -0.38217977893E+02  0.26332960721E+03  0.10566000000E+00 0.  1.
         13    1    4    4    0    0  0.28378665717E+03 -0.31520771427E+03 -0.43545911729E+03  0.60787780344E+03  0.10566000000E+00 0. -1.
          4    1    3    3  502    0 -0.57722070592E+03  0.72967061776E+03  0.71053429221E+03  0.11706673029E+04  0.00000000000E+00 0.  1.
         -4    1    4    4    0  501  0.33557585730E+03 -0.15735217830E+03  0.66378957534E+03  0.76025486802E+03  0.00000000000E+00 0. -1.
</event>
<event>
 8    1  0.7096247E-006  0.1127062E+04  0.7818608E-02  0.8663608E-01
          2   -1    0    0  502    0  0.00000000000E+00  0.00000000000E+00  0.81109828384E+03  0.81109828384E+03  0.00000000000E+00 0. -1.
         -2   -1    0    0    0  501 -0.00000000000E+00 -0.00000000000E+00 -0.15695025289E+04  0.15695025289E+04  0.00000000000E+00 0.  1.
    9000010    2    1    2  502    0  0.47501290066E+03 -0.52305290806E+02 -0.32181238023E+03  0.11499507708E+04  0.99521378004E+03 0.  0.
   -9000010    2    1    2    0  501 -0.47501290066E+03  0.52305290806E+02 -0.43659186480E+03  0.12306500419E+04  0.10466680324E+04 0.  0.
        -13    1    3    3    0    0  0.42947287153E+03 -0.66820979510E+02  0.29883840422E+03  0.52746222015E+03  0.10566000000E+00 0.  1.
         13    1    4    4    0    0 -0.37107009582E+03  0.36146341698E+03  0.16724647835E+03  0.54435302287E+03  0.10566000000E+00 0. -1.
          4    1    3    3  502    0  0.45540029125E+02  0.14515688705E+02 -0.62065078445E+03  0.62248855066E+03  0.00000000000E+00 0.  1.
         -4    1    4    4    0  501 -0.10394280484E+03 -0.30915812617E+03 -0.60383834315E+03  0.68629701901E+03  0.00000000000E+00 0. -1.
</event>
<event>
 8    1  0.7096247E-006  0.1396465E+04  0.7818608E-02  0.8471694E-01
          1   -1    0    0  502    0  0.00000000000E+00  0.00000000000E+00  0.27219477306E+04  0.27219477306E+04  0.00000000000E+00 0. -1.
         -1   -1    0    0    0  501 -0.00000000000E+00 -0.00000000000E+00 -0.74512664530E+03  0.74512664530E+03  0.00000000000E+00 0.  1.
    9000010    2    1    2  502    0  0.90035510338E+03  0.37036125570E+03  0.64490931866E+03  0.15336336453E+04  0.99414151756E+03 0.  0.
   -9000010    2    1    2    0  501 -0.90035510338E+03 -0.37036125570E+03  0.13319117666E+04  0.19334407306E+04  0.10081653300E+04 0.  0.
        -13    1    3    3    0    0  0.76208061530E+03  0.69937884429E+03  0.46820158610E+03  0.11353899632E+04  0.10566000000E+00 0.  1.
         13    1    4    4    0    0 -0.10480802572E+04 -0.45442347487E+03  0.85423517674E+03  0.14264258370E+04  0.10566000000E+00 0. -1.
          4    1    3    3  502    0  0.13827448808E+03 -0.32901758859E+03  0.17670773257E+03  0.39824368219E+03  0.00000000000E+00 0.  1.
         -4    1    4    4    0  501  0.14772515384E+03  0.84062219167E+02  0.47767658990E+03  0.50701489357E+03  0.00000000000E+00 0. -1.
</event>
<event>
 8    1  0.7096247E-006  0.1297749E+04  0.7818608E-02  0.8536379E-01
         -2   -1    0    0    0  501 -0.00000000000E+00  0.00000000000E+00  0.14342282756E+04  0.14342282756E+04  0.00000000000E+00 0.  1.
          2   -1    0    0  502    0  0.00000000000E+00 -0.00000000000E+00 -0.13374827081E+04  0.13374827081E+04  0.00000000000E+00 0. -1.
    9000010    2    1    2  502    0  0.77116532793E+03  0.32933859258E+03 -0.43598075134E+03  0.13524010843E+04  0.96734151452E+03 0.  0.
   -9000010    2    1    2    0  501 -0.77116532793E+03 -0.32933859258E+03  0.53272631876E+03  0.14193098994E+04  0.10136485526E+04 0.  0.
        -13    1    3    3    0    0  0.48036676101E+03 -0.31359003656E+03 -0.17032796600E+03  0.59841671374E+03  0.10566000000E+00 0.  1.
         13    1    4    4    0    0 -0.75066947415E+03 -0.61253040164E+03  0.21354967361E+03  0.99211976425E+03  0.10566000000E+00 0. -1.
          4    1    3    3  502    0  0.29079856692E+03  0.64292862914E+03 -0.26565278534E+03  0.75398437056E+03  0.00000000000E+00 0.  1.
         -4    1    4    4    0  501 -0.20495853788E+02  0.28319180906E+03  0.31917664515E+03  0.42719013513E+03  0.00000000000E+00 0. -1.
</event>
<event>
 8    1  0.7096247E-006  0.1135562E+04  0.7818608E-02  0.8656733E-01
         -2   -1    0    0    0  501 -0.00000000000E+00  0.00000000000E+00  0.13376815864E+04  0.13376815864E+04  0.00000000000E+00 0. -1.
          2   -1    0    0  502    0  0.00000000000E+00 -0.00000000000E+00 -0.97662302349E+03  0.97662302349E+03  0.00000000000E+00 0.  1.
    9000010    2    1    2  502    0  0.54808964131E+03  0.19901259640E+03  0.31100512590E+03  0.11711732491E+04  0.96690967650E+03 0.  0.
   -9000010    2    1    2    0  501 -0.54808964131E+03 -0.19901259640E+03  0.50053436986E+02  0.11431313608E+04  0.98195503618E+03 0.  0.
        -13    1    3    3    0    0  0.33991600991E+03  0.20698426841E+03  0.65651202247E+03  0.76771962849E+03  0.10566000000E+00 0.  1.
         13    1    4    4    0    0 -0.69214607886E+03 -0.45155865556E+03  0.14128351930E+03  0.83841067377E+03  0.10566000000E+00 0. -1.
          4    1    3    3  502    0  0.20817363140E+03 -0.79716720081E+01 -0.34550689657E+03  0.40345362056E+03  0.00000000000E+00 0.  1.
         -4    1    4    4    0  501  0.14405643755E+03  0.25254605915E+03 -0.91230082315E+02  0.30472068705E+03  0.00000000000E+00 0. -1.
</event>
<event>
 8    1  0.7096247E-006  0.1114776E+04  0.7818608E-02  0.8673659E-01
         -2   -1    0    0    0  501 -0.00000000000E+00  0.00000000000E+00  0.44844507794E+03  0.44844507794E+03  0.00000000000E+00 0. -1.
          2   -1    0    0  502    0  0.00000000000E+00 -0.00000000000E+00 -0.27823405262E+04  0.27823405262E+04  0.00000000000E+00 0.  1.
    9000010    2    1    2  502    0  0.47915039527E+03  0.15911520632E+03 -0.10615513519E+04  0.15371257923E+04  0.99043509559E+03 0.  0.
   -9000010    2    1    2    0  501 -0.47915039527E+03 -0.15911520632E+03 -0.12723440964E+04  0.16936598118E+04  0.99735716191E+03 0.  0.
        -13    1    3    3    0    0  0.31513291646E+02 -0.16216167720E+03 -0.96339307186E+03  0.97745369157E+03  0.10566000000E+00 0.  1.
         13    1    4    4    0    0 -0.36972008541E+03  0.41291972799E+02  0.28329231308E+02  0.37309586581E+03  0.10566000000E+00 0. -1.
          4    1    3    3  502    0  0.44763710363E+03  0.32127688352E+03 -0.98158280021E+02  0.55967210075E+03  0.00000000000E+00 0.  1.
         -4    1    4    4    0  501 -0.10943030986E+03 -0.20040717911E+03 -0.13006733277E+04  0.13205639460E+04  0.00000000000E+00 0. -1.
</event>
<event>
 8    1  0.7096247E-006  0.1500268E+04  0.7818608E-02  0.8409345E-01
         -2   -1    0    0    0  501 -0.00000000000E+00  0.00000000000E+00  0.69702758736E+03  0.69702758736E+03  0.00000000000E+00 0. -1.
          2   -1    0    0  502    0  0.00000000000E+00 -0.00000000000E+00 -0.34707922878E+04  0.34707922878E+04  0.00000000000E+00 0.  1.
    9000010    2    1    2  502    0  0.93554106972E+03  0.62385291975E+03 -0.83751346803E+03  0.17187084915E+04  0.99403244972E+03 0.  0.
   -9000010    2    1    2    0  501 -0.93554106972E+03 -0.62385291975E+03 -0.19362512325E+04  0.24491113837E+04  0.99229439978E+03 0.  0.
        -13    1    3    3    0    0  0.17264588902E+03  0.20836270338E+02  0.22106836677E+03  0.28126853203E+03  0.10566000000E+00 0.  1.
         13    1    4    4    0    0 -0.44516864612E+03  0.21832880837E+03 -0.43676532819E+03  0.66076210176E+03  0.10566000000E+00 0. -1.
          4    1    3    3  502    0  0.76289518070E+03  0.60301664941E+03 -0.10585818348E+04  0.14374399595E+04  0.00000000000E+00 0.  1.
         -4    1    4    4    0  501 -0.49037242360E+03 -0.84218172812E+03 -0.14994859043E+04  0.17883492819E+04  0.00000000000E+00 0. -1.
</event>
<event>
 8    1  0.7096247E-006  0.1051391E+04  0.7818608E-02  0.8727748E-01
          2   -1    0    0  502    0  0.00000000000E+00  0.00000000000E+00  0.11478058955E+04  0.11478058955E+04  0.00000000000E+00 0.  1.
         -2   -1    0    0    0  501 -0.00000000000E+00 -0.00000000000E+00 -0.99028365438E+03  0.99028365438E+03  0.00000000000E+00 0. -1.
    9000010    2    1    2  502    0 -0.18234551085E+03  0.28730132355E+03  0.25615835778E+03  0.10851093925E+04  0.99802472589E+03 0.  0.
   -9000010    2    1    2    0  501  0.18234551085E+03 -0.28730132355E+03 -0.98636116680E+02  0.10529801574E+04  0.99158771298E+03 0.  0.
        -13    1    3    3    0    0 -0.67705607545E+02  0.65535317525E+03  0.88585424070E+02  0.66477005207E+03  0.10566000000E+00 0.  1.
         13    1    4    4    0    0  0.35259083135E+03 -0.35397091835E+03  0.32195642811E+03  0.59436660249E+03  0.10566000000E+00 0. -1.
          4    1    3    3  502    0 -0.11463990331E+03 -0.36805185170E+03  0.16757293371E+03  0.42033934039E+03  0.00000000000E+00 0.  1.
         -4    1    4    4    0  501 -0.17024532049E+03  0.66669594793E+02 -0.42059254479E+03  0.45861355492E+03  0.00000000000E+00 0. -1.
</event>
<event>
 8    1  0.7096247E-006  0.1747825E+04  0.7818608E-02  0.8279596E-01
          1   -1    0    0  502    0  0.00000000000E+00  0.00000000000E+00  0.16880984026E+04  0.16880984026E+04  0.00000000000E+00 0.  1.
         -1   -1    0    0    0  501 -0.00000000000E+00 -0.00000000000E+00 -0.27252561445E+04  0.27252561445E+04  0.00000000000E+00 0. -1.
    9000010    2    1    2  502    0 -0.12424720943E+04  0.69823053785E+03 -0.17965627549E+04  0.25028024103E+04  0.10025564242E+04 0.  0.
   -9000010    2    1    2    0  501  0.12424720943E+04 -0.69823053785E+03  0.75940501309E+03  0.19105521367E+04  0.10209068048E+04 0.  0.
        -13    1    3    3    0    0 -0.10109622525E+04  0.81473904033E+03 -0.92679353432E+03  0.15952399964E+04  0.10566000000E+00 0.  1.
         13    1    4    4    0    0  0.90419895105E+03 -0.92755489767E+03  0.37266472663E+03  0.13478919990E+04  0.10566000000E+00 0. -1.
          4    1    3    3  502    0 -0.23150984176E+03 -0.11650850247E+03 -0.86976922063E+03  0.90756241391E+03  0.00000000000E+00 0.  1.
         -4    1    4    4    0  501  0.33827314321E+03  0.22932435982E+03  0.38674028645E+03  0.56266013773E+03  0.00000000000E+00 0. -1.
</event>
<event>
 8    1  0.7096247E-006  0.1487691E+04  0.7818608E-02  0.8416618E-01
         -2   -1    0    0    0  501 -0.00000000000E+00  0.00000000000E+00  0.30706496818E+04  0.30706496818E+04  0.00000000000E+00 0. -1.
          2   -1    0    0  502    0  0.00000000000E+00 -0.00000000000E+00 -0.88163120512E+03  0.88163120512E+03  0.00000000000E+00 0.  1.
    9000010    2    1    2  502    0 -0.24802358573E+03  0.10735867744E+04  0.19421866101E+04  0.24501368880E+04  0.10084531125E+04 0.  0.
   -9000010    2    1    2    0  501  0.24802358573E+03 -0.10735867744E+04  0.24683186661E+03  0.15021439989E+04  0.99065955901E+03 0.  0.
        -13    1    3    3    0    0 -0.72097683971E+02  0.12448634448E+04  0.16580525421E+04  0.20746135341E+04  0.10566000000E+00 0.  1.
         13    1    4    4    0    0 -0.50186941556E+02 -0.10889375920E+04 -0.36231300503E+02  0.10906954326E+04  0.10566000000E+00 0. -1.
          4    1    3    3  502    0 -0.17592590176E+03 -0.17127667040E+03  0.28413406796E+03  0.37552335388E+03  0.00000000000E+00 0.  1.
         -4    1    4    4    0  501  0.29821052728E+03  0.15350817552E+02  0.28306316712E+03  0.41144856636E+03  0.00000000000E+00 0. -1.
</event>
<event>
 8    1  0.7096247E-006  0.1152652E+04  0.7818608E-02  0.8643096E-01
          2   -1    0    0  502    0  0.00000000000E+00  0.00000000000E+00  0.48151734597E+04  0.48151734597E+04  0.00000000000E+00 0.  1.
         -2   -1    0    0    0  501 -0.00000000000E+00 -0.00000000000E+00 -0.28238073718E+03  0.28238073718E+03  0.00000000000E+00 0. -1.
    9000010    2    1    2  502    0  0.30692268291E+03 -0.50475364961E+03  0.18915882975E+04  0.22179676291E+04  0.99614072118E+03 0.  0.
   -9000010    2    1    2    0  501 -0.30692268291E+03  0.50475364961E+03  0.26412044250E+04  0.28795865677E+04  0.98340236250E+03 0.  0.
        -13    1    3    3    0    0 -0.19117713947E+03  0.20722450673E+03  0.57644406205E+03  0.64169966704E+03  0.10566000000E+00 0.  1.
         13    1    4    4    0    0  0.24721502229E+03  0.17459906578E+02  0.16992995936E+03  0.30049345723E+03  0.10566000000E+00 0. -1.
          4    1    3    3  502    0  0.49809982238E+03 -0.71197815634E+03  0.13151442355E+04  0.15762679621E+04  0.00000000000E+00 0.  1.
         -4    1    4    4    0  501 -0.55413770520E+03  0.48729374303E+03  0.24712744656E+04  0.25790931105E+04  0.00000000000E+00 0. -1.
</event>
<event>
 8    1  0.7096247E-006  0.1352959E+04  0.7818608E-02  0.8499501E-01
          2   -1    0    0  502    0  0.00000000000E+00  0.00000000000E+00  0.63677422575E+03  0.63677422575E+03  0.00000000000E+00 0. -1.
         -2   -1    0    0    0  501 -0.00000000000E+00 -0.00000000000E+00 -0.28950080198E+04  0.28950080198E+04  0.00000000000E+00 0.  1.
    9000010    2    1    2  502    0 -0.55309042207E+03 -0.71748532587E+03 -0.12709769253E+04  0.18510924124E+04  0.99522186808E+03 0.  0.
   -9000010    2    1    2    0  501  0.55309042207E+03  0.71748532587E+03 -0.98725686872E+03  0.16806898331E+04  0.10145678797E+04 0.  0.
        -13    1    3    3    0    0 -0.34486266309E+03 -0.43082492595E+03 -0.21411199265E+02  0.55226698601E+03  0.10566000000E+00 0.  1.
         13    1    4    4    0    0  0.93235397643E+02  0.66793346829E+03 -0.10225724140E+03  0.68211766728E+03  0.10566000000E+00 0. -1.
          4    1    3    3  502    0 -0.20822775898E+03 -0.28666039992E+03 -0.12495657261E+04  0.12988254264E+04  0.00000000000E+00 0.  1.
         -4    1    4    4    0  501  0.45985502443E+03  0.49551857584E+02 -0.88499962731E+03  0.99857216586E+03  0.00000000000E+00 0. -1.
</event>
<event>
 8    1  0.7096247E-006  0.2579535E+04  0.7818608E-02  0.7966340E-01
          1   -1    0    0  502    0  0.00000000000E+00  0.00000000000E+00  0.21189872798E+04  0.21189872798E+04  0.00000000000E+00 0.  1.
         -1   -1    0    0    0  501 -0.00000000000E+00 -0.00000000000E+00 -0.31880270547E+04  0.31880270547E+04  0.00000000000E+00 0. -1.
    9000010    2    1    2  502    0 -0.21462429707E+04 -0.97160990366E+03 -0.85658830885E+03  0.27054124347E+04  0.10174125105E+04 0.  0.
   -9000010    2    1    2    0  501  0.21462429707E+04  0.97160990366E+03 -0.21245146604E+03  0.26016018998E+04  0.10829645078E+04 0.  0.
        -13    1    3    3    0    0 -0.29495297370E+03 -0.22597643461E+03 -0.58243542252E+03  0.69086441381E+03  0.10566000000E+00 0.  1.
         13    1    4    4    0    0  0.17889089298E+03 -0.22628059209E+03 -0.47684759591E+02  0.29236741509E+03  0.10566000000E+00 0. -1.
          4    1    3    3  502    0 -0.18512899970E+04 -0.74563346904E+03 -0.27415288633E+03  0.20145480209E+04  0.00000000000E+00 0.  1.
         -4    1    4    4    0  501  0.19673520777E+04  0.11978904957E+04 -0.16476670645E+03  0.23092344847E+04  0.00000000000E+00 0. -1.
</event>
<event>
 8    1  0.7096247E-006  0.1134658E+04  0.7818608E-02  0.8657461E-01
          2   -1    0    0  502    0  0.00000000000E+00  0.00000000000E+00  0.28707741882E+04  0.28707741882E+04  0.00000000000E+00 0.  1.
         -2   -1    0    0    0  501 -0.00000000000E+00 -0.00000000000E+00 -0.66373647369E+03  0.66373647369E+03  0.00000000000E+00 0. -1.
    9000010    2    1    2  502    0  0.49433996815E+03 -0.14264228961E+03  0.94440947637E+02  0.11345775494E+04  0.10067910886E+04 0.  0.
   -9000010    2    1    2    0  501 -0.49433996815E+03  0.14264228961E+03  0.21125967669E+04  0.23999331125E+04  0.10158223360E+04 0.  0.
        -13    1    3    3    0    0 -0.17503317987E+03 -0.32832783605E+03  0.21473323007E+03  0.42958835325E+03  0.10566000000E+00 0.  1.
         13    1    4    4    0    0 -0.73042359974E+03  0.16928030204E+03  0.20021420748E+04  0.21379306244E+04  0.10566000000E+00 0. -1.
          4    1    3    3  502    0  0.66937314802E+03  0.18568554645E+03 -0.12029228244E+03  0.70498919613E+03  0.00000000000E+00 0.  1.
         -4    1    4    4    0  501  0.23608363159E+03 -0.26638012428E+02  0.11045469212E+03  0.26200248820E+03  0.00000000000E+00 0. -1.
</event>
<event>
 8    1  0.7096247E-006  0.1760515E+04  0.7818608E-02  0.8273551E-01
          2   -1    0    0  502    0  0.00000000000E+00  0.00000000000E+00  0.30883463337E+04  0.30883463337E+04  0.00000000000E+00 0. -1.
         -2   -1    0    0    0  501 -0.00000000000E+00 -0.00000000000E+00 -0.10680304722E+04  0.10680304722E+04  0.00000000000E+00 0.  1.
    9000010    2    1    2  502    0 -0.25510283247E+03  0.13639780215E+04  0.15463630090E+04  0.23857995582E+04  0.11727265145E+04 0.  0.
   -9000010    2    1    2    0  501  0.25510283247E+03 -0.13639780215E+04  0.47395285244E+03  0.17705772477E+04  0.99237038718E+03 0.  0.
        -13    1    3    3    0    0  0.41377200741E+03  0.67816036295E+03  0.39252718720E+03  0.88610741778E+03  0.10566000000E+00 0.  1.
         13    1    4    4    0    0  0.18537519414E+03 -0.71590536364E+02 -0.22454886949E+03  0.29985225270E+03  0.10566000000E+00 0. -1.
          4    1    3    3  502    0 -0.66887483988E+03  0.68581765854E+03  0.11538358218E+04  0.14996921404E+04  0.00000000000E+00 0.  1.
         -4    1    4    4    0  501  0.69727638332E+02 -0.12923874851E+04  0.69850172193E+03  0.14707249950E+04  0.00000000000E+00 0. -1.
</event>
<event>
 8    1  0.7096247E-006  0.1305416E+04  0.7818608E-02  0.8531146E-01
          2   -1    0    0  502    0  0.00000000000E+00  0.00000000000E+00  0.23235127853E+04  0.23235127853E+04  0.00000000000E+00 0.  1.
         -2   -1    0    0    0  501 -0.00000000000E+00 -0.00000000000E+00 -0.93009184014E+03  0.93009184014E+03  0.00000000000E+00 0. -1.
    9000010    2    1    2  502    0 -0.14627925185E+03  0.81945811616E+03 -0.48990259792E+02  0.13119003842E+04  0.10128046943E+04 0.  0.
   -9000010    2    1    2    0  501  0.14627925185E+03 -0.81945811616E+03  0.14424112049E+04  0.19417042412E+04  0.99837670875E+03 0.  0.
        -13    1    3    3    0    0 -0.39367623525E+03  0.10894322576E+03 -0.31296103047E+03  0.51458159936E+03  0.10566000000E+00 0.  1.
         13    1    4    4    0    0 -0.21194205554E+03 -0.63941736778E+03  0.13804298632E+04  0.15360210361E+04  0.10566000000E+00 0. -1.
          4    1    3    3  502    0  0.24739698339E+03  0.71051489040E+03  0.26397077068E+03  0.79731878483E+03  0.00000000000E+00 0.  1.
         -4    1    4    4    0  501  0.35822130739E+03 -0.18004074838E+03  0.61981341723E+02  0.40568320506E+03  0.00000000000E+00 0. -1.
</event>
<event>
 8    1  0.7096247E-006  0.1063518E+04  0.7818608E-02  0.8717097E-01
         -2   -1    0    0    0  501 -0.00000000000E+00  0.00000000000E+00  0.70742197258E+03  0.70742197258E+03  0.00000000000E+00 0. -1.
          2   -1    0    0  502    0  0.00000000000E+00 -0.00000000000E+00 -0.17386370479E+04  0.17386370479E+04  0.00000000000E+00 0.  1.
    9000010    2    1    2  502    0  0.28411113721E+03 -0.25638094044E+03 -0.16819435179E+03  0.10753141003E+04  0.99073747756E+03 0.  0.
   -9000010    2    1    2    0  501 -0.28411113721E+03  0.25638094044E+03 -0.86302072353E+03  0.13707449202E+04  0.99382420078E+03 0.  0.
        -13    1    3    3    0    0 -0.21699986713E+03  0.32618902520E+02 -0.39669652970E+03  0.45334433158E+03  0.10566000000E+00 0.  1.
         13    1    4    4    0    0 -0.81909523836E+02 -0.46517151677E+02  0.21400126012E+03  0.23381523901E+03  0.10566000000E+00 0. -1.
          4    1    3    3  502    0  0.50111100434E+03 -0.28899984296E+03  0.22850217792E+03  0.62196976873E+03  0.00000000000E+00 0.  1.
         -4    1    4    4    0  501 -0.20220161337E+03  0.30289809211E+03 -0.10770219837E+04  0.11369296812E+04  0.00000000000E+00 0. -1.
</event>
<event>
 8    1  0.7096247E-006  0.1350497E+04  0.7818608E-02  0.8501107E-01
         -2   -1    0    0    0  501 -0.00000000000E+00  0.00000000000E+00  0.14339967672E+04  0.14339967672E+04  0.00000000000E+00 0. -1.
          2   -1    0    0  502    0  0.00000000000E+00 -0.00000000000E+00 -0.16975675863E+04  0.16975675863E+04  0.00000000000E+00 0.  1.
    9000010    2    1    2  502    0  0.84722116295E+03 -0.15891140290E+03  0.64894484500E+03  0.15291255510E+04  0.10835400344E+04 0.  0.
   -9000010    2    1    2    0  501 -0.84722116295E+03  0.15891140290E+03 -0.91251566404E+03  0.16024388024E+04  0.99603651816E+03 0.  0.
        -13    1    3    3    0    0  0.11888898427E+03 -0.45666508267E+03 -0.52778034513E+02  0.47482956985E+03  0.10566000000E+00 0.  1.
         13    1    4    4    0    0 -0.65342685209E+03  0.56362785362E+03 -0.66912828468E+03  0.10919595601E+04  0.10566000000E+00 0. -1.
          4    1    3    3  502    0  0.72833217868E+03  0.29775367977E+03  0.70172287951E+03  0.10542959812E+04  0.00000000000E+00 0.  1.
         -4    1    4    4    0  501 -0.19379431085E+03 -0.40471645072E+03 -0.24338737936E+03  0.51047924232E+03  0.00000000000E+00 0. -1.
</event>
<event>
 8    1  0.7096247E-006  0.1440484E+04  0.7818608E-02  0.8444596E-01
          2   -1    0    0  502    0  0.00000000000E+00  0.00000000000E+00  0.30984487167E+04  0.30984487167E+04  0.00000000000E+00 0. -1.
         -2   -1    0    0    0  501 -0.00000000000E+00 -0.00000000000E+00 -0.79088680162E+03  0.79088680162E+03  0.00000000000E+00 0.  1.
    9000010    2    1    2  502    0  0.28917567964E+03  0.99429654829E+03  0.19141575761E+04  0.23948325046E+04  0.99948751829E+03 0.  0.
   -9000010    2    1    2    0  501 -0.28917567964E+03 -0.99429654829E+03  0.39340433899E+03  0.14945030137E+04  0.10032567391E+04 0.  0.
        -13    1    3    3    0    0  0.16782984581E+03  0.10354469463E+04  0.92845780077E+03  0.14008394393E+04  0.10566000000E+00 0.  1.
         13    1    4    4    0    0 -0.14164020771E+03 -0.50297258581E+03  0.71757147830E+03  0.88766672133E+03  0.10566000000E+00 0. -1.
          4    1    3    3  502    0  0.12134583383E+03 -0.41150398051E+02  0.98569977537E+03  0.99399306527E+03  0.00000000000E+00 0.  1.
         -4    1    4    4    0  501 -0.14753547193E+03 -0.49132396249E+03 -0.32416713931E+03  0.60683629242E+03  0.00000000000E+00 0. -1.
</event>
<event>
 8    1  0.7096247E-006  0.1139667E+04  0.7818608E-02  0.8653434E-01
          2   -1    0    0  502    0  0.00000000000E+00  0.00000000000E+00  0.18439334922E+04  0.18439334922E+04  0.00000000000E+00 0. -1.
         -2   -1    0    0    0  501 -0.00000000000E+00 -0.00000000000E+00 -0.12490839546E+04  0.12490839546E+04  0.00000000000E+00 0.  1.
    9000010    2    1    2  502    0  0.52094864790E+03  0.12937995006E+03 -0.72219173541E+03  0.13582152141E+04  0.10173794769E+04 0.  0.
   -9000010    2    1    2    0  501 -0.52094864790E+03 -0.12937995006E+03  0.13170412730E+04  0.17348022327E+04  0.99338532626E+03 0.  0.
        -13    1    3    3    0    0 -0.29471027777E+03  0.17505938795E+02 -0.34072958456E+03  0.45084062225E+03  0.10566000000E+00 0.  1.
         13    1    4    4    0    0 -0.18800007703E+03 -0.55087104992E+03  0.56978052690E+03  0.81452612150E+03  0.10566000000E+00 0. -1.
          4    1    3    3  502    0  0.81565892567E+03  0.11187401126E+03 -0.38146215086E+03  0.90737459186E+03  0.00000000000E+00 0.  1.
         -4    1    4    4    0  501 -0.33294857087E+03  0.42149109986E+03  0.74726074613E+03  0.92027611119E+03  0.00000000000E+00 0. -1.
</event>
<event>
 8    1  0.7096247E-006  0.1975782E+04  0.7818608E-02  0.8178324E-01
          2   -1    0    0  502    0  0.00000000000E+00  0.00000000000E+00  0.36017689977E+04  0.36017689977E+04  0.00000000000E+00 0.  1.
         -2   -1    0    0    0  501 -0.00000000000E+00 -0.00000000000E+00 -0.10919099601E+04  0.10919099601E+04  0.00000000000E+00 0. -1.
    9000010    2    1    2  502    0  0.69326883362E+03  0.15500120237E+04  0.10469416404E+04  0.22269207886E+04  0.98991436539E+03 0.  0.
   -9000010    2    1    2    0  501 -0.69326883362E+03 -0.15500120237E+04  0.14629173972E+04  0.24667581692E+04  0.10303444108E+04 0.  0.
        -13    1    3    3    0    0  0.63826393079E+01  0.11433294097E+04  0.44392271588E+03  0.12265032678E+04  0.10566000000E+00 0.  1.
         13    1    4    4    0    0 -0.48295406905E+03 -0.16619710375E+04  0.11695931903E+04  0.20888610782E+04  0.10566000000E+00 0. -1.
          4    1    3    3  502    0  0.68688619431E+03  0.40668261403E+03  0.60301892454E+03  0.10004175208E+04  0.00000000000E+00 0.  1.
         -4    1    4    4    0  501 -0.21031476457E+03  0.11195901381E+03  0.29332420692E+03  0.37789709093E+03  0.00000000000E+00 0. -1.
</event>
<event>
 8    1  0.7096247E-006  0.1383023E+04  0.7818608E-02  0.8480173E-01
          2   -1    0    0  502    0  0.00000000000E+00  0.00000000000E+00  0.16144307781E+04  0.16144307781E+04  0.00000000000E+00 0. -1.
         -2   -1    0    0    0  501 -0.00000000000E+00 -0.00000000000E+00 -0.12258790876E+04  0.12258790876E+04  0.00000000000E+00 0.  1.
    9000010    2    1    2  502    0 -0.69902837210E+03  0.67499226758E+03 -0.66233513563E+02  0.13807813048E+04  0.97873127417E+03 0.  0.
   -9000010    2    1    2    0  501  0.69902837210E+03 -0.67499226758E+03  0.45478520399E+03  0.14595285609E+04  0.98951443249E+03 0.  0.
        -13    1    3    3    0    0 -0.51786981079E+03  0.91797625872E+03 -0.15418110385E+03  0.10651954640E+04  0.10566000000E+00 0.  1.
         13    1    4    4    0    0  0.83387327511E+03 -0.74316788362E+03  0.16014232078E+03  0.11284009554E+04  0.10566000000E+00 0. -1.
          4    1    3    3  502    0 -0.18115856131E+03 -0.24298399114E+03  0.87947590290E+02  0.31558584082E+03  0.00000000000E+00 0.  1.
         -4    1    4    4    0  501 -0.13484490301E+03  0.68175616039E+02  0.29464288321E+03  0.33112760549E+03  0.00000000000E+00 0. -1.
</event>
<event>
 8    1  0.7096247E-006  0.1262408E+04  0.7818608E-02  0.8560993E-01
         -1   -1    0    0    0  501 -0.00000000000E+00  0.00000000000E+00  0.13496279964E+04  0.13496279964E+04  0.00000000000E+00 0.  1.
          1   -1    0    0  502    0  0.00000000000E+00 -0.00000000000E+00 -0.11810472969E+04  0.11810472969E+04  0.00000000000E+00 0. -1.
    9000010    2    1    2  502    0 -0.63188351102E+03 -0.49289800393E+03  0.73008076376E+02  0.12769491381E+04  0.99148560670E+03 0.  0.
   -9000010    2    1    2    0  501  0.63188351102E+03  0.49289800393E+03  0.95572623088E+02  0.12537261552E+04  0.95941124248E+03 0.  0.
        -13    1    3    3    0    0  0.24506747554E+03 -0.18575894655E+03 -0.11613546406E+03  0.32871250503E+03  0.10566000000E+00 0.  1.
         13    1    4    4    0    0  0.51831557421E+03  0.77827326701E+03  0.10939621882E+02  0.93513635321E+03  0.10566000000E+00 0. -1.
          4    1    3    3  502    0 -0.87695098656E+03 -0.30713905739E+03  0.18914354043E+03  0.94823663306E+03  0.00000000000E+00 0.  1.
         -4    1    4    4    0  501  0.11356793681E+03 -0.28537526307E+03  0.84633001206E+02  0.31858980200E+03  0.00000000000E+00 0. -1.
</event>
<event>
 8    1  0.7096247E-006  0.1382404E+04  0.7818608E-02  0.8480566E-01
         -1   -1    0    0    0  501 -0.00000000000E+00  0.00000000000E+00  0.68236443008E+03  0.68236443008E+03  0.00000000000E+00 0.  1.
          1   -1    0    0  502    0  0.00000000000E+00 -0.00000000000E+00 -0.29805001392E+04  0.29805001392E+04  0.00000000000E+00 0. -1.
    9000010    2    1    2  502    0 -0.94365870893E+03 -0.19301502902E+03 -0.16058559847E+04  0.21248088211E+04  0.10041377009E+04 0.  0.
   -9000010    2    1    2    0  501  0.94365870893E+03  0.19301502902E+03 -0.69227972441E+03  0.15380557482E+04  0.97909024468E+03 0.  0.
        -13    1    3    3    0    0 -0.59754475006E+03 -0.22593619961E+03 -0.18941490076E+03  0.66632192701E+03  0.10566000000E+00 0.  1.
         13    1    4    4    0    0  0.59958983245E+03  0.26363125525E+03 -0.91268482576E+03  0.11233890725E+04  0.10566000000E+00 0. -1.
          4    1    3    3  502    0 -0.34611395887E+03  0.32921170591E+02 -0.14164410840E+04  0.14584868941E+04  0.00000000000E+00 0.  1.
         -4    1    4    4    0  501  0.34406887649E+03 -0.70616226230E+02  0.22040510136E+03  0.41466667563E+03  0.00000000000E+00 0. -1.
</event>
<event>
 8    1  0.7096247E-006  0.1072389E+04  0.7818608E-02  0.8709399E-01
          2   -1    0    0  502    0  0.00000000000E+00  0.00000000000E+00  0.29363560364E+04  0.29363560364E+04  0.00000000000E+00 0. -1.
         -2   -1    0    0    0  501 -0.00000000000E+00 -0.00000000000E+00 -0.59046022651E+03  0.59046022651E+03  0.00000000000E+00 0.  1.
    9000010    2    1    2  502    0 -0.61800911854E+02  0.38439332865E+03  0.21918705612E+04  0.24375662006E+04  0.99290223158E+03 0.  0.
   -9000010    2    1    2    0  501  0.61800911854E+02 -0.38439332865E+03  0.15402524868E+03  0.10892500623E+04  0.10055666746E+04 0.  0.
        -13    1    3    3    0    0 -0.30218217101E+03  0.18446015971E+03  0.17193323065E+03  0.39357421404E+03  0.10566000000E+00 0.  1.
         13    1    4    4    0    0  0.20219035919E+03 -0.65875410752E+03  0.29594849169E+03  0.74994895588E+03  0.10566000000E+00 0. -1.
          4    1    3    3  502    0  0.24038125915E+03  0.19993316894E+03  0.20199373306E+04  0.20439919866E+04  0.00000000000E+00 0.  1.
         -4    1    4    4    0  501 -0.14038944733E+03  0.27436077887E+03 -0.14192324301E+03  0.33930110641E+03  0.00000000000E+00 0. -1.
</event>
<event>
 8    1  0.7096247E-006  0.1172393E+04  0.7818608E-02  0.8627646E-01
         -4   -1    0    0    0  501 -0.00000000000E+00  0.00000000000E+00  0.14759170768E+04  0.14759170768E+04  0.00000000000E+00 0. -1.
          4   -1    0    0  502    0  0.00000000000E+00 -0.00000000000E+00 -0.97790004048E+03  0.97790004048E+03  0.00000000000E+00 0.  1.
    9000010    2    1    2  502    0  0.53691620733E+03 -0.30116763088E+03  0.51664993698E+03  0.12802091769E+04  0.99650761346E+03 0.  0.
   -9000010    2    1    2    0  501 -0.53691620733E+03  0.30116763088E+03 -0.18632900629E+02  0.11736079404E+04  0.99901324176E+03 0.  0.
        -13    1    3    3    0    0 -0.99446502920E+02 -0.15959116765E+03  0.59461789688E+03  0.62364204652E+03  0.10566000000E+00 0.  1.
         13    1    4    4    0    0 -0.78135967990E+03  0.51533362633E+02  0.13026416499E+03  0.79381824160E+03  0.10566000000E+00 0. -1.
          4    1    3    3  502    0  0.63636271025E+03 -0.14157646323E+03 -0.77967959899E+02  0.65656713039E+03  0.00000000000E+00 0.  1.
         -4    1    4    4    0  501  0.24444347258E+03  0.24963426825E+03 -0.14889706562E+03  0.37978969881E+03  0.00000000000E+00 0. -1.
</event>
<event>
 8    1  0.7096247E-006  0.1281472E+04  0.7818608E-02  0.8547614E-01
         -2   -1    0    0    0  501 -0.00000000000E+00  0.00000000000E+00  0.74892620411E+03  0.74892620411E+03  0.00000000000E+00 0. -1.
          2   -1    0    0  502    0  0.00000000000E+00 -0.00000000000E+00 -0.21934348699E+04  0.21934348699E+04  0.00000000000E+00 0.  1.
    9000010    2    1    2  502    0  0.61559460025E+03 -0.55338607758E+03 -0.75211188806E+03  0.14928979615E+04  0.98887773183E+03 0.  0.
   -9000010    2    1    2    0  501 -0.61559460025E+03  0.55338607758E+03 -0.69239677777E+03  0.14494631126E+04  0.96764515919E+03 0.  0.
        -13    1    3    3    0    0  0.26975038810E+02 -0.68575153402E+03 -0.40107279133E+03  0.79488503209E+03  0.10566000000E+00 0.  1.
         13    1    4    4    0    0  0.71608056308E+01  0.19566198218E+03  0.21595158190E+03  0.29149611541E+03  0.10566000000E+00 0. -1.
          4    1    3    3  502    0  0.58861956144E+03  0.13236545644E+03 -0.35103909673E+03  0.69801292939E+03  0.00000000000E+00 0.  1.
         -4    1    4    4    0  501 -0.62275540588E+03  0.35772409540E+03 -0.90834835967E+03  0.11579669972E+04  0.00000000000E+00 0. -1.
</event>
<event>
 8    1  0.7096247E-006  0.1033694E+04  0.7818608E-02  0.8743562E-01
         -1   -1    0    0    0  501 -0.00000000000E+00  0.00000000000E+00  0.10255448173E+04  0.10255448173E+04  0.00000000000E+00 0.  1.
          1   -1    0    0  502    0  0.00000000000E+00 -0.00000000000E+00 -0.10454514634E+04  0.10454514634E+04  0.00000000000E+00 0. -1.
    9000010    2    1    2  502    0  0.22006827091E+03  0.16206926990E+03 -0.69162279266E+02  0.10252877262E+04  0.98576620377E+03 0.  0.
   -9000010    2    1    2    0  501 -0.22006827091E+03 -0.16206926990E+03  0.49255633215E+02  0.10457085545E+04  0.10081586043E+04 0.  0.
        -13    1    3    3    0    0 -0.23816122381E+03  0.42991509582E+03 -0.52313690965E+02  0.49425144569E+03  0.10566000000E+00 0.  1.
         13    1    4    4    0    0 -0.56146483303E+03 -0.31642724733E+03 -0.79847678816E+02  0.64941868202E+03  0.10566000000E+00 0. -1.
          4    1    3    3  502    0  0.45822949471E+03 -0.26784582592E+03 -0.16848588301E+02  0.53103628051E+03  0.00000000000E+00 0.  1.
         -4    1    4    4    0  501  0.34139656212E+03  0.15435797743E+03  0.12910331203E+03  0.39628987244E+03  0.00000000000E+00 0. -1.
</event>
<event>
 8    1  0.7096247E-006  0.1633525E+04  0.7818608E-02  0.8336544E-01
          2   -1    0    0  502    0  0.00000000000E+00  0.00000000000E+00  0.12369516012E+04  0.12369516012E+04  0.00000000000E+00 0. -1.
         -2   -1    0    0    0  501 -0.00000000000E+00 -0.00000000000E+00 -0.21608720785E+04  0.21608720785E+04  0.00000000000E+00 0.  1.
    9000010    2    1    2  502    0  0.53544608563E+03  0.11483983745E+04 -0.39966314448E+03  0.16987497459E+04  0.10585361274E+04 0.  0.
   -9000010    2    1    2    0  501 -0.53544608563E+03 -0.11483983745E+04 -0.52425733283E+03  0.16990739338E+04  0.10032373321E+04 0.  0.
        -13    1    3    3    0    0  0.36410584463E+03  0.22049438190E+02 -0.42382871938E+03  0.55918694401E+03  0.10566000000E+00 0.  1.
         13    1    4    4    0    0 -0.54991345871E+03 -0.98957953743E+03  0.19638391896E+02  0.11322800672E+04  0.10566000000E+00 0. -1.
          4    1    3    3  502    0  0.17134024100E+03  0.11263489363E+04  0.24165574894E+02  0.11395628019E+04  0.00000000000E+00 0.  1.
         -4    1    4    4    0  501  0.14467373079E+02 -0.15881883708E+03 -0.54389572472E+03  0.56679386664E+03  0.00000000000E+00 0. -1.
</event>
<event>
 8    1  0.7096247E-006  0.1426909E+04  0.7818608E-02  0.8452846E-01
          2   -1    0    0  502    0  0.00000000000E+00  0.00000000000E+00  0.33169025946E+04  0.33169025946E+04  0.00000000000E+00 0.  1.
         -2   -1    0    0    0  501 -0.00000000000E+00 -0.00000000000E+00 -0.61674529825E+03  0.61674529825E+03  0.00000000000E+00 0. -1.
    9000010    2    1    2  502    0  0.49646704946E+03  0.89061557157E+03  0.14815606233E+04  0.20545554169E+04  0.99322729176E+03 0.  0.
   -9000010    2    1    2    0  501 -0.49646704946E+03 -0.89061557157E+03  0.12185966731E+04  0.18790924760E+04  0.10031625263E+04 0.  0.
        -13    1    3    3    0    0  0.19109159322E+02  0.87721904305E+03  0.63678926029E+03  0.10841489670E+04  0.10566000000E+00 0.  1.
         13    1    4    4    0    0  0.17327472061E+03 -0.49367124436E+03  0.89348799327E+03  0.10354014833E+04  0.10566000000E+00 0. -1.
          4    1    3    3  502    0  0.47735789013E+03  0.13396528514E+02  0.84477136301E+03  0.97040644990E+03  0.00000000000E+00 0.  1.
         -4    1    4    4    0  501 -0.66974177007E+03 -0.39694432720E+03  0.32510867982E+03  0.84369099270E+03  0.00000000000E+00 0. -1.
</event>
<event>
 8    1  0.7096247E-006  0.1308385E+04  0.7818608E-02  0.8529129E-01
          2   -1    0    0  502    0  0.00000000000E+00  0.00000000000E+00  0.27133207253E+04  0.27133207253E+04  0.00000000000E+00 0. -1.
         -2   -1    0    0    0  501 -0.00000000000E+00 -0.00000000000E+00 -0.63097978531E+03  0.63097978531E+03  0.00000000000E+00 0.  1.
    9000010    2    1    2  502    0  0.87366453164E+02 -0.84528431846E+03  0.10234708252E+04  0.16604825497E+04  0.99376621588E+03 0.  0.
   -9000010    2    1    2    0  501 -0.87366453164E+02  0.84528431846E+03  0.10588701148E+04  0.16838179609E+04  0.99594102693E+03 0.  0.
        -13    1    3    3    0    0  0.19326611962E+03 -0.55371189073E+03  0.11765071333E+04  0.13145789048E+04  0.10566000000E+00 0.  1.
         13    1    4    4    0    0 -0.73769903668E+01  0.31690204561E+03 -0.15843380019E+03  0.35437636308E+03  0.10566000000E+00 0. -1.
          4    1    3    3  502    0 -0.10589966646E+03 -0.29157242773E+03 -0.15303630818E+03  0.34590364495E+03  0.00000000000E+00 0.  1.
         -4    1    4    4    0  501 -0.79989462797E+02  0.52838227284E+03  0.12173039150E+04  0.13294415978E+04  0.00000000000E+00 0. -1.
</event>
<event>
 8    1  0.7096247E-006  0.1446496E+04  0.7818608E-02  0.8440973E-01
          4   -1    0    0  502    0  0.00000000000E+00  0.00000000000E+00  0.69247098202E+03  0.69247098202E+03  0.00000000000E+00 0.  1.
         -4   -1    0    0    0  501 -0.00000000000E+00 -0.00000000000E+00 -0.35537113076E+04  0.35537113076E+04  0.00000000000E+00 0. -1.
    9000010    2    1    2  502    0  0.72482461838E+03 -0.73789573606E+03 -0.61818291906E+03  0.15829139107E+04  0.10264528642E+04 0.  0.
   -9000010    2    1    2    0  501 -0.72482461838E+03  0.73789573606E+03 -0.22430574065E+04  0.26632683790E+04  0.99590716664E+03 0.  0.
        -13    1    3    3    0    0  0.15960077945E+03 -0.19133783863E+03  0.28955511268E+03  0.38200098395E+03  0.10566000000E+00 0.  1.
         13    1    4    4    0    0  0.18683040956E+03  0.28125602390E+03 -0.10003547638E+04  0.10558031150E+04  0.10566000000E+00 0. -1.
          4    1    3    3  502    0  0.56522383892E+03 -0.54655789743E+03 -0.90773803174E+03  0.12009129267E+04  0.00000000000E+00 0.  1.
         -4    1    4    4    0  501 -0.91165502794E+03  0.45663971216E+03 -0.12427026427E+04  0.16074652640E+04  0.00000000000E+00 0. -1.
</event>
<event>
 8    1  0.7096247E-006  0.1129268E+04  0.7818608E-02  0.8661818E-01
          2   -1    0    0  502    0  0.00000000000E+00  0.00000000000E+00  0.91015537958E+03  0.91015537958E+03  0.00000000000E+00 0. -1.
         -2   -1    0    0    0  501 -0.00000000000E+00 -0.00000000000E+00 -0.14890772609E+04  0.14890772609E+04  0.00000000000E+00 0.  1.
    9000010    2    1    2  502    0 -0.21426930111E+03  0.48749693979E+03 -0.58213593901E+03  0.12748558207E+04  0.10014042702E+04 0.  0.
   -9000010    2    1    2    0  501  0.21426930111E+03 -0.48749693979E+03  0.32140577300E+01  0.11243768198E+04  0.99027688199E+03 0.  0.
        -13    1    3    3    0    0  0.10737923950E+03 -0.19896439527E+03 -0.45240505526E+03  0.50575436415E+03  0.10566000000E+00 0.  1.
         13    1    4    4    0    0  0.20985792562E+02  0.30542365871E+03 -0.29656886362E+02  0.30757691211E+03  0.10566000000E+00 0. -1.
          4    1    3    3  502    0 -0.32164854061E+03  0.68646133506E+03 -0.12973088374E+03  0.76910145651E+03  0.00000000000E+00 0.  1.
         -4    1    4    4    0  501  0.19328350855E+03 -0.79292059851E+03  0.32870944092E+02  0.81679990767E+03  0.00000000000E+00 0. -1.
</event>
<event>
 8    1  0.7096247E-006  0.1282820E+04  0.7818608E-02  0.8546677E-01
         -2   -1    0    0    0  501 -0.00000000000E+00  0.00000000000E+00  0.10112080194E+04  0.10112080194E+04  0.00000000000E+00 0. -1.
          2   -1    0    0  502    0  0.00000000000E+00 -0.00000000000E+00 -0.16289706908E+04  0.16289706908E+04  0.00000000000E+00 0.  1.
    9000010    2    1    2  502    0 -0.75140939451E+03 -0.94284193957E+02 -0.27310291644E+03  0.13243936882E+04  0.10516310432E+04 0.  0.
   -9000010    2    1    2    0  501  0.75140939451E+03  0.94284193957E+02 -0.34465975503E+03  0.13157850220E+04  0.10193106936E+04 0.  0.
        -13    1    3    3    0    0 -0.50752454552E+03 -0.56793062278E+03 -0.12907429595E+03  0.77251960599E+03  0.10566000000E+00 0.  1.
         13    1    4    4    0    0  0.39522296645E+03  0.18396029018E+03 -0.68702691627E+03  0.81366367525E+03  0.10566000000E+00 0. -1.
          4    1    3    3  502    0 -0.24388484899E+03  0.47364642882E+03 -0.14402862049E+03  0.55187408221E+03  0.00000000000E+00 0.  1.
         -4    1    4    4    0  501  0.35618642805E+03 -0.89676096224E+02  0.34236716124E+03  0.50212134675E+03  0.00000000000E+00 0. -1.
</event>
<event>
 8    1  0.7096247E-006  0.1193161E+04  0.7818608E-02  0.8611730E-01
          2   -1    0    0  502    0  0.00000000000E+00  0.00000000000E+00  0.14437767539E+04  0.14437767539E+04  0.00000000000E+00 0. -1.
         -2   -1    0    0    0  501 -0.00000000000E+00 -0.00000000000E+00 -0.11592596701E+04  0.11592596701E+04  0.00000000000E+00 0.  1.
    9000010    2    1    2  502    0  0.10139226399E+03  0.59969506793E+03  0.64692536252E+03  0.13751269600E+04  0.10500224597E+04 0.  0.
   -9000010    2    1    2    0  501 -0.10139226399E+03 -0.59969506793E+03 -0.36240827870E+03  0.12279094640E+04  0.10032483868E+04 0.  0.
        -13    1    3    3    0    0 -0.23631167895E+03  0.63883661602E+03  0.43507270121E+02  0.68253082369E+03  0.10566000000E+00 0.  1.
         13    1    4    4    0    0 -0.46403822365E+02  0.10143858182E+03  0.26368712966E+03  0.28631104436E+03  0.10566000000E+00 0. -1.
          4    1    3    3  502    0  0.33770394293E+03 -0.39141548089E+02  0.60341809240E+03  0.69259613636E+03  0.00000000000E+00 0.  1.
         -4    1    4    4    0  501 -0.54988441620E+02 -0.70113364975E+03 -0.62609540835E+03  0.94159841965E+03  0.00000000000E+00 0. -1.
</event>
<event>
 8    1  0.7096247E-006  0.1143997E+04  0.7818608E-02  0.8649971E-01
         -1   -1    0    0    0  501 -0.00000000000E+00  0.00000000000E+00  0.10614899673E+04  0.10614899673E+04  0.00000000000E+00 0. -1.
          1   -1    0    0  502    0  0.00000000000E+00 -0.00000000000E+00 -0.12651966506E+04  0.12651966506E+04  0.00000000000E+00 0.  1.
    9000010    2    1    2  502    0 -0.33840801512E+03  0.46382397169E+03  0.80979142929E+02  0.11676802093E+04  0.10135417052E+04 0.  0.
   -9000010    2    1    2    0  501  0.33840801512E+03 -0.46382397169E+03 -0.28468582625E+03  0.11590064086E+04  0.96571070927E+03 0.  0.
        -13    1    3    3    0    0 -0.88429472690E+02 -0.24801783637E+03 -0.23194479742E+03  0.35090029782E+03  0.10566000000E+00 0.  1.
         13    1    4    4    0    0 -0.15348293127E+03 -0.56537437848E+03 -0.86784158136E+01  0.58590146278E+03  0.10566000000E+00 0. -1.
          4    1    3    3  502    0 -0.24997854243E+03  0.71184180806E+03  0.31292394035E+03  0.81677991150E+03  0.00000000000E+00 0.  1.
         -4    1    4    4    0  501  0.49189094638E+03  0.10155040678E+03 -0.27600741044E+03  0.57310494577E+03  0.00000000000E+00 0. -1.
</event>
<event>
 8    1  0.7096247E-006  0.1049458E+04  0.7818608E-02  0.8729459E-01
         -2   -1    0    0    0  501 -0.00000000000E+00  0.00000000000E+00  0.51784943560E+03  0.51784943560E+03  0.00000000000E+00 0. -1.
          2   -1    0    0  502    0  0.00000000000E+00 -0.00000000000E+00 -0.21351594738E+04  0.21351594738E+04  0.00000000000E+00 0.  1.
    9000010    2    1    2  502    0 -0.29253081652E+03 -0.15911357223E+03 -0.72294759706E+03  0.12713228611E+04  0.99132092766E+03 0.  0.
   -9000010    2    1    2    0  501  0.29253081652E+03  0.15911357223E+03 -0.89436244116E+03  0.13816860483E+04  0.99914000642E+03 0.  0.
        -13    1    3    3    0    0 -0.33743164653E+02 -0.39029086855E+03 -0.82189705838E+03  0.91048357974E+03  0.10566000000E+00 0.  1.
         13    1    4    4    0    0  0.31833071706E+03  0.26725079913E+03  0.60809888232E+02  0.42006581477E+03  0.10566000000E+00 0. -1.
          4    1    3    3  502    0 -0.25878765186E+03  0.23117729632E+03  0.98949461319E+02  0.36083928138E+03  0.00000000000E+00 0.  1.
         -4    1    4    4    0  501 -0.25799900548E+02 -0.10813722690E+03 -0.95517232939E+03  0.96162023354E+03  0.00000000000E+00 0. -1.
</event>
<event>
 8    1  0.7096247E-006  0.1033854E+04  0.7818608E-02  0.8743418E-01
          2   -1    0    0  502    0  0.00000000000E+00  0.00000000000E+00  0.98731121496E+03  0.98731121496E+03  0.00000000000E+00 0. -1.
         -2   -1    0    0    0  501 -0.00000000000E+00 -0.00000000000E+00 -0.10870577063E+04  0.10870577063E+04  0.00000000000E+00 0.  1.
    9000010    2    1    2  502    0 -0.25840008400E+03 -0.67481493312E+02 -0.11557345831E+03  0.10328369909E+04  0.99099478811E+03 0.  0.
   -9000010    2    1    2    0  501  0.25840008400E+03  0.67481493312E+02  0.15826966986E+02  0.10415319304E+04  0.10065852740E+04 0.  0.
        -13    1    3    3    0    0 -0.56573101759E+03 -0.16888647636E+03  0.15566084147E+03  0.61057721452E+03  0.10566000000E+00 0.  1.
         13    1    4    4    0    0 -0.26984852134E+03 -0.15286921652E+03 -0.26135957897E+03  0.40558114171E+03  0.10566000000E+00 0. -1.
          4    1    3    3  502    0  0.30733093360E+03  0.10140498305E+03 -0.27123429978E+03  0.42225977633E+03  0.00000000000E+00 0.  1.
         -4    1    4    4    0  501  0.52824860533E+03  0.22035070983E+03  0.27718654596E+03  0.63595078868E+03  0.00000000000E+00 0. -1.
</event>
<event>
 8    1  0.7096247E-006  0.1140182E+04  0.7818608E-02  0.8653022E-01
         -2   -1    0    0    0  501 -0.00000000000E+00  0.00000000000E+00  0.52644786059E+03  0.52644786059E+03  0.00000000000E+00 0. -1.
          2   -1    0    0  502    0  0.00000000000E+00 -0.00000000000E+00 -0.25479941359E+04  0.25479941359E+04  0.00000000000E+00 0.  1.
    9000010    2    1    2  502    0  0.57922215086E+03 -0.10316024693E+03 -0.72415678341E+03  0.13330900062E+04  0.95214787770E+03 0.  0.
   -9000010    2    1    2    0  501 -0.57922215086E+03  0.10316024693E+03 -0.12973894919E+04  0.17413519903E+04  0.10014723780E+04 0.  0.
        -13    1    3    3    0    0  0.61092407721E+02 -0.47621866124E+03 -0.33373425323E+03  0.58471793074E+03  0.10566000000E+00 0.  1.
         13    1    4    4    0    0  0.27889422423E+03 -0.18404433517E+02 -0.20348212871E+03  0.34572488969E+03  0.10566000000E+00 0. -1.
          4    1    3    3  502    0  0.51812974314E+03  0.37305841431E+03 -0.39042253019E+03  0.74837207543E+03  0.00000000000E+00 0.  1.
         -4    1    4    4    0  501 -0.85811637509E+03  0.12156468045E+03 -0.10939073632E+04  0.13956271006E+04  0.00000000000E+00 0. -1.
</event>
<event>
 8    1  0.7096247E-006  0.1327354E+04  0.7818608E-02  0.8516374E-01
         -1   -1    0    0    0  501 -0.00000000000E+00  0.00000000000E+00  0.10179361209E+04  0.10179361209E+04  0.00000000000E+00 0.  1.
          1   -1    0    0  502    0  0.00000000000E+00 -0.00000000000E+00 -0.19357134533E+04  0.19357134533E+04  0.00000000000E+00 0. -1.
    9000010    2    1    2  502    0  0.16132325501E+03 -0.82779920741E+03 -0.93456252256E+03  0.16114739555E+04  0.10060638549E+04 0.  0.
   -9000010    2    1    2    0  501 -0.16132325501E+03  0.82779920741E+03  0.16785190169E+02  0.13421756188E+04  0.10439717087E+04 0.  0.
        -13    1    3    3    0    0  0.32487272202E+03 -0.10136042094E+04 -0.78084049884E+03  0.13200938128E+04  0.10566000000E+00 0.  1.
         13    1    4    4    0    0 -0.13266099551E+03  0.96527504181E+03  0.30549952772E+03  0.10211193949E+04  0.10566000000E+00 0. -1.
          4    1    3    3  502    0 -0.16354946701E+03  0.18580500202E+03 -0.15372202372E+03  0.29138014262E+03  0.00000000000E+00 0.  1.
         -4    1    4    4    0  501 -0.28662259491E+02 -0.13747583440E+03 -0.28871433755E+03  0.32105622385E+03  0.00000000000E+00 0. -1.
</event>
<event>
 8    1  0.7096247E-006  0.1863383E+04  0.7818608E-02  0.8226402E-01
         -2   -1    0    0    0  501 -0.00000000000E+00  0.00000000000E+00  0.21101663932E+04  0.21101663932E+04  0.00000000000E+00 0.  1.
          2   -1    0    0  502    0  0.00000000000E+00 -0.00000000000E+00 -0.17396604479E+04  0.17396604479E+04  0.00000000000E+00 0. -1.
    9000010    2    1    2  502    0  0.15581228715E+04 -0.18145053936E+03 -0.26220266354E+03  0.18863752325E+04  0.10143914927E+04 0.  0.
   -9000010    2    1    2    0  501 -0.15581228715E+04  0.18145053936E+03  0.63270860880E+03  0.19634516085E+04  0.99707113819E+03 0.  0.
        -13    1    3    3    0    0  0.27466992156E+03 -0.40910102799E+03 -0.30974620857E+03  0.58202228634E+03  0.10566000000E+00 0.  1.
         13    1    4    4    0    0 -0.16514586509E+04  0.26026842970E+03  0.42914022249E+03  0.17260407506E+04  0.10566000000E+00 0. -1.
          4    1    3    3  502    0  0.12834529499E+04  0.22765048864E+03  0.47543545023E+02  0.13043529462E+04  0.00000000000E+00 0.  1.
         -4    1    4    4    0  501  0.93335779408E+02 -0.78817890349E+02  0.20356838631E+03  0.23741085793E+03  0.00000000000E+00 0. -1.
</event>
<event>
 8    1  0.7096247E-006  0.1966734E+04  0.7818608E-02  0.8182072E-01
         -2   -1    0    0    0  501 -0.00000000000E+00  0.00000000000E+00  0.43241974511E+04  0.43241974511E+04  0.00000000000E+00 0.  1.
          2   -1    0    0  502    0  0.00000000000E+00 -0.00000000000E+00 -0.11932847656E+04  0.11932847656E+04  0.00000000000E+00 0. -1.
    9000010    2    1    2  502    0 -0.89596190540E+03  0.14495590273E+04  0.18254166528E+03  0.19710032860E+04  0.97342867456E+03 0.  0.
   -9000010    2    1    2    0  501  0.89596190540E+03 -0.14495590273E+04  0.29483710202E+04  0.35464789308E+04  0.99027876070E+03 0.  0.
        -13    1    3    3    0    0 -0.22486913939E+03  0.92670005538E+03  0.48278798559E+03  0.10688420710E+04  0.10566000000E+00 0.  1.
         13    1    4    4    0    0  0.52197819181E+03 -0.78948957636E+03  0.71034085156E+03  0.11833592694E+04  0.10566000000E+00 0. -1.
          4    1    3    3  502    0 -0.67109276601E+03  0.52285897192E+03 -0.30024632031E+03  0.90216121506E+03  0.00000000000E+00 0.  1.
         -4    1    4    4    0  501  0.37398371359E+03 -0.66006945094E+03  0.22380301687E+04  0.23631196614E+04  0.00000000000E+00 0. -1.
</event>
<event>
 8    1  0.7096247E-006  0.1092776E+04  0.7818608E-02  0.8691998E-01
          1   -1    0    0  502    0  0.00000000000E+00  0.00000000000E+00  0.16137498216E+04  0.16137498216E+04  0.00000000000E+00 0.  1.
         -1   -1    0    0    0  501 -0.00000000000E+00 -0.00000000000E+00 -0.74229887004E+03  0.74229887004E+03  0.00000000000E+00 0. -1.
    9000010    2    1    2  502    0  0.16370208836E+03 -0.38400721918E+03  0.49539019963E+03  0.11889978718E+04  0.99701783891E+03 0.  0.
   -9000010    2    1    2    0  501 -0.16370208836E+03  0.38400721918E+03  0.37606075190E+03  0.11670508198E+04  0.10229007815E+04 0.  0.
        -13    1    3    3    0    0 -0.10029251070E+03  0.30514639855E+03  0.44770160470E+02  0.32431048500E+03  0.10566000000E+00 0.  1.
         13    1    4    4    0    0 -0.13184423051E+03  0.54785477823E+03  0.64127971220E+03  0.85367876839E+03  0.10566000000E+00 0. -1.
          4    1    3    3  502    0  0.26399459906E+03 -0.68915361773E+03  0.45062003916E+03  0.86468738678E+03  0.00000000000E+00 0.  1.
         -4    1    4    4    0  501 -0.31857857850E+02 -0.16384755905E+03 -0.26521896030E+03  0.31337205143E+03  0.00000000000E+00 0. -1.
</event>
<event>
 8    1  0.7096247E-006  0.1096329E+04  0.7818608E-02  0.8689005E-01
          2   -1    0    0  502    0  0.00000000000E+00  0.00000000000E+00  0.17201760563E+04  0.17201760563E+04  0.00000000000E+00 0. -1.
         -2   -1    0    0    0  501 -0.00000000000E+00 -0.00000000000E+00 -0.72052797369E+03  0.72052797369E+03  0.00000000000E+00 0.  1.
    9000010    2    1    2  502    0 -0.40621645821E+03 -0.24944768311E+03  0.70981600383E+03  0.13018948531E+04  0.98176142301E+03 0.  0.
   -9000010    2    1    2    0  501  0.40621645821E+03  0.24944768311E+03  0.28983207882E+03  0.11388091769E+04  0.99279794019E+03 0.  0.
        -13    1    3    3    0    0 -0.55507781401E+01  0.26906274731E+03 -0.75105671507E+02  0.27940373331E+03  0.10566000000E+00 0.  1.
         13    1    4    4    0    0 -0.50754515957E+02 -0.31668244641E+03 -0.68265729621E+02  0.32790854481E+03  0.10566000000E+00 0. -1.
          4    1    3    3  502    0 -0.40066568007E+03 -0.51851043042E+03  0.78492167534E+03  0.10224911198E+04  0.00000000000E+00 0.  1.
         -4    1    4    4    0  501  0.45697097416E+03  0.56613012952E+03  0.35809780844E+03  0.81090063213E+03  0.00000000000E+00 0. -1.
</event>
<event>
 8    1  0.7096247E-006  0.1133340E+04  0.7818608E-02  0.8658524E-01
         -2   -1    0    0    0  501 -0.00000000000E+00  0.00000000000E+00  0.10020715449E+04  0.10020715449E+04  0.00000000000E+00 0. -1.
          2   -1    0    0  502    0  0.00000000000E+00 -0.00000000000E+00 -0.13280742272E+04  0.13280742272E+04  0.00000000000E+00 0.  1.
    9000010    2    1    2  502    0  0.32663367406E+03 -0.41984385665E+03  0.52323987706E+02  0.11472438182E+04  0.10151217453E+04 0.  0.
   -9000010    2    1    2    0  501 -0.32663367406E+03  0.41984385665E+03 -0.37832667002E+03  0.11829019539E+04  0.98649254543E+03 0.  0.
        -13    1    3    3    0    0  0.61000097233E+03  0.31418155437E+02  0.64843455711E+02  0.61424178599E+03  0.10566000000E+00 0.  1.
         13    1    4    4    0    0 -0.52627734203E+03 -0.12419729074E+03 -0.20064250984E+03  0.57675838588E+03  0.10566000000E+00 0. -1.
          4    1    3    3  502    0 -0.28336729828E+03 -0.45126201209E+03 -0.12519468005E+02  0.53300203224E+03  0.00000000000E+00 0.  1.
         -4    1    4    4    0  501  0.19964366797E+03  0.54404114740E+03 -0.17768416018E+03  0.60614356798E+03  0.00000000000E+00 0. -1.
</event>
<event>
 8    1  0.7096247E-006  0.1086516E+04  0.7818608E-02  0.8697298E-01
          2   -1    0    0  502    0  0.00000000000E+00  0.00000000000E+00  0.17940622080E+04  0.17940622080E+04  0.00000000000E+00 0.  1.
         -2   -1    0    0    0  501 -0.00000000000E+00 -0.00000000000E+00 -0.80837248880E+03  0.80837248880E+03  0.00000000000E+00 0. -1.
    9000010    2    1    2  502    0  0.84187641609E+02 -0.38913624734E+03  0.10577175692E+04  0.15237986487E+04  0.10220965157E+04 0.  0.
   -9000010    2    1    2    0  501 -0.84187641609E+02  0.38913624734E+03 -0.72027850006E+02  0.10786360482E+04  0.99987656001E+03 0.  0.
        -13    1    3    3    0    0  0.24764303420E+03  0.24947971272E+03  0.10802881778E+03  0.36774642906E+03  0.10566000000E+00 0.  1.
         13    1    4    4    0    0  0.57136734572E+02  0.70359687018E+03  0.62247871786E+02  0.70865222138E+03  0.10566000000E+00 0. -1.
          4    1    3    3  502    0 -0.16345539259E+03 -0.63861596006E+03  0.94968875145E+03  0.11560522196E+04  0.00000000000E+00 0.  1.
         -4    1    4    4    0  501 -0.14132437618E+03 -0.31446062284E+03 -0.13427572179E+03  0.36998382679E+03  0.00000000000E+00 0. -1.
</event>
<event>
 8    1  0.7096247E-006  0.1085090E+04  0.7818608E-02  0.8698511E-01
         -1   -1    0    0    0  501 -0.00000000000E+00  0.00000000000E+00  0.11759814532E+04  0.11759814532E+04  0.00000000000E+00 0.  1.
          1   -1    0    0  502    0  0.00000000000E+00 -0.00000000000E+00 -0.10035493342E+04  0.10035493342E+04  0.00000000000E+00 0. -1.
    9000010    2    1    2  502    0  0.30161764419E+03 -0.32042611517E+03  0.13884005408E+03  0.10983223689E+04  0.99668920273E+03 0.  0.
   -9000010    2    1    2    0  501 -0.30161764419E+03  0.32042611517E+03  0.33592064960E+02  0.10812084185E+04  0.98703450737E+03 0.  0.
        -13    1    3    3    0    0  0.17505719873E+03 -0.22127543598E+03  0.57117422103E+03  0.63706188344E+03  0.10566000000E+00 0.  1.
         13    1    4    4    0    0 -0.43341274468E+03  0.51290992907E+03 -0.24773022308E+03  0.71574679684E+03  0.10566000000E+00 0. -1.
          4    1    3    3  502    0  0.12656044547E+03 -0.99150679189E+02 -0.43233416694E+03  0.46126048546E+03  0.00000000000E+00 0.  1.
         -4    1    4    4    0  501  0.13179510048E+03 -0.19248381390E+03  0.28132228805E+03  0.36546162162E+03  0.00000000000E+00 0. -1.
</event>
<event>
 8    1  0.7096247E-006  0.1329872E+04  0.7818608E-02  0.8514698E-01
         -2   -1    0    0    0  501 -0.00000000000E+00  0.00000000000E+00  0.23753431427E+04  0.23753431427E+04  0.00000000000E+00 0. -1.
          2   -1    0    0  502    0  0.00000000000E+00 -0.00000000000E+00 -0.83436326828E+03  0.83436326828E+03  0.00000000000E+00 0.  1.
    9000010    2    1    2  502    0 -0.86677002048E+03  0.22034304870E+03  0.24928282546E+03  0.13629458906E+04  0.99781673977E+03 0.  0.
   -9000010    2    1    2    0  501  0.86677002048E+03 -0.22034304870E+03  0.12916970490E+04  0.18467605204E+04  0.97067081227E+03 0.  0.
        -13    1    3    3    0    0 -0.29411930018E+03  0.58578132267E+03  0.18218499269E+03  0.68032147067E+03  0.10566000000E+00 0.  1.
         13    1    4    4    0    0  0.54534910980E+03  0.13535240099E+03  0.12439674197E+04  0.13649838374E+04  0.10566000000E+00 0. -1.
          4    1    3    3  502    0 -0.57265072030E+03 -0.36543827397E+03  0.67097832771E+02  0.68262441995E+03  0.00000000000E+00 0.  1.
         -4    1    4    4    0  501  0.32142091068E+03 -0.35569544970E+03  0.47729629320E+02  0.48177668299E+03  0.00000000000E+00 0. -1.
</event>
<event>
 8    1  0.7096247E-006  0.1617450E+04  0.7818608E-02  0.8344938E-01
         -2   -1    0    0    0  501 -0.00000000000E+00  0.00000000000E+00  0.12744127299E+04  0.12744127299E+04  0.00000000000E+00 0. -1.
          2   -1    0    0  502    0  0.00000000000E+00 -0.00000000000E+00 -0.20533833166E+04  0.20533833166E+04  0.00000000000E+00 0.  1.
    9000010    2    1    2  502    0 -0.10001715596E+04  0.79035395271E+03 -0.36135020797E+03  0.16534829964E+04  0.98915596720E+03 0.  0.
   -9000010    2    1    2    0  501  0.10001715596E+04 -0.79035395271E+03 -0.41762037865E+03  0.16743130501E+04  0.10019555328E+04 0.  0.
        -13    1    3    3    0    0 -0.27135993686E+03 -0.15335594901E+03  0.16203562829E+03  0.35129733621E+03  0.10566000000E+00 0.  1.
         13    1    4    4    0    0  0.47252842832E+03 -0.32929040249E+02  0.24952045268E+03  0.53537641406E+03  0.10566000000E+00 0. -1.
          4    1    3    3  502    0 -0.72881162273E+03  0.94370990172E+03 -0.52338583626E+03  0.13021856602E+04  0.00000000000E+00 0.  1.
         -4    1    4    4    0  501  0.52764313127E+03 -0.75742491246E+03 -0.66714083133E+03  0.11389366360E+04  0.00000000000E+00 0. -1.
</event>
<event>
 8    1  0.7096247E-006  0.1233048E+04  0.7818608E-02  0.8582084E-01
         -1   -1    0    0    0  501 -0.00000000000E+00  0.00000000000E+00  0.81060797607E+03  0.81060797607E+03  0.00000000000E+00 0. -1.
          1   -1    0    0  502    0  0.00000000000E+00 -0.00000000000E+00 -0.18927630190E+04  0.18927630190E+04  0.00000000000E+00 0.  1.
    9000010    2    1    2  502    0 -0.58743405540E+03 -0.41369616490E+03 -0.66983353907E+03  0.14036073683E+04  0.10026033054E+04 0.  0.
   -9000010    2    1    2    0  501  0.58743405540E+03  0.41369616490E+03 -0.41232150390E+03  0.12997636268E+04  0.10015753475E+04 0.  0.
        -13    1    3    3    0    0 -0.39479619369E+03 -0.66757930952E+03 -0.14414877330E+03  0.78886313709E+03  0.10566000000E+00 0.  1.
         13    1    4    4    0    0  0.64142475530E+02  0.56115213565E+03 -0.49354221984E+03  0.75005993790E+03  0.10566000000E+00 0. -1.
          4    1    3    3  502    0 -0.19263786171E+03  0.25388314462E+03 -0.52568476577E+03  0.61474423125E+03  0.00000000000E+00 0.  1.
         -4    1    4    4    0  501  0.52329157987E+03 -0.14745597075E+03  0.81220715936E+02  0.54970368888E+03  0.00000000000E+00 0. -1.
</event>
<event>
 8    1  0.7096247E-006  0.1558363E+04  0.7818608E-02  0.8376681E-01
          2   -1    0    0  502    0  0.00000000000E+00  0.00000000000E+00  0.12237840600E+04  0.12237840600E+04  0.00000000000E+00 0.  1.
         -2   -1    0    0    0  501 -0.00000000000E+00 -0.00000000000E+00 -0.21677378611E+04  0.21677378611E+04  0.00000000000E+00 0. -1.
    9000010    2    1    2  502    0  0.10255680112E+04 -0.49773241244E+03  0.28553331021E+02  0.15282312065E+04  0.10174222465E+04 0.  0.
   -9000010    2    1    2    0  501 -0.10255680112E+04  0.49773241244E+03 -0.97250713211E+03  0.18632907147E+04  0.11074993749E+04 0.  0.
        -13    1    3    3    0    0  0.24833195220E+03 -0.67096617366E+03  0.12438100128E+03  0.72617835917E+03  0.10566000000E+00 0.  1.
         13    1    4    4    0    0 -0.26951624851E+03  0.14643844014E+03  0.24164049289E+03  0.39047837831E+03  0.10566000000E+00 0. -1.
          4    1    3    3  502    0  0.77723605901E+03  0.17323376123E+03 -0.95827670258E+02  0.80205284729E+03  0.00000000000E+00 0.  1.
         -4    1    4    4    0  501 -0.75605176270E+03  0.35129397229E+03 -0.12141476250E+04  0.14728123364E+04  0.00000000000E+00 0. -1.
</event>
<event>
 8    1  0.7096247E-006  0.1487803E+04  0.7818608E-02  0.8416553E-01
         -2   -1    0    0    0  501 -0.00000000000E+00  0.00000000000E+00  0.11532622762E+04  0.11532622762E+04  0.00000000000E+00 0. -1.
          2   -1    0    0  502    0  0.00000000000E+00 -0.00000000000E+00 -0.19243787496E+04  0.19243787496E+04  0.00000000000E+00 0.  1.
    9000010    2    1    2  502    0  0.75471942347E+03  0.77913194619E+03 -0.30478611984E+03  0.15011308204E+04  0.99189271771E+03 0.  0.
   -9000010    2    1    2    0  501 -0.75471942347E+03 -0.77913194619E+03 -0.46633035355E+03  0.15765102054E+04  0.10446398573E+04 0.  0.
        -13    1    3    3    0    0 -0.85100116998E+02  0.10233910888E+02  0.22831410381E+03  0.24387313097E+03  0.10566000000E+00 0.  1.
         13    1    4    4    0    0 -0.48249606263E+03 -0.67863369474E+03  0.19422535803E+03  0.85502610660E+03  0.10566000000E+00 0. -1.
          4    1    3    3  502    0  0.83981954046E+03  0.76889803530E+03 -0.53310022365E+03  0.12572576895E+04  0.00000000000E+00 0.  1.
         -4    1    4    4    0  501 -0.27222336084E+03 -0.10049825145E+03 -0.66055571158E+03  0.72148409881E+03  0.00000000000E+00 0. -1.
</event>
<event>
 8    1  0.7096247E-006  0.1537351E+04  0.7818608E-02  0.8388322E-01
         -2   -1    0    0    0  501 -0.00000000000E+00  0.00000000000E+00  0.15235175737E+04  0.15235175737E+04  0.00000000000E+00 0. -1.
          2   -1    0    0  502    0  0.00000000000E+00 -0.00000000000E+00 -0.15604069147E+04  0.15604069147E+04  0.00000000000E+00 0.  1.
    9000010    2    1    2  502    0  0.81897004236E+03 -0.83184149888E+03  0.99261197916E+02  0.15421130988E+04  0.10027900151E+04 0.  0.
   -9000010    2    1    2    0  501 -0.81897004236E+03  0.83184149888E+03 -0.13615053887E+03  0.15418113896E+04  0.99798456012E+03 0.  0.
        -13    1    3    3    0    0  0.81781495948E+03 -0.15652464719E+03 -0.98423292499E+02  0.83845597904E+03  0.10566000000E+00 0.  1.
         13    1    4    4    0    0 -0.59486235562E+03  0.10426606762E+04  0.11640453539E+02  0.12004740810E+04  0.10566000000E+00 0. -1.
          4    1    3    3  502    0  0.11550828867E+01 -0.67531685169E+03  0.19768449041E+03  0.70365711973E+03  0.00000000000E+00 0.  1.
         -4    1    4    4    0  501 -0.22410768674E+03 -0.21081917732E+03 -0.14779099241E+03  0.34133730857E+03  0.00000000000E+00 0. -1.
</event>
<event>
 8    1  0.7096247E-006  0.1286292E+04  0.7818608E-02  0.8544269E-01
          1   -1    0    0  502    0  0.00000000000E+00  0.00000000000E+00  0.13126379973E+04  0.13126379973E+04  0.00000000000E+00 0.  1.
         -1   -1    0    0    0  501 -0.00000000000E+00 -0.00000000000E+00 -0.12703924718E+04  0.12703924718E+04  0.00000000000E+00 0. -1.
    9000010    2    1    2  502    0  0.77858029628E+03 -0.18086939657E+03 -0.93000735639E+02  0.12875311936E+04  0.10050803059E+04 0.  0.
   -9000010    2    1    2    0  501 -0.77858029628E+03  0.18086939657E+03  0.13524626122E+03  0.12954992755E+04  0.10105076968E+04 0.  0.
        -13    1    3    3    0    0  0.67419400916E+03  0.29325602823E+03  0.14098175979E+03  0.74860705836E+03  0.10566000000E+00 0.  1.
         13    1    4    4    0    0  0.13773044496E+03  0.14385176673E+03 -0.23366350048E+03  0.30702060009E+03  0.10566000000E+00 0. -1.
          4    1    3    3  502    0  0.10438628712E+03 -0.47412542479E+03 -0.23398249543E+03  0.53892413524E+03  0.00000000000E+00 0.  1.
         -4    1    4    4    0  501 -0.91631074124E+03  0.37017629842E+02  0.36890976170E+03  0.98847867539E+03  0.00000000000E+00 0. -1.
</event>
<event>
 8    1  0.7096247E-006  0.1226205E+04  0.7818608E-02  0.8587086E-01
          2   -1    0    0  502    0  0.00000000000E+00  0.00000000000E+00  0.13542934751E+04  0.13542934751E+04  0.00000000000E+00 0. -1.
         -2   -1    0    0    0  501 -0.00000000000E+00 -0.00000000000E+00 -0.12285988165E+04  0.12285988165E+04  0.00000000000E+00 0.  1.
    9000010    2    1    2  502    0 -0.46027914607E+03 -0.52984507596E+03  0.46400212517E+03  0.13192318032E+04  0.10161111561E+04 0.  0.
   -9000010    2    1    2    0  501  0.46027914607E+03  0.52984507596E+03 -0.33830746662E+03  0.12636604885E+04  0.99488350639E+03 0.  0.
        -13    1    3    3    0    0 -0.54983776891E+03 -0.24631202791E+03  0.71153004896E+03  0.93234446904E+03  0.10566000000E+00 0.  1.
         13    1    4    4    0    0  0.65383263964E+03  0.79582718189E+02  0.16081076144E+02  0.65885441629E+03  0.10566000000E+00 0. -1.
          4    1    3    3  502    0  0.89558622836E+02 -0.28353304805E+03 -0.24752792378E+03  0.38688733414E+03  0.00000000000E+00 0.  1.
         -4    1    4    4    0  501 -0.19355349356E+03  0.45026235777E+03 -0.35438854276E+03  0.60480607217E+03  0.00000000000E+00 0. -1.
</event>
<event>
 8    1  0.7096247E-006  0.1238298E+04  0.7818608E-02  0.8578268E-01
         -1   -1    0    0    0  501 -0.00000000000E+00  0.00000000000E+00  0.10912605352E+04  0.10912605352E+04  0.00000000000E+00 0.  1.
          1   -1    0    0  502    0  0.00000000000E+00 -0.00000000000E+00 -0.15300576763E+04  0.15300576763E+04  0.00000000000E+00 0. -1.
    9000010    2    1    2  502    0 -0.33997784451E+03 -0.64318456509E+03  0.15690162603E+03  0.12357642219E+04  0.98652104509E+03 0.  0.
   -9000010    2    1    2    0  501  0.33997784451E+03  0.64318456509E+03 -0.59569876712E+03  0.13855539895E+04  0.10176598239E+04 0.  0.
        -13    1    3    3    0    0 -0.51830139623E+03 -0.50599518414E+03 -0.25376435323E+03  0.76750493277E+03  0.10566000000E+00 0.  1.
         13    1    4    4    0    0  0.28354406220E+03  0.90732292210E+03 -0.58304865898E+03  0.11151582265E+04  0.10566000000E+00 0. -1.
          4    1    3    3  502    0  0.17832355172E+03 -0.13718938095E+03  0.41066597927E+03  0.46825928915E+03  0.00000000000E+00 0.  1.
         -4    1    4    4    0  501  0.56433782312E+02 -0.26413835701E+03 -0.12650108135E+02  0.27039576304E+03  0.00000000000E+00 0. -1.
</event>
<event>
 8    1  0.7096247E-006  0.1235078E+04  0.7818608E-02  0.8580606E-01
          2   -1    0    0  502    0  0.00000000000E+00  0.00000000000E+00  0.21515133905E+04  0.21515133905E+04  0.00000000000E+00 0.  1.
         -2   -1    0    0    0  501 -0.00000000000E+00 -0.00000000000E+00 -0.75380015518E+03  0.75380015518E+03  0.00000000000E+00 0. -1.
    9000010    2    1    2  502    0  0.71960856584E+03  0.25214481921E+02  0.10483861110E+04  0.16136522921E+04  0.99312034722E+03 0.  0.
   -9000010    2    1    2    0  501 -0.71960856584E+03 -0.25214481921E+02  0.34932712427E+03  0.12916612535E+04  0.10138476690E+04 0.  0.
        -13    1    3    3    0    0 -0.23600520919E+03 -0.11010780304E+03  0.25143730025E+03  0.36199850024E+03  0.10566000000E+00 0.  1.
         13    1    4    4    0    0 -0.84101960977E+03 -0.31374707061E+03  0.38476702275E+03  0.97662525121E+03  0.10566000000E+00 0. -1.
          4    1    3    3  502    0  0.95561377503E+03  0.13532228496E+03  0.79694881075E+03  0.12516537919E+04  0.00000000000E+00 0.  1.
         -4    1    4    4    0  501  0.12141104393E+03  0.28853258869E+03 -0.35439898486E+02  0.31503600227E+03  0.00000000000E+00 0. -1.
</event>
<event>
 8    1  0.7096247E-006  0.1308531E+04  0.7818608E-02  0.8529030E-01
         -2   -1    0    0    0  501 -0.00000000000E+00  0.00000000000E+00  0.22259045904E+04  0.22259045904E+04  0.00000000000E+00 0. -1.
          2   -1    0    0  502    0  0.00000000000E+00 -0.00000000000E+00 -0.10120145788E+04  0.10120145788E+04  0.00000000000E+00 0.  1.
    9000010    2    1    2  502    0 -0.39057818967E+03 -0.74167734801E+03  0.13938041473E+04  0.19005648982E+04  0.98327021731E+03 0.  0.
   -9000010    2    1    2    0  501  0.39057818967E+03  0.74167734801E+03 -0.17991413574E+03  0.13373542711E+04  0.10264067125E+04 0.  0.
        -13    1    3    3    0    0 -0.68968821695E+03 -0.69480506900E+03  0.95657113966E+03  0.13687411285E+04  0.10566000000E+00 0.  1.
         13    1    4    4    0    0  0.40951445830E+03 -0.14454169316E+03 -0.11113068778E+03  0.44826826070E+03  0.10566000000E+00 0. -1.
          4    1    3    3  502    0  0.29911002729E+03 -0.46872279006E+02  0.43723300766E+03  0.53182376964E+03  0.00000000000E+00 0.  1.
         -4    1    4    4    0  501 -0.18936268638E+02  0.88621904117E+03 -0.68783447954E+02  0.88908601041E+03  0.00000000000E+00 0. -1.
</event>
<event>
 8    1  0.7096247E-006  0.1231782E+04  0.7818608E-02  0.8583006E-01
          1   -1    0    0  502    0  0.00000000000E+00  0.00000000000E+00  0.20801946773E+04  0.20801946773E+04  0.00000000000E+00 0.  1.
         -1   -1    0    0    0  501 -0.00000000000E+00 -0.00000000000E+00 -0.87400689189E+03  0.87400689189E+03  0.00000000000E+00 0. -1.
    9000010    2    1    2  502    0 -0.13989269017E+03  0.72324547199E+03  0.12064898738E+04  0.17287992983E+04  0.99522621588E+03 0.  0.
   -9000010    2    1    2    0  501  0.13989269017E+03 -0.72324547199E+03 -0.30208841833E+00  0.12254022708E+04  0.97926332342E+03 0.  0.
        -13    1    3    3    0    0 -0.51742758555E+03  0.44272494667E+03  0.10120936906E+04  0.12198648837E+04  0.10566000000E+00 0.  1.
         13    1    4    4    0    0  0.55820312975E+03 -0.36605880511E+03 -0.68943620584E+02  0.67107601420E+03  0.10566000000E+00 0. -1.
          4    1    3    3  502    0  0.37753489537E+03  0.28052052532E+03  0.19439618314E+03  0.50893441461E+03  0.00000000000E+00 0.  1.
         -4    1    4    4    0  501 -0.41831043958E+03 -0.35718666688E+03  0.68641532165E+02  0.55432625663E+03  0.00000000000E+00 0. -1.
</event>
<event>
 8    1  0.7096247E-006  0.1447488E+04  0.7818608E-02  0.8440377E-01
          2   -1    0    0  502    0  0.00000000000E+00  0.00000000000E+00  0.14366730778E+04  0.14366730778E+04  0.00000000000E+00 0. -1.
         -2   -1    0    0    0  501 -0.00000000000E+00 -0.00000000000E+00 -0.15960839034E+04  0.15960839034E+04  0.00000000000E+00 0.  1.
    9000010    2    1    2  502    0  0.63968859734E+03 -0.62996242130E+03 -0.50809700875E+03  0.14444671631E+04  0.10110730247E+04 0.  0.
   -9000010    2    1    2    0  501 -0.63968859734E+03  0.62996242130E+03  0.34868618311E+03  0.15882898181E+04  0.12629443132E+04 0.  0.
        -13    1    3    3    0    0  0.37824106155E+03 -0.50678782050E+03  0.21326020324E+03  0.66736805520E+03  0.10566000000E+00 0.  1.
         13    1    4    4    0    0 -0.40651368479E+03  0.53976167618E+03 -0.40938282724E+03  0.79005718363E+03  0.10566000000E+00 0. -1.
          4    1    3    3  502    0  0.26144753579E+03 -0.12317460080E+03 -0.72135721199E+03  0.77709910793E+03  0.00000000000E+00 0.  1.
         -4    1    4    4    0  501 -0.23317491255E+03  0.90200745121E+02  0.75806901036E+03  0.79823263447E+03  0.00000000000E+00 0. -1.
</event>
<event>
 8    1  0.7096247E-006  0.9901969E+03  0.7818608E-02  0.8783857E-01
         -1   -1    0    0    0  501 -0.00000000000E+00  0.00000000000E+00  0.90199487110E+03  0.90199487110E+03  0.00000000000E+00 0.  1.
          1   -1    0    0  502    0  0.00000000000E+00 -0.00000000000E+00 -0.12328145183E+04  0.12328145183E+04  0.00000000000E+00 0. -1.
    9000010    2    1    2  502    0  0.84380166781E+02  0.25850255016E+03 -0.52133304493E+03  0.10765624926E+04  0.90180656230E+03 0.  0.
   -9000010    2    1    2    0  501 -0.84380166781E+02 -0.25850255016E+03  0.19051339772E+03  0.10582468968E+04  0.10048122008E+04 0.  0.
        -13    1    3    3    0    0  0.41712825378E+01  0.58753398541E+03 -0.42277706716E+03  0.72384669875E+03  0.10566000000E+00 0.  1.
         13    1    4    4    0    0 -0.49664377832E+03  0.37664271839E+02 -0.42147292822E+02  0.49985002288E+03  0.10566000000E+00 0. -1.
          4    1    3    3  502    0  0.80208884244E+02 -0.32903143525E+03 -0.98555977769E+02  0.35271579387E+03  0.00000000000E+00 0.  1.
         -4    1    4    4    0  501  0.41226361154E+03 -0.29616682200E+03  0.23266069055E+03  0.55839687390E+03  0.00000000000E+00 0. -1.
</event>
<event>
 8    1  0.7096247E-006  0.1096474E+04  0.7818608E-02  0.8688884E-01
         -1   -1    0    0    0  501 -0.00000000000E+00  0.00000000000E+00  0.37455421571E+03  0.37455421571E+03  0.00000000000E+00 0.  1.
          1   -1    0    0  502    0  0.00000000000E+00 -0.00000000000E+00 -0.35853476111E+04  0.35853476111E+04  0.00000000000E+00 0. -1.
    9000010    2    1    2  502    0  0.17025688988E+02 -0.44750767438E+03 -0.95914839598E+03  0.14536234094E+04  0.99624413583E+03 0.  0.
   -9000010    2    1    2    0  501 -0.17025688988E+02  0.44750767438E+03 -0.22516449994E+04  0.25062784174E+04  0.10054716850E+04 0.  0.
        -13    1    3    3    0    0  0.32785348100E+03 -0.38692357194E+03 -0.10125687907E+04  0.11324722171E+04  0.10566000000E+00 0.  1.
         13    1    4    4    0    0 -0.14058960056E+03  0.31585187249E+03 -0.11845088606E+03  0.36545651549E+03  0.10566000000E+00 0. -1.
          4    1    3    3  502    0 -0.31082779201E+03 -0.60584102445E+02  0.53420394686E+02  0.32115119231E+03  0.00000000000E+00 0.  1.
         -4    1    4    4    0  501  0.12356391158E+03  0.13165580189E+03 -0.21331941133E+04  0.21408219019E+04  0.00000000000E+00 0. -1.
</event>
<event>
 8    1  0.7096247E-006  0.1413739E+04  0.7818608E-02  0.8460940E-01
          2   -1    0    0  502    0  0.00000000000E+00  0.00000000000E+00  0.13883541210E+04  0.13883541210E+04  0.00000000000E+00 0.  1.
         -2   -1    0    0    0  501 -0.00000000000E+00 -0.00000000000E+00 -0.17285715798E+04  0.17285715798E+04  0.00000000000E+00 0. -1.
    9000010    2    1    2  502    0 -0.91058804308E+03  0.37906848926E+03 -0.80718780752E+03  0.16267348506E+04  0.10108662689E+04 0.  0.
   -9000010    2    1    2    0  501  0.91058804308E+03 -0.37906848926E+03  0.46697034871E+03  0.14901908503E+04  0.10147630068E+04 0.  0.
        -13    1    3    3    0    0 -0.83082210601E+03 -0.17768615696E+03 -0.50187393592E+03  0.98677008514E+03  0.10566000000E+00 0.  1.
         13    1    4    4    0    0  0.62954584379E+03 -0.11130169178E+02  0.72492132508E+03  0.96018893392E+03  0.10566000000E+00 0. -1.
          4    1    3    3  502    0 -0.79765937073E+02  0.55675464622E+03 -0.30531387161E+03  0.63996476543E+03  0.00000000000E+00 0.  1.
         -4    1    4    4    0  501  0.28104219929E+03 -0.36793832008E+03 -0.25795097637E+03  0.53000191639E+03  0.00000000000E+00 0. -1.
</event>
<event>
 7    1  0.7096247E-006  0.1475990E+04  0.7818608E-02  0.8423453E-01
          2   -1    0    0  502    0  0.00000000000E+00  0.00000000000E+00  0.50720947915E+04  0.50720947915E+04  0.00000000000E+00 0. -1.
         -2   -1    0    0    0  501 -0.00000000000E+00 -0.00000000000E+00 -0.69369677479E+03  0.69369677479E+03  0.00000000000E+00 0.  1.
    9000010    2    1    2  502    0  0.85524884983E+03 -0.34339825072E+03  0.30345587005E+03  0.13823433311E+04  0.98458857720E+03 0.  0.
        -13    1    3    3    0    0  0.65806451096E+03 -0.13729988187E+03  0.64892029971E+03  0.93434347255E+03  0.10566000000E+00 0.  1.
         13    1    1    2    0    0 -0.79766992766E+03  0.50746478949E+03  0.13233180189E+04  0.16263358867E+04  0.10566000000E+00 0. -1.
          4    1    3    3  502    0  0.19718433887E+03 -0.20609836885E+03 -0.34546442966E+03  0.44799985860E+03  0.00000000000E+00 0.  1.
         -4    1    1    2    0  501 -0.57578922170E+02 -0.16406653877E+03  0.27516241278E+04  0.27571123484E+04  0.00000000000E+00 0. -1.
</event>
<event>
 8    1  0.7096247E-006  0.1149146E+04  0.7818608E-02  0.8645873E-01
          2   -1    0    0  502    0  0.00000000000E+00  0.00000000000E+00  0.94833491024E+03  0.94833491024E+03  0.00000000000E+00 0. -1.
         -2   -1    0    0    0  501 -0.00000000000E+00 -0.00000000000E+00 -0.17114233608E+04  0.17114233608E+04  0.00000000000E+00 0.  1.
    9000010    2    1    2  502    0  0.55350901203E+03  0.49928571478E+02 -0.95745466995E+03  0.15010552423E+04  0.10136973448E+04 0.  0.
   -9000010    2    1    2    0  501 -0.55350901203E+03 -0.49928571478E+02  0.19436621936E+03  0.11587030288E+04  0.99797264140E+03 0.  0.
        -13    1    3    3    0    0  0.69758387796E+03  0.37109212469E+03 -0.55060076091E+03  0.96306481655E+03  0.10566000000E+00 0.  1.
         13    1    4    4    0    0 -0.30185107585E+03  0.32870484548E+03 -0.25954657507E+03  0.51626096427E+03  0.10566000000E+00 0. -1.
          4    1    3    3  502    0 -0.14407486593E+03 -0.32116355321E+03 -0.40685390904E+03  0.53799042576E+03  0.00000000000E+00 0.  1.
         -4    1    4    4    0  501 -0.25165793617E+03 -0.37863341695E+03  0.45391279444E+03  0.64244206449E+03  0.00000000000E+00 0. -1.
</event>
<event>
 8    1  0.7096247E-006  0.1173855E+04  0.7818608E-02  0.8626514E-01
         -2   -1    0    0    0  501 -0.00000000000E+00  0.00000000000E+00  0.75904464420E+03  0.75904464420E+03  0.00000000000E+00 0. -1.
          2   -1    0    0  502    0  0.00000000000E+00 -0.00000000000E+00 -0.18183554674E+04  0.18183554674E+04  0.00000000000E+00 0.  1.
    9000010    2    1    2  502    0 -0.35843402885E+03 -0.47153673047E+03 -0.57853554652E+03  0.13028113800E+04  0.10058788555E+04 0.  0.
   -9000010    2    1    2    0  501  0.35843402885E+03  0.47153673047E+03 -0.48077527670E+03  0.12745887316E+04  0.10210826249E+04 0.  0.
        -13    1    3    3    0    0  0.33378171010E+03 -0.10633412337E+03 -0.33099987931E+03  0.48195239087E+03  0.10566000000E+00 0.  1.
         13    1    4    4    0    0 -0.26135331241E+03  0.30117971239E+03  0.96903596627E+02  0.41037189385E+03  0.10566000000E+00 0. -1.
          4    1    3    3  502    0 -0.69221573896E+03 -0.36520260710E+03 -0.24753566721E+03  0.82085898913E+03  0.00000000000E+00 0.  1.
         -4    1    4    4    0  501  0.61978734126E+03  0.17035701808E+03 -0.57767887332E+03  0.86421683777E+03  0.00000000000E+00 0. -1.
</event>
<event>
 8    1  0.7096247E-006  0.1525786E+04  0.7818608E-02  0.8394812E-01
          2   -1    0    0  502    0  0.00000000000E+00  0.00000000000E+00  0.14341954580E+04  0.14341954580E+04  0.00000000000E+00 0.  1.
         -2   -1    0    0    0  501 -0.00000000000E+00 -0.00000000000E+00 -0.17510355236E+04  0.17510355236E+04  0.00000000000E+00 0. -1.
    9000010    2    1    2  502    0 -0.10397033866E+04 -0.49187991457E+03  0.27203910232E+03  0.15479251244E+04  0.99956887466E+03 0.  0.
   -9000010    2    1    2    0  501  0.10397033866E+04  0.49187991457E+03 -0.58887916800E+03  0.16373058572E+04  0.10055161923E+04 0.  0.
        -13    1    3    3    0    0  0.11165804557E+03 -0.32203183961E+03 -0.39515455245E+02  0.34312316627E+03  0.10566000000E+00 0.  1.
         13    1    4    4    0    0  0.93696091372E+03  0.65026226841E+03 -0.76967216261E+03  0.13759113418E+04  0.10566000000E+00 0. -1.
          4    1    3    3  502    0 -0.11513614322E+04 -0.16984807496E+03  0.31155455756E+03  0.12048019582E+04  0.00000000000E+00 0.  1.
         -4    1    4    4    0  501  0.10274247287E+03 -0.15838235384E+03  0.18079299461E+03  0.26139451532E+03  0.00000000000E+00 0. -1.
</event>
<event>
 8    1  0.7096247E-006  0.1146734E+04  0.7818608E-02  0.8647790E-01
         -2   -1    0    0    0  501 -0.00000000000E+00  0.00000000000E+00  0.63868674115E+03  0.63868674115E+03  0.00000000000E+00 0.  1.
          2   -1    0    0  502    0  0.00000000000E+00 -0.00000000000E+00 -0.20771473027E+04  0.20771473027E+04  0.00000000000E+00 0. -1.
    9000010    2    1    2  502    0  0.51576355231E+03 -0.16115621227E+03 -0.85188795946E+03  0.14362177094E+04  0.10222645678E+04 0.  0.
   -9000010    2    1    2    0  501 -0.51576355231E+03  0.16115621227E+03 -0.58657260208E+03  0.12796163345E+04  0.10006833561E+04 0.  0.
        -13    1    3    3    0    0  0.34336767739E+02 -0.48712913075E+03 -0.66593983033E+03  0.82580244152E+03  0.10566000000E+00 0.  1.
         13    1    4    4    0    0 -0.25925657281E+03 -0.39574338864E+03 -0.70751359682E+02  0.47836447011E+03  0.10566000000E+00 0. -1.
          4    1    3    3  502    0  0.48142678457E+03  0.32597291847E+03 -0.18594812913E+03  0.61041526784E+03  0.00000000000E+00 0.  1.
         -4    1    4    4    0  501 -0.25650697950E+03  0.55689960091E+03 -0.51582124240E+03  0.80125186436E+03  0.00000000000E+00 0. -1.
</event>
<event>
 8    1  0.7096247E-006  0.1057362E+04  0.7818608E-02  0.8722485E-01
         -2   -1    0    0    0  501 -0.00000000000E+00  0.00000000000E+00  0.54632667045E+03  0.54632667045E+03  0.00000000000E+00 0.  1.
          2   -1    0    0  502    0  0.00000000000E+00 -0.00000000000E+00 -0.20465696899E+04  0.20465696899E+04  0.00000000000E+00 0. -1.
    9000010    2    1    2  502    0 -0.28467245534E+03  0.21049459681E+03 -0.74992596297E+03  0.13026712824E+04  0.10045979982E+04 0.  0.
   -9000010    2    1    2    0  501  0.28467245534E+03 -0.21049459681E+03 -0.75031705650E+03  0.12902250779E+04  0.98810863994E+03 0.  0.
        -13    1    3    3    0    0 -0.13120933916E+02  0.24505509509E+03  0.19843344384E+03  0.31559467888E+03  0.10566000000E+00 0.  1.
         13    1    4    4    0    0  0.27426338450E+03 -0.72922213714E+01  0.18638313743E+03  0.33168096969E+03  0.10566000000E+00 0. -1.
          4    1    3    3  502    0 -0.27155152142E+03 -0.34560498281E+02 -0.94835940681E+03  0.98707660357E+03  0.00000000000E+00 0.  1.
         -4    1    4    4    0  501  0.10409070835E+02 -0.20320237544E+03 -0.93670019393E+03  0.95854410824E+03  0.00000000000E+00 0. -1.
</event>
<event>
 8    1  0.7096247E-006  0.1380600E+04  0.7818608E-02  0.8481712E-01
         -1   -1    0    0    0  501 -0.00000000000E+00  0.00000000000E+00  0.15629542109E+04  0.15629542109E+04  0.00000000000E+00 0. -1.
          1   -1    0    0  502    0  0.00000000000E+00 -0.00000000000E+00 -0.12827131615E+04  0.12827131615E+04  0.00000000000E+00 0.  1.
    9000010    2    1    2  502    0 -0.71396901677E+03  0.63070637107E+03  0.45631482459E+03  0.14581912774E+04  0.10052642931E+04 0.  0.
   -9000010    2    1    2    0  501  0.71396901677E+03 -0.63070637107E+03 -0.17607377513E+03  0.13874760950E+04  0.99325004729E+03 0.  0.
        -13    1    3    3    0    0 -0.61972729411E+03  0.46923354462E+03  0.76928030812E+03  0.10936335045E+04  0.10566000000E+00 0.  1.
         13    1    4    4    0    0  0.76841725480E+03 -0.55045660118E+02  0.36905792216E+02  0.77126983011E+03  0.10566000000E+00 0. -1.
          4    1    3    3  502    0 -0.94241722662E+02  0.16147282644E+03 -0.31296548352E+03  0.36455777299E+03  0.00000000000E+00 0.  1.
         -4    1    4    4    0  501 -0.54448238035E+02 -0.57566071095E+03 -0.21297956735E+03  0.61620626487E+03  0.00000000000E+00 0. -1.
</event>
<event>
 8    1  0.7096247E-006  0.1371721E+04  0.7818608E-02  0.8487379E-01
          1   -1    0    0  502    0  0.00000000000E+00  0.00000000000E+00  0.89489478839E+03  0.89489478839E+03  0.00000000000E+00 0.  1.
         -1   -1    0    0    0  501 -0.00000000000E+00 -0.00000000000E+00 -0.21485287607E+04  0.21485287607E+04  0.00000000000E+00 0. -1.
    9000010    2    1    2  502    0  0.69529330742E+03  0.61634169447E+03 -0.41122782986E+03  0.14456294197E+04  0.10283123180E+04 0.  0.
   -9000010    2    1    2    0  501 -0.69529330742E+03 -0.61634169447E+03 -0.84240614239E+03  0.15977941294E+04  0.98994348495E+03 0.  0.
        -13    1    3    3    0    0  0.89428820196E+03  0.48858189836E+03 -0.56339755443E+03  0.11644228077E+04  0.10566000000E+00 0.  1.
         13    1    4    4    0    0  0.65101133864E+02 -0.48095232121E+03 -0.44608891952E+02  0.48738409629E+03  0.10566000000E+00 0. -1.
          4    1    3    3  502    0 -0.19899489454E+03  0.12775979610E+03  0.15216972457E+03  0.28120661199E+03  0.00000000000E+00 0.  1.
         -4    1    4    4    0  501 -0.76039444129E+03 -0.13538937325E+03 -0.79779725044E+03  0.11104100331E+04  0.00000000000E+00 0. -1.
</event>
<event>
 8    1  0.7096247E-006  0.1139066E+04  0.7818608E-02  0.8653916E-01
          2   -1    0    0  502    0  0.00000000000E+00  0.00000000000E+00  0.32446169736E+04  0.32446169736E+04  0.00000000000E+00 0.  1.
         -2   -1    0    0    0  501 -0.00000000000E+00 -0.00000000000E+00 -0.44697964477E+03  0.44697964477E+03  0.00000000000E+00 0. -1.
    9000010    2    1    2  502    0 -0.97122911575E+02  0.62375869386E+03  0.19767188291E+04  0.22722451186E+04  0.92583626077E+03 0.  0.
   -9000010    2    1    2    0  501  0.97122911575E+02 -0.62375869386E+03  0.82091849976E+03  0.14193514998E+04  0.97064088544E+03 0.  0.
        -13    1    3    3    0    0 -0.13226834368E+03 -0.21486903053E+03  0.26559293080E+03  0.36633759168E+03  0.10566000000E+00 0.  1.
         13    1    4    4    0    0 -0.23607100786E+03 -0.14841650212E+03  0.79030316920E+03  0.83805494406E+03  0.10566000000E+00 0. -1.
          4    1    3    3  502    0  0.35145432106E+02  0.83862772439E+03  0.17111258983E+04  0.19059075269E+04  0.00000000000E+00 0.  1.
         -4    1    4    4    0  501  0.33319391944E+03 -0.47534219174E+03  0.30615330560E+02  0.58129655569E+03  0.00000000000E+00 0. -1.
</event>
<event>
 8    1  0.7096247E-006  0.1573173E+04  0.7818608E-02  0.8368590E-01
         -2   -1    0    0    0  501 -0.00000000000E+00  0.00000000000E+00  0.35471377919E+04  0.35471377919E+04  0.00000000000E+00 0. -1.
          2   -1    0    0  502    0  0.00000000000E+00 -0.00000000000E+00 -0.70390121328E+03  0.70390121328E+03  0.00000000000E+00 0.  1.
    9000010    2    1    2  502    0 -0.11182635013E+04 -0.48494996640E+03  0.12162401074E+04  0.19829809056E+04  0.98350574205E+03 0.  0.
   -9000010    2    1    2    0  501  0.11182635013E+04  0.48494996640E+03  0.16269964712E+04  0.22680580996E+04  0.10056243323E+04 0.  0.
        -13    1    3    3    0    0  0.75444847303E+02  0.14353274845E+03 -0.64678229537E+01  0.16228191138E+03  0.10566000000E+00 0.  1.
         13    1    4    4    0    0  0.57741595936E+03  0.74476803876E+03  0.74490763858E+03  0.12012393695E+04  0.10566000000E+00 0. -1.
          4    1    3    3  502    0 -0.11937083486E+04 -0.62848271485E+03  0.12227079304E+04  0.18206989942E+04  0.00000000000E+00 0.  1.
         -4    1    4    4    0  501  0.54084754191E+03 -0.25981807236E+03  0.88208883257E+03  0.10668187301E+04  0.00000000000E+00 0. -1.
</event>
<event>
 8    1  0.7096247E-006  0.1277982E+04  0.7818608E-02  0.8550045E-01
         -2   -1    0    0    0  501 -0.00000000000E+00  0.00000000000E+00  0.38513984833E+04  0.38513984833E+04  0.00000000000E+00 0.  1.
          2   -1    0    0  502    0  0.00000000000E+00 -0.00000000000E+00 -0.70034222826E+03  0.70034222826E+03  0.00000000000E+00 0. -1.
    9000010    2    1    2  502    0  0.81174892787E+03  0.51884686711E+02  0.30159784590E+04  0.32814994242E+04  0.10052283637E+04 0.  0.
   -9000010    2    1    2    0  501 -0.81174892787E+03 -0.51884686711E+02  0.13507779601E+03  0.12702412873E+04  0.96624974746E+03 0.  0.
        -13    1    3    3    0    0  0.44572135264E+03 -0.13226039676E+03  0.34417545277E+03  0.57846096688E+03  0.10566000000E+00 0.  1.
         13    1    4    4    0    0 -0.30732842331E+03 -0.39172455060E+03 -0.24306236750E+03  0.55405614244E+03  0.10566000000E+00 0. -1.
          4    1    3    3  502    0  0.36602757523E+03  0.18414508347E+03  0.26718030063E+04  0.27030384573E+04  0.00000000000E+00 0.  1.
         -4    1    4    4    0  501 -0.50442050456E+03  0.33983986389E+03  0.37814016351E+03  0.71618514489E+03  0.00000000000E+00 0. -1.
</event>
<event>
 8    1  0.7096247E-006  0.1728179E+04  0.7818608E-02  0.8289060E-01
         -4   -1    0    0    0  501 -0.00000000000E+00  0.00000000000E+00  0.15326744012E+04  0.15326744012E+04  0.00000000000E+00 0. -1.
          4   -1    0    0  502    0  0.00000000000E+00 -0.00000000000E+00 -0.19496838084E+04  0.19496838084E+04  0.00000000000E+00 0.  1.
    9000010    2    1    2  502    0 -0.97358953000E+03 -0.10290234406E+04 -0.24882595192E+03  0.17439592774E+04  0.98626253742E+03 0.  0.
   -9000010    2    1    2    0  501  0.97358953000E+03  0.10290234406E+04 -0.16818345528E+03  0.17383989322E+04  0.99346834807E+03 0.  0.
        -13    1    3    3    0    0 -0.46464300650E+03 -0.37617790210E+02  0.24316998066E+03  0.52577549609E+03  0.10566000000E+00 0.  1.
         13    1    4    4    0    0  0.17426279057E+03  0.36362611157E+02 -0.40473339799E+03  0.44215256901E+03  0.10566000000E+00 0. -1.
          4    1    3    3  502    0 -0.50894652349E+03 -0.99140565042E+03 -0.49199593258E+03  0.12181837813E+04  0.00000000000E+00 0.  1.
         -4    1    4    4    0  501  0.79932673942E+03  0.99266082948E+03  0.23654994271E+03  0.12962463632E+04  0.00000000000E+00 0. -1.
</event>
<event>
 8    1  0.7096247E-006  0.1778618E+04  0.7818608E-02  0.8265018E-01
          2   -1    0    0  502    0  0.00000000000E+00  0.00000000000E+00  0.88168790280E+03  0.88168790280E+03  0.00000000000E+00 0. -1.
         -2   -1    0    0    0  501 -0.00000000000E+00 -0.00000000000E+00 -0.39242825816E+04  0.39242825816E+04  0.00000000000E+00 0.  1.
    9000010    2    1    2  502    0  0.14407343398E+04 -0.35638425236E+03 -0.81993815360E+03  0.19609365380E+04  0.98501185628E+03 0.  0.
   -9000010    2    1    2    0  501 -0.14407343398E+04  0.35638425236E+03 -0.22226565252E+04  0.28450339464E+04  0.97534145517E+03 0.  0.
        -13    1    3    3    0    0  0.12560524484E+04  0.75059961240E+02 -0.80026204854E+03  0.14912146420E+04  0.10566000000E+00 0.  1.
         13    1    4    4    0    0 -0.33886590648E+03  0.53261991386E+03 -0.56753477623E+03  0.84888739454E+03  0.10566000000E+00 0. -1.
          4    1    3    3  502    0  0.18468189136E+03 -0.43144421360E+03 -0.19676105053E+02  0.46972189597E+03  0.00000000000E+00 0.  1.
         -4    1    4    4    0  501 -0.11018684333E+04 -0.17623566150E+03 -0.16551217490E+04  0.19961465519E+04  0.00000000000E+00 0. -1.
</event>
<event>
 8    1  0.7096247E-006  0.1323772E+04  0.7818608E-02  0.8518766E-01
         -2   -1    0    0    0  501 -0.00000000000E+00  0.00000000000E+00  0.11946548029E+04  0.11946548029E+04  0.00000000000E+00 0.  1.
          2   -1    0    0  502    0  0.00000000000E+00 -0.00000000000E+00 -0.14682376621E+04  0.14682376621E+04  0.00000000000E+00 0. -1.
    9000010    2    1    2  502    0  0.16751181188E+03 -0.85176478196E+03 -0.17660169783E+03  0.13290666887E+04  0.99079092270E+03 0.  0.
   -9000010    2    1    2    0  501 -0.16751181188E+03  0.85176478196E+03 -0.96981161382E+02  0.13338257762E+04  0.10080289702E+04 0.  0.
        -13    1    3    3    0    0  0.42937414709E+03 -0.90643271143E+02  0.14516852193E+03  0.46222534733E+03  0.10566000000E+00 0.  1.
         13    1    4    4    0    0  0.41649990083E+01  0.76747238771E+03 -0.48034200738E+03  0.90540580313E+03  0.10566000000E+00 0. -1.
          4    1    3    3  502    0 -0.26186233521E+03 -0.76112151082E+03 -0.32177021976E+03  0.86684134139E+03  0.00000000000E+00 0.  1.
         -4    1    4    4    0  501 -0.17167681089E+03  0.84292394244E+02  0.38336084600E+03  0.42841997312E+03  0.00000000000E+00 0. -1.
</event>
<event>
 8    1  0.7096247E-006  0.1251499E+04  0.7818608E-02  0.8568759E-01
         -2   -1    0    0    0  501 -0.00000000000E+00  0.00000000000E+00  0.15102570236E+04  0.15102570236E+04  0.00000000000E+00 0.  1.
          2   -1    0    0  502    0  0.00000000000E+00 -0.00000000000E+00 -0.12578152580E+04  0.12578152580E+04  0.00000000000E+00 0. -1.
    9000010    2    1    2  502    0  0.12004277201E+03 -0.64700320553E+03 -0.44171965917E+03  0.13996016117E+04  0.11535792124E+04 0.  0.
   -9000010    2    1    2    0  501 -0.12004277201E+03  0.64700320553E+03  0.69416142473E+03  0.13684706698E+04  0.97868711831E+03 0.  0.
        -13    1    3    3    0    0  0.58614276488E+03 -0.55916555105E+03 -0.44708972588E+03  0.92526682014E+03  0.10566000000E+00 0.  1.
         13    1    4    4    0    0 -0.29351820151E+03  0.42692556844E+03 -0.98819887410E+02  0.52743128170E+03  0.10566000000E+00 0. -1.
          4    1    3    3  502    0 -0.46609999287E+03 -0.87837654485E+02  0.53700667123E+01  0.47433479159E+03  0.00000000000E+00 0.  1.
         -4    1    4    4    0  501  0.17347542950E+03  0.22007763709E+03  0.79298131214E+03  0.84103938813E+03  0.00000000000E+00 0. -1.
</event>
<event>
 8    1  0.7096247E-006  0.1562389E+04  0.7818608E-02  0.8374473E-01
         -2   -1    0    0    0  501 -0.00000000000E+00  0.00000000000E+00  0.11779056142E+04  0.11779056142E+04  0.00000000000E+00 0. -1.
          2   -1    0    0  502    0  0.00000000000E+00 -0.00000000000E+00 -0.22390333381E+04  0.22390333381E+04  0.00000000000E+00 0.  1.
    9000010    2    1    2  502    0  0.47791845045E+03  0.10981936344E+04 -0.99552922175E+03  0.18495621956E+04  0.99768060029E+03 0.  0.
   -9000010    2    1    2    0  501 -0.47791845045E+03 -0.10981936344E+04 -0.65598502164E+02  0.15673767568E+04  0.10089258795E+04 0.  0.
        -13    1    3    3    0    0 -0.20418638220E+03  0.74884880946E+03 -0.63398699787E+03  0.10022006499E+04  0.10566000000E+00 0.  1.
         13    1    4    4    0    0  0.19859133020E+02 -0.19088285583E+03 -0.42945628269E+03  0.47038639406E+03  0.10566000000E+00 0. -1.
          4    1    3    3  502    0  0.68210483265E+03  0.34934482489E+03 -0.36154222388E+03  0.84736154565E+03  0.00000000000E+00 0.  1.
         -4    1    4    4    0  501 -0.49777758347E+03 -0.90731077853E+03  0.36385778053E+03  0.10969903627E+04  0.00000000000E+00 0. -1.
</event>
<event>
 8    1  0.7096247E-006  0.1138070E+04  0.7818608E-02  0.8654715E-01
          2   -1    0    0  502    0  0.00000000000E+00  0.00000000000E+00  0.28904830457E+04  0.28904830457E+04  0.00000000000E+00 0. -1.
         -2   -1    0    0    0  501 -0.00000000000E+00 -0.00000000000E+00 -0.54012269589E+03  0.54012269589E+03  0.00000000000E+00 0.  1.
    9000010    2    1    2  502    0  0.48510161814E+03  0.30520319445E+03  0.18817231050E+04  0.21982085797E+04  0.98120667852E+03 0.  0.
   -9000010    2    1    2    0  501 -0.48510161814E+03 -0.30520319445E+03  0.46863724473E+03  0.12323971619E+04  0.98524582090E+03 0.  0.
        -13    1    3    3    0    0 -0.10531705981E+02 -0.76819116582E+02 -0.96255986276E+02  0.12360145453E+03  0.10566000000E+00 0.  1.
         13    1    4    4    0    0 -0.43092602687E+03 -0.40171416293E+03 -0.14675518414E+03  0.60713145575E+03  0.10566000000E+00 0. -1.
          4    1    3    3  502    0  0.49563332412E+03  0.38202231103E+03  0.19779790913E+04  0.20746071252E+04  0.00000000000E+00 0.  1.
         -4    1    4    4    0  501 -0.54175591274E+02  0.96510968478E+02  0.61539242887E+03  0.62526570611E+03  0.00000000000E+00 0. -1.
</event>
<event>
 8    1  0.7096247E-006  0.1057528E+04  0.7818608E-02  0.8722339E-01
          2   -1    0    0  502    0  0.00000000000E+00  0.00000000000E+00  0.30097182648E+04  0.30097182648E+04  0.00000000000E+00 0.  1.
         -2   -1    0    0    0  501 -0.00000000000E+00 -0.00000000000E+00 -0.41065032238E+03  0.41065032238E+03  0.00000000000E+00 0. -1.
    9000010    2    1    2  502    0  0.94559880789E+02  0.35720065185E+03  0.77575866693E+03  0.13142210713E+04  0.99440516801E+03 0.  0.
   -9000010    2    1    2    0  501 -0.94559880789E+02 -0.35720065185E+03  0.18233092755E+04  0.21061475159E+04  0.98735341589E+03 0.  0.
        -13    1    3    3    0    0  0.53116062627E+03  0.82081209277E+02  0.47269254070E+03  0.71575637266E+03  0.10566000000E+00 0.  1.
         13    1    4    4    0    0  0.15383810359E+03 -0.61958176831E+03  0.81634364705E+03  0.10363226771E+04  0.10566000000E+00 0. -1.
          4    1    3    3  502    0 -0.43660074548E+03  0.27511944257E+03  0.30306612624E+03  0.59846469863E+03  0.00000000000E+00 0.  1.
         -4    1    4    4    0  501 -0.24839798438E+03  0.26238111647E+03  0.10069656285E+04  0.10698248389E+04  0.00000000000E+00 0. -1.
</event>
<event>
 8    1  0.7096247E-006  0.1616557E+04  0.7818608E-02  0.8345407E-01
         -2   -1    0    0    0  501 -0.00000000000E+00  0.00000000000E+00  0.79981176662E+03  0.79981176662E+03  0.00000000000E+00 0.  1.
          2   -1    0    0  502    0  0.00000000000E+00 -0.00000000000E+00 -0.34199587899E+04  0.34199587899E+04  0.00000000000E+00 0. -1.
    9000010    2    1    2  502    0  0.57892012778E+03  0.11388827807E+04 -0.86322896023E+03  0.18313012146E+04  0.98807762762E+03 0.  0.
   -9000010    2    1    2    0  501 -0.57892012778E+03 -0.11388827807E+04 -0.17569180630E+04  0.23884693419E+04  0.99288580139E+03 0.  0.
        -13    1    3    3    0    0 -0.12266732358E+03  0.73357606497E+03 -0.16530371251E+03  0.76190973475E+03  0.10566000000E+00 0.  1.
         13    1    4    4    0    0 -0.79133727065E+03 -0.48664377495E+03 -0.93738492453E+03  0.13197451828E+04  0.10566000000E+00 0. -1.
          4    1    3    3  502    0  0.70158745136E+03  0.40530671573E+03 -0.69792524772E+03  0.10693914798E+04  0.00000000000E+00 0.  1.
         -4    1    4    4    0  501  0.21241714287E+03 -0.65223900575E+03 -0.81953313851E+03  0.10687241591E+04  0.00000000000E+00 0. -1.
</event>
<event>
 8    1  0.7096247E-006  0.1283459E+04  0.7818608E-02  0.8546233E-01
          2   -1    0    0  502    0  0.00000000000E+00  0.00000000000E+00  0.30386110510E+04  0.30386110510E+04  0.00000000000E+00 0. -1.
         -2   -1    0    0    0  501 -0.00000000000E+00 -0.00000000000E+00 -0.59747508711E+03  0.59747508711E+03  0.00000000000E+00 0.  1.
    9000010    2    1    2  502    0 -0.74591129985E+03 -0.34013216045E+03  0.17834028641E+04  0.22037961915E+04  0.10020570465E+04 0.  0.
   -9000010    2    1    2    0  501  0.74591129985E+03  0.34013216045E+03  0.65773309979E+03  0.14322899466E+04  0.97302009573E+03 0.  0.
        -13    1    3    3    0    0 -0.19440486889E+03 -0.22681953560E+03  0.15755619890E+04  0.16036321109E+04  0.10566000000E+00 0.  1.
         13    1    4    4    0    0 -0.10958920056E+03  0.64045272659E+02 -0.16874477519E+03  0.21115491979E+03  0.10566000000E+00 0. -1.
          4    1    3    3  502    0 -0.55150643096E+03 -0.11331262485E+03  0.20784087513E+03  0.60016408066E+03  0.00000000000E+00 0.  1.
         -4    1    4    4    0  501  0.85550050041E+03  0.27608688779E+03  0.82647787499E+03  0.12211350268E+04  0.00000000000E+00 0. -1.
</event>
<event>
 8    1  0.7096247E-006  0.1959632E+04  0.7818608E-02  0.8185028E-01
          1   -1    0    0  502    0  0.00000000000E+00  0.00000000000E+00  0.17604586848E+04  0.17604586848E+04  0.00000000000E+00 0. -1.
         -1   -1    0    0    0  501 -0.00000000000E+00 -0.00000000000E+00 -0.21942228803E+04  0.21942228803E+04  0.00000000000E+00 0.  1.
    9000010    2    1    2  502    0  0.97466299122E+03  0.13531305951E+04 -0.64742208914E+02  0.19533790440E+04  0.10151688441E+04 0.  0.
   -9000010    2    1    2    0  501 -0.97466299122E+03 -0.13531305951E+04 -0.36902198658E+03  0.20013025212E+04  0.10431223326E+04 0.  0.
        -13    1    3    3    0    0  0.14988167064E+03  0.12751805957E+02 -0.32506673661E+03  0.35818363749E+03  0.10566000000E+00 0.  1.
         13    1    4    4    0    0 -0.11430557096E+04 -0.90501358300E+03 -0.12315987012E+03  0.14631453467E+04  0.10566000000E+00 0. -1.
          4    1    3    3  502    0  0.82478132058E+03  0.13403787892E+04  0.26032452770E+03  0.15951954065E+04  0.00000000000E+00 0.  1.
         -4    1    4    4    0  501  0.16839271837E+03 -0.44811701214E+03 -0.24586211646E+03  0.53815717451E+03  0.00000000000E+00 0. -1.
</event>
<event>
 8    1  0.7096247E-006  0.1995773E+04  0.7818608E-02  0.8170115E-01
         -1   -1    0    0    0  501 -0.00000000000E+00  0.00000000000E+00  0.28358865006E+04  0.28358865006E+04  0.00000000000E+00 0.  1.
          1   -1    0    0  502    0  0.00000000000E+00 -0.00000000000E+00 -0.15812523919E+04  0.15812523919E+04  0.00000000000E+00 0. -1.
    9000010    2    1    2  502    0 -0.15452761188E+04 -0.77663725515E+03 -0.11097011749E+03  0.19989849942E+04  0.99628456305E+03 0.  0.
   -9000010    2    1    2    0  501  0.15452761188E+04  0.77663725515E+03  0.13656042261E+04  0.24181538983E+04  0.99576586804E+03 0.  0.
        -13    1    3    3    0    0 -0.10903480255E+04 -0.10027291945E+04 -0.11741900819E+02  0.14813718431E+04  0.10566000000E+00 0.  1.
         13    1    4    4    0    0  0.12424826236E+04  0.25216647903E+03  0.12885301688E+04  0.18076672841E+04  0.10566000000E+00 0. -1.
          4    1    3    3  502    0 -0.45492809336E+03  0.22609193939E+03 -0.99228216670E+02  0.51761315108E+03  0.00000000000E+00 0.  1.
         -4    1    4    4    0  501  0.30279349526E+03  0.52447077612E+03  0.77074057320E+02  0.61048661418E+03  0.00000000000E+00 0. -1.
</event>
<event>
 8    1  0.7096247E-006  0.1879612E+04  0.7818608E-02  0.8219249E-01
         -1   -1    0    0    0  501 -0.00000000000E+00  0.00000000000E+00  0.32389018638E+04  0.32389018638E+04  0.00000000000E+00 0.  1.
          1   -1    0    0  502    0  0.00000000000E+00 -0.00000000000E+00 -0.10935359515E+04  0.10935359515E+04  0.00000000000E+00 0. -1.
    9000010    2    1    2  502    0  0.11869174513E+04  0.10616247669E+04  0.11830244557E+04  0.22234926689E+04  0.10042671976E+04 0.  0.
   -9000010    2    1    2    0  501 -0.11869174513E+04 -0.10616247669E+04  0.96234145654E+03  0.21089451464E+04  0.99283854153E+03 0.  0.
        -13    1    3    3    0    0  0.12258531600E+04  0.59505330738E+03  0.10927297393E+04  0.17466718933E+04  0.10566000000E+00 0.  1.
         13    1    4    4    0    0 -0.24407726929E+03 -0.88363278311E+03  0.44949525757E+03  0.10209929513E+04  0.10566000000E+00 0. -1.
          4    1    3    3  502    0 -0.38935708739E+02  0.46657145954E+03  0.90294716450E+02  0.47682077565E+03  0.00000000000E+00 0.  1.
         -4    1    4    4    0  501 -0.94284018197E+03 -0.17799198380E+03  0.51284619897E+03  0.10879521951E+04  0.00000000000E+00 0. -1.
</event>
<event>
 8    1  0.7096247E-006  0.1236682E+04  0.7818608E-02  0.8579440E-01
          2   -1    0    0  502    0  0.00000000000E+00  0.00000000000E+00  0.28974904684E+04  0.28974904684E+04  0.00000000000E+00 0.  1.
         -2   -1    0    0    0  501 -0.00000000000E+00 -0.00000000000E+00 -0.58053850243E+03  0.58053850243E+03  0.00000000000E+00 0. -1.
    9000010    2    1    2  502    0  0.11146056641E+03  0.72005846884E+03  0.16843881463E+04  0.20909673951E+04  0.10020347117E+04 0.  0.
   -9000010    2    1    2    0  501 -0.11146056641E+03 -0.72005846884E+03  0.63256381963E+03  0.13870615757E+04  0.99644125395E+03 0.  0.
        -13    1    3    3    0    0 -0.41448768922E+03  0.50108765444E+03  0.10778340459E+04  0.12588149680E+04  0.10566000000E+00 0.  1.
         13    1    4    4    0    0 -0.34771453400E+03 -0.28383564140E+03 -0.13890476277E+03  0.46985382064E+03  0.10566000000E+00 0. -1.
          4    1    3    3  502    0  0.52594825563E+03  0.21897081441E+03  0.60655410038E+03  0.83215242705E+03  0.00000000000E+00 0.  1.
         -4    1    4    4    0  501  0.23625396759E+03 -0.43622282745E+03  0.77146858240E+03  0.91720775510E+03  0.00000000000E+00 0. -1.
</event>
<event>
 8    1  0.7096247E-006  0.1527960E+04  0.7818608E-02  0.8393587E-01
         -1   -1    0    0    0  501 -0.00000000000E+00  0.00000000000E+00  0.10827022268E+04  0.10827022268E+04  0.00000000000E+00 0.  1.
          1   -1    0    0  502    0  0.00000000000E+00 -0.00000000000E+00 -0.21630591377E+04  0.21630591377E+04  0.00000000000E+00 0. -1.
    9000010    2    1    2  502    0  0.60439316052E+03 -0.98829146568E+03 -0.45490731969E+03  0.16060200481E+04  0.10150608906E+04 0.  0.
   -9000010    2    1    2    0  501 -0.60439316052E+03  0.98829146568E+03 -0.62544959124E+03  0.16397413164E+04  0.97752405595E+03 0.  0.
        -13    1    3    3    0    0  0.21836808155E+03 -0.32832900470E+03  0.32712134015E+03  0.51234064519E+03  0.10566000000E+00 0.  1.
         13    1    4    4    0    0 -0.35596271947E+03  0.65908582356E+03 -0.87957004459E+03  0.11553125356E+04  0.10566000000E+00 0. -1.
          4    1    3    3  502    0  0.38602507897E+03 -0.65996246098E+03 -0.78202865984E+03  0.10936794029E+04  0.00000000000E+00 0.  1.
         -4    1    4    4    0  501 -0.24843044105E+03  0.32920564212E+03  0.25412045335E+03  0.48442878079E+03  0.00000000000E+00 0. -1.
</event>
<event>
 8    1  0.7096247E-006  0.1051158E+04  0.7818608E-02  0.8727954E-01
         -4   -1    0    0    0  501 -0.00000000000E+00  0.00000000000E+00  0.12826132704E+04  0.12826132704E+04  0.00000000000E+00 0. -1.
          4   -1    0    0  502    0  0.00000000000E+00 -0.00000000000E+00 -0.86586116976E+03  0.86586116976E+03  0.00000000000E+00 0.  1.
    9000010    2    1    2  502    0  0.55077682159E+02  0.28760951733E+03  0.28564469629E+03  0.11122142148E+04  0.10342508311E+04 0.  0.
   -9000010    2    1    2    0  501 -0.55077682159E+02 -0.28760951733E+03  0.13110740437E+03  0.10362602254E+04  0.98533918917E+03 0.  0.
        -13    1    3    3    0    0  0.99192854613E+02  0.67307638519E+03  0.12231440086E+03  0.69125383654E+03  0.10566000000E+00 0.  1.
         13    1    4    4    0    0  0.39866691342E+03 -0.38768904127E+03  0.13227962125E+03  0.57160826615E+03  0.10566000000E+00 0. -1.
          4    1    3    3  502    0 -0.44115172454E+02 -0.38546686786E+03  0.16333029543E+03  0.42096037826E+03  0.00000000000E+00 0.  1.
         -4    1    4    4    0  501 -0.45374459558E+03  0.10007952394E+03 -0.11722168794E+01  0.46465195923E+03  0.00000000000E+00 0. -1.
</event>
<event>
 8    1  0.7096247E-006  0.1123761E+04  0.7818608E-02  0.8666295E-01
          2   -1    0    0  502    0  0.00000000000E+00  0.00000000000E+00  0.21983054109E+04  0.21983054109E+04  0.00000000000E+00 0.  1.
         -2   -1    0    0    0  501 -0.00000000000E+00 -0.00000000000E+00 -0.60156982265E+03  0.60156982265E+03  0.00000000000E+00 0. -1.
    9000010    2    1    2  502    0  0.48471956150E+02  0.49958766614E+03  0.10966028758E+04  0.15712667596E+04  0.10071762487E+04 0.  0.
   -9000010    2    1    2    0  501 -0.48471956150E+02 -0.49958766614E+03  0.50013271245E+03  0.12286084739E+04  0.10036975069E+04 0.  0.
        -13    1    3    3    0    0  0.48998944812E+03  0.20705410308E+03  0.28870324219E+03  0.60523601519E+03  0.10566000000E+00 0.  1.
         13    1    4    4    0    0  0.31535335973E+03 -0.61213343314E+03  0.13637598212E+03  0.70196403122E+03  0.10566000000E+00 0. -1.
          4    1    3    3  502    0 -0.44151749197E+03  0.29253356306E+03  0.80789963359E+03  0.96603074444E+03  0.00000000000E+00 0.  1.
         -4    1    4    4    0  501 -0.36382531588E+03  0.11254576700E+03  0.36375673033E+03  0.52664444268E+03  0.00000000000E+00 0. -1.
</event>
<event>
 8    1  0.7096247E-006  0.1169189E+04  0.7818608E-02  0.8630132E-01
         -2   -1    0    0    0  501 -0.00000000000E+00  0.00000000000E+00  0.10858159810E+04  0.10858159810E+04  0.00000000000E+00 0.  1.
          2   -1    0    0  502    0  0.00000000000E+00 -0.00000000000E+00 -0.12832932840E+04  0.12832932840E+04  0.00000000000E+00 0. -1.
    9000010    2    1    2  502    0  0.40343924337E+03  0.60324633596E+03 -0.23607943107E+03  0.12937629527E+04  0.10447103499E+04 0.  0.
   -9000010    2    1    2    0  501 -0.40343924337E+03 -0.60324633596E+03  0.38602128029E+02  0.10753463123E+04  0.79259712474E+03 0.  0.
        -13    1    3    3    0    0 -0.20808130358E+03  0.51580930000E+03  0.13604836173E+03  0.57259604501E+03  0.10566000000E+00 0.  1.
         13    1    4    4    0    0 -0.58652562555E+03 -0.54533276362E+03 -0.14009429501E+03  0.81303539601E+03  0.10566000000E+00 0. -1.
          4    1    3    3  502    0  0.61152054696E+03  0.87437035957E+02 -0.37212779280E+03  0.72116690772E+03  0.00000000000E+00 0.  1.
         -4    1    4    4    0  501  0.18308638217E+03 -0.57913572339E+02  0.17869642304E+03  0.26231091629E+03  0.00000000000E+00 0. -1.
</event>
<event>
 8    1  0.7096247E-006  0.1267654E+04  0.7818608E-02  0.8557287E-01
         -1   -1    0    0    0  501 -0.00000000000E+00  0.00000000000E+00  0.13515615623E+04  0.13515615623E+04  0.00000000000E+00 0.  1.
          1   -1    0    0  502    0  0.00000000000E+00 -0.00000000000E+00 -0.12360523449E+04  0.12360523449E+04  0.00000000000E+00 0. -1.
    9000010    2    1    2  502    0 -0.44966178696E+03  0.62994535201E+03  0.31033669327E+03  0.13058333156E+04  0.10049203529E+04 0.  0.
   -9000010    2    1    2    0  501  0.44966178696E+03 -0.62994535201E+03 -0.19482747582E+03  0.12817805916E+04  0.10029839832E+04 0.  0.
        -13    1    3    3    0    0  0.17685044640E+03 -0.57113602557E+02  0.32670880054E+03  0.37586792295E+03  0.10566000000E+00 0.  1.
         13    1    4    4    0    0  0.11917974524E+03 -0.43695688394E+02  0.37754408732E+03  0.39831228187E+03  0.10566000000E+00 0. -1.
          4    1    3    3  502    0 -0.62651223336E+03  0.68705895457E+03 -0.16372107276E+02  0.92996539263E+03  0.00000000000E+00 0.  1.
         -4    1    4    4    0  501  0.33048204172E+03 -0.58624966362E+03 -0.57237156314E+03  0.88346830972E+03  0.00000000000E+00 0. -1.
</event>
<event>
 8    1  0.7096247E-006  0.1704739E+04  0.7818608E-02  0.8300522E-01
         -2   -1    0    0    0  501 -0.00000000000E+00  0.00000000000E+00  0.14772067331E+04  0.14772067331E+04  0.00000000000E+00 0. -1.
          2   -1    0    0  502    0  0.00000000000E+00 -0.00000000000E+00 -0.21379048264E+04  0.21379048264E+04  0.00000000000E+00 0.  1.
    9000010    2    1    2  502    0 -0.52418429280E+03 -0.11448248229E+04 -0.84815109806E+03  0.19836537040E+04  0.12767649291E+04 0.  0.
   -9000010    2    1    2    0  501  0.52418429280E+03  0.11448248229E+04  0.18745300478E+03  0.16314578556E+04  0.10203543785E+04 0.  0.
        -13    1    3    3    0    0  0.18927980085E+03 -0.78151186959E+03 -0.86739965055E+03  0.11827805419E+04  0.10566000000E+00 0.  1.
         13    1    4    4    0    0 -0.20534217124E+03  0.74013065779E+03  0.21210495061E+03  0.79683581692E+03  0.10566000000E+00 0. -1.
          4    1    3    3  502    0 -0.71346409365E+03 -0.36331295330E+03  0.19248552485E+02  0.80087316208E+03  0.00000000000E+00 0.  1.
         -4    1    4    4    0  501  0.72952646404E+03  0.40469416510E+03 -0.24651945837E+02  0.83462203867E+03  0.00000000000E+00 0. -1.
</event>
<event>
 8    1  0.7096247E-006  0.1381995E+04  0.7818608E-02  0.8480825E-01
         -2   -1    0    0    0  501 -0.00000000000E+00  0.00000000000E+00  0.84244831575E+03  0.84244831575E+03  0.00000000000E+00 0.  1.
          2   -1    0    0  502    0  0.00000000000E+00 -0.00000000000E+00 -0.22703021054E+04  0.22703021054E+04  0.00000000000E+00 0. -1.
    9000010    2    1    2  502    0 -0.47355230920E+03 -0.80428770330E+03 -0.76720878916E+03  0.15732248485E+04  0.10076192726E+04 0.  0.
   -9000010    2    1    2    0  501  0.47355230920E+03  0.80428770330E+03 -0.66064500050E+03  0.15395255727E+04  0.10308038965E+04 0.  0.
        -13    1    3    3    0    0 -0.56047125007E+03 -0.68038954736E+03 -0.97796739084E+02  0.88691722931E+03  0.10566000000E+00 0.  1.
         13    1    4    4    0    0  0.51965686848E+03  0.69955489908E+03 -0.24433117169E+01  0.87145068634E+03  0.10566000000E+00 0. -1.
          4    1    3    3  502    0  0.86918940876E+02 -0.12389815594E+03 -0.66941205007E+03  0.68630761916E+03  0.00000000000E+00 0.  1.
         -4    1    4    4    0  501 -0.46104559278E+02  0.10473280421E+03 -0.65820168878E+03  0.66807488635E+03  0.00000000000E+00 0. -1.
</event>
<event>
 8    1  0.7096247E-006  0.1460808E+04  0.7818608E-02  0.8432418E-01
         -1   -1    0    0    0  501 -0.00000000000E+00  0.00000000000E+00  0.11800917363E+04  0.11800917363E+04  0.00000000000E+00 0. -1.
          1   -1    0    0  502    0  0.00000000000E+00 -0.00000000000E+00 -0.18456432943E+04  0.18456432943E+04  0.00000000000E+00 0.  1.
    9000010    2    1    2  502    0  0.71595679144E+03 -0.78645602742E+03 -0.11818676163E+03  0.14682159477E+04  0.10052774484E+04 0.  0.
   -9000010    2    1    2    0  501 -0.71595679144E+03  0.78645602742E+03 -0.54736479641E+03  0.15575190829E+04  0.99757218433E+03 0.  0.
        -13    1    3    3    0    0  0.73912087675E+03 -0.87797935755E+03  0.17433556248E+03  0.11608360445E+04  0.10566000000E+00 0.  1.
         13    1    4    4    0    0 -0.27750510199E+03  0.93232044634E+03 -0.23798516559E+03  0.10014326969E+04  0.10566000000E+00 0. -1.
          4    1    3    3  502    0 -0.23164085312E+02  0.91523330128E+02 -0.29252232411E+03  0.30737990323E+03  0.00000000000E+00 0.  1.
         -4    1    4    4    0  501 -0.43845168945E+03 -0.14586441891E+03 -0.30937963081E+03  0.55608638596E+03  0.00000000000E+00 0. -1.
</event>
<event>
 8    1  0.7096247E-006  0.1076683E+04  0.7818608E-02  0.8705700E-01
         -1   -1    0    0    0  501 -0.00000000000E+00  0.00000000000E+00  0.10249138800E+04  0.10249138800E+04  0.00000000000E+00 0.  1.
          1   -1    0    0  502    0  0.00000000000E+00 -0.00000000000E+00 -0.11342701177E+04  0.11342701177E+04  0.00000000000E+00 0. -1.
    9000010    2    1    2  502    0 -0.85825025653E+02 -0.36876893796E+03 -0.11206043089E+03  0.10878380136E+04  0.10136456674E+04 0.  0.
   -9000010    2    1    2    0  501  0.85825025653E+02  0.36876893796E+03  0.27041931486E+01  0.10713459841E+04  0.10022067852E+04 0.  0.
        -13    1    3    3    0    0  0.32661106534E+03 -0.27373881068E+03  0.28081384623E+03  0.51035688677E+03  0.10566000000E+00 0.  1.
         13    1    4    4    0    0  0.36117112173E+03  0.56264346684E+03 -0.17426035517E+03  0.69092614113E+03  0.10566000000E+00 0. -1.
          4    1    3    3  502    0 -0.41243609099E+03 -0.95030127279E+02 -0.39287427713E+03  0.57748112685E+03  0.00000000000E+00 0.  1.
         -4    1    4    4    0  501 -0.27534609607E+03 -0.19387452888E+03  0.17696454832E+03  0.38041984298E+03  0.00000000000E+00 0. -1.
</event>
<event>
 8    1  0.7096247E-006  0.1574262E+04  0.7818608E-02  0.8367999E-01
         -2   -1    0    0    0  501 -0.00000000000E+00  0.00000000000E+00  0.78552347844E+03  0.78552347844E+03  0.00000000000E+00 0.  1.
          2   -1    0    0  502    0  0.00000000000E+00 -0.00000000000E+00 -0.31704290745E+04  0.31704290745E+04  0.00000000000E+00 0. -1.
    9000010    2    1    2  502    0  0.73253725454E+03  0.94632653852E+03 -0.10444328828E+04  0.18769829233E+04  0.10000400496E+04 0.  0.
   -9000010    2    1    2    0  501 -0.73253725454E+03 -0.94632653852E+03 -0.13404727132E+04  0.20789696297E+04  0.10455156045E+04 0.  0.
        -13    1    3    3    0    0 -0.21917977313E+03  0.40601158429E+03 -0.37034690322E+03  0.59164349013E+03  0.10566000000E+00 0.  1.
         13    1    4    4    0    0 -0.74999725493E+03 -0.94695721572E+03 -0.14957986582E+04  0.19226641641E+04  0.10566000000E+00 0. -1.
          4    1    3    3  502    0  0.95171702766E+03  0.54031495423E+03 -0.67408597963E+03  0.12853394332E+04  0.00000000000E+00 0.  1.
         -4    1    4    4    0  501  0.17460000395E+02  0.63067719304E+00  0.15532594501E+03  0.15630546555E+03  0.00000000000E+00 0. -1.
</event>
<event>
 8    1  0.7096247E-006  0.1431577E+04  0.7818608E-02  0.8449999E-01
         -1   -1    0    0    0  501 -0.00000000000E+00  0.00000000000E+00  0.10629569113E+04  0.10629569113E+04  0.00000000000E+00 0.  1.
          1   -1    0    0  502    0  0.00000000000E+00 -0.00000000000E+00 -0.19799947409E+04  0.19799947409E+04  0.00000000000E+00 0. -1.
    9000010    2    1    2  502    0 -0.92165362774E+03 -0.26826423951E+03 -0.22906155494E+03  0.14915841386E+04  0.11184556025E+04 0.  0.
   -9000010    2    1    2    0  501  0.92165362774E+03  0.26826423951E+03 -0.68797627466E+03  0.15513675137E+04  0.10059913997E+04 0.  0.
        -13    1    3    3    0    0 -0.83117306826E+03 -0.62294556716E+03  0.36517671261E+02  0.10393475841E+04  0.10566000000E+00 0.  1.
         13    1    4    4    0    0  0.85348707140E+03  0.59461016427E+03 -0.62053737644E+03  0.12112258564E+04  0.10566000000E+00 0. -1.
          4    1    3    3  502    0 -0.90480559476E+02  0.35468132765E+03 -0.26557922621E+03  0.45223655449E+03  0.00000000000E+00 0.  1.
         -4    1    4    4    0  501  0.68166556336E+02 -0.32634592475E+03 -0.67438898224E+02  0.34014165725E+03  0.00000000000E+00 0. -1.
</event>
<event>
 8    1  0.7096247E-006  0.1219335E+04  0.7818608E-02  0.8592143E-01
          2   -1    0    0  502    0  0.00000000000E+00  0.00000000000E+00  0.24315462570E+04  0.24315462570E+04  0.00000000000E+00 0.  1.
         -2   -1    0    0    0  501 -0.00000000000E+00 -0.00000000000E+00 -0.64882417890E+03  0.64882417890E+03  0.00000000000E+00 0. -1.
    9000010    2    1    2  502    0  0.53598956230E+02  0.70675794844E+03  0.12443712529E+04  0.17266384983E+04  0.96459371922E+03 0.  0.
   -9000010    2    1    2    0  501 -0.53598956230E+02 -0.70675794844E+03  0.53835082528E+03  0.13537319376E+04  0.10199945598E+04 0.  0.
        -13    1    3    3    0    0 -0.88400858705E+02  0.19459922630E+03  0.11707306864E+04  0.11900814770E+04  0.10566000000E+00 0.  1.
         13    1    4    4    0    0 -0.44052072292E+03 -0.90200688702E+02  0.42183929386E+03  0.61655743656E+03  0.10566000000E+00 0. -1.
          4    1    3    3  502    0  0.14199981494E+03  0.51215872213E+03  0.73640566479E+02  0.53655702132E+03  0.00000000000E+00 0.  1.
         -4    1    4    4    0  501  0.38692176669E+03 -0.61655725974E+03  0.11651153142E+03  0.73717450107E+03  0.00000000000E+00 0. -1.
</event>
<event>
 8    1  0.7096247E-006  0.1367351E+04  0.7818608E-02  0.8490185E-01
         -1   -1    0    0    0  501 -0.00000000000E+00  0.00000000000E+00  0.23952580525E+04  0.23952580525E+04  0.00000000000E+00 0. -1.
          1   -1    0    0  502    0  0.00000000000E+00 -0.00000000000E+00 -0.78439385717E+03  0.78439385717E+03  0.00000000000E+00 0.  1.
    9000010    2    1    2  502    0 -0.92852566576E+03 -0.33709538315E+02  0.91407248923E+03  0.16413808340E+04  0.99765038048E+03 0.  0.
   -9000010    2    1    2    0  501  0.92852566576E+03  0.33709538315E+02  0.69679170612E+03  0.15382710757E+04  0.10086936976E+04 0.  0.
        -13    1    3    3    0    0 -0.42586760354E+03 -0.50803552974E+03  0.35215973195E+03  0.75065291793E+03  0.10566000000E+00 0.  1.
         13    1    4    4    0    0  0.12255000436E+03  0.32806782351E+03  0.57270912655E+03  0.67129930373E+03  0.10566000000E+00 0. -1.
          4    1    3    3  502    0 -0.50265806223E+03  0.47432599143E+03  0.56191275728E+03  0.89072791606E+03  0.00000000000E+00 0.  1.
         -4    1    4    4    0  501  0.80597566140E+03 -0.29435828519E+03  0.12408257956E+03  0.86697177197E+03  0.00000000000E+00 0. -1.
</event>
<event>
 8    1  0.7096247E-006  0.1130182E+04  0.7818608E-02  0.8661077E-01
         -2   -1    0    0    0  501 -0.00000000000E+00  0.00000000000E+00  0.50303647181E+03  0.50303647181E+03  0.00000000000E+00 0. -1.
          2   -1    0    0  502    0  0.00000000000E+00 -0.00000000000E+00 -0.25801691801E+04  0.25801691801E+04  0.00000000000E+00 0.  1.
    9000010    2    1    2  502    0  0.28056013749E+02  0.46545791626E+03 -0.82677192533E+03  0.13828089895E+04  0.10055698251E+04 0.  0.
   -9000010    2    1    2    0  501 -0.28056013749E+02 -0.46545791626E+03 -0.12503607830E+04  0.17003966624E+04  0.10538066760E+04 0.  0.
        -13    1    3    3    0    0  0.49155877043E+03  0.41178910364E+03 -0.50052884948E+03  0.81346753530E+03  0.10566000000E+00 0.  1.
         13    1    4    4    0    0 -0.25821747804E+03 -0.33329592447E+03 -0.13519829585E+04  0.14161992693E+04  0.10566000000E+00 0. -1.
          4    1    3    3  502    0 -0.46350275668E+03  0.53668812626E+02 -0.32624307585E+03  0.56934145417E+03  0.00000000000E+00 0.  1.
         -4    1    4    4    0  501  0.23016146429E+03 -0.13216199180E+03  0.10162217549E+03  0.28419739314E+03  0.00000000000E+00 0. -1.
</event>
<event>
 8    1  0.7096247E-006  0.1484437E+04  0.7818608E-02  0.8418512E-01
          2   -1    0    0  502    0  0.00000000000E+00  0.00000000000E+00  0.55660225766E+03  0.55660225766E+03  0.00000000000E+00 0. -1.
         -2   -1    0    0    0  501 -0.00000000000E+00 -0.00000000000E+00 -0.43165836576E+04  0.43165836576E+04  0.00000000000E+00 0.  1.
    9000010    2    1    2  502    0 -0.90825956870E+03  0.55587725186E+03 -0.11787689021E+04  0.18956260026E+04  0.10343920214E+04 0.  0.
   -9000010    2    1    2    0  501  0.90825956870E+03 -0.55587725186E+03 -0.25812124978E+04  0.29775599126E+04  0.10340551780E+04 0.  0.
        -13    1    3    3    0    0 -0.10603682329E+04  0.21631504048E+03 -0.69833533522E+03  0.12879616600E+04  0.10566000000E+00 0.  1.
         13    1    4    4    0    0 -0.14000311992E+03  0.14847243699E+03 -0.53966220155E+03  0.57695774635E+03  0.10566000000E+00 0. -1.
          4    1    3    3  502    0  0.15210866417E+03  0.33956221138E+03 -0.48043356692E+03  0.60766434266E+03  0.00000000000E+00 0.  1.
         -4    1    4    4    0  501  0.10482626886E+04 -0.70434968885E+03 -0.20415502962E+04  0.24006021662E+04  0.00000000000E+00 0. -1.
</event>
<event>
 8    1  0.7096247E-006  0.1179539E+04  0.7818608E-02  0.8622132E-01
          1   -1    0    0  502    0  0.00000000000E+00  0.00000000000E+00  0.18458530567E+04  0.18458530567E+04  0.00000000000E+00 0. -1.
         -1   -1    0    0    0  501 -0.00000000000E+00 -0.00000000000E+00 -0.81391840347E+03  0.81391840347E+03  0.00000000000E+00 0.  1.
    9000010    2    1    2  502    0  0.57584601740E+03 -0.25670966121E+03  0.87833508472E+03  0.14722069312E+04  0.99921080929E+03 0.  0.
   -9000010    2    1    2    0  501 -0.57584601740E+03  0.25670966121E+03  0.15359956854E+03  0.11875645290E+04  0.99459448877E+03 0.  0.
        -13    1    3    3    0    0  0.66000968399E+03 -0.25259353990E+03  0.12927321331E+03  0.71842038822E+03  0.10566000000E+00 0.  1.
         13    1    4    4    0    0 -0.54157159592E+03  0.30903767253E+03 -0.32619483178E+03  0.70370956793E+03  0.10566000000E+00 0. -1.
          4    1    3    3  502    0 -0.84163666590E+02 -0.41161213097E+01  0.74906187141E+03  0.75378654301E+03  0.00000000000E+00 0.  1.
         -4    1    4    4    0  501 -0.34274421479E+02 -0.52328011319E+02  0.47979440033E+03  0.48385496104E+03  0.00000000000E+00 0. -1.
</event>
<event>
 8    1  0.7096247E-006  0.1543897E+04  0.7818608E-02  0.8384675E-01
         -1   -1    0    0    0  501 -0.00000000000E+00  0.00000000000E+00  0.93907348076E+03  0.93907348076E+03  0.00000000000E+00 0.  1.
          1   -1    0    0  502    0  0.00000000000E+00 -0.00000000000E+00 -0.25383050988E+04  0.25383050988E+04  0.00000000000E+00 0. -1.
    9000010    2    1    2  502    0  0.11743196908E+04 -0.38903445248E+02 -0.80654575078E+03  0.17420247926E+04  0.10017954460E+04 0.  0.
   -9000010    2    1    2    0  501 -0.11743196908E+04  0.38903445248E+02 -0.79268586725E+03  0.17353537869E+04  0.10012800144E+04 0.  0.
        -13    1    3    3    0    0  0.65047468407E+03 -0.51847583157E+03 -0.39054154372E+03  0.91894352986E+03  0.10566000000E+00 0.  1.
         13    1    4    4    0    0 -0.50742434676E+03  0.50926917485E+03 -0.46351885290E+03  0.85538546766E+03  0.10566000000E+00 0. -1.
          4    1    3    3  502    0  0.52384500677E+03  0.47957238632E+03 -0.41600420706E+03  0.82308126277E+03  0.00000000000E+00 0.  1.
         -4    1    4    4    0  501 -0.66689534409E+03 -0.47036572960E+03 -0.32916701436E+03  0.87996831926E+03  0.00000000000E+00 0. -1.
</event>
<event>
 8    1  0.7096247E-006  0.1128723E+04  0.7818608E-02  0.8662260E-01
          1   -1    0    0  502    0  0.00000000000E+00  0.00000000000E+00  0.15221808308E+04  0.15221808308E+04  0.00000000000E+00 0.  1.
         -1   -1    0    0    0  501 -0.00000000000E+00 -0.00000000000E+00 -0.84397100066E+03  0.84397100066E+03  0.00000000000E+00 0. -1.
    9000010    2    1    2  502    0 -0.13513178876E+03  0.43677645560E+03  0.45112564489E+03  0.12442703593E+04  0.10656735462E+04 0.  0.
   -9000010    2    1    2    0  501  0.13513178876E+03 -0.43677645560E+03  0.22708418529E+03  0.11218814722E+04  0.99900777673E+03 0.  0.
        -13    1    3    3    0    0 -0.51692388387E+03  0.14311404291E+02 -0.10924245110E+01  0.51712312128E+03  0.10566000000E+00 0.  1.
         13    1    4    4    0    0  0.13138706722E+03 -0.70991707254E+03  0.37251812797E+03  0.81241281265E+03  0.10566000000E+00 0. -1.
          4    1    3    3  502    0  0.38179209511E+03  0.42246505131E+03  0.45221806940E+03  0.72714723802E+03  0.00000000000E+00 0.  1.
         -4    1    4    4    0  501  0.37447215349E+01  0.27314061694E+03 -0.14543394268E+03  0.30946865956E+03  0.00000000000E+00 0. -1.
</event>
<event>
 8    1  0.7096247E-006  0.1157691E+04  0.7818608E-02  0.8639121E-01
          1   -1    0    0  502    0  0.00000000000E+00  0.00000000000E+00  0.25335365204E+04  0.25335365204E+04  0.00000000000E+00 0. -1.
         -1   -1    0    0    0  501 -0.00000000000E+00 -0.00000000000E+00 -0.53084575812E+03  0.53084575812E+03  0.00000000000E+00 0.  1.
    9000010    2    1    2  502    0 -0.37672639802E+03  0.44242501064E+03  0.11075586250E+04  0.16221130994E+04  0.10329095461E+04 0.  0.
   -9000010    2    1    2    0  501  0.37672639802E+03 -0.44242501064E+03  0.89513213731E+03  0.14422691791E+04  0.97016296200E+03 0.  0.
        -13    1    3    3    0    0 -0.49343120713E+03  0.25050490025E+03  0.12424429186E+04  0.13601071569E+04  0.10566000000E+00 0.  1.
         13    1    4    4    0    0  0.66748358074E+03 -0.47536323972E+03  0.76848653376E+03  0.11234216056E+04  0.10566000000E+00 0. -1.
          4    1    3    3  502    0  0.11670480911E+03  0.19192011039E+03 -0.13488429359E+03  0.26200594248E+03  0.00000000000E+00 0.  1.
         -4    1    4    4    0  501 -0.29075718272E+03  0.32938229086E+02  0.12664560356E+03  0.31884757352E+03  0.00000000000E+00 0. -1.
</event>
<event>
 8    1  0.7096247E-006  0.1071260E+04  0.7818608E-02  0.8710374E-01
         -2   -1    0    0    0  501 -0.00000000000E+00  0.00000000000E+00  0.10291904899E+04  0.10291904899E+04  0.00000000000E+00 0.  1.
          2   -1    0    0  502    0  0.00000000000E+00 -0.00000000000E+00 -0.11341545804E+04  0.11341545804E+04  0.00000000000E+00 0. -1.
    9000010    2    1    2  502    0 -0.26156971515E+02 -0.38412530232E+03 -0.19301193153E+03  0.10927173053E+04  0.10042614543E+04 0.  0.
   -9000010    2    1    2    0  501  0.26156971515E+02  0.38412530232E+03  0.88047841030E+02  0.10706277649E+04  0.99511554792E+03 0.  0.
        -13    1    3    3    0    0 -0.23895762557E+03 -0.26790395653E+03  0.34792412403E+03  0.49992447828E+03  0.10566000000E+00 0.  1.
         13    1    4    4    0    0 -0.51912606259E+02  0.18027522579E+03 -0.45132264771E+03  0.48875987890E+03  0.10566000000E+00 0. -1.
          4    1    3    3  502    0  0.21280065406E+03 -0.11622134580E+03 -0.54093605556E+03  0.59279282704E+03  0.00000000000E+00 0.  1.
         -4    1    4    4    0  501  0.78069577774E+02  0.20385007654E+03  0.53937048874E+03  0.58186788604E+03  0.00000000000E+00 0. -1.
</event>
<event>
 8    1  0.7096247E-006  0.1131033E+04  0.7818608E-02  0.8660388E-01
          1   -1    0    0  502    0  0.00000000000E+00  0.00000000000E+00  0.16054328306E+04  0.16054328306E+04  0.00000000000E+00 0. -1.
         -1   -1    0    0    0  501 -0.00000000000E+00 -0.00000000000E+00 -0.97052418848E+03  0.97052418848E+03  0.00000000000E+00 0.  1.
    9000010    2    1    2  502    0 -0.53087604149E+03 -0.62531780889E+02 -0.22560638497E+03  0.11608688953E+04  0.10054743936E+04 0.  0.
   -9000010    2    1    2    0  501  0.53087604149E+03  0.62531780889E+02  0.86051502708E+03  0.14150881238E+04  0.98805297992E+03 0.  0.
        -13    1    3    3    0    0  0.12343517146E+03  0.57192116738E+02 -0.44114510880E+03  0.46164509957E+03  0.10566000000E+00 0.  1.
         13    1    4    4    0    0  0.34758604324E+03 -0.31156908550E+03  0.87100754678E+01  0.46686960607E+03  0.10566000000E+00 0. -1.
          4    1    3    3  502    0 -0.65431121295E+03 -0.11972389763E+03  0.21553872383E+03  0.69922379574E+03  0.00000000000E+00 0.  1.
         -4    1    4    4    0  501  0.18328999825E+03  0.37410086639E+03  0.85180495162E+03  0.94821851769E+03  0.00000000000E+00 0. -1.
</event>
<event>
 8    1  0.7096247E-006  0.1693024E+04  0.7818608E-02  0.8306322E-01
         -2   -1    0    0    0  501 -0.00000000000E+00  0.00000000000E+00  0.81772179620E+03  0.81772179620E+03  0.00000000000E+00 0. -1.
          2   -1    0    0  502    0  0.00000000000E+00 -0.00000000000E+00 -0.37243611994E+04  0.37243611994E+04  0.00000000000E+00 0.  1.
    9000010    2    1    2  502    0 -0.14077683506E+04  0.13111552820E+03 -0.20222484311E+04  0.26526472508E+04  0.97367638847E+03 0.  0.
   -9000010    2    1    2    0  501  0.14077683506E+04 -0.13111552820E+03 -0.88439097210E+03  0.18894357448E+04  0.88815372052E+03 0.  0.
        -13    1    3    3    0    0 -0.11300056857E+04 -0.24373093539E+03 -0.17916872629E+04  0.21322431563E+04  0.10566000000E+00 0.  1.
         13    1    4    4    0    0  0.88505555835E+03  0.54227433268E+02 -0.50748466390E+02  0.88816629855E+03  0.10566000000E+00 0. -1.
          4    1    3    3  502    0 -0.27776266494E+03  0.37484646359E+03 -0.23056116825E+03  0.52040409453E+03  0.00000000000E+00 0.  1.
         -4    1    4    4    0  501  0.52271279229E+03 -0.18534296147E+03 -0.83364250571E+03  0.10012694462E+04  0.00000000000E+00 0. -1.
</event>
<event>
 8    1  0.7096247E-006  0.1188834E+04  0.7818608E-02  0.8615018E-01
          1   -1    0    0  502    0  0.00000000000E+00  0.00000000000E+00  0.80397189871E+03  0.80397189871E+03  0.00000000000E+00 0.  1.
         -1   -1    0    0    0  501 -0.00000000000E+00 -0.00000000000E+00 -0.19098329365E+04  0.19098329365E+04  0.00000000000E+00 0. -1.
    9000010    2    1    2  502    0  0.29199525815E+03  0.58023668387E+03 -0.16749546073E+03  0.11940483769E+04  0.98780613322E+03 0.  0.
   -9000010    2    1    2    0  501 -0.29199525815E+03 -0.58023668387E+03 -0.93836557709E+03  0.15197564584E+04  0.10035905023E+04 0.  0.
        -13    1    3    3    0    0  0.59203753640E+02  0.11191147875E+03 -0.53827060420E+03  0.55295977976E+03  0.10566000000E+00 0.  1.
         13    1    4    4    0    0 -0.59474983561E+03 -0.27115586233E+03 -0.23623118451E+03  0.69502377825E+03  0.10566000000E+00 0. -1.
          4    1    3    3  502    0  0.23279150451E+03  0.46832520512E+03  0.37077514347E+03  0.64108859710E+03  0.00000000000E+00 0.  1.
         -4    1    4    4    0  501  0.30275457746E+03 -0.30908082154E+03 -0.70213439258E+03  0.82473268012E+03  0.00000000000E+00 0. -1.
</event>
<event>
 8    1  0.7096247E-006  0.1440734E+04  0.7818608E-02  0.8444445E-01
          2   -1    0    0  502    0  0.00000000000E+00  0.00000000000E+00  0.39705716789E+04  0.39705716789E+04  0.00000000000E+00 0. -1.
         -2   -1    0    0    0  501 -0.00000000000E+00 -0.00000000000E+00 -0.56115435402E+03  0.56115435402E+03  0.00000000000E+00 0.  1.
    9000010    2    1    2  502    0 -0.10116503199E+04 -0.25915315812E+03  0.22935130037E+04  0.27066867269E+04  0.98760032913E+03 0.  0.
   -9000010    2    1    2    0  501  0.10116503199E+04  0.25915315812E+03  0.11159043211E+04  0.18250393060E+04  0.99746142049E+03 0.  0.
        -13    1    3    3    0    0 -0.85407976777E+03 -0.53911697390E+03  0.12078273656E+04  0.15744669948E+04  0.10566000000E+00 0.  1.
         13    1    4    4    0    0  0.47338780082E+03  0.16699024775E+03  0.11730692603E+04  0.12759597382E+04  0.10566000000E+00 0. -1.
          4    1    3    3  502    0 -0.15757055216E+03  0.27996381579E+03  0.10856856381E+04  0.11322197321E+04  0.00000000000E+00 0.  1.
         -4    1    4    4    0  501  0.53826251911E+03  0.92162910363E+02 -0.57164939184E+02  0.54907956782E+03  0.00000000000E+00 0. -1.
</event>
<event>
 8    1  0.7096247E-006  0.1152864E+04  0.7818608E-02  0.8642928E-01
          2   -1    0    0  502    0  0.00000000000E+00  0.00000000000E+00  0.27579336053E+04  0.27579336053E+04  0.00000000000E+00 0.  1.
         -2   -1    0    0    0  501 -0.00000000000E+00 -0.00000000000E+00 -0.48580532238E+03  0.48580532238E+03  0.00000000000E+00 0. -1.
    9000010    2    1    2  502    0 -0.21127545018E+03 -0.53419632324E+03  0.12440934554E+04  0.16754692823E+04  0.96406730192E+03 0.  0.
   -9000010    2    1    2    0  501  0.21127545018E+03  0.53419632324E+03  0.10280348276E+04  0.15682696454E+04  0.10356693712E+04 0.  0.
        -13    1    3    3    0    0 -0.18266594594E+03 -0.17550875883E+03 -0.10868782846E+03  0.27565055315E+03  0.10566000000E+00 0.  1.
         13    1    4    4    0    0  0.23910081161E+03  0.80086651127E+03  0.99291956575E+03  0.12978619504E+04  0.10566000000E+00 0. -1.
          4    1    3    3  502    0 -0.28609504246E+02 -0.35868756441E+03  0.13527812839E+04  0.13998187292E+04  0.00000000000E+00 0.  1.
         -4    1    4    4    0  501 -0.27825361430E+02 -0.26667018803E+03  0.35115261817E+02  0.27040769504E+03  0.00000000000E+00 0. -1.
</event>
<event>
 8    1  0.7096247E-006  0.1393055E+04  0.7818608E-02  0.8473835E-01
         -2   -1    0    0    0  501 -0.00000000000E+00  0.00000000000E+00  0.55415214414E+03  0.55415214414E+03  0.00000000000E+00 0.  1.
          2   -1    0    0  502    0  0.00000000000E+00 -0.00000000000E+00 -0.35529609883E+04  0.35529609883E+04  0.00000000000E+00 0. -1.
    9000010    2    1    2  502    0  0.62464753368E+03  0.72900985286E+03 -0.12521615762E+04  0.18723040046E+04  0.10079552400E+04 0.  0.
   -9000010    2    1    2    0  501 -0.62464753368E+03 -0.72900985286E+03 -0.17466472680E+04  0.22348091279E+04  0.10109180245E+04 0.  0.
        -13    1    3    3    0    0  0.67751754353E+03  0.23660636828E+03 -0.25978067314E+03  0.76321596197E+03  0.10566000000E+00 0.  1.
         13    1    4    4    0    0 -0.38593614700E+03  0.19658415161E+03 -0.63583303279E+03  0.76933457935E+03  0.10566000000E+00 0. -1.
          4    1    3    3  502    0 -0.52870009846E+02  0.49240348457E+03 -0.99238090302E+03  0.11090880426E+04  0.00000000000E+00 0.  1.
         -4    1    4    4    0  501 -0.23871138668E+03 -0.92559400447E+03 -0.11108142352E+04  0.14654745485E+04  0.00000000000E+00 0. -1.
</event>
<event>
 8    1  0.7096247E-006  0.1247052E+04  0.7818608E-02  0.8571949E-01
          1   -1    0    0  502    0  0.00000000000E+00  0.00000000000E+00  0.14413701060E+04  0.14413701060E+04  0.00000000000E+00 0. -1.
         -1   -1    0    0    0  501 -0.00000000000E+00 -0.00000000000E+00 -0.11050818689E+04  0.11050818689E+04  0.00000000000E+00 0.  1.
    9000010    2    1    2  502    0 -0.72172865347E+03  0.17089145916E+03  0.36510608716E+03  0.13096572751E+04  0.10157773296E+04 0.  0.
   -9000010    2    1    2    0  501  0.72172865347E+03 -0.17089145916E+03 -0.28817850006E+02  0.12367946998E+04  0.98931012371E+03 0.  0.
        -13    1    3    3    0    0 -0.94887406019E+03  0.98053224580E+02  0.10975096943E+03  0.96021961207E+03  0.10566000000E+00 0.  1.
         13    1    4    4    0    0  0.41896402978E+03 -0.58736644979E+03 -0.23972484405E+02  0.72187595594E+03  0.10566000000E+00 0. -1.
          4    1    3    3  502    0  0.22714540673E+03  0.72838234575E+02  0.25535511773E+03  0.34943766306E+03  0.00000000000E+00 0.  1.
         -4    1    4    4    0  501  0.30276462369E+03  0.41647499064E+03 -0.48453656019E+01  0.51491874384E+03  0.00000000000E+00 0. -1.
</event>
<event>
 8    1  0.7096247E-006  0.1159938E+04  0.7818608E-02  0.8637357E-01
          2   -1    0    0  502    0  0.00000000000E+00  0.00000000000E+00  0.29908416423E+04  0.29908416423E+04  0.00000000000E+00 0. -1.
         -2   -1    0    0    0  501 -0.00000000000E+00 -0.00000000000E+00 -0.46334944212E+03  0.46334944212E+03  0.00000000000E+00 0.  1.
    9000010    2    1    2  502    0 -0.29098846120E+03  0.52474971788E+03  0.15645316487E+04  0.19511298245E+04  0.99955578185E+03 0.  0.
   -9000010    2    1    2    0  501  0.29098846120E+03 -0.52474971788E+03  0.96296055139E+03  0.15030612599E+04  0.98583141385E+03 0.  0.
        -13    1    3    3    0    0 -0.11414764032E+03  0.76385270777E+03  0.14288931383E+04  0.16242648352E+04  0.10566000000E+00 0.  1.
         13    1    4    4    0    0  0.57042604663E+03 -0.65162586726E+02  0.29508722487E+03  0.64552964210E+03  0.10566000000E+00 0. -1.
          4    1    3    3  502    0 -0.17684082088E+03 -0.23910298989E+03  0.13563851044E+03  0.32686498928E+03  0.00000000000E+00 0.  1.
         -4    1    4    4    0  501 -0.27943758542E+03 -0.45958713115E+03  0.66787332652E+03  0.85753161781E+03  0.00000000000E+00 0. -1.
</event>
<event>
 8    1  0.7096247E-006  0.1596261E+04  0.7818608E-02  0.8356158E-01
         -2   -1    0    0    0  501 -0.00000000000E+00  0.00000000000E+00  0.11885215005E+04  0.11885215005E+04  0.00000000000E+00 0. -1.
          2   -1    0    0  502    0  0.00000000000E+00 -0.00000000000E+00 -0.21576126749E+04  0.21576126749E+04  0.00000000000E+00 0.  1.
    9000010    2    1    2  502    0  0.94666831476E+03  0.79330146629E+03 -0.62015436909E+03  0.17199187853E+04  0.10237290031E+04 0.  0.
   -9000010    2    1    2    0  501 -0.94666831476E+03 -0.79330146629E+03 -0.34893680522E+03  0.16262153902E+04  0.99865483854E+03 0.  0.
        -13    1    3    3    0    0  0.61946616917E+03 -0.10927827633E+03 -0.13139148448E+03  0.64260704149E+03  0.10566000000E+00 0.  1.
         13    1    4    4    0    0 -0.12093174451E+03 -0.71893822738E+03 -0.61398163135E+01  0.72906403706E+03  0.10566000000E+00 0. -1.
          4    1    3    3  502    0  0.32720214559E+03  0.90257974262E+03 -0.48876288460E+03  0.10773117438E+04  0.00000000000E+00 0.  1.
         -4    1    4    4    0  501 -0.82573657025E+03 -0.74363238911E+02 -0.34279698891E+03  0.89715135309E+03  0.00000000000E+00 0. -1.
</event>
<event>
 8    1  0.7096247E-006  0.1032381E+04  0.7818608E-02  0.8744748E-01
         -1   -1    0    0    0  501 -0.00000000000E+00  0.00000000000E+00  0.13946681373E+04  0.13946681373E+04  0.00000000000E+00 0. -1.
          1   -1    0    0  502    0  0.00000000000E+00 -0.00000000000E+00 -0.77857303006E+03  0.77857303006E+03  0.00000000000E+00 0.  1.
    9000010    2    1    2  502    0 -0.30585658463E+03 -0.26938556727E+03  0.15579644489E+03  0.99306389781E+03  0.89206868496E+03 0.  0.
   -9000010    2    1    2    0  501  0.30585658463E+03  0.26938556727E+03  0.46029866234E+03  0.11801772695E+04  0.10073860704E+04 0.  0.
        -13    1    3    3    0    0 -0.34039514196E+03 -0.55460654076E+03  0.24014552801E+03  0.69363329903E+03  0.10566000000E+00 0.  1.
         13    1    4    4    0    0  0.96533637355E+02  0.26306733907E+03  0.76258308009E+03  0.81243838735E+03  0.10566000000E+00 0. -1.
          4    1    3    3  502    0  0.34538557339E+02  0.28522097350E+03 -0.84349083123E+02  0.29943059879E+03  0.00000000000E+00 0.  1.
         -4    1    4    4    0  501  0.20932294727E+03  0.63182281944E+01 -0.30228441775E+03  0.36773888220E+03  0.00000000000E+00 0. -1.
</event>
<event>
 8    1  0.7096247E-006  0.1179775E+04  0.7818608E-02  0.8621950E-01
         -2   -1    0    0    0  501 -0.00000000000E+00  0.00000000000E+00  0.71593610623E+03  0.71593610623E+03  0.00000000000E+00 0.  1.
          2   -1    0    0  502    0  0.00000000000E+00 -0.00000000000E+00 -0.19937183114E+04  0.19937183114E+04  0.00000000000E+00 0. -1.
    9000010    2    1    2  502    0  0.55666429493E+03 -0.52897947100E+02 -0.45036784125E+03  0.12996965625E+04  0.10833774190E+04 0.  0.
   -9000010    2    1    2    0  501 -0.55666429493E+03  0.52897947100E+02 -0.82741436388E+03  0.14099578551E+04  0.99533576930E+03 0.  0.
        -13    1    3    3    0    0  0.67825125045E+03  0.35477323178E+03 -0.42025849431E+03  0.87321590568E+03  0.10566000000E+00 0.  1.
         13    1    4    4    0    0 -0.61404686988E+03 -0.11013094068E+03 -0.99163519350E+03  0.11715471611E+04  0.10566000000E+00 0. -1.
          4    1    3    3  502    0 -0.12158695552E+03 -0.40767117888E+03 -0.30109346936E+02  0.42648065679E+03  0.00000000000E+00 0.  1.
         -4    1    4    4    0  501  0.57382574951E+02  0.16302888778E+03  0.16422082961E+03  0.23841069405E+03  0.00000000000E+00 0. -1.
</event>
<event>
 8    1  0.7096247E-006  0.1102545E+04  0.7818608E-02  0.8683800E-01
          2   -1    0    0  502    0  0.00000000000E+00  0.00000000000E+00  0.19013025649E+04  0.19013025649E+04  0.00000000000E+00 0. -1.
         -2   -1    0    0    0  501 -0.00000000000E+00 -0.00000000000E+00 -0.65211944362E+03  0.65211944362E+03  0.00000000000E+00 0.  1.
    9000010    2    1    2  502    0  0.16903100265E+03 -0.43919394249E+03  0.79718035580E+03  0.13523574668E+04  0.98585566857E+03 0.  0.
   -9000010    2    1    2    0  501 -0.16903100265E+03  0.43919394249E+03  0.45200276551E+03  0.12010645418E+04  0.10083584356E+04 0.  0.
        -13    1    3    3    0    0  0.30959115268E+03 -0.22741143358E+02  0.85446496301E+03  0.90910627849E+03  0.10566000000E+00 0.  1.
         13    1    4    4    0    0 -0.32752783347E+02  0.23788962715E+03 -0.31521020639E+03  0.39625964328E+03  0.10566000000E+00 0. -1.
          4    1    3    3  502    0 -0.14056015003E+03 -0.41645279913E+03 -0.57284607207E+02  0.44325118827E+03  0.00000000000E+00 0.  1.
         -4    1    4    4    0  501 -0.13627821931E+03  0.20130431534E+03  0.76721297190E+03  0.80480489852E+03  0.00000000000E+00 0. -1.
</event>
<event>
 8    1  0.7096247E-006  0.1385988E+04  0.7818608E-02  0.8478294E-01
          4   -1    0    0  502    0  0.00000000000E+00  0.00000000000E+00  0.75625435443E+03  0.75625435443E+03  0.00000000000E+00 0.  1.
         -4   -1    0    0    0  501 -0.00000000000E+00 -0.00000000000E+00 -0.26736901859E+04  0.26736901859E+04  0.00000000000E+00 0. -1.
    9000010    2    1    2  502    0 -0.24950312600E+03  0.92960332414E+03 -0.13351198113E+04  0.19171149220E+04  0.98304148603E+03 0.  0.
   -9000010    2    1    2    0  501  0.24950312600E+03 -0.92960332414E+03 -0.58231602013E+03  0.15128296184E+04  0.10115074675E+04 0.  0.
        -13    1    3    3    0    0  0.10214237258E+03  0.63257139060E+03 -0.16788118872E+03  0.66239243139E+03  0.10566000000E+00 0.  1.
         13    1    4    4    0    0  0.97081673909E+02  0.17392880512E+03 -0.30590737335E+03  0.36504165912E+03  0.10566000000E+00 0. -1.
          4    1    3    3  502    0 -0.35164549858E+03  0.29703193355E+03 -0.11672386226E+04  0.12547224906E+04  0.00000000000E+00 0.  1.
         -4    1    4    4    0  501  0.15242145209E+03 -0.11035321293E+04 -0.27640864678E+03  0.11477879592E+04  0.00000000000E+00 0. -1.
</event>
<event>
 8    1  0.7096247E-006  0.1121164E+04  0.7818608E-02  0.8668416E-01
          1   -1    0    0  502    0  0.00000000000E+00  0.00000000000E+00  0.22883014847E+04  0.22883014847E+04  0.00000000000E+00 0.  1.
         -1   -1    0    0    0  501 -0.00000000000E+00 -0.00000000000E+00 -0.55799364234E+03  0.55799364234E+03  0.00000000000E+00 0. -1.
    9000010    2    1    2  502    0  0.29798094598E+03  0.42348182134E+03  0.68384286107E+03  0.13087762011E+04  0.98849612478E+03 0.  0.
   -9000010    2    1    2    0  501 -0.29798094598E+03 -0.42348182134E+03  0.10464649813E+04  0.15375189260E+04  0.10003729272E+04 0.  0.
        -13    1    3    3    0    0  0.63367675342E+03  0.29208321899E+03  0.24199761416E+03  0.73852670301E+03  0.10566000000E+00 0.  1.
         13    1    4    4    0    0 -0.77733100106E+01 -0.59034411247E+03  0.10478825996E+04  0.12027570616E+04  0.10566000000E+00 0. -1.
          4    1    3    3  502    0 -0.33569580744E+03  0.13139860235E+03  0.44184524692E+03  0.57024949807E+03  0.00000000000E+00 0.  1.
         -4    1    4    4    0  501 -0.29020763597E+03  0.16686229112E+03 -0.14176183480E+01  0.33476186434E+03  0.00000000000E+00 0. -1.
</event>
<event>
 8    1  0.7096247E-006  0.1694996E+04  0.7818608E-02  0.8305342E-01
          2   -1    0    0  502    0  0.00000000000E+00  0.00000000000E+00  0.27080848176E+04  0.27080848176E+04  0.00000000000E+00 0.  1.
         -2   -1    0    0    0  501 -0.00000000000E+00 -0.00000000000E+00 -0.10638130648E+04  0.10638130648E+04  0.00000000000E+00 0. -1.
    9000010    2    1    2  502    0 -0.79109263934E+03 -0.11034967972E+04  0.72746773796E+03  0.18514478796E+04  0.10271889776E+04 0.  0.
   -9000010    2    1    2    0  501  0.79109263934E+03  0.11034967972E+04  0.91680401487E+03  0.19204500028E+04  0.10020308710E+04 0.  0.
        -13    1    3    3    0    0 -0.93481950956E+03 -0.51969977705E+03  0.63299210978E+03  0.12428412593E+04  0.10566000000E+00 0.  1.
         13    1    4    4    0    0  0.40991051724E+03  0.91316319710E+03  0.10860116203E+03  0.10068206793E+04  0.10566000000E+00 0. -1.
          4    1    3    3  502    0  0.14372687021E+03 -0.58379702011E+03  0.94475628183E+02  0.60860662026E+03  0.00000000000E+00 0.  1.
         -4    1    4    4    0  501  0.38118212210E+03  0.19033360006E+03  0.80820285284E+03  0.91362932356E+03  0.00000000000E+00 0. -1.
</event>
<event>
 8    1  0.7096247E-006  0.1019428E+04  0.7818608E-02  0.8756548E-01
         -2   -1    0    0    0  501 -0.00000000000E+00  0.00000000000E+00  0.46716582770E+03  0.46716582770E+03  0.00000000000E+00 0.  1.
          2   -1    0    0  502    0  0.00000000000E+00 -0.00000000000E+00 -0.22782328882E+04  0.22782328882E+04  0.00000000000E+00 0. -1.
    9000010    2    1    2  502    0 -0.28032562261E+03  0.24328105209E+02 -0.10825114905E+04  0.14646928387E+04  0.94568476419E+03 0.  0.
   -9000010    2    1    2    0  501  0.28032562261E+03 -0.24328105209E+02 -0.72855557000E+03  0.12807058772E+04  0.10150073960E+04 0.  0.
        -13    1    3    3    0    0  0.33790002473E+03  0.12015393522E+03 -0.34577948216E+03  0.49817352028E+03  0.10566000000E+00 0.  1.
         13    1    4    4    0    0  0.16602131069E+03 -0.30502592658E+03  0.12954397849E+03  0.37065556116E+03  0.10566000000E+00 0. -1.
          4    1    3    3  502    0 -0.61822564734E+03 -0.95825830007E+02 -0.73673200830E+03  0.96651931837E+03  0.00000000000E+00 0.  1.
         -4    1    4    4    0  501  0.11430431192E+03  0.28069782137E+03 -0.85809954849E+03  0.91005031606E+03  0.00000000000E+00 0. -1.
</event>
<event>
 8    1  0.7096247E-006  0.1223649E+04  0.7818608E-02  0.8588964E-01
         -1   -1    0    0    0  501 -0.00000000000E+00  0.00000000000E+00  0.12519182243E+04  0.12519182243E+04  0.00000000000E+00 0.  1.
          1   -1    0    0  502    0  0.00000000000E+00 -0.00000000000E+00 -0.12506433430E+04  0.12506433430E+04  0.00000000000E+00 0. -1.
    9000010    2    1    2  502    0 -0.69569208323E+03  0.19332511297E+03  0.26212613979E+03  0.12484891041E+04  0.98420163382E+03 0.  0.
   -9000010    2    1    2    0  501  0.69569208323E+03 -0.19332511297E+03 -0.26085125846E+03  0.12540724631E+04  0.99161095687E+03 0.  0.
        -13    1    3    3    0    0 -0.39770230841E+03  0.57064389726E+03  0.31734073925E+03  0.76453040459E+03  0.10566000000E+00 0.  1.
         13    1    4    4    0    0  0.62772536858E+03  0.52450748970E+02  0.25426484977E+03  0.67929437243E+03  0.10566000000E+00 0. -1.
          4    1    3    3  502    0 -0.29798977482E+03 -0.37731878429E+03 -0.55214599460E+02  0.48395869955E+03  0.00000000000E+00 0.  1.
         -4    1    4    4    0  501  0.67966714654E+02 -0.24577586194E+03 -0.51511610822E+03  0.57477809071E+03  0.00000000000E+00 0. -1.
</event>
<event>
 8    1  0.7096247E-006  0.1364468E+04  0.7818608E-02  0.8492042E-01
          4   -1    0    0  502    0  0.00000000000E+00  0.00000000000E+00  0.12275053593E+04  0.12275053593E+04  0.00000000000E+00 0.  1.
         -4   -1    0    0    0  501 -0.00000000000E+00 -0.00000000000E+00 -0.16574022439E+04  0.16574022439E+04  0.00000000000E+00 0. -1.
    9000010    2    1    2  502    0 -0.90266476803E+03  0.28308469712E+03  0.20511544033E+03  0.13811375845E+04  0.98515382266E+03 0.  0.
   -9000010    2    1    2    0  501  0.90266476803E+03 -0.28308469712E+03 -0.63501232492E+03  0.15037700186E+04  0.98139848531E+03 0.  0.
        -13    1    3    3    0    0  0.58966617486E+02 -0.16940374394E+03  0.26123266677E+03  0.31688674284E+03  0.10566000000E+00 0.  1.
         13    1    4    4    0    0  0.34706140660E+03  0.36889691937E+03 -0.23263174468E+03  0.55736352309E+03  0.10566000000E+00 0. -1.
          4    1    3    3  502    0 -0.96163138551E+03  0.45248844106E+03 -0.56117226437E+02  0.10642508417E+04  0.00000000000E+00 0.  1.
         -4    1    4    4    0  501  0.55560336142E+03 -0.65198161649E+03 -0.40238058024E+03  0.94640649555E+03  0.00000000000E+00 0. -1.
</event>
<event>
 8    1  0.7096247E-006  0.1078521E+04  0.7818608E-02  0.8704123E-01
          1   -1    0    0  502    0  0.00000000000E+00  0.00000000000E+00  0.12935140211E+04  0.12935140211E+04  0.00000000000E+00 0. -1.
         -1   -1    0    0    0  501 -0.00000000000E+00 -0.00000000000E+00 -0.89983773904E+03  0.89983773904E+03  0.00000000000E+00 0.  1.
    9000010    2    1    2  502    0  0.14381143979E+03 -0.37195231318E+03  0.16875011519E+03  0.10893371342E+04  0.99957417785E+03 0.  0.
   -9000010    2    1    2    0  501 -0.14381143979E+03  0.37195231318E+03  0.22492616686E+03  0.11040146260E+04  0.10046025385E+04 0.  0.
        -13    1    3    3    0    0  0.37977237919E+03 -0.51781054070E+03  0.37503270213E+03  0.74364262579E+03  0.10566000000E+00 0.  1.
         13    1    4    4    0    0  0.43421093646E+03  0.13084405741E+03  0.11873360073E+03  0.46878244828E+03  0.10566000000E+00 0. -1.
          4    1    3    3  502    0 -0.23596093939E+03  0.14585822751E+03 -0.20628258695E+03  0.34569450839E+03  0.00000000000E+00 0.  1.
         -4    1    4    4    0  501 -0.57802237626E+03  0.24110825578E+03  0.10619256613E+03  0.63523217768E+03  0.00000000000E+00 0. -1.
</event>
<event>
 8    1  0.7096247E-006  0.1743023E+04  0.7818608E-02  0.8281897E-01
          1   -1    0    0  502    0  0.00000000000E+00  0.00000000000E+00  0.10680855081E+04  0.10680855081E+04  0.00000000000E+00 0. -1.
         -1   -1    0    0    0  501 -0.00000000000E+00 -0.00000000000E+00 -0.29956823358E+04  0.29956823358E+04  0.00000000000E+00 0.  1.
    9000010    2    1    2  502    0  0.84984403568E+03 -0.11439129248E+04 -0.14185838301E+04  0.22448051466E+04  0.99799719370E+03 0.  0.
   -9000010    2    1    2    0  501 -0.84984403568E+03  0.11439129248E+04 -0.50901299755E+03  0.18189626974E+04  0.10093361176E+04 0.  0.
        -13    1    3    3    0    0  0.65295602300E+03 -0.82398974402E+02 -0.48534750518E+03  0.81774285133E+03  0.10566000000E+00 0.  1.
         13    1    4    4    0    0 -0.37106527979E+03  0.11360900878E+04 -0.59076872582E+03  0.13331908445E+04  0.10566000000E+00 0. -1.
          4    1    3    3  502    0  0.19688801268E+03 -0.10615139504E+04 -0.93323632492E+03  0.14270622952E+04  0.00000000000E+00 0.  1.
         -4    1    4    4    0  501 -0.47877875589E+03  0.78228369828E+01  0.81755728273E+02  0.48577185281E+03  0.00000000000E+00 0. -1.
</event>
<event>
 8    1  0.7096247E-006  0.1356488E+04  0.7818608E-02  0.8497205E-01
          1   -1    0    0  502    0  0.00000000000E+00  0.00000000000E+00  0.98922769886E+03  0.98922769886E+03  0.00000000000E+00 0.  1.
         -1   -1    0    0    0  501 -0.00000000000E+00 -0.00000000000E+00 -0.18622627180E+04  0.18622627180E+04  0.00000000000E+00 0. -1.
    9000010    2    1    2  502    0  0.83391257064E+03 -0.37437457766E+03 -0.38792145741E+03  0.14109130324E+04  0.10023103452E+04 0.  0.
   -9000010    2    1    2    0  501 -0.83391257064E+03  0.37437457766E+03 -0.48511356177E+03  0.14405773845E+04  0.10021783938E+04 0.  0.
        -13    1    3    3    0    0  0.37886168584E+03 -0.68414095578E+03 -0.35670992885E+03  0.85955046907E+03  0.10566000000E+00 0.  1.
         13    1    4    4    0    0 -0.78203597533E+03 -0.87874090222E+02 -0.26563426425E+02  0.78740570815E+03  0.10566000000E+00 0. -1.
          4    1    3    3  502    0  0.45505088480E+03  0.30976637812E+03 -0.31211528552E+02  0.55136256337E+03  0.00000000000E+00 0.  1.
         -4    1    4    4    0  501 -0.51876595306E+02  0.46224866788E+03 -0.45855013535E+03  0.65317167630E+03  0.00000000000E+00 0. -1.
</event>
<event>
 8    1  0.7096247E-006  0.1133145E+04  0.7818608E-02  0.8658681E-01
          2   -1    0    0  502    0  0.00000000000E+00  0.00000000000E+00  0.16090774540E+04  0.16090774540E+04  0.00000000000E+00 0.  1.
         -2   -1    0    0    0  501 -0.00000000000E+00 -0.00000000000E+00 -0.86404973255E+03  0.86404973255E+03  0.00000000000E+00 0. -1.
    9000010    2    1    2  502    0  0.34277812663E+03  0.42185372468E+03  0.30870299384E+02  0.11345032207E+04  0.99533269478E+03 0.  0.
   -9000010    2    1    2    0  501 -0.34277812663E+03 -0.42185372468E+03  0.71415742205E+03  0.13386239658E+04  0.99319478918E+03 0.  0.
        -13    1    3    3    0    0  0.17220462185E+03  0.11180754290E+03 -0.47481119405E+03  0.51730169108E+03  0.10566000000E+00 0.  1.
         13    1    4    4    0    0 -0.59227208526E+03 -0.50847913766E+03  0.27778640311E+03  0.82855449630E+03  0.10566000000E+00 0. -1.
          4    1    3    3  502    0  0.17057350478E+03  0.31004618178E+03  0.50568149344E+03  0.61720152963E+03  0.00000000000E+00 0.  1.
         -4    1    4    4    0  501  0.24949395863E+03  0.86625412979E+02  0.43637101894E+03  0.51006946952E+03  0.00000000000E+00 0. -1.
</event>
<event>
 8    1  0.7096247E-006  0.1154089E+04  0.7818608E-02  0.8641960E-01
         -2   -1    0    0    0  501 -0.00000000000E+00  0.00000000000E+00  0.47013549532E+03  0.47013549532E+03  0.00000000000E+00 0.  1.
          2   -1    0    0  502    0  0.00000000000E+00 -0.00000000000E+00 -0.33557747696E+04  0.33557747696E+04  0.00000000000E+00 0. -1.
    9000010    2    1    2  502    0 -0.36421016554E+03  0.45499911948E+03 -0.68849312600E+03  0.13443931598E+04  0.99684348830E+03 0.  0.
   -9000010    2    1    2    0  501  0.36421016554E+03 -0.45499911948E+03 -0.21971461483E+04  0.24815171051E+04  0.99539072865E+03 0.  0.
        -13    1    3    3    0    0 -0.37734152080E+03  0.25769467537E+03  0.15153068297E+03  0.48140910676E+03  0.10566000000E+00 0.  1.
         13    1    4    4    0    0  0.36908511877E+03 -0.11278282564E+03 -0.16327304886E+03  0.41904879228E+03  0.10566000000E+00 0. -1.
          4    1    3    3  502    0  0.13131355260E+02  0.19730444411E+03 -0.84002380897E+03  0.86298405304E+03  0.00000000000E+00 0.  1.
         -4    1    4    4    0  501 -0.48749532365E+01 -0.34221629384E+03 -0.20338730994E+04  0.20624683129E+04  0.00000000000E+00 0. -1.
</event>
<event>
 8    1  0.7096247E-006  0.1182425E+04  0.7818608E-02  0.8619915E-01
          2   -1    0    0  502    0  0.00000000000E+00  0.00000000000E+00  0.69801012502E+03  0.69801012502E+03  0.00000000000E+00 0. -1.
         -2   -1    0    0    0  501 -0.00000000000E+00 -0.00000000000E+00 -0.22600941186E+04  0.22600941186E+04  0.00000000000E+00 0.  1.
    9000010    2    1    2  502    0  0.12271296751E+02 -0.63045967622E+03 -0.12747880532E+04  0.17330018011E+04  0.99024273488E+03 0.  0.
   -9000010    2    1    2    0  501 -0.12271296751E+02  0.63045967622E+03 -0.28729594036E+03  0.12251024425E+04  0.10103004747E+04 0.  0.
        -13    1    3    3    0    0  0.28905820531E+03  0.12934044354E+03 -0.60549456646E+03  0.68330613752E+03  0.10566000000E+00 0.  1.
         13    1    4    4    0    0  0.15448440794E+03  0.19493410833E+03  0.35370535171E+03  0.43240285138E+03  0.10566000000E+00 0. -1.
          4    1    3    3  502    0 -0.27678690856E+03 -0.75980011977E+03 -0.66929348674E+03  0.10496956636E+04  0.00000000000E+00 0.  1.
         -4    1    4    4    0  501 -0.16675570470E+03  0.43552556789E+03 -0.64100129207E+03  0.79269959112E+03  0.00000000000E+00 0. -1.
</event>
<event>
 8    1  0.7096247E-006  0.1788749E+04  0.7818608E-02  0.8260288E-01
          4   -1    0    0  502    0  0.00000000000E+00  0.00000000000E+00  0.14648377318E+04  0.14648377318E+04  0.00000000000E+00 0.  1.
         -4   -1    0    0    0  501 -0.00000000000E+00 -0.00000000000E+00 -0.22623883603E+04  0.22623883603E+04  0.00000000000E+00 0. -1.
    9000010    2    1    2  502    0  0.70784558707E+03  0.13065951762E+04 -0.51411875368E+02  0.17841929916E+04  0.98613646150E+03 0.  0.
   -9000010    2    1    2    0  501 -0.70784558707E+03 -0.13065951762E+04 -0.74613875321E+03  0.19430331005E+04  0.10051956331E+04 0.  0.
        -13    1    3    3    0    0  0.71488110570E+03  0.86064943848E+03 -0.43055870356E+03  0.11988132714E+04  0.10566000000E+00 0.  1.
         13    1    4    4    0    0 -0.39431248314E+03 -0.43580255116E+03 -0.82636596383E+03  0.10140448290E+04  0.10566000000E+00 0. -1.
          4    1    3    3  502    0 -0.70355186258E+01  0.44594573776E+03  0.37914682819E+03  0.58537972025E+03  0.00000000000E+00 0.  1.
         -4    1    4    4    0  501 -0.31353310393E+03 -0.87079262507E+03  0.80227210623E+02  0.92898827144E+03  0.00000000000E+00 0. -1.
</event>
<event>
 8    1  0.7096247E-006  0.1152836E+04  0.7818608E-02  0.8642950E-01
         -1   -1    0    0    0  501 -0.00000000000E+00  0.00000000000E+00  0.19234229550E+04  0.19234229550E+04  0.00000000000E+00 0.  1.
          1   -1    0    0  502    0  0.00000000000E+00 -0.00000000000E+00 -0.69853848911E+03  0.69853848911E+03  0.00000000000E+00 0. -1.
    9000010    2    1    2  502    0 -0.80872703448E+02  0.51796643638E+03  0.75633937994E+03  0.13928944216E+04  0.10455983879E+04 0.  0.
   -9000010    2    1    2    0  501  0.80872703448E+02 -0.51796643638E+03  0.46854508590E+03  0.12290670225E+04  0.10080881037E+04 0.  0.
        -13    1    3    3    0    0 -0.42305194028E+03  0.67162445494E+03  0.48930557818E+03  0.93245499229E+03  0.10566000000E+00 0.  1.
         13    1    4    4    0    0 -0.15433865551E+03 -0.30863532981E+03 -0.26218888352E+03  0.43338113618E+03  0.10566000000E+00 0. -1.
          4    1    3    3  502    0  0.34217923684E+03 -0.15365801856E+03  0.26703380176E+03  0.46043942932E+03  0.00000000000E+00 0.  1.
         -4    1    4    4    0  501  0.23521135896E+03 -0.20933110657E+03  0.73073396942E+03  0.79568588628E+03  0.00000000000E+00 0. -1.
</event>
<event>
 8    1  0.7096247E-006  0.1114848E+04  0.7818608E-02  0.8673599E-01
         -1   -1    0    0    0  501 -0.00000000000E+00  0.00000000000E+00  0.11274311552E+04  0.11274311552E+04  0.00000000000E+00 0.  1.
          1   -1    0    0  502    0  0.00000000000E+00 -0.00000000000E+00 -0.11512567791E+04  0.11512567791E+04  0.00000000000E+00 0. -1.
    9000010    2    1    2  502    0 -0.24278561090E+03 -0.43851315872E+03 -0.24659597102E+03  0.11408234815E+04  0.99470095999E+03 0.  0.
   -9000010    2    1    2    0  501  0.24278561090E+03  0.43851315872E+03  0.22277034718E+03  0.11378644528E+04  0.99693040988E+03 0.  0.
        -13    1    3    3    0    0 -0.60561281566E+03 -0.14502996779E+03 -0.22503859296E+02  0.62314284791E+03  0.10566000000E+00 0.  1.
         13    1    4    4    0    0  0.58085442051E+03  0.34894261422E+03  0.35377335014E+03  0.76440068046E+03  0.10566000000E+00 0. -1.
          4    1    3    3  502    0  0.36282720476E+03 -0.29348319093E+03 -0.22409211172E+03  0.51768063360E+03  0.00000000000E+00 0.  1.
         -4    1    4    4    0  501 -0.33806880961E+03  0.89570544501E+02 -0.13100300296E+03  0.37346377235E+03  0.00000000000E+00 0. -1.
</event>
<event>
 8    1  0.7096247E-006  0.1249954E+04  0.7818608E-02  0.8569866E-01
          1   -1    0    0  502    0  0.00000000000E+00  0.00000000000E+00  0.12131076050E+04  0.12131076050E+04  0.00000000000E+00 0.  1.
         -1   -1    0    0    0  501 -0.00000000000E+00 -0.00000000000E+00 -0.15920183280E+04  0.15920183280E+04  0.00000000000E+00 0. -1.
    9000010    2    1    2  502    0  0.40791139025E+03 -0.61176979577E+03  0.42238366210E+03  0.13277469040E+04  0.10216897268E+04 0.  0.
   -9000010    2    1    2    0  501 -0.40791139025E+03  0.61176979577E+03 -0.80129438515E+03  0.14773790290E+04  0.99996105838E+03 0.  0.
        -13    1    3    3    0    0  0.56871301473E+03  0.47766439175E+02  0.11336211992E+03  0.58186519679E+03  0.10566000000E+00 0.  1.
         13    1    4    4    0    0 -0.66684875343E+03  0.11243455736E+03 -0.48357291978E+03  0.83136728920E+03  0.10566000000E+00 0. -1.
          4    1    3    3  502    0 -0.16080162448E+03 -0.65953623494E+03  0.30902154218E+03  0.74588170722E+03  0.00000000000E+00 0.  1.
         -4    1    4    4    0  501  0.25893736319E+03  0.49933523841E+03 -0.31772146537E+03  0.64601173977E+03  0.00000000000E+00 0. -1.
</event>
<event>
 8    1  0.7096247E-006  0.1288779E+04  0.7818608E-02  0.8542549E-01
         -2   -1    0    0    0  501 -0.00000000000E+00  0.00000000000E+00  0.74806516158E+03  0.74806516158E+03  0.00000000000E+00 0.  1.
          2   -1    0    0  502    0  0.00000000000E+00 -0.00000000000E+00 -0.22387801230E+04  0.22387801230E+04  0.00000000000E+00 0. -1.
    9000010    2    1    2  502    0 -0.36374328786E+03  0.73932459226E+03 -0.87772814969E+03  0.15548806492E+04  0.98404120660E+03 0.  0.
   -9000010    2    1    2    0  501  0.36374328786E+03 -0.73932459226E+03 -0.61298681169E+03  0.14319646353E+04  0.99792777964E+03 0.  0.
        -13    1    3    3    0    0 -0.71947125412E+02 -0.10712993294E+03  0.14600365510E+03  0.19485966708E+03  0.10566000000E+00 0.  1.
         13    1    4    4    0    0 -0.27889440900E+03 -0.17707610247E+03  0.71013322477E+02  0.33790670394E+03  0.10566000000E+00 0. -1.
          4    1    3    3  502    0 -0.29179616245E+03  0.84645452520E+03 -0.10237318048E+04  0.13600209821E+04  0.00000000000E+00 0.  1.
         -4    1    4    4    0  501  0.64263769687E+03 -0.56224848980E+03 -0.68400013417E+03  0.10940579314E+04  0.00000000000E+00 0. -1.
</event>
<event>
 8    1  0.7096247E-006  0.1271005E+04  0.7818608E-02  0.8554930E-01
         -1   -1    0    0    0  501 -0.00000000000E+00  0.00000000000E+00  0.32810160685E+04  0.32810160685E+04  0.00000000000E+00 0. -1.
          1   -1    0    0  502    0  0.00000000000E+00 -0.00000000000E+00 -0.58932986163E+03  0.58932986163E+03  0.00000000000E+00 0.  1.
    9000010    2    1    2  502    0 -0.28167505208E+03  0.59828382712E+03  0.62264590792E+03  0.14738000762E+04  0.11606525601E+04 0.  0.
   -9000010    2    1    2    0  501  0.28167505208E+03 -0.59828382712E+03  0.20690402990E+04  0.23965458540E+04  0.10125314309E+04 0.  0.
        -13    1    3    3    0    0 -0.20296718929E+02  0.39411820671E+03  0.93707184964E+03  0.10167815794E+04  0.10566000000E+00 0.  1.
         13    1    4    4    0    0  0.14473320781E+02 -0.68256533836E+03  0.62506898275E+03  0.92564364769E+03  0.10566000000E+00 0. -1.
          4    1    3    3  502    0 -0.26137833315E+03  0.20416562041E+03 -0.31442594172E+03  0.45701849680E+03  0.00000000000E+00 0.  1.
         -4    1    4    4    0  501  0.26720173130E+03  0.84281511239E+02  0.14439713162E+04  0.14709022063E+04  0.00000000000E+00 0. -1.
</event>
<event>
 8    1  0.7096247E-006  0.1130116E+04  0.7818608E-02  0.8661130E-01
          2   -1    0    0  502    0  0.00000000000E+00  0.00000000000E+00  0.25687568704E+04  0.25687568704E+04  0.00000000000E+00 0. -1.
         -2   -1    0    0    0  501 -0.00000000000E+00 -0.00000000000E+00 -0.49999643098E+03  0.49999643098E+03  0.00000000000E+00 0.  1.
    9000010    2    1    2  502    0 -0.43678338682E+02 -0.44081051864E+03  0.11583132213E+04  0.16259837140E+04  0.10516234160E+04 0.  0.
   -9000010    2    1    2    0  501  0.43678338682E+02  0.44081051864E+03  0.91044721815E+03  0.14427695874E+04  0.10278366770E+04 0.  0.
        -13    1    3    3    0    0  0.33350352519E+02 -0.69231112266E+03  0.35104128524E+03  0.77694075172E+03  0.10566000000E+00 0.  1.
         13    1    4    4    0    0 -0.12435560478E+03 -0.23129662795E+03 -0.41030692324E+02  0.26579310641E+03  0.10566000000E+00 0. -1.
          4    1    3    3  502    0 -0.77028691201E+02  0.25150060402E+03  0.80727193602E+03  0.84904296227E+03  0.00000000000E+00 0.  1.
         -4    1    4    4    0  501  0.16803394346E+03  0.67210714658E+03  0.95147791047E+03  0.11769764810E+04  0.00000000000E+00 0. -1.
</event>
<event>
 8    1  0.7096247E-006  0.1586057E+04  0.7818608E-02  0.8361625E-01
          2   -1    0    0  502    0  0.00000000000E+00  0.00000000000E+00  0.18617718707E+04  0.18617718707E+04  0.00000000000E+00 0.  1.
         -2   -1    0    0    0  501 -0.00000000000E+00 -0.00000000000E+00 -0.15383871550E+04  0.15383871550E+04  0.00000000000E+00 0. -1.
    9000010    2    1    2  502    0  0.11976331990E+04 -0.39931101234E+03  0.75282880433E+03  0.17394258326E+04  0.93009486335E+03 0.  0.
   -9000010    2    1    2    0  501 -0.11976331990E+04  0.39931101234E+03 -0.42944408868E+03  0.16607331931E+04  0.98986764237E+03 0.  0.
        -13    1    3    3    0    0 -0.11295367318E+03 -0.16618214490E+02 -0.80672867427E+02  0.13979563670E+03  0.10566000000E+00 0.  1.
         13    1    4    4    0    0 -0.30985722048E+03 -0.26137762478E+03 -0.37583402255E+03  0.55279379834E+03  0.10566000000E+00 0. -1.
          4    1    3    3  502    0  0.13105868721E+04 -0.38269279785E+03  0.83350167176E+03  0.15996301959E+04  0.00000000000E+00 0.  1.
         -4    1    4    4    0  501 -0.88777597848E+03  0.66068863712E+03 -0.53610066135E+02  0.11079393947E+04  0.00000000000E+00 0. -1.
</event>
<event>
 8    1  0.7096247E-006  0.1258258E+04  0.7818608E-02  0.8563938E-01
          2   -1    0    0  502    0  0.00000000000E+00  0.00000000000E+00  0.29854152039E+04  0.29854152039E+04  0.00000000000E+00 0.  1.
         -2   -1    0    0    0  501 -0.00000000000E+00 -0.00000000000E+00 -0.74076695593E+03  0.74076695593E+03  0.00000000000E+00 0. -1.
    9000010    2    1    2  502    0 -0.57061639751E+03  0.52480764646E+03  0.12927276109E+03  0.12648702999E+04  0.99103949961E+03 0.  0.
   -9000010    2    1    2    0  501  0.57061639751E+03 -0.52480764646E+03  0.21153754869E+04  0.24613118600E+04  0.99106835422E+03 0.  0.
        -13    1    3    3    0    0 -0.22300840876E+03 -0.19052096161E+03 -0.24847032694E+03  0.38440668793E+03  0.10566000000E+00 0.  1.
         13    1    4    4    0    0  0.65733643861E+03 -0.64591311549E+03  0.10997995225E+04  0.14348707075E+04  0.10566000000E+00 0. -1.
          4    1    3    3  502    0 -0.34760798875E+03  0.71532860807E+03  0.37774308803E+03  0.88046361192E+03  0.00000000000E+00 0.  1.
         -4    1    4    4    0  501 -0.86720041100E+02  0.12110546902E+03  0.10155759644E+04  0.10264411526E+04  0.00000000000E+00 0. -1.
</event>
<event>
 8    1  0.7096247E-006  0.1101281E+04  0.7818608E-02  0.8684855E-01
         -2   -1    0    0    0  501 -0.00000000000E+00  0.00000000000E+00  0.68645570794E+03  0.68645570794E+03  0.00000000000E+00 0.  1.
          2   -1    0    0  502    0  0.00000000000E+00 -0.00000000000E+00 -0.17772038857E+04  0.17772038857E+04  0.00000000000E+00 0. -1.
    9000010    2    1    2  502    0  0.33701629685E+03 -0.42418363735E+03 -0.46506071845E+03  0.12158293651E+04  0.98409747005E+03 0.  0.
   -9000010    2    1    2    0  501 -0.33701629685E+03  0.42418363735E+03 -0.62568745928E+03  0.12478302285E+04  0.93385423917E+03 0.  0.
        -13    1    3    3    0    0 -0.10942303167E+03 -0.58283607030E+03 -0.44535456755E+03  0.74162793010E+03  0.10566000000E+00 0.  1.
         13    1    4    4    0    0 -0.62034657536E+02 -0.27351110922E+03 -0.15266980294E+02  0.28087313409E+03  0.10566000000E+00 0. -1.
          4    1    3    3  502    0  0.44643932852E+03  0.15865243295E+03 -0.19706150896E+02  0.47420143495E+03  0.00000000000E+00 0.  1.
         -4    1    4    4    0  501 -0.27498163932E+03  0.69769474657E+03 -0.61042047898E+03  0.96695709445E+03  0.00000000000E+00 0. -1.
</event>
<event>
 8    1  0.7096247E-006  0.1128743E+04  0.7818608E-02  0.8662244E-01
          4   -1    0    0  502    0  0.00000000000E+00  0.00000000000E+00  0.10593048383E+04  0.10593048383E+04  0.00000000000E+00 0.  1.
         -4   -1    0    0    0  501 -0.00000000000E+00 -0.00000000000E+00 -0.12164405577E+04  0.12164405577E+04  0.00000000000E+00 0. -1.
    9000010    2    1    2  502    0 -0.73151191594E+02 -0.52548512620E+03  0.41860054112E+02  0.11337421582E+04  0.10010660830E+04 0.  0.
   -9000010    2    1    2    0  501  0.73151191594E+02  0.52548512620E+03 -0.19899577350E+03  0.11420032379E+04  0.99150711683E+03 0.  0.
        -13    1    3    3    0    0  0.14005758139E+03 -0.33772822096E+03 -0.44140182216E+03  0.57315971344E+03  0.10566000000E+00 0.  1.
         13    1    4    4    0    0  0.15596302983E+03 -0.26974345755E+03 -0.13607145240E+03  0.34000213365E+03  0.10566000000E+00 0. -1.
          4    1    3    3  502    0 -0.21320877299E+03 -0.18775690525E+03  0.48326187627E+03  0.56058244479E+03  0.00000000000E+00 0.  1.
         -4    1    4    4    0  501 -0.82811838235E+02  0.79522858375E+03 -0.62924321104E+02  0.80200110421E+03  0.00000000000E+00 0. -1.
</event>
<event>
 8    1  0.7096247E-006  0.1292622E+04  0.7818608E-02  0.8539900E-01
          2   -1    0    0  502    0  0.00000000000E+00  0.00000000000E+00  0.84846086613E+03  0.84846086613E+03  0.00000000000E+00 0.  1.
         -2   -1    0    0    0  501 -0.00000000000E+00 -0.00000000000E+00 -0.22495694000E+04  0.22495694000E+04  0.00000000000E+00 0. -1.
    9000010    2    1    2  502    0 -0.73467018304E+03  0.39350992860E+03 -0.14826513430E+03  0.12891824590E+04  0.97232634476E+03 0.  0.
   -9000010    2    1    2    0  501  0.73467018304E+03 -0.39350992860E+03 -0.12528433995E+04  0.18088478071E+04  0.10038543041E+04 0.  0.
        -13    1    3    3    0    0 -0.55012853946E+02  0.56688026707E+03 -0.14517548500E+03  0.58775469705E+03  0.10566000000E+00 0.  1.
         13    1    4    4    0    0  0.39634579122E+03 -0.66726374629E+03 -0.45397220490E+03  0.89912272094E+03  0.10566000000E+00 0. -1.
          4    1    3    3  502    0 -0.67965732909E+03 -0.17337033847E+03 -0.30896492926E+01  0.70142776192E+03  0.00000000000E+00 0.  1.
         -4    1    4    4    0  501  0.33832439182E+03  0.27375381768E+03 -0.79887119464E+03  0.90972508618E+03  0.00000000000E+00 0. -1.
</event>
<event>
 8    1  0.7096247E-006  0.1037052E+04  0.7818608E-02  0.8740536E-01
         -2   -1    0    0    0  501 -0.00000000000E+00  0.00000000000E+00  0.49744847103E+03  0.49744847103E+03  0.00000000000E+00 0.  1.
          2   -1    0    0  502    0  0.00000000000E+00 -0.00000000000E+00 -0.21736031280E+04  0.21736031280E+04  0.00000000000E+00 0. -1.
    9000010    2    1    2  502    0 -0.67113281232E+02  0.26009078032E+03 -0.74395931140E+03  0.12797181058E+04  0.10060077370E+04 0.  0.
   -9000010    2    1    2    0  501  0.67113281232E+02 -0.26009078032E+03 -0.93219534556E+03  0.13913334932E+04  0.99733109869E+03 0.  0.
        -13    1    3    3    0    0  0.12735496970E+03  0.49035804175E+03 -0.33221140547E+02  0.50771444017E+03  0.10566000000E+00 0.  1.
         13    1    4    4    0    0 -0.36875918602E+03 -0.34011442435E+03 -0.20963105294E+03  0.54369692702E+03  0.10566000000E+00 0. -1.
          4    1    3    3  502    0 -0.19446825094E+03 -0.23026726142E+03 -0.71073817086E+03  0.77200366568E+03  0.00000000000E+00 0.  1.
         -4    1    4    4    0  501  0.43587246726E+03  0.80023644024E+02 -0.72256429262E+03  0.84763656615E+03  0.00000000000E+00 0. -1.
</event>
<event>
 8    1  0.7096247E-006  0.1201107E+04  0.7818608E-02  0.8605729E-01
          2   -1    0    0  502    0  0.00000000000E+00  0.00000000000E+00  0.16118558110E+04  0.16118558110E+04  0.00000000000E+00 0.  1.
         -2   -1    0    0    0  501 -0.00000000000E+00 -0.00000000000E+00 -0.95140300086E+03  0.95140300086E+03  0.00000000000E+00 0. -1.
    9000010    2    1    2  502    0 -0.58456660063E+03 -0.24503804267E+03  0.12744920708E+02  0.11753787464E+04  0.98974290180E+03 0.  0.
   -9000010    2    1    2    0  501  0.58456660063E+03  0.24503804267E+03  0.64770788946E+03  0.13878800654E+04  0.10511535630E+04 0.  0.
        -13    1    3    3    0    0 -0.44106274902E+03  0.31380173528E+03 -0.17458324180E+03  0.56875934904E+03  0.10566000000E+00 0.  1.
         13    1    4    4    0    0  0.77023414080E+03  0.62421215053E+02  0.97158649750E+02  0.77884327956E+03  0.10566000000E+00 0. -1.
          4    1    3    3  502    0 -0.14350385162E+03 -0.55883977795E+03  0.18732816251E+03  0.60661939741E+03  0.00000000000E+00 0.  1.
         -4    1    4    4    0  501 -0.18566754016E+03  0.18261682762E+03  0.55054923971E+03  0.60903678587E+03  0.00000000000E+00 0. -1.
</event>
<event>
 8    1  0.7096247E-006  0.1425691E+04  0.7818608E-02  0.8453591E-01
          1   -1    0    0  502    0  0.00000000000E+00  0.00000000000E+00  0.14932638164E+04  0.14932638164E+04  0.00000000000E+00 0.  1.
         -1   -1    0    0    0  501 -0.00000000000E+00 -0.00000000000E+00 -0.17445293089E+04  0.17445293089E+04  0.00000000000E+00 0. -1.
    9000010    2    1    2  502    0 -0.57704542803E+03  0.83942709642E+03 -0.88425034236E+03  0.16744137798E+04  0.99204010084E+03 0.  0.
   -9000010    2    1    2    0  501  0.57704542803E+03 -0.83942709642E+03  0.63298484977E+03  0.15633793455E+04  0.10029286524E+04 0.  0.
        -13    1    3    3    0    0  0.18431188068E+03 -0.10221418353E+02 -0.38923072155E+03  0.43078522783E+03  0.10566000000E+00 0.  1.
         13    1    4    4    0    0 -0.20657855887E+02 -0.21277032490E+03  0.66325639271E+03  0.69685508666E+03  0.10566000000E+00 0. -1.
          4    1    3    3  502    0 -0.76135730872E+03  0.84964851477E+03 -0.49501962081E+03  0.12436285519E+04  0.00000000000E+00 0.  1.
         -4    1    4    4    0  501  0.59770328392E+03 -0.62665677152E+03 -0.30271542934E+02  0.86652425887E+03  0.00000000000E+00 0. -1.
</event>
<event>
 8    1  0.7096247E-006  0.1341260E+04  0.7818608E-02  0.8507162E-01
          2   -1    0    0  502    0  0.00000000000E+00  0.00000000000E+00  0.27725757772E+04  0.27725757772E+04  0.00000000000E+00 0. -1.
         -2   -1    0    0    0  501 -0.00000000000E+00 -0.00000000000E+00 -0.65724735338E+03  0.65724735338E+03  0.00000000000E+00 0.  1.
    9000010    2    1    2  502    0  0.84783162363E+03  0.18541116329E+03  0.87164691278E+03  0.16076860378E+04  0.10352247554E+04 0.  0.
   -9000010    2    1    2    0  501 -0.84783162363E+03 -0.18541116329E+03  0.12436815111E+04  0.18221370928E+04  0.10100713452E+04 0.  0.
        -13    1    3    3    0    0  0.78026806035E+03  0.55643976231E+03  0.73045268017E+03  0.12049915287E+04  0.10566000000E+00 0.  1.
         13    1    4    4    0    0 -0.74771663748E+03 -0.46863192921E+03  0.48675789290E+03  0.10077843581E+04  0.10566000000E+00 0. -1.
          4    1    3    3  502    0  0.67563563280E+02 -0.37102859901E+03  0.14119423261E+03  0.40269450914E+03  0.00000000000E+00 0.  1.
         -4    1    4    4    0  501 -0.10011498615E+03  0.28322076591E+03  0.75692361818E+03  0.81435273467E+03  0.00000000000E+00 0. -1.
</event>
<event>
 8    1  0.7096247E-006  0.1278517E+04  0.7818608E-02  0.8549672E-01
         -2   -1    0    0    0  501 -0.00000000000E+00  0.00000000000E+00  0.10934409989E+04  0.10934409989E+04  0.00000000000E+00 0.  1.
          2   -1    0    0  502    0  0.00000000000E+00 -0.00000000000E+00 -0.15248433571E+04  0.15248433571E+04  0.00000000000E+00 0. -1.
    9000010    2    1    2  502    0 -0.45434055214E+03 -0.63067457216E+03 -0.32003567860E+02  0.12770186940E+04  0.10127076395E+04 0.  0.
   -9000010    2    1    2    0  501  0.45434055214E+03  0.63067457216E+03 -0.39939879034E+03  0.13412656619E+04  0.10174961567E+04 0.  0.
        -13    1    3    3    0    0  0.13498758501E+03 -0.62852583756E+03  0.15018454909E+03  0.66016799872E+03  0.10566000000E+00 0.  1.
         13    1    4    4    0    0 -0.19464958324E+03  0.59952158683E+03 -0.21242128407E+03  0.66515968490E+03  0.10566000000E+00 0. -1.
          4    1    3    3  502    0 -0.58932813715E+03 -0.21487345995E+01 -0.18218811695E+03  0.61685069527E+03  0.00000000000E+00 0.  1.
         -4    1    4    4    0  501  0.64899013538E+03  0.31152985332E+02 -0.18697750627E+03  0.67610597702E+03  0.00000000000E+00 0. -1.
</event>
<event>
 8    1  0.7096247E-006  0.1094123E+04  0.7818608E-02  0.8690862E-01
          2   -1    0    0  502    0  0.00000000000E+00  0.00000000000E+00  0.18201219798E+04  0.18201219798E+04  0.00000000000E+00 0. -1.
         -2   -1    0    0    0  501 -0.00000000000E+00 -0.00000000000E+00 -0.71501960264E+03  0.71501960264E+03  0.00000000000E+00 0.  1.
    9000010    2    1    2  502    0 -0.40286793731E+03 -0.16919154359E+03  0.19400709155E+03  0.11118914477E+04  0.10038602924E+04 0.  0.
   -9000010    2    1    2    0  501  0.40286793731E+03  0.16919154359E+03  0.91109528558E+03  0.14232501347E+04  0.10023063270E+04 0.  0.
        -13    1    3    3    0    0 -0.53715976422E+03 -0.45121003509E+02 -0.27742180884E+03  0.60625026881E+03  0.10566000000E+00 0.  1.
         13    1    4    4    0    0  0.74204430011E+02  0.10519539621E+03 -0.21380740922E+03  0.24957160940E+03  0.10566000000E+00 0. -1.
          4    1    3    3  502    0  0.13429182691E+03 -0.12407054008E+03  0.47142890039E+03  0.50564117892E+03  0.00000000000E+00 0.  1.
         -4    1    4    4    0  501  0.32866350730E+03  0.63996147381E+02  0.11249026948E+04  0.11736785253E+04  0.00000000000E+00 0. -1.
</event>
<event>
 8    1  0.7096247E-006  0.1566668E+04  0.7818608E-02  0.8372132E-01
          2   -1    0    0  502    0  0.00000000000E+00  0.00000000000E+00  0.23434632591E+04  0.23434632591E+04  0.00000000000E+00 0. -1.
         -2   -1    0    0    0  501 -0.00000000000E+00 -0.00000000000E+00 -0.13710751718E+04  0.13710751718E+04  0.00000000000E+00 0.  1.
    9000010    2    1    2  502    0  0.11905236408E+04  0.14122450007E+03  0.13875542202E+04  0.20893845272E+04  0.10014639731E+04 0.  0.
   -9000010    2    1    2    0  501 -0.11905236408E+04 -0.14122450007E+03 -0.41516613302E+03  0.16251539037E+04  0.10156138016E+04 0.  0.
        -13    1    3    3    0    0  0.10584472243E+04 -0.29671124866E+03  0.89832246067E+03  0.14196236636E+04  0.10566000000E+00 0.  1.
         13    1    4    4    0    0 -0.41528291913E+03 -0.23087929288E+03 -0.65457726255E+03  0.80884890716E+03  0.10566000000E+00 0. -1.
          4    1    3    3  502    0  0.13207641654E+03  0.43793574873E+03  0.48923175958E+03  0.66976086359E+03  0.00000000000E+00 0.  1.
         -4    1    4    4    0  501 -0.77524072170E+03  0.89654792811E+02  0.23941112953E+03  0.81630499655E+03  0.00000000000E+00 0. -1.
</event>
<event>
 8    1  0.7096247E-006  0.1394494E+04  0.7818608E-02  0.8472931E-01
         -4   -1    0    0    0  501 -0.00000000000E+00  0.00000000000E+00  0.13656223802E+04  0.13656223802E+04  0.00000000000E+00 0. -1.
          4   -1    0    0  502    0  0.00000000000E+00 -0.00000000000E+00 -0.14289325301E+04  0.14289325301E+04  0.00000000000E+00 0.  1.
    9000010    2    1    2  502    0  0.88789338817E+03  0.42704889098E+03  0.50378822646E+02  0.14003524020E+04  0.99384274406E+03 0.  0.
   -9000010    2    1    2    0  501 -0.88789338817E+03 -0.42704889098E+03 -0.11368897253E+03  0.13942025083E+04  0.97987245477E+03 0.  0.
        -13    1    3    3    0    0  0.17686629826E+02  0.36824887407E+03  0.31921849386E+03  0.48766844076E+03  0.10566000000E+00 0.  1.
         13    1    4    4    0    0 -0.98328112700E+03 -0.18455735138E+03 -0.33216729285E+03  0.10541528885E+04  0.10566000000E+00 0. -1.
          4    1    3    3  502    0  0.87020675834E+03  0.58800016911E+02 -0.26883967121E+03  0.91268396122E+03  0.00000000000E+00 0.  1.
         -4    1    4    4    0  501  0.95387738829E+02 -0.24249153960E+03  0.21847832032E+03  0.34004961983E+03  0.00000000000E+00 0. -1.
</event>
<event>
 8    1  0.7096247E-006  0.1353046E+04  0.7818608E-02  0.8499444E-01
         -4   -1    0    0    0  501 -0.00000000000E+00  0.00000000000E+00  0.19041748947E+04  0.19041748947E+04  0.00000000000E+00 0. -1.
          4   -1    0    0  502    0  0.00000000000E+00 -0.00000000000E+00 -0.14757283191E+04  0.14757283191E+04  0.00000000000E+00 0.  1.
    9000010    2    1    2  502    0 -0.83576066982E+03  0.35644263973E+03 -0.78322364539E+03  0.15650620411E+04  0.10052027961E+04 0.  0.
   -9000010    2    1    2    0  501  0.83576066982E+03 -0.35644263973E+03  0.12116702210E+04  0.18148411728E+04  0.99997825239E+03 0.  0.
        -13    1    3    3    0    0 -0.98415143110E+03  0.16794210713E+02 -0.56364063178E+03  0.11342516730E+04  0.10566000000E+00 0.  1.
         13    1    4    4    0    0  0.36955536629E+03 -0.24180629253E+03  0.12572776633E+04  0.13325871775E+04  0.10566000000E+00 0. -1.
          4    1    3    3  502    0  0.14839076129E+03  0.33964842902E+03 -0.21958301361E+03  0.43081036807E+03  0.00000000000E+00 0.  1.
         -4    1    4    4    0  501  0.46620530352E+03 -0.11463634720E+03 -0.45607442314E+02  0.48225399524E+03  0.00000000000E+00 0. -1.
</event>
<event>
 8    1  0.7096247E-006  0.1116565E+04  0.7818608E-02  0.8672187E-01
         -2   -1    0    0    0  501 -0.00000000000E+00  0.00000000000E+00  0.65081765252E+03  0.65081765252E+03  0.00000000000E+00 0. -1.
          2   -1    0    0  502    0  0.00000000000E+00 -0.00000000000E+00 -0.19556581043E+04  0.19556581043E+04  0.00000000000E+00 0.  1.
    9000010    2    1    2  502    0 -0.51825807501E+03 -0.23017950073E+03 -0.47796980546E+03  0.12319790062E+04  0.98373934654E+03 0.  0.
   -9000010    2    1    2    0  501  0.51825807501E+03  0.23017950073E+03 -0.82687064635E+03  0.13744967506E+04  0.94018733074E+03 0.  0.
        -13    1    3    3    0    0 -0.34932023281E+03 -0.60685683512E+03 -0.18038513199E+03  0.72307582617E+03  0.10566000000E+00 0.  1.
         13    1    4    4    0    0  0.28679938297E+01  0.12223175421E+03  0.19198471734E+03  0.22761144519E+03  0.10566000000E+00 0. -1.
          4    1    3    3  502    0 -0.16893784220E+03  0.37667733439E+03 -0.29758467347E+03  0.50890318004E+03  0.00000000000E+00 0.  1.
         -4    1    4    4    0  501  0.51539008118E+03  0.10794774652E+03 -0.10188553637E+04  0.11468853055E+04  0.00000000000E+00 0. -1.
</event>
<event>
 8    1  0.7096247E-006  0.1379501E+04  0.7818608E-02  0.8482411E-01
          2   -1    0    0  502    0  0.00000000000E+00  0.00000000000E+00  0.22543388385E+04  0.22543388385E+04  0.00000000000E+00 0.  1.
         -2   -1    0    0    0  501 -0.00000000000E+00 -0.00000000000E+00 -0.88476038149E+03  0.88476038149E+03  0.00000000000E+00 0. -1.
    9000010    2    1    2  502    0  0.39279449455E+03  0.86622780999E+03  0.34924396987E+03  0.14244019515E+04  0.10011550505E+04 0.  0.
   -9000010    2    1    2    0  501 -0.39279449455E+03 -0.86622780999E+03  0.10203344872E+04  0.17146972686E+04  0.99722922308E+03 0.  0.
        -13    1    3    3    0    0  0.13902299689E+03 -0.17614728227E+03 -0.11882348997E+03  0.25391788366E+03  0.10566000000E+00 0.  1.
         13    1    4    4    0    0 -0.38870756203E+03 -0.12282360888E+03 -0.50857716963E+02  0.41081105902E+03  0.10566000000E+00 0. -1.
          4    1    3    3  502    0  0.25377149767E+03  0.10423750923E+04  0.46806745984E+03  0.11704840678E+04  0.00000000000E+00 0.  1.
         -4    1    4    4    0  501 -0.40869325210E+01 -0.74340420111E+03  0.10711922041E+04  0.13038862095E+04  0.00000000000E+00 0. -1.
</event>
<event>
 8    1  0.7096247E-006  0.1566633E+04  0.7818608E-02  0.8372151E-01
          2   -1    0    0  502    0  0.00000000000E+00  0.00000000000E+00  0.27262139057E+04  0.27262139057E+04  0.00000000000E+00 0. -1.
         -2   -1    0    0    0  501 -0.00000000000E+00 -0.00000000000E+00 -0.93613170415E+03  0.93613170415E+03  0.00000000000E+00 0.  1.
    9000010    2    1    2  502    0 -0.11849059950E+04 -0.29908715297E+03  0.53258590886E+03  0.16475042966E+04  0.96807402359E+03 0.  0.
   -9000010    2    1    2    0  501  0.11849059950E+04  0.29908715297E+03  0.12574962927E+04  0.20148413132E+04  0.99238765077E+03 0.  0.
        -13    1    3    3    0    0 -0.87477718064E+03  0.53140661184E+02 -0.75209892684E+02  0.87961104174E+03  0.10566000000E+00 0.  1.
         13    1    4    4    0    0 -0.44676084299E+01 -0.24070956140E+03  0.72936128874E+02  0.25155663882E+03  0.10566000000E+00 0. -1.
          4    1    3    3  502    0 -0.31012881432E+03 -0.35222781415E+03  0.60779580154E+03  0.76789325489E+03  0.00000000000E+00 0.  1.
         -4    1    4    4    0  501  0.11893736034E+04  0.53979671437E+03  0.11845601639E+04  0.17632846744E+04  0.00000000000E+00 0. -1.
</event>
<event>
 8    1  0.7096247E-006  0.1122521E+04  0.7818608E-02  0.8667307E-01
         -2   -1    0    0    0  501 -0.00000000000E+00  0.00000000000E+00  0.99725956240E+03  0.99725956240E+03  0.00000000000E+00 0. -1.
          2   -1    0    0  502    0  0.00000000000E+00 -0.00000000000E+00 -0.13412065895E+04  0.13412065895E+04  0.00000000000E+00 0.  1.
    9000010    2    1    2  502    0 -0.41925021847E+03 -0.17438375183E+02 -0.44227171836E+03  0.11636774575E+04  0.99119428451E+03 0.  0.
   -9000010    2    1    2    0  501  0.41925021847E+03  0.17438375183E+02  0.98324691247E+02  0.11747886944E+04  0.10928796315E+04 0.  0.
        -13    1    3    3    0    0 -0.12488574753E+03  0.48105043748E+03 -0.18764485701E+03  0.53124060167E+03  0.10566000000E+00 0.  1.
         13    1    4    4    0    0  0.59421832911E+03  0.87833129000E+02  0.46688038303E+03  0.76078077291E+03  0.10566000000E+00 0. -1.
          4    1    3    3  502    0 -0.29436447094E+03 -0.49848881267E+03 -0.25462686135E+03  0.63243685584E+03  0.00000000000E+00 0.  1.
         -4    1    4    4    0  501 -0.17496811064E+03 -0.70394753817E+02 -0.36855569179E+03  0.41400792149E+03  0.00000000000E+00 0. -1.
</event>
<event>
 8    1  0.7096247E-006  0.1322390E+04  0.7818608E-02  0.8519691E-01
         -2   -1    0    0    0  501 -0.00000000000E+00  0.00000000000E+00  0.40619220264E+04  0.40619220264E+04  0.00000000000E+00 0.  1.
          2   -1    0    0  502    0  0.00000000000E+00 -0.00000000000E+00 -0.45438653998E+03  0.45438653998E+03  0.00000000000E+00 0. -1.
    9000010    2    1    2  502    0 -0.84278301317E+03 -0.15545249236E+03  0.12566261110E+04  0.18069770582E+04  0.97550408575E+03 0.  0.
   -9000010    2    1    2    0  501  0.84278301317E+03  0.15545249236E+03  0.23509093754E+04  0.27093315082E+04  0.10388713323E+04 0.  0.
        -13    1    3    3    0    0  0.96505366138E+02 -0.32823722839E+03  0.36772049726E+03  0.50226620339E+03  0.10566000000E+00 0.  1.
         13    1    4    4    0    0  0.15414078945E+03 -0.30366348423E+03  0.14350487635E+04  0.14749019830E+04  0.10566000000E+00 0. -1.
          4    1    3    3  502    0 -0.93928837930E+03  0.17278473603E+03  0.88890561377E+03  0.13047108548E+04  0.00000000000E+00 0.  1.
         -4    1    4    4    0  501  0.68864222372E+03  0.45911597659E+03  0.91586061195E+03  0.12344295252E+04  0.00000000000E+00 0. -1.
</event>
<event>
 8    1  0.7096247E-006  0.1957742E+04  0.7818608E-02  0.8185817E-01
         -2   -1    0    0    0  501 -0.00000000000E+00  0.00000000000E+00  0.88499468315E+03  0.88499468315E+03  0.00000000000E+00 0. -1.
          2   -1    0    0  502    0  0.00000000000E+00 -0.00000000000E+00 -0.43380829750E+04  0.43380829750E+04  0.00000000000E+00 0.  1.
    9000010    2    1    2  502    0 -0.15379097681E+04  0.68544758994E+03 -0.18302555716E+04  0.26775256769E+04  0.99212067786E+03 0.  0.
   -9000010    2    1    2    0  501  0.15379097681E+04 -0.68544758994E+03 -0.16228327202E+04  0.25455519813E+04  0.10056062838E+04 0.  0.
        -13    1    3    3    0    0 -0.30459786677E+03 -0.18605268767E+03 -0.79919841092E+02  0.36576311349E+03  0.10566000000E+00 0.  1.
         13    1    4    4    0    0  0.91452763878E+03 -0.28846873223E+03 -0.15230516563E+04  0.17997948134E+04  0.10566000000E+00 0. -1.
          4    1    3    3  502    0 -0.12333119014E+04  0.87150027761E+03 -0.17503357305E+04  0.23117625634E+04  0.00000000000E+00 0.  1.
         -4    1    4    4    0  501  0.62338212934E+03 -0.39697885771E+03 -0.99781063925E+02  0.74575716783E+03  0.00000000000E+00 0. -1.
</event>
<event>
 8    1  0.7096247E-006  0.1105123E+04  0.7818608E-02  0.8681650E-01
         -2   -1    0    0    0  501 -0.00000000000E+00  0.00000000000E+00  0.68314725991E+03  0.68314725991E+03  0.00000000000E+00 0.  1.
          2   -1    0    0  502    0  0.00000000000E+00 -0.00000000000E+00 -0.20077084590E+04  0.20077084590E+04  0.00000000000E+00 0. -1.
    9000010    2    1    2  502    0 -0.43328390710E+03 -0.23057241470E+03 -0.11040592459E+04  0.15575369899E+04  0.98289168978E+03 0.  0.
   -9000010    2    1    2    0  501  0.43328390710E+03  0.23057241470E+03 -0.22050195317E+03  0.11333187290E+04  0.99744255351E+03 0.  0.
        -13    1    3    3    0    0  0.39479330308E+02  0.62250230783E+02  0.16021749067E+03  0.17636145904E+03  0.10566000000E+00 0.  1.
         13    1    4    4    0    0 -0.45637779355E+02  0.16397215468E+03  0.34776119398E+03  0.38717894263E+03  0.10566000000E+00 0. -1.
          4    1    3    3  502    0 -0.47276323741E+03 -0.29282264548E+03 -0.12642767366E+04  0.13811755308E+04  0.00000000000E+00 0.  1.
         -4    1    4    4    0  501  0.47892168646E+03  0.66600260021E+02 -0.56826314714E+03  0.74613978636E+03  0.00000000000E+00 0. -1.
</event>
<event>
 8    1  0.7096247E-006  0.1146123E+04  0.7818608E-02  0.8648276E-01
         -1   -1    0    0    0  501 -0.00000000000E+00  0.00000000000E+00  0.66142468237E+03  0.66142468237E+03  0.00000000000E+00 0. -1.
          1   -1    0    0  502    0  0.00000000000E+00 -0.00000000000E+00 -0.22274355413E+04  0.22274355413E+04  0.00000000000E+00 0.  1.
    9000010    2    1    2  502    0  0.48586039023E+03 -0.27993148835E+03 -0.30498251868E+03  0.11820221453E+04  0.99485680287E+03 0.  0.
   -9000010    2    1    2    0  501 -0.48586039023E+03  0.27993148835E+03 -0.12610283402E+04  0.17068380784E+04  0.10043315160E+04 0.  0.
        -13    1    3    3    0    0  0.71789970741E+02 -0.59948122795E+03 -0.67265464983E+02  0.60749995597E+03  0.10566000000E+00 0.  1.
         13    1    4    4    0    0 -0.58316578467E+03 -0.18816065078E+03 -0.96934875168E+03  0.11467884619E+04  0.10566000000E+00 0. -1.
          4    1    3    3  502    0  0.41407041949E+03  0.31954973959E+03 -0.23771705370E+03  0.57452218930E+03  0.00000000000E+00 0.  1.
         -4    1    4    4    0  501  0.97305394434E+02  0.46809213913E+03 -0.29167958856E+03  0.56004961645E+03  0.00000000000E+00 0. -1.
</event>
<event>
 8    1  0.7096247E-006  0.1693648E+04  0.7818608E-02  0.8306011E-01
         -2   -1    0    0    0  501 -0.00000000000E+00  0.00000000000E+00  0.13221068567E+04  0.13221068567E+04  0.00000000000E+00 0. -1.
          2   -1    0    0  502    0  0.00000000000E+00 -0.00000000000E+00 -0.23761817889E+04  0.23761817889E+04  0.00000000000E+00 0.  1.
    9000010    2    1    2  502    0 -0.97015328551E+03  0.96827497354E+03 -0.10764133830E+04  0.20199515185E+04  0.10211682252E+04 0.  0.
   -9000010    2    1    2    0  501  0.97015328551E+03 -0.96827497354E+03  0.22338450784E+02  0.16783371271E+04  0.96827820598E+03 0.  0.
        -13    1    3    3    0    0 -0.84699694505E+03  0.10207430630E+04 -0.12350599806E+04  0.18123723106E+04  0.10566000000E+00 0.  1.
         13    1    4    4    0    0  0.10725594376E+04 -0.73734547482E+03 -0.22949165559E+03  0.13216385768E+04  0.10566000000E+00 0. -1.
          4    1    3    3  502    0 -0.12315634046E+03 -0.52468089470E+02  0.15864659756E+03  0.20757920783E+03  0.00000000000E+00 0.  1.
         -4    1    4    4    0  501 -0.10240615209E+03 -0.23092949872E+03  0.25183010638E+03  0.35669855038E+03  0.00000000000E+00 0. -1.
</event>
<event>
 8    1  0.7096247E-006  0.1285093E+04  0.7818608E-02  0.8545100E-01
          1   -1    0    0  502    0  0.00000000000E+00  0.00000000000E+00  0.20629048300E+04  0.20629048300E+04  0.00000000000E+00 0. -1.
         -1   -1    0    0    0  501 -0.00000000000E+00 -0.00000000000E+00 -0.82190736130E+03  0.82190736130E+03  0.00000000000E+00 0.  1.
    9000010    2    1    2  502    0 -0.81271888102E+03  0.35313707951E+02  0.38779733127E+03  0.13419231176E+04  0.99428961877E+03 0.  0.
   -9000010    2    1    2    0  501  0.81271888102E+03 -0.35313707951E+02  0.85320013741E+03  0.15428890736E+04  0.99538795530E+03 0.  0.
        -13    1    3    3    0    0 -0.58152974293E+03  0.11231706521E+03  0.71849618157E+03  0.93114378006E+03  0.10566000000E+00 0.  1.
         13    1    4    4    0    0  0.62992205310E+03  0.44463759987E+03  0.48380584028E+03  0.91025957312E+03  0.10566000000E+00 0. -1.
          4    1    3    3  502    0 -0.23118913808E+03 -0.77003357257E+02 -0.33069885030E+03  0.41077933758E+03  0.00000000000E+00 0.  1.
         -4    1    4    4    0  501  0.18279682792E+03 -0.47995130782E+03  0.36939429713E+03  0.63262950052E+03  0.00000000000E+00 0. -1.
</event>
<event>
 8    1  0.7096247E-006  0.1095108E+04  0.7818608E-02  0.8690032E-01
          2   -1    0    0  502    0  0.00000000000E+00  0.00000000000E+00  0.11995617696E+04  0.11995617696E+04  0.00000000000E+00 0.  1.
         -2   -1    0    0    0  501 -0.00000000000E+00 -0.00000000000E+00 -0.10019712707E+04  0.10019712707E+04  0.00000000000E+00 0. -1.
    9000010    2    1    2  502    0 -0.91074520327E+02  0.42697161122E+03  0.15048346559E+03  0.11041073904E+04  0.10029000603E+04 0.  0.
   -9000010    2    1    2    0  501  0.91074520327E+02 -0.42697161122E+03  0.47107033309E+02  0.10974256500E+04  0.10057458226E+04 0.  0.
        -13    1    3    3    0    0  0.43660574073E+03  0.42847209732E+02  0.96517366983E+02  0.44919491261E+03  0.10566000000E+00 0.  1.
         13    1    4    4    0    0  0.11116919617E+03 -0.27908462323E+03 -0.47077983406E+03  0.55846260431E+03  0.10566000000E+00 0. -1.
          4    1    3    3  502    0 -0.52768026106E+03  0.38412440149E+03  0.53966098609E+02  0.65491247776E+03  0.00000000000E+00 0.  1.
         -4    1    4    4    0  501 -0.20094675842E+02 -0.14788698799E+03  0.51788686736E+03  0.53896304567E+03  0.00000000000E+00 0. -1.
</event>
<event>
 8    1  0.7096247E-006  0.1060353E+04  0.7818608E-02  0.8719862E-01
         -2   -1    0    0    0  501 -0.00000000000E+00  0.00000000000E+00  0.29648410149E+03  0.29648410149E+03  0.00000000000E+00 0.  1.
          2   -1    0    0  502    0  0.00000000000E+00 -0.00000000000E+00 -0.39827155584E+04  0.39827155584E+04  0.00000000000E+00 0. -1.
    9000010    2    1    2  502    0  0.64192371945E+02  0.44427091402E+03 -0.23605195413E+04  0.26015364489E+04  0.99721717013E+03 0.  0.
   -9000010    2    1    2    0  501 -0.64192371945E+02 -0.44427091402E+03 -0.13257119156E+04  0.16776632110E+04  0.92495646420E+03 0.  0.
        -13    1    3    3    0    0  0.35848529176E+02  0.71084813372E+03 -0.10812878770E+04  0.12945167710E+04  0.10566000000E+00 0.  1.
         13    1    4    4    0    0  0.49542331564E+02 -0.52889710657E+03 -0.14141116016E+04  0.15105953214E+04  0.10566000000E+00 0. -1.
          4    1    3    3  502    0  0.28343842769E+02 -0.26657721971E+03 -0.12792316643E+04  0.13070196779E+04  0.00000000000E+00 0.  1.
         -4    1    4    4    0  501 -0.11373470351E+03  0.84626192552E+02  0.88399686028E+02  0.16706788961E+03  0.00000000000E+00 0. -1.
</event>
<event>
 8    1  0.7096247E-006  0.1141395E+04  0.7818608E-02  0.8652050E-01
         -2   -1    0    0    0  501 -0.00000000000E+00  0.00000000000E+00  0.78536288281E+03  0.78536288281E+03  0.00000000000E+00 0.  1.
          2   -1    0    0  502    0  0.00000000000E+00 -0.00000000000E+00 -0.20468503070E+04  0.20468503070E+04  0.00000000000E+00 0. -1.
    9000010    2    1    2  502    0  0.17725636150E+03  0.51672159754E+03 -0.12468626137E+04  0.16897253187E+04  0.10010415816E+04 0.  0.
   -9000010    2    1    2    0  501 -0.17725636150E+03 -0.51672159754E+03 -0.14624810493E+02  0.11424878711E+04  0.10033163128E+04 0.  0.
        -13    1    3    3    0    0  0.55016510101E+03  0.42066507038E+03 -0.51611107606E+03  0.86371951107E+03  0.10566000000E+00 0.  1.
         13    1    4    4    0    0 -0.13349810547E+03 -0.60577397875E+03  0.38543705432E+03  0.73030513588E+03  0.10566000000E+00 0. -1.
          4    1    3    3  502    0 -0.37290873952E+03  0.96056527157E+02 -0.73075153766E+03  0.82600580761E+03  0.00000000000E+00 0.  1.
         -4    1    4    4    0  501 -0.43758256031E+02  0.89052381210E+02 -0.40006186481E+03  0.41218273526E+03  0.00000000000E+00 0. -1.
</event>
<event>
 8    1  0.7096247E-006  0.1074536E+04  0.7818608E-02  0.8707547E-01
          4   -1    0    0  502    0  0.00000000000E+00  0.00000000000E+00  0.44174715519E+03  0.44174715519E+03  0.00000000000E+00 0.  1.
         -4   -1    0    0    0  501 -0.00000000000E+00 -0.00000000000E+00 -0.26479511439E+04  0.26479511439E+04  0.00000000000E+00 0. -1.
    9000010    2    1    2  502    0 -0.28678377334E+03  0.43032851831E+03 -0.10034518302E+04  0.15125147381E+04  0.10066566897E+04 0.  0.
   -9000010    2    1    2    0  501  0.28678377334E+03 -0.43032851831E+03 -0.12027521585E+04  0.15771835611E+04  0.87947010414E+03 0.  0.
        -13    1    3    3    0    0 -0.58610712822E+03  0.44650215668E+03 -0.39921436047E+03  0.83800826872E+03  0.10566000000E+00 0.  1.
         13    1    4    4    0    0 -0.31336739680E+03 -0.10767431861E+03 -0.48625592422E+03  0.58841967954E+03  0.10566000000E+00 0. -1.
          4    1    3    3  502    0  0.29932335488E+03 -0.16173638372E+02 -0.60423746972E+03  0.67450646933E+03  0.00000000000E+00 0.  1.
         -4    1    4    4    0  501  0.60015117014E+03 -0.32265419970E+03 -0.71649623432E+03  0.98876388152E+03  0.00000000000E+00 0. -1.
</event>
<event>
 8    1  0.7096247E-006  0.1072767E+04  0.7818608E-02  0.8709072E-01
          2   -1    0    0  502    0  0.00000000000E+00  0.00000000000E+00  0.18462341867E+04  0.18462341867E+04  0.00000000000E+00 0. -1.
         -2   -1    0    0    0  501 -0.00000000000E+00 -0.00000000000E+00 -0.65857649666E+03  0.65857649666E+03  0.00000000000E+00 0.  1.
    9000010    2    1    2  502    0 -0.16612769171E+02 -0.64468603592E+03  0.40643999186E+03  0.12695669197E+04  0.10152391972E+04 0.  0.
   -9000010    2    1    2    0  501  0.16612769171E+02  0.64468603592E+03  0.78121769818E+03  0.12352437637E+04  0.70684509957E+03 0.  0.
        -13    1    3    3    0    0  0.35308374664E+03  0.53995666922E+02 -0.43810404545E+02  0.35986528993E+03  0.10566000000E+00 0.  1.
         13    1    4    4    0    0 -0.29227579379E+03  0.73650770824E+02  0.18418078964E+03  0.35323101522E+03  0.10566000000E+00 0. -1.
          4    1    3    3  502    0 -0.36969651581E+03 -0.69868170284E+03  0.45025039641E+03  0.90970162974E+03  0.00000000000E+00 0.  1.
         -4    1    4    4    0  501  0.30888856296E+03  0.57103526509E+03  0.59703690854E+03  0.88201274847E+03  0.00000000000E+00 0. -1.
</event>
<event>
 8    1  0.7096247E-006  0.1430593E+04  0.7818608E-02  0.8450598E-01
         -2   -1    0    0    0  501 -0.00000000000E+00  0.00000000000E+00  0.16188767513E+04  0.16188767513E+04  0.00000000000E+00 0.  1.
          2   -1    0    0  502    0  0.00000000000E+00 -0.00000000000E+00 -0.12956891025E+04  0.12956891025E+04  0.00000000000E+00 0. -1.
    9000010    2    1    2  502    0  0.37538204531E+03  0.95939212787E+03 -0.65151810411E+02  0.14355466809E+04  0.99759940843E+03 0.  0.
   -9000010    2    1    2    0  501 -0.37538204531E+03 -0.95939212787E+03  0.38833945927E+03  0.14790191729E+04  0.98759568808E+03 0.  0.
        -13    1    3    3    0    0  0.23498179469E+03  0.59862067343E+03 -0.52804879318E+03  0.83210497753E+03  0.10566000000E+00 0.  1.
         13    1    4    4    0    0 -0.41361887086E+03 -0.23970960729E+03  0.56186878981E+03  0.73772475510E+03  0.10566000000E+00 0. -1.
          4    1    3    3  502    0  0.14040025062E+03  0.36077145444E+03  0.46289698277E+03  0.60344170338E+03  0.00000000000E+00 0.  1.
         -4    1    4    4    0  501  0.38236825553E+02 -0.71968252058E+03 -0.17352933054E+03  0.74129441777E+03  0.00000000000E+00 0. -1.
</event>
<event>
 8    1  0.7096247E-006  0.1075068E+04  0.7818608E-02  0.8707089E-01
          2   -1    0    0  502    0  0.00000000000E+00  0.00000000000E+00  0.39153569336E+04  0.39153569336E+04  0.00000000000E+00 0.  1.
         -2   -1    0    0    0  501 -0.00000000000E+00 -0.00000000000E+00 -0.30858670547E+03  0.30858670547E+03  0.00000000000E+00 0. -1.
    9000010    2    1    2  502    0  0.24036726470E+03  0.19693899886E+03  0.22145620088E+04  0.24543192304E+04  0.10113538465E+04 0.  0.
   -9000010    2    1    2    0  501 -0.24036726470E+03 -0.19693899886E+03  0.13922082194E+04  0.17696244087E+04  0.10472656924E+04 0.  0.
        -13    1    3    3    0    0  0.63894667971E+03  0.10369269118E+03  0.12952044939E+04  0.14479501808E+04  0.10566000000E+00 0.  1.
         13    1    4    4    0    0 -0.54211497171E+03 -0.32124609927E+03  0.45507020666E+03  0.77728797945E+03  0.10566000000E+00 0. -1.
          4    1    3    3  502    0 -0.39857941501E+03  0.93246307689E+02  0.91935751482E+03  0.10063690496E+04  0.00000000000E+00 0.  1.
         -4    1    4    4    0  501  0.30174770701E+03  0.12430710041E+03  0.93713801276E+03  0.99233642927E+03  0.00000000000E+00 0. -1.
</event>
<event>
 8    1  0.7096247E-006  0.2085343E+04  0.7818608E-02  0.8134502E-01
         -1   -1    0    0    0  501 -0.00000000000E+00  0.00000000000E+00  0.32822226850E+04  0.32822226850E+04  0.00000000000E+00 0.  1.
          1   -1    0    0  502    0  0.00000000000E+00 -0.00000000000E+00 -0.14696622357E+04  0.14696622357E+04  0.00000000000E+00 0. -1.
    9000010    2    1    2  502    0 -0.13366448220E+04 -0.12494142467E+04  0.16138567304E+03  0.20935008954E+04  0.10045124806E+04 0.  0.
   -9000010    2    1    2    0  501  0.13366448220E+04  0.12494142467E+04  0.16511747763E+04  0.26583840252E+04  0.99647987627E+03 0.  0.
        -13    1    3    3    0    0 -0.74022335807E+03 -0.36731252899E+03 -0.36772896378E+03  0.90447427590E+03  0.10566000000E+00 0.  1.
         13    1    4    4    0    0 -0.10906507892E+03  0.28069621839E+03  0.45887822750E+03  0.54886683020E+03  0.10566000000E+00 0. -1.
          4    1    3    3  502    0 -0.59642146390E+03 -0.88210171774E+03  0.52911463682E+03  0.11890266195E+04  0.00000000000E+00 0.  1.
         -4    1    4    4    0  501  0.14457099009E+04  0.96871802835E+03  0.11922965488E+04  0.21095171950E+04  0.00000000000E+00 0. -1.
</event>
<event>
 8    1  0.7096247E-006  0.1225509E+04  0.7818608E-02  0.8587597E-01
          2   -1    0    0  502    0  0.00000000000E+00  0.00000000000E+00  0.12608080235E+04  0.12608080235E+04  0.00000000000E+00 0.  1.
         -2   -1    0    0    0  501 -0.00000000000E+00 -0.00000000000E+00 -0.11921344612E+04  0.11921344612E+04  0.00000000000E+00 0. -1.
    9000010    2    1    2  502    0 -0.60920122386E+03  0.41081060419E+03  0.65733249847E+02  0.12422394430E+04  0.99947310619E+03 0.  0.
   -9000010    2    1    2    0  501  0.60920122386E+03 -0.41081060419E+03  0.29403124762E+01  0.12107030417E+04  0.96223787390E+03 0.  0.
        -13    1    3    3    0    0 -0.13731359663E+03 -0.32512364105E+03  0.10163263534E+03  0.36727320828E+03  0.10566000000E+00 0.  1.
         13    1    4    4    0    0  0.11442309400E+03 -0.53215891284E+03  0.29945155878E+03  0.62125437638E+03  0.10566000000E+00 0. -1.
          4    1    3    3  502    0 -0.47188762723E+03  0.73593424524E+03 -0.35899385491E+02  0.87496623474E+03  0.00000000000E+00 0.  1.
         -4    1    4    4    0  501  0.49477812986E+03  0.12134830865E+03 -0.29651124631E+03  0.58944866527E+03  0.00000000000E+00 0. -1.
</event>
<event>
 8    1  0.7096247E-006  0.1101836E+04  0.7818608E-02  0.8684392E-01
         -1   -1    0    0    0  501 -0.00000000000E+00  0.00000000000E+00  0.11080117408E+04  0.11080117408E+04  0.00000000000E+00 0. -1.
          1   -1    0    0  502    0  0.00000000000E+00 -0.00000000000E+00 -0.11303725441E+04  0.11303725441E+04  0.00000000000E+00 0.  1.
    9000010    2    1    2  502    0  0.31680388763E+03  0.32355942396E+03 -0.20720751641E+03  0.11208478578E+04  0.10041461852E+04 0.  0.
   -9000010    2    1    2    0  501 -0.31680388763E+03 -0.32355942396E+03  0.18484671310E+03  0.11175364272E+04  0.10048203594E+04 0.  0.
        -13    1    3    3    0    0  0.39869235624E+03 -0.40187264678E+01 -0.52359629851E+03  0.65812220755E+03  0.10566000000E+00 0.  1.
         13    1    4    4    0    0 -0.55468722468E+03 -0.53386649419E+03  0.21296096041E+03  0.79877639716E+03  0.10566000000E+00 0. -1.
          4    1    3    3  502    0 -0.81888468613E+02  0.32757815043E+03  0.31638878210E+03  0.46272565021E+03  0.00000000000E+00 0.  1.
         -4    1    4    4    0  501  0.23788333705E+03  0.21030707023E+03 -0.28114247307E+02  0.31876003002E+03  0.00000000000E+00 0. -1.
</event>
<event>
 8    1  0.7096247E-006  0.1399085E+04  0.7818608E-02  0.8470052E-01
         -1   -1    0    0    0  501 -0.00000000000E+00  0.00000000000E+00  0.63017244846E+03  0.63017244846E+03  0.00000000000E+00 0.  1.
          1   -1    0    0  502    0  0.00000000000E+00 -0.00000000000E+00 -0.31174219309E+04  0.31174219309E+04  0.00000000000E+00 0. -1.
    9000010    2    1    2  502    0 -0.35575039984E+03 -0.88969505932E+03 -0.11268613732E+04  0.17399764967E+04  0.91628926064E+03 0.  0.
   -9000010    2    1    2    0  501  0.35575039984E+03  0.88969505932E+03 -0.13603881093E+04  0.20076178826E+04  0.11232800672E+04 0.  0.
        -13    1    3    3    0    0 -0.54238481491E+03 -0.34879775844E+03 -0.24724640818E+03  0.69063156694E+03  0.10566000000E+00 0.  1.
         13    1    4    4    0    0 -0.16309777317E+03 -0.16092242454E+03 -0.51215556556E+03  0.56107062374E+03  0.10566000000E+00 0. -1.
          4    1    3    3  502    0  0.18663441507E+03 -0.54089730088E+03 -0.87961496497E+03  0.10493449298E+04  0.00000000000E+00 0.  1.
         -4    1    4    4    0  501  0.51884817301E+03  0.10506174839E+04 -0.84823254371E+03  0.14465472589E+04  0.00000000000E+00 0. -1.
</event>
<event>
 8    1  0.7096247E-006  0.1593942E+04  0.7818608E-02  0.8357396E-01
          1   -1    0    0  502    0  0.00000000000E+00  0.00000000000E+00  0.12038184507E+04  0.12038184507E+04  0.00000000000E+00 0.  1.
         -1   -1    0    0    0  501 -0.00000000000E+00 -0.00000000000E+00 -0.24080550889E+04  0.24080550889E+04  0.00000000000E+00 0. -1.
    9000010    2    1    2  502    0  0.11280544729E+04 -0.47266035219E+03  0.28553439976E+02  0.16063580847E+04  0.10409881340E+04 0.  0.
   -9000010    2    1    2    0  501 -0.11280544729E+04  0.47266035219E+03 -0.12327900782E+04  0.20055154549E+04  0.10031979669E+04 0.  0.
        -13    1    3    3    0    0  0.89547235405E+03 -0.27444679896E+03  0.48681888125E+03  0.10555493435E+04  0.10566000000E+00 0.  1.
         13    1    4    4    0    0 -0.31328985898E+03 -0.18989680589E+03 -0.78030854453E+03  0.86202828751E+03  0.10566000000E+00 0. -1.
          4    1    3    3  502    0  0.23258211881E+03 -0.19821355323E+03 -0.45826544127E+03  0.55080874116E+03  0.00000000000E+00 0.  1.
         -4    1    4    4    0  501 -0.81476461388E+03  0.66255715808E+03 -0.45248153363E+03  0.11434871674E+04  0.00000000000E+00 0. -1.
</event>
<event>
 8    1  0.7096247E-006  0.1168986E+04  0.7818608E-02  0.8630290E-01
          1   -1    0    0  502    0  0.00000000000E+00  0.00000000000E+00  0.96086817164E+03  0.96086817164E+03  0.00000000000E+00 0. -1.
         -1   -1    0    0    0  501 -0.00000000000E+00 -0.00000000000E+00 -0.14244393994E+04  0.14244393994E+04  0.00000000000E+00 0.  1.
    9000010    2    1    2  502    0  0.48216364198E+03  0.31894107418E+03 -0.27618125998E+03  0.11914689176E+04  0.10045481107E+04 0.  0.
   -9000010    2    1    2    0  501 -0.48216364198E+03 -0.31894107418E+03 -0.18738996778E+03  0.11938386534E+04  0.10275848111E+04 0.  0.
        -13    1    3    3    0    0  0.25396447540E+02 -0.32896629720E+03 -0.22038374706E+03  0.39677803792E+03  0.10566000000E+00 0.  1.
         13    1    4    4    0    0  0.12599844508E+03 -0.35652165537E+03  0.24153311961E+03  0.44868870940E+03  0.10566000000E+00 0. -1.
          4    1    3    3  502    0  0.45676719444E+03  0.64790737138E+03 -0.55797512926E+02  0.79469087968E+03  0.00000000000E+00 0.  1.
         -4    1    4    4    0  501 -0.60816208706E+03  0.37580581197E+02 -0.42892308739E+03  0.74514994405E+03  0.00000000000E+00 0. -1.
</event>
<event>
 8    1  0.7096247E-006  0.1484267E+04  0.7818608E-02  0.8418612E-01
         -1   -1    0    0    0  501 -0.00000000000E+00  0.00000000000E+00  0.28994571122E+04  0.28994571122E+04  0.00000000000E+00 0.  1.
          1   -1    0    0  502    0  0.00000000000E+00 -0.00000000000E+00 -0.78320834118E+03  0.78320834118E+03  0.00000000000E+00 0. -1.
    9000010    2    1    2  502    0 -0.19176091151E+03  0.10822077569E+04  0.73974194246E+03  0.16582045232E+04  0.99723528966E+03 0.  0.
   -9000010    2    1    2    0  501  0.19176091151E+03 -0.10822077569E+04  0.13765068286E+04  0.20244609303E+04  0.99786027713E+03 0.  0.
        -13    1    3    3    0    0 -0.46363782736E+03  0.13089861855E+03  0.34694513119E+03  0.59368798077E+03  0.10566000000E+00 0.  1.
         13    1    4    4    0    0 -0.10493297389E+03 -0.33170815146E+03  0.11274160388E+04  0.11798763336E+04  0.10566000000E+00 0. -1.
          4    1    3    3  502    0  0.27187691585E+03  0.95130913835E+03  0.39279681128E+03  0.10645165424E+04  0.00000000000E+00 0.  1.
         -4    1    4    4    0  501  0.29669388540E+03 -0.75049960543E+03  0.24909078976E+03  0.84458459667E+03  0.00000000000E+00 0. -1.
</event>
<event>
 8    1  0.7096247E-006  0.1087075E+04  0.7818608E-02  0.8696824E-01
          2   -1    0    0  502    0  0.00000000000E+00  0.00000000000E+00  0.19144775352E+04  0.19144775352E+04  0.00000000000E+00 0.  1.
         -2   -1    0    0    0  501 -0.00000000000E+00 -0.00000000000E+00 -0.62991093424E+03  0.62991093424E+03  0.00000000000E+00 0. -1.
    9000010    2    1    2  502    0 -0.33426921756E+03  0.36423391045E+03  0.80528271729E+03  0.13326504180E+04  0.93972050652E+03 0.  0.
   -9000010    2    1    2    0  501  0.33426921756E+03 -0.36423391045E+03  0.47928388365E+03  0.12117380515E+04  0.99709268020E+03 0.  0.
        -13    1    3    3    0    0  0.17524042459E+03 -0.22041099605E+03  0.16053655583E+03  0.32413301361E+03  0.10566000000E+00 0.  1.
         13    1    4    4    0    0 -0.62888584036E+02 -0.44501675729E+03  0.63466326948E+03  0.77768397505E+03  0.10566000000E+00 0. -1.
          4    1    3    3  502    0 -0.50950964215E+03  0.58464490650E+03  0.64474616147E+03  0.10085174043E+04  0.00000000000E+00 0.  1.
         -4    1    4    4    0  501  0.39715780160E+03  0.80782846837E+02 -0.15537938583E+03  0.43405407641E+03  0.00000000000E+00 0. -1.
</event>
<event>
 8    1  0.7096247E-006  0.1354963E+04  0.7818608E-02  0.8498197E-01
          1   -1    0    0  502    0  0.00000000000E+00  0.00000000000E+00  0.18600100305E+04  0.18600100305E+04  0.00000000000E+00 0. -1.
         -1   -1    0    0    0  501 -0.00000000000E+00 -0.00000000000E+00 -0.10032065379E+04  0.10032065379E+04  0.00000000000E+00 0.  1.
    9000010    2    1    2  502    0 -0.53944191916E+03  0.76073457049E+03  0.24180482237E+03  0.13571732394E+04  0.95589484718E+03 0.  0.
   -9000010    2    1    2    0  501  0.53944191916E+03 -0.76073457049E+03  0.61499867017E+03  0.15060433289E+04  0.10100635987E+04 0.  0.
        -13    1    3    3    0    0  0.18675064913E+03  0.17363916331E+01  0.24331656895E+03  0.30672754017E+03  0.10566000000E+00 0.  1.
         13    1    4    4    0    0 -0.19340007505E+03 -0.27001073692E+03  0.52265320142E+03  0.61925420241E+03  0.10566000000E+00 0. -1.
          4    1    3    3  502    0 -0.72619256829E+03  0.75899817886E+03 -0.15117465875E+01  0.10504456993E+04  0.00000000000E+00 0.  1.
         -4    1    4    4    0  501  0.73284199421E+03 -0.49072383357E+03  0.92345468745E+02  0.88678912652E+03  0.00000000000E+00 0. -1.
</event>
<event>
 8    1  0.7096247E-006  0.1411191E+04  0.7818608E-02  0.8462516E-01
         -2   -1    0    0    0  501 -0.00000000000E+00  0.00000000000E+00  0.55076091058E+03  0.55076091058E+03  0.00000000000E+00 0. -1.
          2   -1    0    0  502    0  0.00000000000E+00 -0.00000000000E+00 -0.36841232002E+04  0.36841232002E+04  0.00000000000E+00 0.  1.
    9000010    2    1    2  502    0 -0.10005652540E+04 -0.35764497905E+02 -0.12745283274E+04  0.18988860120E+04  0.98941179604E+03 0.  0.
   -9000010    2    1    2    0  501  0.10005652540E+04  0.35764497905E+02 -0.18588339622E+04  0.23359980988E+04  0.99960666855E+03 0.  0.
        -13    1    3    3    0    0 -0.40557581446E+03 -0.31653731375E+02  0.84340151098E+02  0.41545995262E+03  0.10566000000E+00 0.  1.
         13    1    4    4    0    0  0.18911831760E+03  0.52556748600E+02  0.96636740434E+02  0.21878441590E+03  0.10566000000E+00 0. -1.
          4    1    3    3  502    0 -0.59498943956E+03 -0.41107665298E+01 -0.13588684785E+04  0.14834260593E+04  0.00000000000E+00 0.  1.
         -4    1    4    4    0  501  0.81144693642E+03 -0.16792250695E+02 -0.19554707026E+04  0.21172136829E+04  0.00000000000E+00 0. -1.
</event>
<event>
 8    1  0.7096247E-006  0.1194991E+04  0.7818608E-02  0.8610344E-01
         -1   -1    0    0    0  501 -0.00000000000E+00  0.00000000000E+00  0.75617272601E+03  0.75617272601E+03  0.00000000000E+00 0.  1.
          1   -1    0    0  502    0  0.00000000000E+00 -0.00000000000E+00 -0.22944414004E+04  0.22944414004E+04  0.00000000000E+00 0. -1.
    9000010    2    1    2  502    0 -0.34398799021E+03  0.55273708608E+03 -0.14120677460E+04  0.18514759224E+04  0.10050779811E+04 0.  0.
   -9000010    2    1    2    0  501  0.34398799021E+03 -0.55273708608E+03 -0.12620092837E+03  0.11991382040E+04  0.99907944345E+03 0.  0.
        -13    1    3    3    0    0 -0.23065956944E+03 -0.81596298325E+02  0.53549883539E+02  0.25045836793E+03  0.10566000000E+00 0.  1.
         13    1    4    4    0    0 -0.65251235632E+02 -0.67178360769E+03  0.14980558251E+03  0.69137013461E+03  0.10566000000E+00 0. -1.
          4    1    3    3  502    0 -0.11332842077E+03  0.63433338441E+03 -0.14656176295E+04  0.16010175544E+04  0.00000000000E+00 0.  1.
         -4    1    4    4    0  501  0.40923922584E+03  0.11904652161E+03 -0.27600651088E+03  0.50776806942E+03  0.00000000000E+00 0. -1.
</event>
<event>
 8    1  0.7096247E-006  0.1270472E+04  0.7818608E-02  0.8555304E-01
          1   -1    0    0  502    0  0.00000000000E+00  0.00000000000E+00  0.22075598019E+04  0.22075598019E+04  0.00000000000E+00 0.  1.
         -1   -1    0    0    0  501 -0.00000000000E+00 -0.00000000000E+00 -0.79302760980E+03  0.79302760980E+03  0.00000000000E+00 0. -1.
    9000010    2    1    2  502    0 -0.55320247989E+03  0.43289393634E+03  0.11142198029E+04  0.16735504183E+04  0.10324025811E+04 0.  0.
   -9000010    2    1    2    0  501  0.55320247989E+03 -0.43289393634E+03  0.30031238929E+03  0.13270369935E+04  0.10850850229E+04 0.  0.
        -13    1    3    3    0    0  0.19404808035E+03  0.18823609440E+03 -0.43745222344E+02  0.27386336075E+03  0.10566000000E+00 0.  1.
         13    1    4    4    0    0  0.47096524143E+03  0.29759737393E+03  0.14569077489E+03  0.57584569866E+03  0.10566000000E+00 0. -1.
          4    1    3    3  502    0 -0.74725056024E+03  0.24465784194E+03  0.11579650252E+04  0.13996870575E+04  0.00000000000E+00 0.  1.
         -4    1    4    4    0  501  0.82237238454E+02 -0.73049131027E+03  0.15462161440E+03  0.75119129482E+03  0.00000000000E+00 0. -1.
</event>
<event>
 8    1  0.7096247E-006  0.1305868E+04  0.7818608E-02  0.8530838E-01
          2   -1    0    0  502    0  0.00000000000E+00  0.00000000000E+00  0.20330043314E+04  0.20330043314E+04  0.00000000000E+00 0. -1.
         -2   -1    0    0    0  501 -0.00000000000E+00 -0.00000000000E+00 -0.86730221397E+03  0.86730221397E+03  0.00000000000E+00 0.  1.
    9000010    2    1    2  502    0 -0.33269331794E+03  0.74926847681E+03  0.32114171564E+03  0.13473486926E+04  0.10198668559E+04 0.  0.
   -9000010    2    1    2    0  501  0.33269331794E+03 -0.74926847681E+03  0.84456040184E+03  0.15529578528E+04  0.10130684706E+04 0.  0.
        -13    1    3    3    0    0 -0.12625135958E+03  0.98602473703E+03  0.25675065667E+03  0.10266962056E+04  0.10566000000E+00 0.  1.
         13    1    4    4    0    0  0.46628388422E+03 -0.81761992536E+03  0.29967929474E+03  0.98779081485E+03  0.10566000000E+00 0. -1.
          4    1    3    3  502    0 -0.20644195836E+03 -0.23675626021E+03  0.64391058970E+02  0.32065248697E+03  0.00000000000E+00 0.  1.
         -4    1    4    4    0  501 -0.13359056628E+03  0.68351448547E+02  0.54488110709E+03  0.56516703795E+03  0.00000000000E+00 0. -1.
</event>
<event>
 8    1  0.7096247E-006  0.1260200E+04  0.7818608E-02  0.8562558E-01
         -2   -1    0    0    0  501 -0.00000000000E+00  0.00000000000E+00  0.76004980002E+03  0.76004980002E+03  0.00000000000E+00 0.  1.
          2   -1    0    0  502    0  0.00000000000E+00 -0.00000000000E+00 -0.21972398912E+04  0.21972398912E+04  0.00000000000E+00 0. -1.
    9000010    2    1    2  502    0 -0.46757638008E+03 -0.55950461963E+03 -0.39366744597E+03  0.13246528505E+04  0.10334689283E+04 0.  0.
   -9000010    2    1    2    0  501  0.46757638008E+03  0.55950461963E+03 -0.10435226452E+04  0.16326368407E+04  0.10221988319E+04 0.  0.
        -13    1    3    3    0    0  0.54664431420E+02 -0.65952702989E+03  0.21161041018E+01  0.66179195544E+03  0.10566000000E+00 0.  1.
         13    1    4    4    0    0 -0.18047539384E+03  0.29508594078E+03 -0.83265220455E+03  0.90164116207E+03  0.10566000000E+00 0. -1.
          4    1    3    3  502    0 -0.52224081150E+03  0.10002241026E+03 -0.39578355008E+03  0.66286089511E+03  0.00000000000E+00 0.  1.
         -4    1    4    4    0  501  0.64805177392E+03  0.26441867885E+03 -0.21087044066E+03  0.73099567861E+03  0.00000000000E+00 0. -1.
</event>
<event>
 8    1  0.7096247E-006  0.1255938E+04  0.7818608E-02  0.8565589E-01
         -1   -1    0    0    0  501 -0.00000000000E+00  0.00000000000E+00  0.27609535362E+04  0.27609535362E+04  0.00000000000E+00 0.  1.
          1   -1    0    0  502    0  0.00000000000E+00 -0.00000000000E+00 -0.63381975693E+03  0.63381975693E+03  0.00000000000E+00 0. -1.
    9000010    2    1    2  502    0  0.47129780846E+03 -0.56719559154E+03  0.15944169924E+04  0.20279191548E+04  0.10131426797E+04 0.  0.
   -9000010    2    1    2    0  501 -0.47129780846E+03  0.56719559154E+03  0.53271678687E+03  0.13668541383E+04  0.10201326370E+04 0.  0.
        -13    1    3    3    0    0  0.59899512912E+03  0.43462751962E+02  0.56709056494E+03  0.82599993676E+03  0.10566000000E+00 0.  1.
         13    1    4    4    0    0 -0.16640655425E+03  0.83429934139E+03  0.31860142147E+03  0.90843459273E+03  0.10566000000E+00 0. -1.
          4    1    3    3  502    0 -0.12769732066E+03 -0.61065834350E+03  0.10273264275E+04  0.12019192181E+04  0.00000000000E+00 0.  1.
         -4    1    4    4    0  501 -0.30489125420E+03 -0.26710374986E+03  0.21411536541E+03  0.45841954559E+03  0.00000000000E+00 0. -1.
</event>
<event>
 8    1  0.7096247E-006  0.1061106E+04  0.7818608E-02  0.8719203E-01
          2   -1    0    0  502    0  0.00000000000E+00  0.00000000000E+00  0.34069584090E+04  0.34069584090E+04  0.00000000000E+00 0.  1.
         -2   -1    0    0    0  501 -0.00000000000E+00 -0.00000000000E+00 -0.33089570872E+03  0.33089570872E+03  0.00000000000E+00 0. -1.
    9000010    2    1    2  502    0 -0.29600088125E+03 -0.18485183289E+03  0.16184830391E+04  0.19423960289E+04  0.10156910276E+04 0.  0.
   -9000010    2    1    2    0  501  0.29600088125E+03  0.18485183289E+03  0.14575796612E+04  0.17954580888E+04  0.98860738317E+03 0.  0.
        -13    1    3    3    0    0 -0.36171877183E+03  0.13398852820E+03  0.15658053156E+04  0.16126188927E+04  0.10566000000E+00 0.  1.
         13    1    4    4    0    0 -0.34206042173E+03 -0.48288301243E+02  0.68155932575E+03  0.76410746484E+03  0.10566000000E+00 0. -1.
          4    1    3    3  502    0  0.65717890578E+02 -0.31884036109E+03  0.52677723436E+02  0.32977713618E+03  0.00000000000E+00 0.  1.
         -4    1    4    4    0  501  0.63806130298E+03  0.23314013414E+03  0.77602033550E+03  0.10313506240E+04  0.00000000000E+00 0. -1.
</event>
<event>
 8    1  0.7096247E-006  0.1140678E+04  0.7818608E-02  0.8652624E-01
         -2   -1    0    0    0  501 -0.00000000000E+00  0.00000000000E+00  0.99531485345E+03  0.99531485345E+03  0.00000000000E+00 0. -1.
          2   -1    0    0  502    0  0.00000000000E+00 -0.00000000000E+00 -0.13284581422E+04  0.13284581422E+04  0.00000000000E+00 0.  1.
    9000010    2    1    2  502    0  0.18919140042E+03  0.47811783562E+03 -0.22608556032E+02  0.11552356617E+04  0.10342476669E+04 0.  0.
   -9000010    2    1    2    0  501 -0.18919140042E+03 -0.47811783562E+03 -0.31053473272E+03  0.11685373340E+04  0.10023261096E+04 0.  0.
        -13    1    3    3    0    0 -0.32303058663E+03 -0.12558338968E+03 -0.97338972320E+02  0.35999282543E+03  0.10566000000E+00 0.  1.
         13    1    4    4    0    0 -0.10724606702E+03 -0.48799625874E+03  0.27967055397E+03  0.57258859346E+03  0.10566000000E+00 0. -1.
          4    1    3    3  502    0  0.51222198706E+03  0.60370122530E+03  0.74730416289E+02  0.79524283623E+03  0.00000000000E+00 0.  1.
         -4    1    4    4    0  501 -0.81945333402E+02  0.98784231234E+01 -0.59020528670E+03  0.59594874054E+03  0.00000000000E+00 0. -1.
</event>
<event>
 8    1  0.7096247E-006  0.1368098E+04  0.7818608E-02  0.8489704E-01
          2   -1    0    0  502    0  0.00000000000E+00  0.00000000000E+00  0.24099642266E+04  0.24099642266E+04  0.00000000000E+00 0. -1.
         -2   -1    0    0    0  501 -0.00000000000E+00 -0.00000000000E+00 -0.12034780321E+04  0.12034780321E+04  0.00000000000E+00 0.  1.
    9000010    2    1    2  502    0  0.39355744352E+03  0.83340478715E+03  0.16827582458E+04  0.21769060477E+04  0.10284909460E+04 0.  0.
   -9000010    2    1    2    0  501 -0.39355744352E+03 -0.83340478715E+03 -0.47627205133E+03  0.14365362110E+04  0.99365497942E+03 0.  0.
        -13    1    3    3    0    0  0.39997711151E+03 -0.12610004080E+03  0.45732322450E+03  0.62050580405E+03  0.10566000000E+00 0.  1.
         13    1    4    4    0    0 -0.62423190952E+03 -0.78045107065E+03 -0.11685529959E+03  0.10061930842E+04  0.10566000000E+00 0. -1.
          4    1    3    3  502    0 -0.64196679949E+01  0.95950482796E+03  0.12254350213E+04  0.15564002436E+04  0.00000000000E+00 0.  1.
         -4    1    4    4    0  501  0.23067446600E+03 -0.52953716503E+02 -0.35941675173E+03  0.43034312680E+03  0.00000000000E+00 0. -1.
</event>
<event>
 8    1  0.7096247E-006  0.1076799E+04  0.7818608E-02  0.8705601E-01
          2   -1    0    0  502    0  0.00000000000E+00  0.00000000000E+00  0.38185863215E+04  0.38185863215E+04  0.00000000000E+00 0. -1.
         -2   -1    0    0    0  501 -0.00000000000E+00 -0.00000000000E+00 -0.38537779852E+03  0.38537779852E+03  0.00000000000E+00 0.  1.
    9000010    2    1    2  502    0  0.20553010188E+03 -0.31989989597E+03  0.74663925598E+03  0.13090547485E+04  0.10057711419E+04 0.  0.
   -9000010    2    1    2    0  501 -0.20553010188E+03  0.31989989597E+03  0.26865692670E+04  0.28949093716E+04  0.10090923034E+04 0.  0.
        -13    1    3    3    0    0 -0.62852054118E+01 -0.29129415528E+03  0.96228744722E+03  0.10054297245E+04  0.10566000000E+00 0.  1.
         13    1    4    4    0    0  0.40903125906E+03  0.18322698215E+03  0.11643757309E+04  0.12476576261E+04  0.10566000000E+00 0. -1.
          4    1    3    3  502    0  0.21181530729E+03 -0.28605740693E+02 -0.21564819124E+03  0.30362502399E+03  0.00000000000E+00 0.  1.
         -4    1    4    4    0  501 -0.61456136094E+03  0.13667291382E+03  0.15221935361E+04  0.16472517455E+04  0.00000000000E+00 0. -1.
</event>
<event>
 8    1  0.7096247E-006  0.1173596E+04  0.7818608E-02  0.8626715E-01
          1   -1    0    0  502    0  0.00000000000E+00  0.00000000000E+00  0.12609349218E+04  0.12609349218E+04  0.00000000000E+00 0. -1.
         -1   -1    0    0    0  501 -0.00000000000E+00 -0.00000000000E+00 -0.14125055057E+04  0.14125055057E+04  0.00000000000E+00 0.  1.
    9000010    2    1    2  502    0  0.11298398730E+03 -0.57715473699E+03  0.56096021522E+03  0.12943278667E+04  0.10073407029E+04 0.  0.
   -9000010    2    1    2    0  501 -0.11298398730E+03  0.57715473699E+03 -0.71253079905E+03  0.13791125608E+04  0.10239034837E+04 0.  0.
        -13    1    3    3    0    0 -0.32939737184E+03 -0.51345637677E+03  0.44978228759E+02  0.61168875390E+03  0.10566000000E+00 0.  1.
         13    1    4    4    0    0 -0.39939348111E+03  0.19603065086E+03 -0.77965366952E+03  0.89766531870E+03  0.10566000000E+00 0. -1.
          4    1    3    3  502    0  0.44238135914E+03 -0.63698360225E+02  0.51598198646E+03  0.68263911283E+03  0.00000000000E+00 0.  1.
         -4    1    4    4    0  501  0.28640949381E+03  0.38112408613E+03  0.67122870477E+02  0.48144724209E+03  0.00000000000E+00 0. -1.
</event>
<event>
 8    1  0.7096247E-006  0.1038472E+04  0.7818608E-02  0.8739260E-01
          4   -1    0    0  502    0  0.00000000000E+00  0.00000000000E+00  0.57198756442E+03  0.57198756442E+03  0.00000000000E+00 0.  1.
         -4   -1    0    0    0  501 -0.00000000000E+00 -0.00000000000E+00 -0.19002985568E+04  0.19002985568E+04  0.00000000000E+00 0. -1.
    9000010    2    1    2  502    0 -0.19910271530E+03  0.14011448685E+03 -0.56388705687E+03  0.11930304598E+04  0.10227800861E+04 0.  0.
   -9000010    2    1    2    0  501  0.19910271530E+03 -0.14011448685E+03 -0.76442393550E+03  0.12792556614E+04  0.99643220210E+03 0.  0.
        -13    1    3    3    0    0 -0.44808678102E+02 -0.36093202069E+03 -0.56121097894E+03  0.66875818892E+03  0.10566000000E+00 0.  1.
         13    1    4    4    0    0 -0.32068049876E+03  0.11071421667E+03 -0.58255459871E+03  0.67413907445E+03  0.10566000000E+00 0. -1.
          4    1    3    3  502    0 -0.15429403720E+03  0.50104650754E+03 -0.26760779307E+01  0.52427227090E+03  0.00000000000E+00 0.  1.
         -4    1    4    4    0  501  0.51978321406E+03 -0.25082870352E+03 -0.18186933679E+03  0.60511658694E+03  0.00000000000E+00 0. -1.
</event>
<event>
 8    1  0.7096247E-006  0.1339324E+04  0.7818608E-02  0.8508438E-01
          1   -1    0    0  502    0  0.00000000000E+00  0.00000000000E+00  0.31665927020E+04  0.31665927020E+04  0.00000000000E+00 0. -1.
         -1   -1    0    0    0  501 -0.00000000000E+00 -0.00000000000E+00 -0.57562849135E+03  0.57562849135E+03  0.00000000000E+00 0.  1.
    9000010    2    1    2  502    0  0.77575957980E+03  0.41146135351E+03  0.10520402621E+04  0.16967415858E+04  0.10005198273E+04 0.  0.
   -9000010    2    1    2    0  501 -0.77575957980E+03 -0.41146135351E+03  0.15389239486E+04  0.20454796076E+04  0.10220550546E+04 0.  0.
        -13    1    3    3    0    0  0.92110484638E+03  0.67028517776E+02  0.56461284181E+03  0.10824576816E+04  0.10566000000E+00 0.  1.
         13    1    4    4    0    0  0.14530789952E+03 -0.14451893334E+03  0.82464653649E+03  0.84973056263E+03  0.10566000000E+00 0. -1.
          4    1    3    3  502    0 -0.14534526658E+03  0.34443283574E+03  0.48742742029E+03  0.61428390415E+03  0.00000000000E+00 0.  1.
         -4    1    4    4    0  501 -0.92106747932E+03 -0.26694242017E+03  0.71427741210E+03  0.11957490450E+04  0.00000000000E+00 0. -1.
</event>
<event>
 8    1  0.7096247E-006  0.1659862E+04  0.7818608E-02  0.8323005E-01
         -2   -1    0    0    0  501 -0.00000000000E+00  0.00000000000E+00  0.41568985517E+04  0.41568985517E+04  0.00000000000E+00 0.  1.
          2   -1    0    0  502    0  0.00000000000E+00 -0.00000000000E+00 -0.72188666195E+03  0.72188666195E+03  0.00000000000E+00 0. -1.
    9000010    2    1    2  502    0  0.10131018014E+04  0.86006481125E+03  0.24120665449E+04  0.29259857179E+04  0.98855483652E+03 0.  0.
   -9000010    2    1    2    0  501 -0.10131018014E+04 -0.86006481125E+03  0.10229453448E+04  0.19527994957E+04  0.10004608701E+04 0.  0.
        -13    1    3    3    0    0  0.77212522177E+03  0.69341747662E+03  0.86380424088E+03  0.13502455083E+04  0.10566000000E+00 0.  1.
         13    1    4    4    0    0 -0.82670245476E+03 -0.10432623372E+04  0.61028117042E+03  0.14643347879E+04  0.10566000000E+00 0. -1.
          4    1    3    3  502    0  0.24097657962E+03  0.16664733462E+03  0.15482623040E+04  0.15757402096E+04  0.00000000000E+00 0.  1.
         -4    1    4    4    0  501 -0.18639934662E+03  0.18319752597E+03  0.41266417442E+03  0.48846470783E+03  0.00000000000E+00 0. -1.
</event>
<event>
 8    1  0.7096247E-006  0.1080989E+04  0.7818608E-02  0.8702009E-01
         -2   -1    0    0    0  501 -0.00000000000E+00  0.00000000000E+00  0.42103019389E+03  0.42103019389E+03  0.00000000000E+00 0. -1.
          2   -1    0    0  502    0  0.00000000000E+00 -0.00000000000E+00 -0.28933720872E+04  0.28933720872E+04  0.00000000000E+00 0.  1.
    9000010    2    1    2  502    0  0.28554536341E+03 -0.26535396946E+03 -0.85474547832E+03  0.13393281696E+04  0.95460003644E+03 0.  0.
   -9000010    2    1    2    0  501 -0.28554536341E+03  0.26535396946E+03 -0.16175964150E+04  0.19750741115E+04  0.10641196833E+04 0.  0.
        -13    1    3    3    0    0  0.25438103735E+03  0.22685738386E+03 -0.76573001371E+03  0.83816254381E+03  0.10566000000E+00 0.  1.
         13    1    4    4    0    0  0.81414914762E+01  0.35945955163E+03 -0.16272779342E+04  0.16665266093E+04  0.10566000000E+00 0. -1.
          4    1    3    3  502    0  0.31164326060E+02 -0.49221135333E+03 -0.89015464605E+02  0.50116562582E+03  0.00000000000E+00 0.  1.
         -4    1    4    4    0  501 -0.29368685488E+03 -0.94105582162E+02  0.96815191580E+01  0.30854750224E+03  0.00000000000E+00 0. -1.
</event>
<event>
 8    1  0.7096247E-006  0.1142137E+04  0.7818608E-02  0.8651457E-01
         -2   -1    0    0    0  501 -0.00000000000E+00  0.00000000000E+00  0.80079344720E+03  0.80079344720E+03  0.00000000000E+00 0.  1.
          2   -1    0    0  502    0  0.00000000000E+00 -0.00000000000E+00 -0.17555135202E+04  0.17555135202E+04  0.00000000000E+00 0. -1.
    9000010    2    1    2  502    0 -0.54552867925E+03 -0.86766330915E+02 -0.13103029036E+03  0.11411782857E+04  0.98994394124E+03 0.  0.
   -9000010    2    1    2    0  501  0.54552867925E+03  0.86766330915E+02 -0.82368978261E+03  0.14151286816E+04  0.10094525207E+04 0.  0.
        -13    1    3    3    0    0 -0.63320802515E+03  0.65587894129E+02  0.27900483094E+03  0.69505243099E+03  0.10566000000E+00 0.  1.
         13    1    4    4    0    0  0.61087219365E+03 -0.13143996682E+02 -0.10178734412E+04  0.11871832020E+04  0.10566000000E+00 0. -1.
          4    1    3    3  502    0  0.87679345902E+02 -0.15235422504E+03 -0.41003512130E+03  0.44612585476E+03  0.00000000000E+00 0.  1.
         -4    1    4    4    0  501 -0.65343514401E+02  0.99910327597E+02  0.19418365857E+03  0.22794547965E+03  0.00000000000E+00 0. -1.
</event>
<event>
 8    1  0.7096247E-006  0.1384722E+04  0.7818608E-02  0.8479096E-01
         -4   -1    0    0    0  501 -0.00000000000E+00  0.00000000000E+00  0.20125937941E+04  0.20125937941E+04  0.00000000000E+00 0. -1.
          4   -1    0    0  502    0  0.00000000000E+00 -0.00000000000E+00 -0.95305459808E+03  0.95305459808E+03  0.00000000000E+00 0.  1.
    9000010    2    1    2  502    0 -0.43537173537E+03  0.90022577260E+03  0.52400581461E+03  0.14570869574E+04  0.92117605162E+03 0.  0.
   -9000010    2    1    2    0  501  0.43537173537E+03 -0.90022577260E+03  0.53553338138E+03  0.15085614347E+04  0.99448811466E+03 0.  0.
        -13    1    3    3    0    0 -0.38234369780E+03 -0.33019543382E+02  0.32153107758E+03  0.50065880448E+03  0.10566000000E+00 0.  1.
         13    1    4    4    0    0  0.46982335604E+03 -0.78187654229E+03  0.80222967445E+03  0.12147581549E+04  0.10566000000E+00 0. -1.
          4    1    3    3  502    0 -0.53028037571E+02  0.93324531598E+03  0.20247473703E+03  0.95642815292E+03  0.00000000000E+00 0.  1.
         -4    1    4    4    0  501 -0.34451620672E+02 -0.11834923030E+03 -0.26669629307E+03  0.29380327979E+03  0.00000000000E+00 0. -1.
</event>
<event>
 8    1  0.7096247E-006  0.1185900E+04  0.7818608E-02  0.8617256E-01
         -2   -1    0    0    0  501 -0.00000000000E+00  0.00000000000E+00  0.16875279759E+04  0.16875279759E+04  0.00000000000E+00 0.  1.
          2   -1    0    0  502    0  0.00000000000E+00 -0.00000000000E+00 -0.83444803565E+03  0.83444803565E+03  0.00000000000E+00 0. -1.
    9000010    2    1    2  502    0  0.49171190515E+03 -0.40689930581E+03  0.46137160004E+03  0.12564468401E+04  0.97900320015E+03 0.  0.
   -9000010    2    1    2    0  501 -0.49171190515E+03  0.40689930581E+03  0.39170834025E+03  0.12655291715E+04  0.10201867561E+04 0.  0.
        -13    1    3    3    0    0 -0.28628408523E+03 -0.11786712636E+03  0.25532895413E+03  0.40130303128E+03  0.10566000000E+00 0.  1.
         13    1    4    4    0    0  0.18957584555E+03  0.14821531782E+03  0.47456419637E+03  0.53208830968E+03  0.10566000000E+00 0. -1.
          4    1    3    3  502    0  0.77799599038E+03 -0.28903217945E+03  0.20604264591E+03  0.85514380880E+03  0.00000000000E+00 0.  1.
         -4    1    4    4    0  501 -0.68128775070E+03  0.25868398800E+03 -0.82855856125E+02  0.73344086183E+03  0.00000000000E+00 0. -1.
</event>
<event>
 8    1  0.7096247E-006  0.1523689E+04  0.7818608E-02  0.8395995E-01
         -2   -1    0    0    0  501 -0.00000000000E+00  0.00000000000E+00  0.71070630170E+03  0.71070630170E+03  0.00000000000E+00 0. -1.
          2   -1    0    0  502    0  0.00000000000E+00 -0.00000000000E+00 -0.32934091636E+04  0.32934091636E+04  0.00000000000E+00 0.  1.
    9000010    2    1    2  502    0  0.19077251639E+03  0.12428706246E+04 -0.11939961076E+04  0.19921541339E+04  0.98078022305E+03 0.  0.
   -9000010    2    1    2    0  501 -0.19077251639E+03 -0.12428706246E+04 -0.13887067543E+04  0.20119613313E+04  0.73373047292E+03 0.  0.
        -13    1    3    3    0    0  0.12544226636E+02 -0.15635096795E+03 -0.24915622242E+03  0.29441775955E+03  0.10566000000E+00 0.  1.
         13    1    4    4    0    0 -0.29521472064E+03 -0.12256351616E+04 -0.14225913587E+04  0.19008154739E+04  0.10566000000E+00 0. -1.
          4    1    3    3  502    0  0.17822828975E+03  0.13992215925E+04 -0.94483988516E+03  0.16977363744E+04  0.00000000000E+00 0.  1.
         -4    1    4    4    0  501  0.10444220425E+03 -0.17235463007E+02  0.33884604443E+02  0.11114585747E+03  0.00000000000E+00 0. -1.
</event>
<event>
 8    1  0.7096247E-006  0.1515622E+04  0.7818608E-02  0.8400565E-01
          1   -1    0    0  502    0  0.00000000000E+00  0.00000000000E+00  0.24457760390E+04  0.24457760390E+04  0.00000000000E+00 0.  1.
         -1   -1    0    0    0  501 -0.00000000000E+00 -0.00000000000E+00 -0.94757430719E+03  0.94757430719E+03  0.00000000000E+00 0. -1.
    9000010    2    1    2  502    0 -0.66684134140E+03  0.92151949291E+03  0.58979631005E+03  0.16264409654E+04  0.10017858934E+04 0.  0.
   -9000010    2    1    2    0  501  0.66684134140E+03 -0.92151949291E+03  0.90840542180E+03  0.17669093808E+04  0.10014453551E+04 0.  0.
        -13    1    3    3    0    0 -0.59155675629E+03  0.59256441948E+03  0.85540436884E+03  0.11969914923E+04  0.10566000000E+00 0.  1.
         13    1    4    4    0    0 -0.19693491000E+03 -0.48323531935E+03  0.47545257982E+03  0.70594256102E+03  0.10566000000E+00 0. -1.
          4    1    3    3  502    0 -0.75284585116E+02  0.32895507343E+03 -0.26560805880E+03  0.42944947315E+03  0.00000000000E+00 0.  1.
         -4    1    4    4    0  501  0.86377625141E+03 -0.43828417356E+03  0.43295284197E+03  0.10609668198E+04  0.00000000000E+00 0. -1.
</event>
<event>
 8    1  0.7096247E-006  0.1055619E+04  0.7818608E-02  0.8724017E-01
         -1   -1    0    0    0  501 -0.00000000000E+00  0.00000000000E+00  0.46667891647E+03  0.46667891647E+03  0.00000000000E+00 0. -1.
          1   -1    0    0  502    0  0.00000000000E+00 -0.00000000000E+00 -0.24701786364E+04  0.24701786364E+04  0.00000000000E+00 0.  1.
    9000010    2    1    2  502    0 -0.29996350366E+03  0.25930911919E+02 -0.12613556445E+04  0.16390432319E+04  0.10023942032E+04 0.  0.
   -9000010    2    1    2    0  501  0.29996350366E+03 -0.25930911919E+02 -0.74214407549E+03  0.12978143210E+04  0.10212216543E+04 0.  0.
        -13    1    3    3    0    0 -0.22217575358E+03  0.45007055391E+03 -0.29834570829E+03  0.58389703013E+03  0.10566000000E+00 0.  1.
         13    1    4    4    0    0  0.41912140089E+03  0.20500562400E+03  0.45139514957E+02  0.46875115097E+03  0.10566000000E+00 0. -1.
          4    1    3    3  502    0 -0.77787750079E+02 -0.42413964199E+03 -0.96300993618E+03  0.10551462018E+04  0.00000000000E+00 0.  1.
         -4    1    4    4    0  501 -0.11915789724E+03 -0.23093653592E+03 -0.78728359045E+03  0.82906317002E+03  0.00000000000E+00 0. -1.
</event>
<event>
 8    1  0.7096247E-006  0.1572525E+04  0.7818608E-02  0.8368942E-01
         -2   -1    0    0    0  501 -0.00000000000E+00  0.00000000000E+00  0.28708977646E+04  0.28708977646E+04  0.00000000000E+00 0.  1.
          2   -1    0    0  502    0  0.00000000000E+00 -0.00000000000E+00 -0.10514108587E+04  0.10514108587E+04  0.00000000000E+00 0. -1.
    9000010    2    1    2  502    0 -0.10309142502E+04  0.46982565290E+03  0.11094574630E+03  0.16432907362E+04  0.11851477333E+04 0.  0.
   -9000010    2    1    2    0  501  0.10309142502E+04 -0.46982565290E+03  0.17085411596E+04  0.22790178871E+04  0.99563512411E+03 0.  0.
        -13    1    3    3    0    0  0.49882552563E+02  0.27160643435E+03  0.41925945032E+03  0.50203269025E+03  0.10566000000E+00 0.  1.
         13    1    4    4    0    0  0.11894296765E+04 -0.34259942872E+03  0.16588778992E+04  0.20697809593E+04  0.10566000000E+00 0. -1.
          4    1    3    3  502    0 -0.10807968027E+04  0.19821921855E+03 -0.30831370402E+03  0.11412580460E+04  0.00000000000E+00 0.  1.
         -4    1    4    4    0  501 -0.15851542636E+03 -0.12722622418E+03  0.49663260401E+02  0.20923692778E+03  0.00000000000E+00 0. -1.
</event>
<event>
 8    1  0.7096247E-006  0.1167588E+04  0.7818608E-02  0.8631377E-01
         -2   -1    0    0    0  501 -0.00000000000E+00  0.00000000000E+00  0.58108264778E+03  0.58108264778E+03  0.00000000000E+00 0.  1.
          2   -1    0    0  502    0  0.00000000000E+00 -0.00000000000E+00 -0.26220315056E+04  0.26220315056E+04  0.00000000000E+00 0. -1.
    9000010    2    1    2  502    0  0.59229716238E+03  0.78190774361E+02 -0.15463650425E+04  0.19426467449E+04  0.10127693741E+04 0.  0.
   -9000010    2    1    2    0  501 -0.59229716238E+03 -0.78190774361E+02 -0.49458381534E+03  0.12604674085E+04  0.99359710732E+03 0.  0.
        -13    1    3    3    0    0  0.33719107416E+03 -0.40640311010E+03 -0.11536011123E+04  0.12687225251E+04  0.10566000000E+00 0.  1.
         13    1    4    4    0    0 -0.18861720884E+03  0.18122351578E+03 -0.69337547612E+03  0.74107218015E+03  0.10566000000E+00 0. -1.
          4    1    3    3  502    0  0.25510608822E+03  0.48459388446E+03 -0.39276393018E+03  0.67392421974E+03  0.00000000000E+00 0.  1.
         -4    1    4    4    0  501 -0.40367995354E+03 -0.25941429015E+03  0.19879166077E+03  0.51939522833E+03  0.00000000000E+00 0. -1.
</event>
<event>
 8    1  0.7096247E-006  0.1048587E+04  0.7818608E-02  0.8730232E-01
         -2   -1    0    0    0  501 -0.00000000000E+00  0.00000000000E+00  0.14390156657E+04  0.14390156657E+04  0.00000000000E+00 0.  1.
          2   -1    0    0  502    0  0.00000000000E+00 -0.00000000000E+00 -0.99190338928E+03  0.99190338928E+03  0.00000000000E+00 0. -1.
    9000010    2    1    2  502    0 -0.86119705993E+02 -0.32654805849E+03 -0.35775036477E+03  0.11145437733E+04  0.10000861267E+04 0.  0.
   -9000010    2    1    2    0  501  0.86119705993E+02  0.32654805849E+03  0.80486264121E+03  0.13163752817E+04  0.98538813304E+03 0.  0.
        -13    1    3    3    0    0  0.18073279649E+02  0.11375981151E+03 -0.59333953595E+03  0.60441687124E+03  0.10566000000E+00 0.  1.
         13    1    4    4    0    0  0.47192231826E+01  0.67168104770E+03  0.63037550097E+03  0.92116827143E+03  0.10566000000E+00 0. -1.
          4    1    3    3  502    0 -0.10419298564E+03 -0.44030787001E+03  0.23558917118E+03  0.51012690208E+03  0.00000000000E+00 0.  1.
         -4    1    4    4    0  501  0.81400482810E+02 -0.34513298921E+03  0.17448714024E+03  0.39520701025E+03  0.00000000000E+00 0. -1.
</event>
<event>
 8    1  0.7096247E-006  0.1174709E+04  0.7818608E-02  0.8625854E-01
         -2   -1    0    0    0  501 -0.00000000000E+00  0.00000000000E+00  0.50754593324E+03  0.50754593324E+03  0.00000000000E+00 0.  1.
          2   -1    0    0  502    0  0.00000000000E+00 -0.00000000000E+00 -0.28424687576E+04  0.28424687576E+04  0.00000000000E+00 0. -1.
    9000010    2    1    2  502    0 -0.63329302658E+02 -0.54153677478E+03 -0.81069033591E+03  0.14206976363E+04  0.10314505679E+04 0.  0.
   -9000010    2    1    2    0  501  0.63329302658E+02  0.54153677478E+03 -0.15242324884E+04  0.19293170545E+04  0.10496222840E+04 0.  0.
        -13    1    3    3    0    0  0.29977552663E+03 -0.58320051768E+02 -0.75412980447E+03  0.81362053068E+03  0.10566000000E+00 0.  1.
         13    1    4    4    0    0  0.90671221371E+02  0.37612721507E+03  0.89401986831E+01  0.38700502660E+03  0.10566000000E+00 0. -1.
          4    1    3    3  502    0 -0.36310482928E+03 -0.48321672301E+03 -0.56560531445E+02  0.60707710562E+03  0.00000000000E+00 0.  1.
         -4    1    4    4    0  501 -0.27341918713E+02  0.16540955971E+03 -0.15331726871E+04  0.15423120279E+04  0.00000000000E+00 0. -1.
</event>
<event>
 8    1  0.7096247E-006  0.1135739E+04  0.7818608E-02  0.8656590E-01
          1   -1    0    0  502    0  0.00000000000E+00  0.00000000000E+00  0.27584884137E+04  0.27584884137E+04  0.00000000000E+00 0.  1.
         -1   -1    0    0    0  501 -0.00000000000E+00 -0.00000000000E+00 -0.53107585978E+03  0.53107585978E+03  0.00000000000E+00 0. -1.
    9000010    2    1    2  502    0 -0.36944332455E+03  0.35794384963E+03  0.16622144599E+04  0.20008490971E+04  0.98784008268E+03 0.  0.
   -9000010    2    1    2    0  501  0.36944332455E+03 -0.35794384963E+03  0.56519809406E+03  0.12887151764E+04  0.10376539649E+04 0.  0.
        -13    1    3    3    0    0 -0.61529646696E+03  0.41006383539E+03  0.74430842630E+03  0.10491602051E+04  0.10566000000E+00 0.  1.
         13    1    4    4    0    0  0.57774556697E+03 -0.41076905031E+03  0.73026021825E+03  0.10177431652E+04  0.10566000000E+00 0. -1.
          4    1    3    3  502    0  0.24585314242E+03 -0.52119985753E+02  0.91790603359E+03  0.95168889195E+03  0.00000000000E+00 0.  1.
         -4    1    4    4    0  501 -0.20830224242E+03  0.52825200674E+02 -0.16506212419E+03  0.27097201122E+03  0.00000000000E+00 0. -1.
</event>
<event>
 8    1  0.7096247E-006  0.1597284E+04  0.7818608E-02  0.8355612E-01
          1   -1    0    0  502    0  0.00000000000E+00  0.00000000000E+00  0.90406034545E+03  0.90406034545E+03  0.00000000000E+00 0.  1.
         -1   -1    0    0    0  501 -0.00000000000E+00 -0.00000000000E+00 -0.32526778799E+04  0.32526778799E+04  0.00000000000E+00 0. -1.
    9000010    2    1    2  502    0  0.87120057191E+03 -0.88449797582E+03 -0.42243218722E+03  0.16587175537E+04  0.10156612941E+04 0.  0.
   -9000010    2    1    2    0  501 -0.87120057191E+03  0.88449797582E+03 -0.19261853472E+04  0.24980206717E+04  0.99427872279E+03 0.  0.
        -13    1    3    3    0    0  0.41550896342E+03  0.13211004087E+03  0.68363026246E+02  0.44133238733E+03  0.10566000000E+00 0.  1.
         13    1    4    4    0    0 -0.55865254701E+03  0.10559158970E+04 -0.16931043177E+04  0.20721132429E+04  0.10566000000E+00 0. -1.
          4    1    3    3  502    0  0.45569160848E+03 -0.10166080167E+04 -0.49079521347E+03  0.12173851663E+04  0.00000000000E+00 0.  1.
         -4    1    4    4    0  501 -0.31254802490E+03 -0.17141792113E+03 -0.23308102952E+03  0.42590742876E+03  0.00000000000E+00 0. -1.
</event>
<event>
 8    1  0.7096247E-006  0.1711825E+04  0.7818608E-02  0.8297037E-01
          2   -1    0    0  502    0  0.00000000000E+00  0.00000000000E+00  0.21305974715E+04  0.21305974715E+04  0.00000000000E+00 0.  1.
         -2   -1    0    0    0  501 -0.00000000000E+00 -0.00000000000E+00 -0.13804694797E+04  0.13804694797E+04  0.00000000000E+00 0. -1.
    9000010    2    1    2  502    0 -0.90968487655E+03 -0.10661052016E+04  0.26676502060E+03  0.17238730118E+04  0.96771261706E+03 0.  0.
   -9000010    2    1    2    0  501  0.90968487655E+03  0.10661052016E+04  0.48336297123E+03  0.17871939393E+04  0.99815606963E+03 0.  0.
        -13    1    3    3    0    0 -0.28219148320E+03 -0.25369451846E+03  0.54149463348E+03  0.66121811162E+03  0.10566000000E+00 0.  1.
         13    1    4    4    0    0  0.18688014854E+03  0.66655797201E+03  0.64438762098E+03  0.94575849836E+03  0.10566000000E+00 0. -1.
          4    1    3    3  502    0 -0.62749339335E+03 -0.81241068310E+03 -0.27472961288E+03  0.10626549002E+04  0.00000000000E+00 0.  1.
         -4    1    4    4    0  501  0.72280472801E+03  0.39954722955E+03 -0.16102464975E+03  0.84143544096E+03  0.00000000000E+00 0. -1.
</event>
<event>
 8    1  0.7096247E-006  0.1054861E+04  0.7818608E-02  0.8724685E-01
          2   -1    0    0  502    0  0.00000000000E+00  0.00000000000E+00  0.15440122349E+04  0.15440122349E+04  0.00000000000E+00 0.  1.
         -2   -1    0    0    0  501 -0.00000000000E+00 -0.00000000000E+00 -0.72692369677E+03  0.72692369677E+03  0.00000000000E+00 0. -1.
    9000010    2    1    2  502    0  0.37268377643E+02  0.10859942502E+03  0.45627922418E+03  0.10880976579E+04  0.98111315129E+03 0.  0.
   -9000010    2    1    2    0  501 -0.37268377643E+02 -0.10859942502E+03  0.36080931391E+03  0.11828382737E+04  0.11205981678E+04 0.  0.
        -13    1    3    3    0    0  0.20096711843E+03 -0.10931292291E+03  0.69132554672E+03  0.72819511158E+03  0.10566000000E+00 0.  1.
         13    1    4    4    0    0 -0.54943187071E+03 -0.49227411738E+02 -0.32943404346E+01  0.55164262205E+03  0.10566000000E+00 0. -1.
          4    1    3    3  502    0 -0.16369874079E+03  0.21791234792E+03 -0.23504632254E+03  0.35990254633E+03  0.00000000000E+00 0.  1.
         -4    1    4    4    0  501  0.51216349307E+03 -0.59372013278E+02  0.36410365435E+03  0.63119565168E+03  0.00000000000E+00 0. -1.
</event>
<event>
 8    1  0.7096247E-006  0.1225121E+04  0.7818608E-02  0.8587882E-01
          2   -1    0    0  502    0  0.00000000000E+00  0.00000000000E+00  0.16272073396E+04  0.16272073396E+04  0.00000000000E+00 0.  1.
         -2   -1    0    0    0  501 -0.00000000000E+00 -0.00000000000E+00 -0.94646676950E+03  0.94646676950E+03  0.00000000000E+00 0. -1.
    9000010    2    1    2  502    0 -0.53583210781E+03 -0.81872318671E+02  0.52578243312E+03  0.12891871959E+04  0.10448623520E+04 0.  0.
   -9000010    2    1    2    0  501  0.53583210781E+03  0.81872318671E+02  0.15495813694E+03  0.12844869132E+04  0.11541557441E+04 0.  0.
        -13    1    3    3    0    0 -0.74010178574E+03 -0.36697611329E+03  0.35617175766E+03  0.89960016291E+03  0.10566000000E+00 0.  1.
         13    1    4    4    0    0  0.37133732356E+03  0.24991976888E+03 -0.45044227484E+03  0.63501933267E+03  0.10566000000E+00 0. -1.
          4    1    3    3  502    0  0.20426967793E+03  0.28510379462E+03  0.16961067546E+03  0.38958703296E+03  0.00000000000E+00 0.  1.
         -4    1    4    4    0  501  0.16449478426E+03 -0.16804745021E+03  0.60540041178E+03  0.64946758052E+03  0.00000000000E+00 0. -1.
</event>
<event>
 8    1  0.7096247E-006  0.1883396E+04  0.7818608E-02  0.8217592E-01
          2   -1    0    0  502    0  0.00000000000E+00  0.00000000000E+00  0.20135910960E+04  0.20135910960E+04  0.00000000000E+00 0.  1.
         -2   -1    0    0    0  501 -0.00000000000E+00 -0.00000000000E+00 -0.18013621706E+04  0.18013621706E+04  0.00000000000E+00 0. -1.
    9000010    2    1    2  502    0  0.13204861253E+04 -0.90586114631E+03  0.38892336401E+03  0.19157215506E+04  0.97696450952E+03 0.  0.
   -9000010    2    1    2    0  501 -0.13204861253E+04  0.90586114631E+03 -0.17669443864E+03  0.18992317161E+04  0.10057793810E+04 0.  0.
        -13    1    3    3    0    0  0.34921676934E+03 -0.18627408421E+03 -0.32475621007E+03  0.51197362586E+03  0.10566000000E+00 0.  1.
         13    1    4    4    0    0 -0.12249425463E+03  0.65572409146E+03 -0.71663215599E+02  0.67090577145E+03  0.10566000000E+00 0. -1.
          4    1    3    3  502    0  0.97126935594E+03 -0.71958706210E+03  0.71367957407E+03  0.14037479247E+04  0.00000000000E+00 0.  1.
         -4    1    4    4    0  501 -0.11979918707E+04  0.25013705485E+03 -0.10503122304E+03  0.12283259446E+04  0.00000000000E+00 0. -1.
</event>
<event>
 8    1  0.7096247E-006  0.1181838E+04  0.7818608E-02  0.8620366E-01
          2   -1    0    0  502    0  0.00000000000E+00  0.00000000000E+00  0.16829577091E+04  0.16829577091E+04  0.00000000000E+00 0. -1.
         -2   -1    0    0    0  501 -0.00000000000E+00 -0.00000000000E+00 -0.95486285837E+03  0.95486285837E+03  0.00000000000E+00 0.  1.
    9000010    2    1    2  502    0 -0.36607582150E+03  0.52300613072E+03 -0.11412061136E+03  0.11831652676E+04  0.98960073596E+03 0.  0.
   -9000010    2    1    2    0  501  0.36607582150E+03 -0.52300613072E+03  0.84221546206E+03  0.14546552999E+04  0.99957402778E+03 0.  0.
        -13    1    3    3    0    0 -0.31009721244E+03  0.61841215930E+03  0.30034756413E+03  0.75418999621E+03  0.10566000000E+00 0.  1.
         13    1    4    4    0    0  0.59958051675E+03  0.12211323811E+02  0.38045077844E+03  0.71020329376E+03  0.10566000000E+00 0. -1.
          4    1    3    3  502    0 -0.55978609064E+02 -0.95406028577E+02 -0.41446817549E+03  0.42897527138E+03  0.00000000000E+00 0.  1.
         -4    1    4    4    0  501 -0.23350469524E+03 -0.53521745453E+03  0.46176468362E+03  0.74445200609E+03  0.00000000000E+00 0. -1.
</event>
<event>
 8    1  0.7096247E-006  0.1436928E+04  0.7818608E-02  0.8446749E-01
         -2   -1    0    0    0  501 -0.00000000000E+00  0.00000000000E+00  0.19032828682E+04  0.19032828682E+04  0.00000000000E+00 0.  1.
          2   -1    0    0  502    0  0.00000000000E+00 -0.00000000000E+00 -0.16154192426E+04  0.16154192426E+04  0.00000000000E+00 0. -1.
    9000010    2    1    2  502    0 -0.79346082785E+03 -0.68220550023E+03  0.11515432870E+04  0.18342626026E+04  0.97133049148E+03 0.  0.
   -9000010    2    1    2    0  501  0.79346082785E+03  0.68220550023E+03 -0.86367966147E+03  0.16844395081E+04  0.99820312008E+03 0.  0.
        -13    1    3    3    0    0  0.12836783764E+03 -0.15204585887E+03 -0.73430215788E+02  0.21210434388E+03  0.10566000000E+00 0.  1.
         13    1    4    4    0    0  0.28948384064E+03  0.26795810314E+03 -0.94785078740E+03  0.10266564982E+04  0.10566000000E+00 0. -1.
          4    1    3    3  502    0 -0.92182866549E+03 -0.53015964136E+03  0.12249735028E+04  0.16221582588E+04  0.00000000000E+00 0.  1.
         -4    1    4    4    0  501  0.50397698720E+03  0.41424739709E+03  0.84171125928E+02  0.65778300986E+03  0.00000000000E+00 0. -1.
</event>
<event>
 8    1  0.7096247E-006  0.1325915E+04  0.7818608E-02  0.8517334E-01
         -4   -1    0    0    0  501 -0.00000000000E+00  0.00000000000E+00  0.13869398669E+04  0.13869398669E+04  0.00000000000E+00 0. -1.
          4   -1    0    0  502    0  0.00000000000E+00 -0.00000000000E+00 -0.13143855126E+04  0.13143855126E+04  0.00000000000E+00 0.  1.
    9000010    2    1    2  502    0 -0.79360206148E+03 -0.35659200637E+03 -0.21861837695E+03  0.13436463140E+04  0.10003146162E+04 0.  0.
   -9000010    2    1    2    0  501  0.79360206148E+03  0.35659200637E+03  0.29117273122E+03  0.13576790655E+04  0.10007740977E+04 0.  0.
        -13    1    3    3    0    0 -0.71686874540E+03 -0.59268444769E+03 -0.42326097773E+03  0.10219224624E+04  0.10566000000E+00 0.  1.
         13    1    4    4    0    0  0.57453670544E+03 -0.12576860630E+03  0.51577258861E+03  0.78226053368E+03  0.10566000000E+00 0. -1.
          4    1    3    3  502    0 -0.76733316085E+02  0.23609244132E+03  0.20464260078E+03  0.32172385162E+03  0.00000000000E+00 0.  1.
         -4    1    4    4    0  501  0.21906535605E+03  0.48236061266E+03 -0.22459985739E+03  0.57541853186E+03  0.00000000000E+00 0. -1.
</event>
<event>
 8    1  0.7096247E-006  0.1262171E+04  0.7818608E-02  0.8561161E-01
         -2   -1    0    0    0  501 -0.00000000000E+00  0.00000000000E+00  0.19532738175E+04  0.19532738175E+04  0.00000000000E+00 0. -1.
          2   -1    0    0  502    0  0.00000000000E+00 -0.00000000000E+00 -0.87643853725E+03  0.87643853725E+03  0.00000000000E+00 0.  1.
    9000010    2    1    2  502    0 -0.73429905427E+03  0.26101401886E+03  0.91014431894E+03  0.15539435245E+04  0.98947176658E+03 0.  0.
   -9000010    2    1    2    0  501  0.73429905427E+03 -0.26101401886E+03  0.16669096133E+03  0.12757688303E+04  0.99623130475E+03 0.  0.
        -13    1    3    3    0    0 -0.30007044619E+02  0.41008398272E+03  0.68630344139E+03  0.80005107364E+03  0.10566000000E+00 0.  1.
         13    1    4    4    0    0  0.79127948884E+03 -0.55406026885E+03  0.11506225865E+03  0.97280282972E+03  0.10566000000E+00 0. -1.
          4    1    3    3  502    0 -0.70429200965E+03 -0.14906996386E+03  0.22384087755E+03  0.75389245084E+03  0.00000000000E+00 0.  1.
         -4    1    4    4    0  501 -0.56980434575E+02  0.29304624998E+03  0.51628702678E+02  0.30296600056E+03  0.00000000000E+00 0. -1.
</event>
<event>
 8    1  0.7096247E-006  0.1255674E+04  0.7818608E-02  0.8565778E-01
         -2   -1    0    0    0  501 -0.00000000000E+00  0.00000000000E+00  0.84394478015E+03  0.84394478015E+03  0.00000000000E+00 0.  1.
          2   -1    0    0  502    0  0.00000000000E+00 -0.00000000000E+00 -0.18904824033E+04  0.18904824033E+04  0.00000000000E+00 0. -1.
    9000010    2    1    2  502    0 -0.46086183546E+03  0.57972199737E+03 -0.36910086819E+03  0.12921571374E+04  0.99245321868E+03 0.  0.
   -9000010    2    1    2    0  501  0.46086183546E+03 -0.57972199737E+03 -0.67743675493E+03  0.14422700460E+04  0.10357369854E+04 0.  0.
        -13    1    3    3    0    0 -0.50462379663E+03 -0.82230502359E+02 -0.36595392262E+03  0.62875218988E+03  0.10566000000E+00 0.  1.
         13    1    4    4    0    0  0.19665686314E+03 -0.14671325388E+03  0.27170251547E+03  0.36608874438E+03  0.10566000000E+00 0. -1.
          4    1    3    3  502    0  0.43761961166E+02  0.66195249973E+03 -0.31469455640E+01  0.66340494753E+03  0.00000000000E+00 0.  1.
         -4    1    4    4    0  501  0.26420497231E+03 -0.43300874349E+03 -0.94913927040E+03  0.10761813016E+04  0.00000000000E+00 0. -1.
</event>
<event>
 8    1  0.7096247E-006  0.1094896E+04  0.7818608E-02  0.8690211E-01
         -1   -1    0    0    0  501 -0.00000000000E+00  0.00000000000E+00  0.76244257743E+03  0.76244257743E+03  0.00000000000E+00 0.  1.
          1   -1    0    0  502    0  0.00000000000E+00 -0.00000000000E+00 -0.17207484806E+04  0.17207484806E+04  0.00000000000E+00 0. -1.
    9000010    2    1    2  502    0 -0.33914038104E+03  0.29193084129E+03 -0.85154433608E+03  0.14041023172E+04  0.10228077761E+04 0.  0.
   -9000010    2    1    2    0  501  0.33914038104E+03 -0.29193084129E+03 -0.10676156709E+03  0.10790887408E+04  0.97611201416E+03 0.  0.
        -13    1    3    3    0    0  0.35678099759E+03  0.31238167615E+02 -0.17284560202E+03  0.39767337937E+03  0.10566000000E+00 0.  1.
         13    1    4    4    0    0 -0.46970121616E+02  0.29256757097E+03 -0.22056281519E+03  0.36939131354E+03  0.10566000000E+00 0. -1.
          4    1    3    3  502    0 -0.69592137862E+03  0.26069267367E+03 -0.67869873406E+03  0.10064289379E+04  0.00000000000E+00 0.  1.
         -4    1    4    4    0  501  0.38611050265E+03 -0.58449841226E+03  0.11380124811E+03  0.70969742726E+03  0.00000000000E+00 0. -1.
</event>
<event>
 8    1  0.7096247E-006  0.1232483E+04  0.7818608E-02  0.8582495E-01
         -2   -1    0    0    0  501 -0.00000000000E+00  0.00000000000E+00  0.79918648082E+03  0.79918648082E+03  0.00000000000E+00 0. -1.
          2   -1    0    0  502    0  0.00000000000E+00 -0.00000000000E+00 -0.25178886429E+04  0.25178886429E+04  0.00000000000E+00 0.  1.
    9000010    2    1    2  502    0 -0.76552976364E+03  0.60331103759E+02 -0.28390751380E+02  0.12135661411E+04  0.93928754006E+03 0.  0.
   -9000010    2    1    2    0  501  0.76552976364E+03 -0.60331103759E+02 -0.16903114106E+04  0.21035089826E+04  0.98889924351E+03 0.  0.
        -13    1    3    3    0    0 -0.79519586073E+02 -0.31703760243E+03  0.21784941470E+03  0.39280349358E+03  0.10566000000E+00 0.  1.
         13    1    4    4    0    0 -0.77874430558E+02 -0.23197100710E+03 -0.48038369226E+02  0.24936453467E+03  0.10566000000E+00 0. -1.
          4    1    3    3  502    0 -0.68601017756E+03  0.37736870619E+03 -0.24624016608E+03  0.82076264749E+03  0.00000000000E+00 0.  1.
         -4    1    4    4    0  501  0.84340419419E+03  0.17163990334E+03 -0.16422730414E+04  0.18541444479E+04  0.00000000000E+00 0. -1.
</event>
<event>
 8    1  0.7096247E-006  0.1210538E+04  0.7818608E-02  0.8598669E-01
         -2   -1    0    0    0  501 -0.00000000000E+00  0.00000000000E+00  0.10443736411E+04  0.10443736411E+04  0.00000000000E+00 0. -1.
          2   -1    0    0  502    0  0.00000000000E+00 -0.00000000000E+00 -0.14106120053E+04  0.14106120053E+04  0.00000000000E+00 0.  1.
    9000010    2    1    2  502    0  0.28787010555E+03 -0.62240487472E+03 -0.27123844710E+03  0.12342238611E+04  0.98968743464E+03 0.  0.
   -9000010    2    1    2    0  501 -0.28787010555E+03  0.62240487472E+03 -0.94999917190E+02  0.12207617853E+04  0.10054736827E+04 0.  0.
        -13    1    3    3    0    0 -0.73604533184E+02 -0.79552131889E+03 -0.13089153432E+03  0.80957050406E+03  0.10566000000E+00 0.  1.
         13    1    4    4    0    0 -0.39232855354E+03  0.84582874833E+02  0.33620252014E+03  0.52355334241E+03  0.10566000000E+00 0. -1.
          4    1    3    3  502    0  0.36147463874E+03  0.17311644417E+03 -0.14034691278E+03  0.42465335701E+03  0.00000000000E+00 0.  1.
         -4    1    4    4    0  501  0.10445844799E+03  0.53782199989E+03 -0.43120243733E+03  0.69720844292E+03  0.00000000000E+00 0. -1.
</event>
<event>
 7    1  0.7096247E-006  0.8689643E+03  0.7818608E-02  0.8908533E-01
         -2   -1    0    0    0  501 -0.00000000000E+00  0.00000000000E+00  0.64968402471E+03  0.64968402471E+03  0.00000000000E+00 0. -1.
          2   -1    0    0  502    0  0.00000000000E+00 -0.00000000000E+00 -0.12953049981E+04  0.12953049981E+04  0.00000000000E+00 0.  1.
    9000010    2    1    2  502    0  0.22443874852E+03  0.18063546075E+03 -0.63538955771E+03  0.12194112289E+04  0.10001209595E+04 0.  0.
        -13    1    3    3    0    0  0.46607006761E+03 -0.15003412820E+03 -0.32667556987E+02  0.49071246977E+03  0.10566000000E+00 0.  1.
         13    1    1    2    0    0 -0.79790370424E+02 -0.16095817836E+03  0.31862238823E+03  0.36577899863E+03  0.10566000000E+00 0. -1.
          4    1    3    3  502    0 -0.24163131908E+03  0.33066958895E+03 -0.60272200073E+03  0.72869875915E+03  0.00000000000E+00 0.  1.
         -4    1    1    2    0  501 -0.14464837810E+03 -0.19677282394E+02 -0.32885380389E+03  0.35979879525E+03  0.00000000000E+00 0. -1.
</event>
<event>
 8    1  0.7096247E-006  0.1058282E+04  0.7818608E-02  0.8721677E-01
         -2   -1    0    0    0  501 -0.00000000000E+00  0.00000000000E+00  0.73360278150E+03  0.73360278150E+03  0.00000000000E+00 0. -1.
          2   -1    0    0  502    0  0.00000000000E+00 -0.00000000000E+00 -0.15642555794E+04  0.15642555794E+04  0.00000000000E+00 0.  1.
    9000010    2    1    2  502    0  0.51799960143E+02 -0.31380000305E+03 -0.23936883547E+03  0.10902933843E+04  0.10150313033E+04 0.  0.
   -9000010    2    1    2    0  501 -0.51799960143E+02  0.31380000305E+03 -0.59128396238E+03  0.12075649765E+04  0.10037144866E+04 0.  0.
        -13    1    3    3    0    0 -0.27527213512E+03  0.25429904109E+03  0.41665931619E+02  0.37706605747E+03  0.10566000000E+00 0.  1.
         13    1    4    4    0    0  0.47095908255E+03  0.87597445950E+02 -0.32438788609E+03  0.57853546285E+03  0.10566000000E+00 0. -1.
          4    1    3    3  502    0  0.32707209526E+03 -0.56809904414E+03 -0.28103476709E+03  0.71322732685E+03  0.00000000000E+00 0.  1.
         -4    1    4    4    0  501 -0.52275904269E+03  0.22620255710E+03 -0.26689607629E+03  0.62902951369E+03  0.00000000000E+00 0. -1.
</event>
<event>
 8    1  0.7096247E-006  0.1573654E+04  0.7818608E-02  0.8368328E-01
         -1   -1    0    0    0  501 -0.00000000000E+00  0.00000000000E+00  0.11014274909E+04  0.11014274909E+04  0.00000000000E+00 0.  1.
          1   -1    0    0  502    0  0.00000000000E+00 -0.00000000000E+00 -0.22764365258E+04  0.22764365258E+04  0.00000000000E+00 0. -1.
    9000010    2    1    2  502    0  0.11319700665E+04  0.45238105369E+03 -0.77198589995E+03  0.17456677071E+04  0.98254194052E+03 0.  0.
   -9000010    2    1    2    0  501 -0.11319700665E+04 -0.45238105369E+03 -0.40302313494E+03  0.16321963096E+04  0.10077858387E+04 0.  0.
        -13    1    3    3    0    0  0.35121572543E+03 -0.50528793657E+02  0.19504491524E+03  0.40490514309E+03  0.10566000000E+00 0.  1.
         13    1    4    4    0    0 -0.54206618320E+03 -0.24554564186E+03  0.32060122792E+03  0.67595382069E+03  0.10566000000E+00 0. -1.
          4    1    3    3  502    0  0.78075434107E+03  0.50290984735E+03 -0.96703081519E+03  0.13407625641E+04  0.00000000000E+00 0.  1.
         -4    1    4    4    0  501 -0.58990388330E+03 -0.20683541183E+03 -0.72362436286E+03  0.95624248893E+03  0.00000000000E+00 0. -1.
</event>
<event>
 8    1  0.7096247E-006  0.1576190E+04  0.7818608E-02  0.8366952E-01
         -2   -1    0    0    0  501 -0.00000000000E+00  0.00000000000E+00  0.84703653633E+03  0.84703653633E+03  0.00000000000E+00 0.  1.
          2   -1    0    0  502    0  0.00000000000E+00 -0.00000000000E+00 -0.29876617579E+04  0.29876617579E+04  0.00000000000E+00 0. -1.
    9000010    2    1    2  502    0  0.96944403855E+03 -0.71953627081E+03 -0.13163456298E+04  0.20395360427E+04  0.98457466113E+03 0.  0.
   -9000010    2    1    2    0  501 -0.96944403855E+03  0.71953627081E+03 -0.82427959173E+03  0.17951622515E+04  0.10419292083E+04 0.  0.
        -13    1    3    3    0    0  0.97829479457E+02 -0.55257087919E+03 -0.89679829918E+03  0.10578999878E+04  0.10566000000E+00 0.  1.
         13    1    4    4    0    0 -0.60507546691E+03  0.24963828753E+03  0.13330017184E+03  0.66798543565E+03  0.10566000000E+00 0. -1.
          4    1    3    3  502    0  0.87161455910E+03 -0.16696539162E+03 -0.41954733067E+03  0.98163605491E+03  0.00000000000E+00 0.  1.
         -4    1    4    4    0  501 -0.36436857164E+03  0.46989798328E+03 -0.95757976357E+03  0.11271768159E+04  0.00000000000E+00 0. -1.
</event>
<event>
 8    1  0.7096247E-006  0.1489752E+04  0.7818608E-02  0.8415421E-01
         -2   -1    0    0    0  501 -0.00000000000E+00  0.00000000000E+00  0.16168098598E+04  0.16168098598E+04  0.00000000000E+00 0.  1.
          2   -1    0    0  502    0  0.00000000000E+00 -0.00000000000E+00 -0.15352837641E+04  0.15352837641E+04  0.00000000000E+00 0. -1.
    9000010    2    1    2  502    0 -0.11739117358E+03 -0.11106167351E+04 -0.47228055413E+03  0.15539652905E+04  0.97185851975E+03 0.  0.
   -9000010    2    1    2    0  501  0.11739117358E+03  0.11106167351E+04  0.55380664977E+03  0.15981283334E+04  0.10000310718E+04 0.  0.
        -13    1    3    3    0    0  0.16993005989E+03 -0.61664919440E+03 -0.69144423383E+03  0.94192759481E+03  0.10566000000E+00 0.  1.
         13    1    4    4    0    0  0.13642512041E+03  0.70113815634E+03 -0.19852977226E+03  0.74136401949E+03  0.10566000000E+00 0. -1.
          4    1    3    3  502    0 -0.28732123346E+03 -0.49396754073E+03  0.21916367970E+03  0.61203769573E+03  0.00000000000E+00 0.  1.
         -4    1    4    4    0  501 -0.19033946827E+02  0.40947857879E+03  0.75233642203E+03  0.85676431388E+03  0.00000000000E+00 0. -1.
</event>
<event>
 8    1  0.7096247E-006  0.1607255E+04  0.7818608E-02  0.8350314E-01
          1   -1    0    0  502    0  0.00000000000E+00  0.00000000000E+00  0.19281188281E+04  0.19281188281E+04  0.00000000000E+00 0. -1.
         -1   -1    0    0    0  501 -0.00000000000E+00 -0.00000000000E+00 -0.14916900680E+04  0.14916900680E+04  0.00000000000E+00 0.  1.
    9000010    2    1    2  502    0  0.10887328964E+04 -0.62935855884E+03  0.76379974268E+03  0.17790285023E+04  0.10000604231E+04 0.  0.
   -9000010    2    1    2    0  501 -0.10887328964E+04  0.62935855884E+03 -0.32737098259E+03  0.16407803938E+04  0.10017769338E+04 0.  0.
        -13    1    3    3    0    0  0.14004120796E+03 -0.15956852450E+03 -0.23980556330E+03  0.32028170927E+03  0.10566000000E+00 0.  1.
         13    1    4    4    0    0  0.16638758819E+03  0.12213683106E+03  0.88543201583E+02  0.22459328734E+03  0.10566000000E+00 0. -1.
          4    1    3    3  502    0  0.94869168842E+03 -0.46979003434E+03  0.10036053060E+04  0.14587467930E+04  0.00000000000E+00 0.  1.
         -4    1    4    4    0  501 -0.12551204846E+04  0.50722172778E+03 -0.41591418417E+03  0.14161871065E+04  0.00000000000E+00 0. -1.
</event>
<event>
 8    1  0.7096247E-006  0.1152896E+04  0.7818608E-02  0.8642902E-01
          2   -1    0    0  502    0  0.00000000000E+00  0.00000000000E+00  0.22409963795E+04  0.22409963795E+04  0.00000000000E+00 0.  1.
         -2   -1    0    0    0  501 -0.00000000000E+00 -0.00000000000E+00 -0.15576332369E+04  0.15576332369E+04  0.00000000000E+00 0. -1.
    9000010    2    1    2  502    0  0.53152600627E+03  0.12676503533E+03 -0.11512471817E+04  0.16390620650E+04  0.10308079890E+04 0.  0.
   -9000010    2    1    2    0  501 -0.53152600627E+03 -0.12676503533E+03  0.18346103242E+04  0.21595675513E+04  0.99967379556E+03 0.  0.
        -13    1    3    3    0    0  0.83212136895E+03  0.18692282664E+03 -0.76275725189E+03  0.11441873764E+04  0.10566000000E+00 0.  1.
         13    1    4    4    0    0  0.23504135529E+03 -0.26907846986E+03  0.51385048254E+03  0.62585141305E+03  0.10566000000E+00 0. -1.
          4    1    3    3  502    0 -0.30059536268E+03 -0.60157791312E+02 -0.38848992980E+03  0.49487468866E+03  0.00000000000E+00 0.  1.
         -4    1    4    4    0  501 -0.76656736157E+03  0.14231343453E+03  0.13207598417E+04  0.15337161383E+04  0.00000000000E+00 0. -1.
</event>
<event>
 8    1  0.7096247E-006  0.1530991E+04  0.7818608E-02  0.8391884E-01
         -1   -1    0    0    0  501 -0.00000000000E+00  0.00000000000E+00  0.84665107362E+03  0.84665107362E+03  0.00000000000E+00 0.  1.
          1   -1    0    0  502    0  0.00000000000E+00 -0.00000000000E+00 -0.27882301802E+04  0.27882301802E+04  0.00000000000E+00 0. -1.
    9000010    2    1    2  502    0 -0.11055893834E+03  0.11532821887E+04 -0.82012172430E+03  0.17399787065E+04  0.10063017294E+04 0.  0.
   -9000010    2    1    2    0  501  0.11055893834E+03 -0.11532821887E+04 -0.11214573823E+04  0.18949025473E+04  0.99534211097E+03 0.  0.
        -13    1    3    3    0    0 -0.42304912760E+03  0.10071844963E+04 -0.33103362021E+03  0.11414790593E+04  0.10566000000E+00 0.  1.
         13    1    4    4    0    0  0.49469329652E+03 -0.74068731730E+03 -0.95769054439E+03  0.13078648055E+04  0.10566000000E+00 0. -1.
          4    1    3    3  502    0  0.31249018926E+03  0.14609769243E+03 -0.48908810408E+03  0.59849964718E+03  0.00000000000E+00 0.  1.
         -4    1    4    4    0  501 -0.38413435818E+03 -0.41259487145E+03 -0.16376683789E+03  0.58703774178E+03  0.00000000000E+00 0. -1.
</event>
<event>
 8    1  0.7096247E-006  0.1308377E+04  0.7818608E-02  0.8529135E-01
          2   -1    0    0  502    0  0.00000000000E+00  0.00000000000E+00  0.20116208471E+04  0.20116208471E+04  0.00000000000E+00 0.  1.
         -2   -1    0    0    0  501 -0.00000000000E+00 -0.00000000000E+00 -0.92912671796E+03  0.92912671796E+03  0.00000000000E+00 0. -1.
    9000010    2    1    2  502    0  0.74652914040E+03 -0.82767854841E+02  0.97183994539E+02  0.12525942281E+04  0.99769298696E+03 0.  0.
   -9000010    2    1    2    0  501 -0.74652914040E+03  0.82767854841E+02  0.98531013464E+03  0.16881533370E+04  0.11466775277E+04 0.  0.
        -13    1    3    3    0    0  0.58691671726E+00  0.10902078207E+03  0.40779534589E+03  0.42211720018E+03  0.10566000000E+00 0.  1.
         13    1    4    4    0    0  0.10045376099E+03  0.39119502674E+03  0.56261196368E+03  0.69257255207E+03  0.10566000000E+00 0. -1.
          4    1    3    3  502    0  0.74594222368E+03 -0.19178863691E+03 -0.31061135135E+03  0.83047702792E+03  0.00000000000E+00 0.  1.
         -4    1    4    4    0  501 -0.84698290138E+03 -0.30842717190E+03  0.42269817096E+03  0.99558078494E+03  0.00000000000E+00 0. -1.
</event>
<event>
 8    1  0.7096247E-006  0.1333658E+04  0.7818608E-02  0.8512184E-01
          2   -1    0    0  502    0  0.00000000000E+00  0.00000000000E+00  0.23295589957E+04  0.23295589957E+04  0.00000000000E+00 0. -1.
         -2   -1    0    0    0  501 -0.00000000000E+00 -0.00000000000E+00 -0.11068969251E+04  0.11068969251E+04  0.00000000000E+00 0.  1.
    9000010    2    1    2  502    0 -0.84701195612E+03 -0.26751910193E+03  0.15668776364E+04  0.20546417859E+04  0.98866152801E+03 0.  0.
   -9000010    2    1    2    0  501  0.84701195612E+03  0.26751910193E+03 -0.34421556579E+03  0.13818141349E+04  0.10009646467E+04 0.  0.
        -13    1    3    3    0    0 -0.85869950954E+03  0.13013011127E+03  0.13395143412E+04  0.15964327029E+04  0.10566000000E+00 0.  1.
         13    1    4    4    0    0 -0.83657777487E+02  0.24388162814E+03 -0.36942664302E+03  0.45050297226E+03  0.10566000000E+00 0. -1.
          4    1    3    3  502    0  0.11687553427E+02 -0.39764921320E+03  0.22736329524E+03  0.45820908293E+03  0.00000000000E+00 0.  1.
         -4    1    4    4    0  501  0.93066973360E+03  0.23637473793E+02  0.25211077223E+02  0.93131116262E+03  0.00000000000E+00 0. -1.
</event>
<event>
 8    1  0.7096247E-006  0.1069202E+04  0.7818608E-02  0.8712155E-01
          2   -1    0    0  502    0  0.00000000000E+00  0.00000000000E+00  0.28075471656E+04  0.28075471656E+04  0.00000000000E+00 0. -1.
         -2   -1    0    0    0  501 -0.00000000000E+00 -0.00000000000E+00 -0.54629769735E+03  0.54629769735E+03  0.00000000000E+00 0.  1.
    9000010    2    1    2  502    0  0.22463760077E+03 -0.21061074259E+03  0.28479405942E+03  0.11069520479E+04  0.10244101930E+04 0.  0.
   -9000010    2    1    2    0  501 -0.22463760077E+03  0.21061074259E+03  0.19764554088E+04  0.22468928150E+04  0.10233925946E+04 0.  0.
        -13    1    3    3    0    0 -0.96729666880E+02 -0.13494389263E+03  0.61678569313E+03  0.63874179840E+03  0.10566000000E+00 0.  1.
         13    1    4    4    0    0 -0.62532901730E+03  0.17907881946E+03  0.10243212338E+04  0.12134000184E+04  0.10566000000E+00 0. -1.
          4    1    3    3  502    0  0.32136726765E+03 -0.75666849956E+02 -0.33199163371E+03  0.46821024952E+03  0.00000000000E+00 0.  1.
         -4    1    4    4    0  501  0.40069141653E+03  0.31531923129E+02  0.95213417506E+03  0.10334927967E+04  0.00000000000E+00 0. -1.
</event>
<event>
 8    1  0.7096247E-006  0.1433943E+04  0.7818608E-02  0.8448560E-01
          2   -1    0    0  502    0  0.00000000000E+00  0.00000000000E+00  0.25385616755E+04  0.25385616755E+04  0.00000000000E+00 0. -1.
         -2   -1    0    0    0  501 -0.00000000000E+00 -0.00000000000E+00 -0.82043551088E+03  0.82043551088E+03  0.00000000000E+00 0.  1.
    9000010    2    1    2  502    0  0.69300026290E+03 -0.77099092945E+03  0.66983479473E+03  0.15831993824E+04  0.99154689983E+03 0.  0.
   -9000010    2    1    2    0  501 -0.69300026290E+03  0.77099092945E+03  0.10482913699E+04  0.17757978039E+04  0.98988214785E+03 0.  0.
        -13    1    3    3    0    0 -0.14972754667E+03 -0.29301265624E+03  0.50154321793E+03  0.59985028596E+03  0.10566000000E+00 0.  1.
         13    1    4    4    0    0 -0.48393357128E+02  0.72424655119E+03  0.80829347894E+03  0.10863762438E+04  0.10566000000E+00 0. -1.
          4    1    3    3  502    0  0.84272780957E+03 -0.47797827321E+03  0.16829157681E+03  0.98334909646E+03  0.00000000000E+00 0.  1.
         -4    1    4    4    0  501 -0.64460690577E+03  0.46744378265E+02  0.23999789092E+03  0.68942156008E+03  0.00000000000E+00 0. -1.
</event>
<event>
 8    1  0.7096247E-006  0.1258425E+04  0.7818608E-02  0.8563820E-01
         -4   -1    0    0    0  501 -0.00000000000E+00  0.00000000000E+00  0.15389835225E+04  0.15389835225E+04  0.00000000000E+00 0. -1.
          4   -1    0    0  502    0  0.00000000000E+00 -0.00000000000E+00 -0.11296885541E+04  0.11296885541E+04  0.00000000000E+00 0.  1.
    9000010    2    1    2  502    0  0.63851512166E+03 -0.46075168181E+03 -0.19217754797E+03  0.12823144845E+04  0.99368232060E+03 0.  0.
   -9000010    2    1    2    0  501 -0.63851512166E+03  0.46075168181E+03  0.60147251639E+03  0.13863575922E+04  0.96965174811E+03 0.  0.
        -13    1    3    3    0    0  0.28051860304E+03  0.23912191713E+03  0.18268407550E+03  0.41139210068E+03  0.10566000000E+00 0.  1.
         13    1    4    4    0    0 -0.72207824703E+03  0.69327926171E+03  0.50404720413E+03  0.11207572104E+04  0.10566000000E+00 0. -1.
          4    1    3    3  502    0  0.35799651862E+03 -0.69987359894E+03 -0.37486162347E+03  0.87092238379E+03  0.00000000000E+00 0.  1.
         -4    1    4    4    0  501  0.83563125368E+02 -0.23252757990E+03  0.97425312254E+02  0.26560038178E+03  0.00000000000E+00 0. -1.
</event>
<event>
 8    1  0.7096247E-006  0.1195540E+04  0.7818608E-02  0.8609928E-01
         -2   -1    0    0    0  501 -0.00000000000E+00  0.00000000000E+00  0.27071993701E+03  0.27071993701E+03  0.00000000000E+00 0. -1.
          2   -1    0    0  502    0  0.00000000000E+00 -0.00000000000E+00 -0.52850607671E+04  0.52850607671E+04  0.00000000000E+00 0.  1.
    9000010    2    1    2  502    0  0.61414201972E+03  0.27098706281E+03 -0.24342395368E+04  0.27149943939E+04  0.99753096588E+03 0.  0.
   -9000010    2    1    2    0  501 -0.61414201972E+03 -0.27098706281E+03 -0.25801012933E+04  0.28407863102E+04  0.98109111093E+03 0.  0.
        -13    1    3    3    0    0  0.19818514300E+03 -0.27573452983E+03 -0.15935247262E+04  0.16293029019E+04  0.10566000000E+00 0.  1.
         13    1    4    4    0    0 -0.34981630318E+03 -0.19438620529E+03 -0.20472577165E+03  0.44952207456E+03  0.10566000000E+00 0. -1.
          4    1    3    3  502    0  0.41595687672E+03  0.54672159265E+03 -0.84071481061E+03  0.10856914921E+04  0.00000000000E+00 0.  1.
         -4    1    4    4    0  501 -0.26432571655E+03 -0.76600857526E+02 -0.23753755217E+04  0.23912642357E+04  0.00000000000E+00 0. -1.
</event>
<event>
 8    1  0.7096247E-006  0.1636834E+04  0.7818608E-02  0.8334829E-01
          4   -1    0    0  502    0  0.00000000000E+00  0.00000000000E+00  0.14712560906E+04  0.14712560906E+04  0.00000000000E+00 0.  1.
         -4   -1    0    0    0  501 -0.00000000000E+00 -0.00000000000E+00 -0.19176376562E+04  0.19176376562E+04  0.00000000000E+00 0. -1.
    9000010    2    1    2  502    0  0.95240016355E+03  0.86425727947E+03  0.15880358714E+03  0.16287366061E+04  0.98669024323E+03 0.  0.
   -9000010    2    1    2    0  501 -0.95240016355E+03 -0.86425727947E+03 -0.60518515268E+03  0.17601571407E+04  0.10382183654E+04 0.  0.
        -13    1    3    3    0    0 -0.15604958865E+03  0.32670840751E+03  0.16239375443E+03  0.39681431463E+03  0.10566000000E+00 0.  1.
         13    1    4    4    0    0 -0.81799437690E+03 -0.41631571436E+02 -0.28431117915E+03  0.86699529764E+03  0.10566000000E+00 0. -1.
          4    1    3    3  502    0  0.11084497522E+04  0.53754887196E+03 -0.35901672879E+01  0.12319222915E+04  0.00000000000E+00 0.  1.
         -4    1    4    4    0  501 -0.13440578665E+03 -0.82262570803E+03 -0.32087397353E+03  0.89316184306E+03  0.00000000000E+00 0. -1.
</event>
<event>
 8    1  0.7096247E-006  0.1496609E+04  0.7818608E-02  0.8411453E-01
         -1   -1    0    0    0  501 -0.00000000000E+00  0.00000000000E+00  0.51338697724E+04  0.51338697724E+04  0.00000000000E+00 0.  1.
          1   -1    0    0  502    0  0.00000000000E+00 -0.00000000000E+00 -0.45162913105E+03  0.45162913105E+03  0.00000000000E+00 0. -1.
    9000010    2    1    2  502    0 -0.10670610857E+04 -0.44712333483E+03  0.18900024372E+04  0.24353433318E+04  0.10100739052E+04 0.  0.
   -9000010    2    1    2    0  501  0.10670610857E+04  0.44712333483E+03  0.27922382041E+04  0.31501555716E+04  0.88788923832E+03 0.  0.
        -13    1    3    3    0    0 -0.82079995707E+03 -0.76544035217E+03  0.12559228407E+04  0.16843258875E+04  0.10566000000E+00 0.  1.
         13    1    4    4    0    0 -0.27543372336E+02  0.34318618229E+03  0.49037891399E+03  0.59917183139E+03  0.10566000000E+00 0. -1.
          4    1    3    3  502    0 -0.24626112864E+03  0.31831701735E+03  0.63407959646E+03  0.75101744432E+03  0.00000000000E+00 0.  1.
         -4    1    4    4    0  501  0.10946044581E+04  0.10393715253E+03  0.23018592901E+04  0.25509837402E+04  0.00000000000E+00 0. -1.
</event>
<event>
 8    1  0.7096247E-006  0.1176569E+04  0.7818608E-02  0.8624419E-01
          2   -1    0    0  502    0  0.00000000000E+00  0.00000000000E+00  0.59897553492E+03  0.59897553492E+03  0.00000000000E+00 0. -1.
         -2   -1    0    0    0  501 -0.00000000000E+00 -0.00000000000E+00 -0.23230780249E+04  0.23230780249E+04  0.00000000000E+00 0.  1.
    9000010    2    1    2  502    0 -0.24037611188E+02  0.63823498867E+03 -0.76187785364E+03  0.14066977780E+04  0.99519800397E+03 0.  0.
   -9000010    2    1    2    0  501  0.24037611188E+02 -0.63823498867E+03 -0.96222463631E+03  0.15153557818E+04  0.98107348720E+03 0.  0.
        -13    1    3    3    0    0  0.40309346494E+03  0.39010588926E+02 -0.45576088299E+03  0.60969185755E+03  0.10566000000E+00 0.  1.
         13    1    4    4    0    0  0.32674215976E+03 -0.26298849421E+03 -0.94389210341E+03  0.10328870708E+04  0.10566000000E+00 0. -1.
          4    1    3    3  502    0 -0.42713107613E+03  0.59922439975E+03 -0.30611697064E+03  0.79700592041E+03  0.00000000000E+00 0.  1.
         -4    1    4    4    0  501 -0.30270454857E+03 -0.37524649446E+03 -0.18332532898E+02  0.48246871100E+03  0.00000000000E+00 0. -1.
</event>
<event>
 8    1  0.7096247E-006  0.1050389E+04  0.7818608E-02  0.8728635E-01
         -2   -1    0    0    0  501 -0.00000000000E+00  0.00000000000E+00  0.11576761763E+04  0.11576761763E+04  0.00000000000E+00 0. -1.
          2   -1    0    0  502    0  0.00000000000E+00 -0.00000000000E+00 -0.97296484305E+03  0.97296484305E+03  0.00000000000E+00 0.  1.
    9000010    2    1    2  502    0  0.27988316551E+03 -0.20170736578E+03  0.24375509934E+03  0.10696783247E+04  0.98273837925E+03 0.  0.
   -9000010    2    1    2    0  501 -0.27988316551E+03  0.20170736578E+03 -0.59043766143E+02  0.10609626946E+04  0.10015663859E+04 0.  0.
        -13    1    3    3    0    0  0.14967597679E+03 -0.59044992360E+03  0.25306660500E+03  0.65960346272E+03  0.10566000000E+00 0.  1.
         13    1    4    4    0    0 -0.42592058704E+03 -0.23111509486E+03 -0.27338112731E+03  0.55638097152E+03  0.10566000000E+00 0. -1.
          4    1    3    3  502    0  0.13020718872E+03  0.38874255782E+03 -0.93115056536E+01  0.41007486194E+03  0.00000000000E+00 0.  1.
         -4    1    4    4    0  501  0.14603742153E+03  0.43282246064E+03  0.21433736117E+03  0.50458172312E+03  0.00000000000E+00 0. -1.
</event>
<event>
 8    1  0.7096247E-006  0.1144817E+04  0.7818608E-02  0.8649317E-01
         -1   -1    0    0    0  501 -0.00000000000E+00  0.00000000000E+00  0.13553234550E+04  0.13553234550E+04  0.00000000000E+00 0. -1.
          1   -1    0    0  502    0  0.00000000000E+00 -0.00000000000E+00 -0.19102036613E+04  0.19102036613E+04  0.00000000000E+00 0.  1.
    9000010    2    1    2  502    0  0.52260637996E+03  0.10962114155E+03 -0.14213706890E+04  0.18100430080E+04  0.98530545121E+03 0.  0.
   -9000010    2    1    2    0  501 -0.52260637996E+03 -0.10962114155E+03  0.86649048263E+03  0.14554841083E+04  0.10404297238E+04 0.  0.
        -13    1    3    3    0    0  0.52089531244E+03  0.49981453069E+03 -0.10262804228E+04  0.12547501779E+04  0.10566000000E+00 0.  1.
         13    1    4    4    0    0 -0.18872005176E+03  0.29404321600E+02 -0.23111648110E+03  0.29982446709E+03  0.10566000000E+00 0. -1.
          4    1    3    3  502    0  0.17110675224E+01 -0.39019338914E+03 -0.39509026614E+03  0.55529283002E+03  0.00000000000E+00 0.  1.
         -4    1    4    4    0  501 -0.33388632820E+03 -0.13902546315E+03  0.10976069637E+04  0.11556596412E+04  0.00000000000E+00 0. -1.
</event>
<event>
 8    1  0.7096247E-006  0.1502800E+04  0.7818608E-02  0.8407889E-01
         -2   -1    0    0    0  501 -0.00000000000E+00  0.00000000000E+00  0.10390424701E+04  0.10390424701E+04  0.00000000000E+00 0. -1.
          2   -1    0    0  502    0  0.00000000000E+00 -0.00000000000E+00 -0.21736466375E+04  0.21736466375E+04  0.00000000000E+00 0.  1.
    9000010    2    1    2  502    0 -0.41423434376E+03  0.10504200095E+04 -0.56509169528E+03  0.16137412350E+04  0.10049178383E+04 0.  0.
   -9000010    2    1    2    0  501  0.41423434376E+03 -0.10504200095E+04 -0.56951247213E+03  0.15989478725E+04  0.97842606010E+03 0.  0.
        -13    1    3    3    0    0 -0.59821523084E+03  0.21794716981E+03 -0.10604395246E+03  0.64545159560E+03  0.10566000000E+00 0.  1.
         13    1    4    4    0    0 -0.31285208809E+03 -0.18467583587E+03 -0.12647144972E+03  0.38467730910E+03  0.10566000000E+00 0. -1.
          4    1    3    3  502    0  0.18398088708E+03  0.83247283969E+03 -0.45904774282E+03  0.96828963943E+03  0.00000000000E+00 0.  1.
         -4    1    4    4    0  501  0.72708643185E+03 -0.86574417363E+03 -0.44304102241E+03  0.12142705634E+04  0.00000000000E+00 0. -1.
</event>
<event>
 8    1  0.7096247E-006  0.1371075E+04  0.7818608E-02  0.8487793E-01
          1   -1    0    0  502    0  0.00000000000E+00  0.00000000000E+00  0.12217433046E+04  0.12217433046E+04  0.00000000000E+00 0. -1.
         -1   -1    0    0    0  501 -0.00000000000E+00 -0.00000000000E+00 -0.15685314300E+04  0.15685314300E+04  0.00000000000E+00 0.  1.
    9000010    2    1    2  502    0 -0.77669538415E+02 -0.92285722171E+03  0.18371588946E+02  0.13767096560E+04  0.10184762898E+04 0.  0.
   -9000010    2    1    2    0  501  0.77669538415E+02  0.92285722171E+03 -0.36515971431E+03  0.14135650785E+04  0.10035569767E+04 0.  0.
        -13    1    3    3    0    0  0.14220305379E+03  0.17534867032E+03  0.11347964299E+03  0.25267866001E+03  0.10566000000E+00 0.  1.
         13    1    4    4    0    0 -0.32695366858E+02  0.66108278803E+03  0.27226387784E+03  0.71570040519E+03  0.10566000000E+00 0. -1.
          4    1    3    3  502    0 -0.21987259221E+03 -0.10982058920E+04 -0.95108054048E+02  0.11240309960E+04  0.00000000000E+00 0.  1.
         -4    1    4    4    0  501  0.11036490527E+03  0.26177443368E+03 -0.63742359216E+03  0.69786467333E+03  0.00000000000E+00 0. -1.
</event>
<event>
 8    1  0.7096247E-006  0.1078534E+04  0.7818608E-02  0.8704111E-01
         -2   -1    0    0    0  501 -0.00000000000E+00  0.00000000000E+00  0.49810555274E+03  0.49810555274E+03  0.00000000000E+00 0. -1.
          2   -1    0    0  502    0  0.00000000000E+00 -0.00000000000E+00 -0.30507477741E+04  0.30507477741E+04  0.00000000000E+00 0.  1.
    9000010    2    1    2  502    0 -0.21013532054E+03  0.35074041450E+03 -0.42022996714E+03  0.11607833766E+04  0.10018229040E+04 0.  0.
   -9000010    2    1    2    0  501  0.21013532054E+03 -0.35074041450E+03 -0.21324122542E+04  0.23880699502E+04  0.99424361890E+03 0.  0.
        -13    1    3    3    0    0 -0.31578784505E+03 -0.29124237545E+03 -0.20040635357E+03  0.47403249051E+03  0.10566000000E+00 0.  1.
         13    1    4    4    0    0 -0.11631743674E+03 -0.48072961211E+03 -0.44779332227E+03  0.66719530625E+03  0.10566000000E+00 0. -1.
          4    1    3    3  502    0  0.10565252451E+03  0.64198278995E+03 -0.21982361356E+03  0.68675088614E+03  0.00000000000E+00 0.  1.
         -4    1    4    4    0  501  0.32645275729E+03  0.12998919762E+03 -0.16846189319E+04  0.17208746439E+04  0.00000000000E+00 0. -1.
</event>
<event>
 8    1  0.7096247E-006  0.1278574E+04  0.7818608E-02  0.8549632E-01
          1   -1    0    0  502    0  0.00000000000E+00  0.00000000000E+00  0.24057758852E+04  0.24057758852E+04  0.00000000000E+00 0. -1.
         -1   -1    0    0    0  501 -0.00000000000E+00 -0.00000000000E+00 -0.82466074971E+03  0.82466074971E+03  0.00000000000E+00 0.  1.
    9000010    2    1    2  502    0  0.71530291330E+02 -0.79795293700E+03  0.14683017349E+04  0.19470927276E+04  0.99670187758E+03 0.  0.
   -9000010    2    1    2    0  501 -0.71530291330E+02  0.79795293700E+03  0.11281340059E+03  0.12833439073E+04  0.99619237546E+03 0.  0.
        -13    1    3    3    0    0  0.51414147221E+03 -0.28106605488E+03  0.81485853061E+03  0.10036603094E+04  0.10566000000E+00 0.  1.
         13    1    4    4    0    0  0.18670662420E+03  0.31630716391E+03 -0.39354235545E+03  0.53831699041E+03  0.10566000000E+00 0. -1.
          4    1    3    3  502    0 -0.44261118088E+03 -0.51688688213E+03  0.65344320429E+03  0.94343241814E+03  0.00000000000E+00 0.  1.
         -4    1    4    4    0  501 -0.25823691553E+03  0.48164577309E+03  0.50635575604E+03  0.74502691694E+03  0.00000000000E+00 0. -1.
</event>
<event>
 8    1  0.7096247E-006  0.1252722E+04  0.7818608E-02  0.8567885E-01
         -1   -1    0    0    0  501 -0.00000000000E+00  0.00000000000E+00  0.15989440844E+04  0.15989440844E+04  0.00000000000E+00 0.  1.
          1   -1    0    0  502    0  0.00000000000E+00 -0.00000000000E+00 -0.10044855614E+04  0.10044855614E+04  0.00000000000E+00 0. -1.
    9000010    2    1    2  502    0  0.25049038883E+03  0.74568573280E+03  0.10188791211E+03  0.12636799482E+04  0.98372415740E+03 0.  0.
   -9000010    2    1    2    0  501 -0.25049038883E+03 -0.74568573280E+03  0.49257061093E+03  0.13397496976E+04  0.96618362565E+03 0.  0.
        -13    1    3    3    0    0 -0.25206316976E+03  0.65787394873E+03 -0.10665016238E+03  0.71253648486E+03  0.10566000000E+00 0.  1.
         13    1    4    4    0    0 -0.13904230005E+02  0.23087795896E+03  0.28831126131E+02  0.23308625988E+03  0.10566000000E+00 0. -1.
          4    1    3    3  502    0  0.50255355859E+03  0.87811784073E+02  0.20853807449E+03  0.55114346334E+03  0.00000000000E+00 0.  1.
         -4    1    4    4    0  501 -0.23658615883E+03 -0.97656369177E+03  0.46373948480E+03  0.11066634377E+04  0.00000000000E+00 0. -1.
</event>
<event>
 8    1  0.7096247E-006  0.1110502E+04  0.7818608E-02  0.8677187E-01
         -2   -1    0    0    0  501 -0.00000000000E+00  0.00000000000E+00  0.94030505671E+03  0.94030505671E+03  0.00000000000E+00 0.  1.
          2   -1    0    0  502    0  0.00000000000E+00 -0.00000000000E+00 -0.13859564615E+04  0.13859564615E+04  0.00000000000E+00 0. -1.
    9000010    2    1    2  502    0 -0.39057413058E+03  0.24611323917E+03 -0.49135530941E+03  0.12095568131E+04  0.10042299369E+04 0.  0.
   -9000010    2    1    2    0  501  0.39057413058E+03 -0.24611323917E+03  0.45703904641E+02  0.11167047050E+04  0.10157857419E+04 0.  0.
        -13    1    3    3    0    0 -0.29311462908E+03  0.63519242598E+03 -0.36480628646E+03  0.78896719932E+03  0.10566000000E+00 0.  1.
         13    1    4    4    0    0  0.39097010184E+03 -0.56204363872E+03 -0.20356796575E+03  0.71427627722E+03  0.10566000000E+00 0. -1.
          4    1    3    3  502    0 -0.97459501493E+02 -0.38907918682E+03 -0.12654902296E+03  0.42058961382E+03  0.00000000000E+00 0.  1.
         -4    1    4    4    0  501 -0.39597126720E+00  0.31593039955E+03  0.24927187039E+03  0.40242842782E+03  0.00000000000E+00 0. -1.
</event>
<event>
 8    1  0.7096247E-006  0.1551239E+04  0.7818608E-02  0.8380607E-01
          2   -1    0    0  502    0  0.00000000000E+00  0.00000000000E+00  0.21572368184E+04  0.21572368184E+04  0.00000000000E+00 0.  1.
         -2   -1    0    0    0  501 -0.00000000000E+00 -0.00000000000E+00 -0.11191856878E+04  0.11191856878E+04  0.00000000000E+00 0. -1.
    9000010    2    1    2  502    0  0.79432198759E+03 -0.88734712428E+03  0.61177879026E+03  0.16634187224E+04  0.98709483779E+03 0.  0.
   -9000010    2    1    2    0  501 -0.79432198759E+03  0.88734712428E+03  0.42627234025E+03  0.16130037838E+04  0.10008700013E+04 0.  0.
        -13    1    3    3    0    0 -0.14998150210E+03 -0.46109748547E+03  0.34034905010E+03  0.59240427846E+03  0.10566000000E+00 0.  1.
         13    1    4    4    0    0 -0.73900055696E+03  0.15329645773E+03 -0.14739215960E+02  0.75487673350E+03  0.10566000000E+00 0. -1.
          4    1    3    3  502    0  0.94430348969E+03 -0.42624963881E+03  0.27142974017E+03  0.10710144439E+04  0.00000000000E+00 0.  1.
         -4    1    4    4    0  501 -0.55321430636E+02  0.73405066655E+03  0.44101155621E+03  0.85812705030E+03  0.00000000000E+00 0. -1.
</event>
<event>
 8    1  0.7096247E-006  0.1378928E+04  0.7818608E-02  0.8482775E-01
          2   -1    0    0  502    0  0.00000000000E+00  0.00000000000E+00  0.31655056826E+04  0.31655056826E+04  0.00000000000E+00 0.  1.
         -2   -1    0    0    0  501 -0.00000000000E+00 -0.00000000000E+00 -0.65051960662E+03  0.65051960662E+03  0.00000000000E+00 0. -1.
    9000010    2    1    2  502    0 -0.62136822881E+03  0.72403976487E+03  0.17943803896E+04  0.22695278450E+04  0.10102591747E+04 0.  0.
   -9000010    2    1    2    0  501  0.62136822881E+03 -0.72403976487E+03  0.72060568638E+03  0.15464974441E+04  0.98084133915E+03 0.  0.
        -13    1    3    3    0    0 -0.39851742807E+03  0.96761055262E+03  0.12227237145E+04  0.16093910696E+04  0.10566000000E+00 0.  1.
         13    1    4    4    0    0  0.74375494817E+03 -0.25138953730E+03  0.70941720103E+03  0.10581308514E+04  0.10566000000E+00 0. -1.
          4    1    3    3  502    0 -0.22285080074E+03 -0.24357078775E+03  0.57165667511E+03  0.66013677540E+03  0.00000000000E+00 0.  1.
         -4    1    4    4    0  501 -0.12238671936E+03 -0.47265022757E+03  0.11188485347E+02  0.48836659274E+03  0.00000000000E+00 0. -1.
</event>
<event>
 8    1  0.7096247E-006  0.1091031E+04  0.7818608E-02  0.8693471E-01
         -2   -1    0    0    0  501 -0.00000000000E+00  0.00000000000E+00  0.62938415624E+03  0.62938415624E+03  0.00000000000E+00 0. -1.
          2   -1    0    0  502    0  0.00000000000E+00 -0.00000000000E+00 -0.23960129265E+04  0.23960129265E+04  0.00000000000E+00 0.  1.
    9000010    2    1    2  502    0  0.41365712190E+03  0.43542531528E+02 -0.20587104558E+03  0.11351804912E+04  0.10359747553E+04 0.  0.
   -9000010    2    1    2    0  501 -0.41365712190E+03 -0.43542531528E+02 -0.15607577247E+04  0.18902165915E+04  0.98180747659E+03 0.  0.
        -13    1    3    3    0    0  0.66154800283E+03 -0.60837573898E+02 -0.42465417244E+03  0.78846569221E+03  0.10566000000E+00 0.  1.
         13    1    4    4    0    0 -0.22732695104E+03 -0.49648303127E+03 -0.59642443227E+03  0.80863777897E+03  0.10566000000E+00 0. -1.
          4    1    3    3  502    0 -0.24789088093E+03  0.10438010543E+03  0.21878312686E+03  0.34671479902E+03  0.00000000000E+00 0.  1.
         -4    1    4    4    0  501 -0.18633017086E+03  0.45294049974E+03 -0.96433329239E+03  0.10815788125E+04  0.00000000000E+00 0. -1.
</event>
<event>
 8    1  0.7096247E-006  0.1560963E+04  0.7818608E-02  0.8375254E-01
          2   -1    0    0  502    0  0.00000000000E+00  0.00000000000E+00  0.24914540139E+04  0.24914540139E+04  0.00000000000E+00 0.  1.
         -2   -1    0    0    0  501 -0.00000000000E+00 -0.00000000000E+00 -0.99481447673E+03  0.99481447673E+03  0.00000000000E+00 0. -1.
    9000010    2    1    2  502    0 -0.11913557583E+04  0.12231322724E+03  0.97464437154E+03  0.18395529877E+04  0.99986722883E+03 0.  0.
   -9000010    2    1    2    0  501  0.11913557583E+04 -0.12231322724E+03  0.52199516565E+03  0.16467155030E+04  0.10024489645E+04 0.  0.
        -13    1    3    3    0    0 -0.81903026242E+03  0.11389867102E+02  0.31711294788E+02  0.81972307349E+03  0.10566000000E+00 0.  1.
         13    1    4    4    0    0  0.39029917542E+03 -0.37553724324E+03  0.59356777610E+03  0.80354488573E+03  0.10566000000E+00 0. -1.
          4    1    3    3  502    0 -0.37232549583E+03  0.11092336014E+03  0.94293307675E+03  0.10198299142E+04  0.00000000000E+00 0.  1.
         -4    1    4    4    0  501  0.80105658284E+03  0.25322401600E+03 -0.71572610454E+02  0.84317061723E+03  0.00000000000E+00 0. -1.
</event>
<event>
 8    1  0.7096247E-006  0.1023341E+04  0.7818608E-02  0.8752965E-01
         -1   -1    0    0    0  501 -0.00000000000E+00  0.00000000000E+00  0.81835758703E+03  0.81835758703E+03  0.00000000000E+00 0. -1.
          1   -1    0    0  502    0  0.00000000000E+00 -0.00000000000E+00 -0.12870678973E+04  0.12870678973E+04  0.00000000000E+00 0.  1.
    9000010    2    1    2  502    0  0.67933739103E+02  0.24440551610E+03 -0.31444527980E+03  0.10717661093E+04  0.99270222619E+03 0.  0.
   -9000010    2    1    2    0  501 -0.67933739103E+02 -0.24440551610E+03 -0.15426503044E+03  0.10336593750E+04  0.99010350705E+03 0.  0.
        -13    1    3    3    0    0 -0.13760629938E+03  0.53122240798E+03  0.66191606976E+02  0.55273328140E+03  0.10566000000E+00 0.  1.
         13    1    4    4    0    0  0.35875086235E+03 -0.13272734609E+03  0.23199934372E+03  0.44737281577E+03  0.10566000000E+00 0. -1.
          4    1    3    3  502    0  0.20554003848E+03 -0.28681689187E+03 -0.38063688678E+03  0.51903282792E+03  0.00000000000E+00 0.  1.
         -4    1    4    4    0  501 -0.42668460145E+03 -0.11167817001E+03 -0.38626437416E+03  0.58628655922E+03  0.00000000000E+00 0. -1.
</event>
<event>
 8    1  0.7096247E-006  0.1115208E+04  0.7818608E-02  0.8673303E-01
         -1   -1    0    0    0  501 -0.00000000000E+00  0.00000000000E+00  0.97389618330E+03  0.97389618330E+03  0.00000000000E+00 0. -1.
          1   -1    0    0  502    0  0.00000000000E+00 -0.00000000000E+00 -0.13359849562E+04  0.13359849562E+04  0.00000000000E+00 0.  1.
    9000010    2    1    2  502    0 -0.34701868795E+03  0.32289410640E+03 -0.42495485914E+03  0.12024153277E+04  0.10200653970E+04 0.  0.
   -9000010    2    1    2    0  501  0.34701868795E+03 -0.32289410640E+03  0.62866086194E+02  0.11074658119E+04  0.99892232227E+03 0.  0.
        -13    1    3    3    0    0 -0.67766212851E+03  0.39426564901E+03 -0.25934413197E+03  0.82579098588E+03  0.10566000000E+00 0.  1.
         13    1    4    4    0    0  0.37527398596E+03 -0.46736693416E+03 -0.33260532275E+03  0.68548430148E+03  0.10566000000E+00 0. -1.
          4    1    3    3  502    0  0.33064344056E+03 -0.71371542605E+02 -0.16561072717E+03  0.37662434180E+03  0.00000000000E+00 0.  1.
         -4    1    4    4    0  501 -0.28255298008E+02  0.14447282776E+03  0.39547140894E+03  0.42198151040E+03  0.00000000000E+00 0. -1.
</event>
<event>
 8    1  0.7096247E-006  0.1119444E+04  0.7818608E-02  0.8669825E-01
         -1   -1    0    0    0  501 -0.00000000000E+00  0.00000000000E+00  0.41634426173E+03  0.41634426173E+03  0.00000000000E+00 0.  1.
          1   -1    0    0  502    0  0.00000000000E+00 -0.00000000000E+00 -0.31963456335E+04  0.31963456335E+04  0.00000000000E+00 0. -1.
    9000010    2    1    2  502    0  0.52451991162E+03  0.27596870158E+03 -0.91949456132E+03  0.14245332169E+04  0.91243891625E+03 0.  0.
   -9000010    2    1    2    0  501 -0.52451991162E+03 -0.27596870158E+03 -0.18605068105E+04  0.21881566783E+04  0.98755465427E+03 0.  0.
        -13    1    3    3    0    0  0.70431553349E+03  0.41156821541E+03 -0.52439754287E+03  0.96976366233E+03  0.10566000000E+00 0.  1.
         13    1    4    4    0    0 -0.36957677533E+03  0.30226080770E+03 -0.12267078435E+04  0.13163436987E+04  0.10566000000E+00 0. -1.
          4    1    3    3  502    0 -0.17979562187E+03 -0.13559951383E+03 -0.39509701845E+03  0.45476955459E+03  0.00000000000E+00 0.  1.
         -4    1    4    4    0  501 -0.15494313628E+03 -0.57822950927E+03 -0.63379896704E+03  0.87181297966E+03  0.00000000000E+00 0. -1.
</event>
<event>
 8    1  0.7096247E-006  0.1337236E+04  0.7818608E-02  0.8509816E-01
          1   -1    0    0  502    0  0.00000000000E+00  0.00000000000E+00  0.56338403112E+03  0.56338403112E+03  0.00000000000E+00 0. -1.
         -1   -1    0    0    0  501 -0.00000000000E+00 -0.00000000000E+00 -0.33020408014E+04  0.33020408014E+04  0.00000000000E+00 0.  1.
    9000010    2    1    2  502    0  0.48742581591E+03 -0.75102767006E+03 -0.98870341243E+03  0.16629731535E+04  0.99313583374E+03 0.  0.
   -9000010    2    1    2    0  501 -0.48742581591E+03  0.75102767006E+03 -0.17499533578E+04  0.22024516790E+04  0.99339325376E+03 0.  0.
        -13    1    3    3    0    0  0.72120201167E+03 -0.80509411278E+03 -0.70079584979E+03  0.12881862079E+04  0.10566000000E+00 0.  1.
         13    1    4    4    0    0 -0.17859949566E+02  0.19425344949E+03  0.96428784091E+02  0.21760492183E+03  0.10566000000E+00 0. -1.
          4    1    3    3  502    0 -0.23377619576E+03  0.54066442712E+02 -0.28790756264E+03  0.37478694555E+03  0.00000000000E+00 0.  1.
         -4    1    4    4    0  501 -0.46956586634E+03  0.55677422057E+03 -0.18463821419E+04  0.19848467572E+04  0.00000000000E+00 0. -1.
</event>
<event>
 8    1  0.7096247E-006  0.1462435E+04  0.7818608E-02  0.8431452E-01
          4   -1    0    0  502    0  0.00000000000E+00  0.00000000000E+00  0.22903145058E+04  0.22903145058E+04  0.00000000000E+00 0.  1.
         -4   -1    0    0    0  501 -0.00000000000E+00 -0.00000000000E+00 -0.11559789742E+04  0.11559789742E+04  0.00000000000E+00 0. -1.
    9000010    2    1    2  502    0  0.10718398557E+04  0.51350952065E+00 -0.18773458565E+03  0.14760764709E+04  0.99735476803E+03 0.  0.
   -9000010    2    1    2    0  501 -0.10718398557E+04 -0.51350952065E+00  0.13220701172E+04  0.19702170091E+04  0.99249419551E+03 0.  0.
        -13    1    3    3    0    0  0.60822764847E+03  0.27749857253E+03  0.31428485239E+03  0.73872952406E+03  0.10566000000E+00 0.  1.
         13    1    4    4    0    0 -0.45875685910E+03 -0.13068189434E+02 -0.55540524329E+02  0.46229146039E+03  0.10566000000E+00 0. -1.
          4    1    3    3  502    0  0.46361220721E+03 -0.27698506301E+03 -0.50201943804E+03  0.73734694681E+03  0.00000000000E+00 0.  1.
         -4    1    4    4    0  501 -0.61308299658E+03  0.12554679913E+02  0.13776106416E+04  0.15079255487E+04  0.00000000000E+00 0. -1.
</event>
<event>
 8    1  0.7096247E-006  0.1613604E+04  0.7818608E-02  0.8346961E-01
         -1   -1    0    0    0  501 -0.00000000000E+00  0.00000000000E+00  0.18137063599E+04  0.18137063599E+04  0.00000000000E+00 0. -1.
          1   -1    0    0  502    0  0.00000000000E+00 -0.00000000000E+00 -0.14369110813E+04  0.14369110813E+04  0.00000000000E+00 0.  1.
    9000010    2    1    2  502    0  0.85343836083E+03  0.93074345428E+03  0.23685006512E+03  0.16250906753E+04  0.99507855774E+03 0.  0.
   -9000010    2    1    2    0  501 -0.85343836083E+03 -0.93074345428E+03  0.13994521349E+03  0.16255267660E+04  0.10139586731E+04 0.  0.
        -13    1    3    3    0    0  0.43774381630E+02  0.52695776289E+03 -0.26393073430E+03  0.59098233817E+03  0.10566000000E+00 0.  1.
         13    1    4    4    0    0  0.19548786360E+03 -0.33139841635E+03 -0.91462994911E+02  0.39548186530E+03  0.10566000000E+00 0. -1.
          4    1    3    3  502    0  0.80966397920E+03  0.40378569139E+03  0.50078079942E+03  0.10341083371E+04  0.00000000000E+00 0.  1.
         -4    1    4    4    0  501 -0.10489262244E+04 -0.59934503793E+03  0.23140820840E+03  0.12300449007E+04  0.00000000000E+00 0. -1.
</event>
<event>
 8    1  0.7096247E-006  0.1217391E+04  0.7818608E-02  0.8593580E-01
          2   -1    0    0  502    0  0.00000000000E+00  0.00000000000E+00  0.12391780910E+04  0.12391780910E+04  0.00000000000E+00 0. -1.
         -2   -1    0    0    0  501 -0.00000000000E+00 -0.00000000000E+00 -0.12001186292E+04  0.12001186292E+04  0.00000000000E+00 0.  1.
    9000010    2    1    2  502    0  0.39193857390E+03 -0.52644936294E+03 -0.49641351004E+02  0.12357494238E+04  0.10458716925E+04 0.  0.
   -9000010    2    1    2    0  501 -0.39193857390E+03  0.52644936294E+03  0.88700812741E+02  0.12035472964E+04  0.10049345666E+04 0.  0.
        -13    1    3    3    0    0 -0.25572860452E+03 -0.12413650139E+03 -0.31885145717E+03  0.42716888118E+03  0.10566000000E+00 0.  1.
         13    1    4    4    0    0 -0.42397497765E+03 -0.10398097912E+03  0.30914540997E+03  0.53491842496E+03  0.10566000000E+00 0. -1.
          4    1    3    3  502    0  0.64766717842E+03 -0.40231286154E+03  0.26921010616E+03  0.80858054257E+03  0.00000000000E+00 0.  1.
         -4    1    4    4    0  501  0.32036403751E+02  0.63043034205E+03 -0.22044459723E+03  0.66862887149E+03  0.00000000000E+00 0. -1.
</event>
<event>
 8    1  0.7096247E-006  0.1542567E+04  0.7818608E-02  0.8385414E-01
         -2   -1    0    0    0  501 -0.00000000000E+00  0.00000000000E+00  0.14801317532E+04  0.14801317532E+04  0.00000000000E+00 0.  1.
          2   -1    0    0  502    0  0.00000000000E+00 -0.00000000000E+00 -0.17838139508E+04  0.17838139508E+04  0.00000000000E+00 0. -1.
    9000010    2    1    2  502    0 -0.41018847531E+03 -0.10936840358E+04  0.36061504964E+03  0.15885395606E+04  0.10144039462E+04 0.  0.
   -9000010    2    1    2    0  501  0.41018847531E+03  0.10936840358E+04 -0.66429724731E+03  0.16754061435E+04  0.10006475690E+04 0.  0.
        -13    1    3    3    0    0  0.14722227833E+03 -0.83122044822E+03 -0.54042661863E+02  0.84588560293E+03  0.10566000000E+00 0.  1.
         13    1    4    4    0    0  0.65029224954E+03  0.31435899145E+03 -0.29500757301E+03  0.78021219205E+03  0.10566000000E+00 0. -1.
          4    1    3    3  502    0 -0.55741075364E+03 -0.26246358755E+03  0.41465771150E+03  0.74265395762E+03  0.00000000000E+00 0.  1.
         -4    1    4    4    0  501 -0.24010377423E+03  0.77932504432E+03 -0.36928967430E+03  0.89519395141E+03  0.00000000000E+00 0. -1.
</event>
<event>
 8    1  0.7096247E-006  0.1478986E+04  0.7818608E-02  0.8421696E-01
         -2   -1    0    0    0  501 -0.00000000000E+00  0.00000000000E+00  0.78466972807E+03  0.78466972807E+03  0.00000000000E+00 0.  1.
          2   -1    0    0  502    0  0.00000000000E+00 -0.00000000000E+00 -0.27910323636E+04  0.27910323636E+04  0.00000000000E+00 0. -1.
    9000010    2    1    2  502    0 -0.93301580635E+03 -0.61393460526E+03 -0.93214155202E+03  0.17292096240E+04  0.93479615769E+03 0.  0.
   -9000010    2    1    2    0  501  0.93301580635E+03  0.61393460526E+03 -0.10742210835E+04  0.18464924676E+04  0.10040663834E+04 0.  0.
        -13    1    3    3    0    0 -0.67857799252E+03 -0.84698947182E+03 -0.83910931956E+03  0.13718468277E+04  0.10566000000E+00 0.  1.
         13    1    4    4    0    0  0.68707573258E+03  0.17024640335E+03 -0.11328568478E+04  0.13358224242E+04  0.10566000000E+00 0. -1.
          4    1    3    3  502    0 -0.25443781383E+03  0.23305486656E+03 -0.93032232457E+02  0.35736279634E+03  0.00000000000E+00 0.  1.
         -4    1    4    4    0  501  0.24594007377E+03  0.44368820190E+03  0.58635764328E+02  0.51067004343E+03  0.00000000000E+00 0. -1.
</event>
<event>
 8    1  0.7096247E-006  0.1205568E+04  0.7818608E-02  0.8602381E-01
         -1   -1    0    0    0  501 -0.00000000000E+00  0.00000000000E+00  0.30605299394E+04  0.30605299394E+04  0.00000000000E+00 0.  1.
          1   -1    0    0  502    0  0.00000000000E+00 -0.00000000000E+00 -0.85419891251E+03  0.85419891251E+03  0.00000000000E+00 0. -1.
    9000010    2    1    2  502    0 -0.68070441675E+03 -0.11746871653E+03 -0.20089712374E+03  0.12227396227E+04  0.98872398988E+03 0.  0.
   -9000010    2    1    2    0  501  0.68070441675E+03  0.11746871653E+03  0.24072281506E+04  0.26919892292E+04  0.98737087197E+03 0.  0.
        -13    1    3    3    0    0 -0.83698072445E+03 -0.23234985675E+03  0.89814606533E+02  0.87326391414E+03  0.10566000000E+00 0.  1.
         13    1    4    4    0    0  0.70928915896E+02 -0.39608100600E+03  0.93139994842E+03  0.10146018675E+04  0.10566000000E+00 0. -1.
          4    1    3    3  502    0  0.15627630770E+03  0.11488114023E+03 -0.29071173028E+03  0.34947570852E+03  0.00000000000E+00 0.  1.
         -4    1    4    4    0  501  0.60977550085E+03  0.51354972252E+03  0.14758282022E+04  0.16773873617E+04  0.00000000000E+00 0. -1.
</event>
<event>
 8    1  0.7096247E-006  0.1113914E+04  0.7818608E-02  0.8674369E-01
         -2   -1    0    0    0  501 -0.00000000000E+00  0.00000000000E+00  0.12957798898E+04  0.12957798898E+04  0.00000000000E+00 0. -1.
          2   -1    0    0  502    0  0.00000000000E+00 -0.00000000000E+00 -0.12770026036E+04  0.12770026036E+04  0.00000000000E+00 0.  1.
    9000010    2    1    2  502    0 -0.47790230505E+03  0.17356609980E+03 -0.63395630054E+03  0.12844387636E+04  0.99466906168E+03 0.  0.
   -9000010    2    1    2    0  501  0.47790230505E+03 -0.17356609980E+03  0.65273358674E+03  0.12883437298E+04  0.98754879714E+03 0.  0.
        -13    1    3    3    0    0  0.41367777017E+02  0.25420890909E+03  0.18096901320E+03  0.31477493124E+03  0.10566000000E+00 0.  1.
         13    1    4    4    0    0  0.23899820914E+03  0.22479987110E+03  0.74563566989E+03  0.81463346936E+03  0.10566000000E+00 0. -1.
          4    1    3    3  502    0 -0.51927008207E+03 -0.80642809288E+02 -0.81492531373E+03  0.96966383236E+03  0.00000000000E+00 0.  1.
         -4    1    4    4    0  501  0.23890409591E+03 -0.39836597090E+03 -0.92902083152E+02  0.47371026046E+03  0.00000000000E+00 0. -1.
</event>
<event>
 8    1  0.7096247E-006  0.1056169E+04  0.7818608E-02  0.8723533E-01
          2   -1    0    0  502    0  0.00000000000E+00  0.00000000000E+00  0.19211617516E+04  0.19211617516E+04  0.00000000000E+00 0.  1.
         -2   -1    0    0    0  501 -0.00000000000E+00 -0.00000000000E+00 -0.58320253728E+03  0.58320253728E+03  0.00000000000E+00 0. -1.
    9000010    2    1    2  502    0 -0.29768900182E+03 -0.20876522134E+03  0.75559190623E+03  0.13035973831E+04  0.99812090900E+03 0.  0.
   -9000010    2    1    2    0  501  0.29768900182E+03  0.20876522134E+03  0.58236730811E+03  0.12007669058E+04  0.98513340268E+03 0.  0.
        -13    1    3    3    0    0  0.19277011827E+03 -0.44764740817E+03  0.20574859370E+03  0.52903782049E+03  0.10566000000E+00 0.  1.
         13    1    4    4    0    0  0.52924934585E+03  0.40736396354E+03  0.17241620462E+03  0.68976635729E+03  0.10566000000E+00 0. -1.
          4    1    3    3  502    0 -0.49045912009E+03  0.23888218683E+03  0.54984331253E+03  0.77455956259E+03  0.00000000000E+00 0.  1.
         -4    1    4    4    0  501 -0.23156034403E+03 -0.19859874219E+03  0.40995110349E+03  0.51100054852E+03  0.00000000000E+00 0. -1.
</event>
<event>
 8    1  0.7096247E-006  0.1291119E+04  0.7818608E-02  0.8540934E-01
         -2   -1    0    0    0  501 -0.00000000000E+00  0.00000000000E+00  0.85417470587E+03  0.85417470587E+03  0.00000000000E+00 0.  1.
          2   -1    0    0  502    0  0.00000000000E+00 -0.00000000000E+00 -0.22030047515E+04  0.22030047515E+04  0.00000000000E+00 0. -1.
    9000010    2    1    2  502    0  0.45672454532E+03 -0.70050476076E+03 -0.15928951031E+03  0.13036285451E+04  0.98730441374E+03 0.  0.
   -9000010    2    1    2    0  501 -0.45672454532E+03  0.70050476076E+03 -0.11895405354E+04  0.17535509123E+04  0.98011728208E+03 0.  0.
        -13    1    3    3    0    0  0.62424541856E+03 -0.27003714793E+03 -0.39344995708E+03  0.78575141345E+03  0.10566000000E+00 0.  1.
         13    1    4    4    0    0 -0.60727146431E+03  0.81370932814E+03 -0.71170401579E+03  0.12399290783E+04  0.10566000000E+00 0. -1.
          4    1    3    3  502    0 -0.16752087324E+03 -0.43046761283E+03  0.23416044676E+03  0.51787713166E+03  0.00000000000E+00 0.  1.
         -4    1    4    4    0  501  0.15054691899E+03 -0.11320456737E+03 -0.47783651956E+03  0.51362183396E+03  0.00000000000E+00 0. -1.
</event>
<event>
 8    1  0.7096247E-006  0.1688802E+04  0.7818608E-02  0.8308423E-01
         -2   -1    0    0    0  501 -0.00000000000E+00  0.00000000000E+00  0.13855091345E+04  0.13855091345E+04  0.00000000000E+00 0.  1.
          2   -1    0    0  502    0  0.00000000000E+00 -0.00000000000E+00 -0.20639463690E+04  0.20639463690E+04  0.00000000000E+00 0. -1.
    9000010    2    1    2  502    0 -0.13570966028E+04 -0.42096340783E+02 -0.25028228666E+03  0.17060387558E+04  0.10022193983E+04 0.  0.
   -9000010    2    1    2    0  501  0.13570966028E+04  0.42096340783E+02 -0.42815494790E+03  0.17434167476E+04  0.10063309621E+04 0.  0.
        -13    1    3    3    0    0 -0.84928968709E+03  0.46630599895E+03 -0.15411754368E+03  0.98106395596E+03  0.10566000000E+00 0.  1.
         13    1    4    4    0    0  0.65107867328E+03 -0.39085952955E+03 -0.50451297070E+03  0.91170607074E+03  0.10566000000E+00 0. -1.
          4    1    3    3  502    0 -0.50780691568E+03 -0.50840233973E+03 -0.96164742976E+02  0.72497479987E+03  0.00000000000E+00 0.  1.
         -4    1    4    4    0  501  0.70601792949E+03  0.43295587033E+03  0.76358022804E+02  0.83171067689E+03  0.00000000000E+00 0. -1.
</event>
<event>
 8    1  0.7096247E-006  0.1137287E+04  0.7818608E-02  0.8655345E-01
         -2   -1    0    0    0  501 -0.00000000000E+00  0.00000000000E+00  0.10197907827E+04  0.10197907827E+04  0.00000000000E+00 0.  1.
          2   -1    0    0  502    0  0.00000000000E+00 -0.00000000000E+00 -0.14216068140E+04  0.14216068140E+04  0.00000000000E+00 0. -1.
    9000010    2    1    2  502    0 -0.46215673879E+03 -0.43302663359E+02  0.20408388473E+03  0.11139194584E+04  0.99181770296E+03 0.  0.
   -9000010    2    1    2    0  501  0.46215673879E+03  0.43302663359E+02 -0.60589991606E+03  0.13274781383E+04  0.10861029084E+04 0.  0.
        -13    1    3    3    0    0 -0.57927930561E+03  0.35227056876E+03  0.17579864409E+03  0.70040291401E+03  0.10566000000E+00 0.  1.
         13    1    4    4    0    0 -0.10714023709E+03  0.35931123908E+03 -0.56106133570E+03  0.67481362651E+03  0.10566000000E+00 0. -1.
          4    1    3    3  502    0  0.11712256682E+03 -0.39557323212E+03  0.28285240634E+02  0.41351654437E+03  0.00000000000E+00 0.  1.
         -4    1    4    4    0  501  0.56929697588E+03 -0.31600857572E+03 -0.44838580351E+02  0.65266451180E+03  0.00000000000E+00 0. -1.
</event>
<event>
 8    1  0.7096247E-006  0.1502862E+04  0.7818608E-02  0.8407854E-01
          1   -1    0    0  502    0  0.00000000000E+00  0.00000000000E+00  0.17346287318E+04  0.17346287318E+04  0.00000000000E+00 0. -1.
         -1   -1    0    0    0  501 -0.00000000000E+00 -0.00000000000E+00 -0.14545074647E+04  0.14545074647E+04  0.00000000000E+00 0.  1.
    9000010    2    1    2  502    0  0.76401148336E+03 -0.83324037755E+03 -0.37693319128E+03  0.15391458197E+04  0.97410890052E+03 0.  0.
   -9000010    2    1    2    0  501 -0.76401148336E+03  0.83324037755E+03  0.65705445840E+03  0.16499903769E+04  0.10063521298E+04 0.  0.
        -13    1    3    3    0    0  0.74546336648E+03 -0.25767241947E+03  0.95216111426E+02  0.79446637787E+03  0.10566000000E+00 0.  1.
         13    1    4    4    0    0 -0.90311495022E+03  0.78238826817E+03  0.80491717099E+03  0.14407080477E+04  0.10566000000E+00 0. -1.
          4    1    3    3  502    0  0.18548116874E+02 -0.57556795808E+03 -0.47214930271E+03  0.74467944181E+03  0.00000000000E+00 0.  1.
         -4    1    4    4    0  501  0.13910346687E+03  0.50852109386E+02 -0.14786271260E+03  0.20928232916E+03  0.00000000000E+00 0. -1.
</event>
<event>
 8    1  0.7096247E-006  0.1200552E+04  0.7818608E-02  0.8606147E-01
         -1   -1    0    0    0  501 -0.00000000000E+00  0.00000000000E+00  0.14176992835E+04  0.14176992835E+04  0.00000000000E+00 0.  1.
          1   -1    0    0  502    0  0.00000000000E+00 -0.00000000000E+00 -0.10173065645E+04  0.10173065645E+04  0.00000000000E+00 0. -1.
    9000010    2    1    2  502    0  0.66070968082E+03 -0.15330600670E+03  0.23097876183E+03  0.12240172369E+04  0.99238449891E+03 0.  0.
   -9000010    2    1    2    0  501 -0.66070968082E+03  0.15330600670E+03  0.16941395711E+03  0.12109886111E+04  0.98881358877E+03 0.  0.
        -13    1    3    3    0    0  0.62284415803E+02  0.19780125407E+03  0.45079515663E+03  0.49620657892E+03  0.10566000000E+00 0.  1.
         13    1    4    4    0    0 -0.57093567680E+03  0.30715326758E+02  0.55482490878E+03  0.79670676469E+03  0.10566000000E+00 0. -1.
          4    1    3    3  502    0  0.59842526502E+03 -0.35110726077E+03 -0.21981639480E+03  0.72781065793E+03  0.00000000000E+00 0.  1.
         -4    1    4    4    0  501 -0.89774004019E+02  0.12259067994E+03 -0.38541095166E+03  0.41428184641E+03  0.00000000000E+00 0. -1.
</event>
<event>
 8    1  0.7096247E-006  0.1368720E+04  0.7818608E-02  0.8489304E-01
         -2   -1    0    0    0  501 -0.00000000000E+00  0.00000000000E+00  0.29677222965E+04  0.29677222965E+04  0.00000000000E+00 0. -1.
          2   -1    0    0  502    0  0.00000000000E+00 -0.00000000000E+00 -0.80826387051E+03  0.80826387051E+03  0.00000000000E+00 0.  1.
    9000010    2    1    2  502    0  0.81901639225E+03 -0.45089929379E+03  0.19782024966E+03  0.13855296813E+04  0.10032256091E+04 0.  0.
   -9000010    2    1    2    0  501 -0.81901639225E+03  0.45089929379E+03  0.19616381763E+04  0.23904564857E+04  0.99607221192E+03 0.  0.
        -13    1    3    3    0    0  0.75845279292E+03  0.65145326773E+02 -0.12843654522E+03  0.77200421631E+03  0.10566000000E+00 0.  1.
         13    1    4    4    0    0 -0.32885640101E+03 -0.66731052839E+02  0.15093567620E+04  0.15462074286E+04  0.10566000000E+00 0. -1.
          4    1    3    3  502    0  0.60563599331E+02 -0.51604462056E+03  0.32625679488E+03  0.61352546498E+03  0.00000000000E+00 0.  1.
         -4    1    4    4    0  501 -0.49015999123E+03  0.51763034663E+03  0.45228141425E+03  0.84424905711E+03  0.00000000000E+00 0. -1.
</event>
<event>
 8    1  0.7096247E-006  0.1141789E+04  0.7818608E-02  0.8651735E-01
         -2   -1    0    0    0  501 -0.00000000000E+00  0.00000000000E+00  0.82053782266E+03  0.82053782266E+03  0.00000000000E+00 0. -1.
          2   -1    0    0  502    0  0.00000000000E+00 -0.00000000000E+00 -0.18982432338E+04  0.18982432338E+04  0.00000000000E+00 0.  1.
    9000010    2    1    2  502    0  0.44770572044E+03  0.32406658394E+03  0.79081314669E+01  0.11470138658E+04  0.10050466193E+04 0.  0.
   -9000010    2    1    2    0  501 -0.44770572044E+03 -0.32406658394E+03 -0.10856135426E+04  0.15717671907E+04  0.99319473157E+03 0.  0.
        -13    1    3    3    0    0 -0.19858684300E+03  0.44371466224E+03 -0.41436201543E+02  0.48788974745E+03  0.10566000000E+00 0.  1.
         13    1    4    4    0    0 -0.48601755565E+03 -0.25434406231E+03 -0.69945898569E+02  0.55298861320E+03  0.10566000000E+00 0. -1.
          4    1    3    3  502    0  0.64629256345E+03 -0.11964807830E+03  0.49344333010E+02  0.65912411836E+03  0.00000000000E+00 0.  1.
         -4    1    4    4    0  501  0.38311835210E+02 -0.69722521630E+02 -0.10156676441E+04  0.10187785775E+04  0.00000000000E+00 0. -1.
</event>
<event>
 8    1  0.7096247E-006  0.1038557E+04  0.7818608E-02  0.8739184E-01
         -1   -1    0    0    0  501 -0.00000000000E+00  0.00000000000E+00  0.37805238190E+03  0.37805238190E+03  0.00000000000E+00 0.  1.
          1   -1    0    0  502    0  0.00000000000E+00 -0.00000000000E+00 -0.28972345441E+04  0.28972345441E+04  0.00000000000E+00 0. -1.
    9000010    2    1    2  502    0 -0.24087719215E+03 -0.20031908053E+03 -0.14683577013E+04  0.18017793089E+04  0.99608472704E+03 0.  0.
   -9000010    2    1    2    0  501  0.24087719215E+03  0.20031908053E+03 -0.10508244609E+04  0.14735076171E+04  0.98429827501E+03 0.  0.
        -13    1    3    3    0    0  0.14373192165E+03 -0.24734060499E+03 -0.13733507912E+04  0.14028288018E+04  0.10566000000E+00 0.  1.
         13    1    4    4    0    0  0.62216116758E+03  0.18462486163E+03 -0.61292113809E+03  0.89266073660E+03  0.10566000000E+00 0. -1.
          4    1    3    3  502    0 -0.38460911381E+03  0.47021524455E+02 -0.95006910030E+02  0.39895050713E+03  0.00000000000E+00 0.  1.
         -4    1    4    4    0  501 -0.38128397542E+03  0.15694218902E+02 -0.43790332283E+03  0.58084688048E+03  0.00000000000E+00 0. -1.
</event>
<event>
 8    1  0.7096247E-006  0.1426733E+04  0.7818608E-02  0.8452954E-01
         -2   -1    0    0    0  501 -0.00000000000E+00  0.00000000000E+00  0.85386103572E+03  0.85386103572E+03  0.00000000000E+00 0.  1.
          2   -1    0    0  502    0  0.00000000000E+00 -0.00000000000E+00 -0.25723271987E+04  0.25723271987E+04  0.00000000000E+00 0. -1.
    9000010    2    1    2  502    0 -0.10018284029E+04  0.39626024900E+02 -0.13256196512E+04  0.19512634775E+04  0.10222188260E+04 0.  0.
   -9000010    2    1    2    0  501  0.10018284029E+04 -0.39626024900E+02 -0.39284651181E+03  0.14749247570E+04  0.10078910091E+04 0.  0.
        -13    1    3    3    0    0 -0.29456989334E+03 -0.24823561599E+03 -0.10839061411E+04  0.11503238140E+04  0.10566000000E+00 0.  1.
         13    1    4    4    0    0  0.59993317711E+03 -0.49552735844E+03 -0.38257844339E+03  0.86708330423E+03  0.10566000000E+00 0. -1.
          4    1    3    3  502    0 -0.70725850955E+03  0.28786164089E+03 -0.24171351007E+03  0.80093966350E+03  0.00000000000E+00 0.  1.
         -4    1    4    4    0  501  0.40189522578E+03  0.45590133354E+03 -0.10268068415E+02  0.60784145272E+03  0.00000000000E+00 0. -1.
</event>
<event>
 8    1  0.7096247E-006  0.1444432E+04  0.7818608E-02  0.8442215E-01
         -2   -1    0    0    0  501 -0.00000000000E+00  0.00000000000E+00  0.63946199356E+03  0.63946199356E+03  0.00000000000E+00 0. -1.
          2   -1    0    0  502    0  0.00000000000E+00 -0.00000000000E+00 -0.33202693057E+04  0.33202693057E+04  0.00000000000E+00 0.  1.
    9000010    2    1    2  502    0  0.46234759282E+03  0.91912043252E+03 -0.15950325955E+04  0.21475436800E+04  0.10046229197E+04 0.  0.
   -9000010    2    1    2    0  501 -0.46234759282E+03 -0.91912043252E+03 -0.10857747167E+04  0.18121876193E+04  0.10230198268E+04 0.  0.
        -13    1    3    3    0    0  0.15330503542E+03  0.94660256117E+03 -0.66455444203E+03  0.11667011015E+04  0.10566000000E+00 0.  1.
         13    1    4    4    0    0 -0.64994867654E+03 -0.10155315392E+04 -0.10488218212E+04  0.15980503162E+04  0.10566000000E+00 0. -1.
          4    1    3    3  502    0  0.30904255740E+03 -0.27482128657E+02 -0.93047815346E+03  0.98084257848E+03  0.00000000000E+00 0.  1.
         -4    1    4    4    0  501  0.18760108372E+03  0.96411106655E+02 -0.36952895433E+02  0.21413730310E+03  0.00000000000E+00 0. -1.
</event>
<event>
 8    1  0.7096247E-006  0.9911210E+03  0.7818608E-02  0.8782979E-01
          1   -1    0    0  502    0  0.00000000000E+00  0.00000000000E+00  0.16034304182E+04  0.16034304182E+04  0.00000000000E+00 0.  1.
         -1   -1    0    0    0  501 -0.00000000000E+00 -0.00000000000E+00 -0.61326009661E+03  0.61326009661E+03  0.00000000000E+00 0. -1.
    9000010    2    1    2  502    0 -0.70663045498E+02  0.21443962314E+03  0.48475496685E+03  0.10757680582E+04  0.93344090284E+03 0.  0.
   -9000010    2    1    2    0  501  0.70663045498E+02 -0.21443962314E+03  0.50541535474E+03  0.11409224567E+04  0.99763808735E+03 0.  0.
        -13    1    3    3    0    0 -0.53279996943E+02 -0.32216029651E+03  0.42443294857E+03  0.53550850013E+03  0.10566000000E+00 0.  1.
         13    1    4    4    0    0  0.48798163789E+03  0.10198049375E+03  0.22647330466E+03  0.54755480905E+03  0.10566000000E+00 0. -1.
          4    1    3    3  502    0 -0.17383048555E+02  0.53659991965E+03  0.60322018281E+02  0.54025955802E+03  0.00000000000E+00 0.  1.
         -4    1    4    4    0  501 -0.41731859240E+03 -0.31642011689E+03  0.27894205008E+03  0.59336764761E+03  0.00000000000E+00 0. -1.
</event>
<event>
 8    1  0.7096247E-006  0.1260164E+04  0.7818608E-02  0.8562584E-01
          1   -1    0    0  502    0  0.00000000000E+00  0.00000000000E+00  0.19379728218E+04  0.19379728218E+04  0.00000000000E+00 0.  1.
         -1   -1    0    0    0  501 -0.00000000000E+00 -0.00000000000E+00 -0.85588403202E+03  0.85588403202E+03  0.00000000000E+00 0. -1.
    9000010    2    1    2  502    0  0.74396351687E+03 -0.12406783562E+03  0.24944416816E+03  0.12765104729E+04  0.99919069861E+03 0.  0.
   -9000010    2    1    2    0  501 -0.74396351687E+03  0.12406783562E+03  0.83264462164E+03  0.15173463809E+04  0.10198864797E+04 0.  0.
        -13    1    3    3    0    0  0.95403314061E+03 -0.21019913285E+03  0.56481092358E+02  0.97854638817E+03  0.10566000000E+00 0.  1.
         13    1    4    4    0    0 -0.50427694032E+03 -0.25526624706E+03 -0.70848884698E+01  0.56524887991E+03  0.10566000000E+00 0. -1.
          4    1    3    3  502    0 -0.21006962374E+03  0.86131297236E+02  0.19296307580E+03  0.29796408476E+03  0.00000000000E+00 0.  1.
         -4    1    4    4    0  501 -0.23968657655E+03  0.37933408268E+03  0.83972951011E+03  0.95209750100E+03  0.00000000000E+00 0. -1.
</event>
<event>
 8    1  0.7096247E-006  0.1304983E+04  0.7818608E-02  0.8531440E-01
         -2   -1    0    0    0  501 -0.00000000000E+00  0.00000000000E+00  0.12755758868E+04  0.12755758868E+04  0.00000000000E+00 0. -1.
          2   -1    0    0  502    0  0.00000000000E+00 -0.00000000000E+00 -0.18053280723E+04  0.18053280723E+04  0.00000000000E+00 0.  1.
    9000010    2    1    2  502    0  0.40168256317E+03 -0.75389794262E+03  0.52138764798E+03  0.14049545481E+04  0.98607363477E+03 0.  0.
   -9000010    2    1    2    0  501 -0.40168256317E+03  0.75389794262E+03 -0.10511398334E+04  0.16759494111E+04  0.98701595208E+03 0.  0.
        -13    1    3    3    0    0 -0.12244214766E+03 -0.75318446059E+03  0.19529363852E+03  0.78766650786E+03  0.10566000000E+00 0.  1.
         13    1    4    4    0    0 -0.49626423186E+03  0.37371682080E+03 -0.77017997073E+02  0.62599858866E+03  0.10566000000E+00 0. -1.
          4    1    3    3  502    0  0.52412471082E+03 -0.71348202656E+00  0.32609400947E+03  0.61728804019E+03  0.00000000000E+00 0.  1.
         -4    1    4    4    0  501  0.94581668689E+02  0.38018112182E+03 -0.97412183637E+03  0.10499508224E+04  0.00000000000E+00 0. -1.
</event>
<event>
 8    1  0.7096247E-006  0.1506390E+04  0.7818608E-02  0.8405831E-01
         -2   -1    0    0    0  501 -0.00000000000E+00  0.00000000000E+00  0.47261844324E+03  0.47261844324E+03  0.00000000000E+00 0.  1.
          2   -1    0    0  502    0  0.00000000000E+00 -0.00000000000E+00 -0.51696239613E+04  0.51696239613E+04  0.00000000000E+00 0. -1.
    9000010    2    1    2  502    0 -0.64618429067E+03  0.91371656490E+03 -0.31009840151E+04  0.34473639650E+04  0.10078612738E+04 0.  0.
   -9000010    2    1    2    0  501  0.64618429067E+03 -0.91371656490E+03 -0.15960215030E+04  0.21948784396E+04  0.10088481689E+04 0.  0.
        -13    1    3    3    0    0 -0.83074626561E+03  0.88637251711E+03 -0.29968054744E+04  0.32336726272E+04  0.10566000000E+00 0.  1.
         13    1    4    4    0    0 -0.24074992538E+03 -0.32801398861E+03 -0.24160286654E+03  0.47320783973E+03  0.10566000000E+00 0. -1.
          4    1    3    3  502    0  0.18456197494E+03  0.27344047784E+02 -0.10417854062E+03  0.21369133784E+03  0.00000000000E+00 0.  1.
         -4    1    4    4    0  501  0.88693421605E+03 -0.58570257629E+03 -0.13544186365E+04  0.17216705998E+04  0.00000000000E+00 0. -1.
</event>
<event>
 7    1  0.7096247E-006  0.1287088E+04  0.7818608E-02  0.8543718E-01
          2   -1    0    0  502    0  0.00000000000E+00  0.00000000000E+00  0.14119149805E+04  0.14119149805E+04  0.00000000000E+00 0. -1.
         -2   -1    0    0    0  501 -0.00000000000E+00 -0.00000000000E+00 -0.12184769151E+04  0.12184769151E+04  0.00000000000E+00 0.  1.
    9000010    2    1    2  502    0  0.44311316003E+03 -0.13809771388E+02  0.21128705095E+03  0.11098511233E+04  0.99528253051E+03 0.  0.
        -13    1    3    3    0    0  0.23953583501E+02  0.97079254934E+02  0.55039881495E+03  0.55940774267E+03  0.10566000000E+00 0.  1.
         13    1    1    2    0    0 -0.72946903016E+03  0.45737348471E+03  0.29103700467E+03  0.90885538989E+03  0.10566000000E+00 0. -1.
          4    1    3    3  502    0  0.41915957653E+03 -0.11088902632E+03 -0.33911176400E+03  0.55044338059E+03  0.00000000000E+00 0.  1.
         -4    1    1    2    0  501  0.28635587013E+03 -0.44356371333E+03 -0.30888599020E+03  0.61168538243E+03  0.00000000000E+00 0. -1.
</event>
<event>
 8    1  0.7096247E-006  0.1522240E+04  0.7818608E-02  0.8396814E-01
          1   -1    0    0  502    0  0.00000000000E+00  0.00000000000E+00  0.12822580180E+04  0.12822580180E+04  0.00000000000E+00 0. -1.
         -1   -1    0    0    0  501 -0.00000000000E+00 -0.00000000000E+00 -0.18232375897E+04  0.18232375897E+04  0.00000000000E+00 0.  1.
    9000010    2    1    2  502    0  0.11164868360E+04  0.27401059636E+03 -0.12369193697E+03  0.15216844384E+04  0.98924171613E+03 0.  0.
   -9000010    2    1    2    0  501 -0.11164868360E+04 -0.27401059636E+03 -0.41728763471E+03  0.15838111693E+04  0.10063320467E+04 0.  0.
        -13    1    3    3    0    0  0.91786225156E+03  0.10251777594E+03  0.34387659670E+03  0.98551110199E+03  0.10566000000E+00 0.  1.
         13    1    4    4    0    0 -0.45649922881E+03  0.37445764172E+03 -0.26059330911E+03  0.64538279746E+03  0.10566000000E+00 0. -1.
          4    1    3    3  502    0  0.19862458443E+03  0.17149282042E+03 -0.46756853367E+03  0.53617333641E+03  0.00000000000E+00 0.  1.
         -4    1    4    4    0  501 -0.65998760718E+03 -0.64846823809E+03 -0.15669432561E+03  0.93842837186E+03  0.00000000000E+00 0. -1.
</event>
<event>
 8    1  0.7096247E-006  0.1017417E+04  0.7818608E-02  0.8758397E-01
         -2   -1    0    0    0  501 -0.00000000000E+00  0.00000000000E+00  0.63976171502E+03  0.63976171502E+03  0.00000000000E+00 0. -1.
          2   -1    0    0  502    0  0.00000000000E+00 -0.00000000000E+00 -0.16181127537E+04  0.16181127537E+04  0.00000000000E+00 0.  1.
    9000010    2    1    2  502    0  0.10858534619E+03  0.10671098686E+03 -0.49536626273E+03  0.11388151111E+04  0.10140680997E+04 0.  0.
   -9000010    2    1    2    0  501 -0.10858534619E+03 -0.10671098686E+03 -0.48298477596E+03  0.11190593577E+04  0.99791860391E+03 0.  0.
        -13    1    3    3    0    0 -0.92608730889E+02 -0.20122387385E+03  0.23383184260E+03  0.32209434367E+03  0.10566000000E+00 0.  1.
         13    1    4    4    0    0  0.37801581895E+03 -0.42678775305E+02  0.62235918756E+02  0.38547471770E+03  0.10566000000E+00 0. -1.
          4    1    3    3  502    0  0.20119407708E+03  0.30793486071E+03 -0.72919810533E+03  0.81672076740E+03  0.00000000000E+00 0.  1.
         -4    1    4    4    0  501 -0.48660116514E+03 -0.64032211551E+02 -0.54522069472E+03  0.73358463996E+03  0.00000000000E+00 0. -1.
</event>
<event>
 8    1  0.7096247E-006  0.1552214E+04  0.7818608E-02  0.8380068E-01
         -1   -1    0    0    0  501 -0.00000000000E+00  0.00000000000E+00  0.13464148731E+04  0.13464148731E+04  0.00000000000E+00 0.  1.
          1   -1    0    0  502    0  0.00000000000E+00 -0.00000000000E+00 -0.18851582628E+04  0.18851582628E+04  0.00000000000E+00 0. -1.
    9000010    2    1    2  502    0 -0.71305254046E+03 -0.95438345675E+03 -0.63379673000E+03  0.16788680578E+04  0.99880326011E+03 0.  0.
   -9000010    2    1    2    0  501  0.71305254046E+03  0.95438345675E+03  0.95053340243E+02  0.15527050782E+04  0.99124478021E+03 0.  0.
        -13    1    3    3    0    0 -0.70217518410E+03 -0.21967314634E+03 -0.44709465981E+02  0.73709241476E+03  0.10566000000E+00 0.  1.
         13    1    4    4    0    0 -0.25233882315E+03  0.23119533141E+03  0.47746724922E+02  0.34555162254E+03  0.10566000000E+00 0. -1.
          4    1    3    3  502    0 -0.10877356366E+02 -0.73471031042E+03 -0.58908726402E+03  0.94177564300E+03  0.00000000000E+00 0.  1.
         -4    1    4    4    0  501  0.96539136361E+03  0.72318812535E+03  0.47306615321E+02  0.12071534556E+04  0.00000000000E+00 0. -1.
</event>
<event>
 8    1  0.7096247E-006  0.1530910E+04  0.7818608E-02  0.8391929E-01
         -2   -1    0    0    0  501 -0.00000000000E+00  0.00000000000E+00  0.10388694892E+04  0.10388694892E+04  0.00000000000E+00 0. -1.
          2   -1    0    0  502    0  0.00000000000E+00 -0.00000000000E+00 -0.32766190155E+04  0.32766190155E+04  0.00000000000E+00 0.  1.
    9000010    2    1    2  502    0 -0.83820172958E+03 -0.80627691863E+03 -0.23253793953E+04  0.27865520469E+04  0.10024062894E+04 0.  0.
   -9000010    2    1    2    0  501  0.83820172958E+03  0.80627691863E+03  0.87629868988E+02  0.15289364579E+04  0.98858640967E+03 0.  0.
        -13    1    3    3    0    0 -0.56071739136E+03 -0.10238992686E+04 -0.16066913770E+04  0.19860087858E+04  0.10566000000E+00 0.  1.
         13    1    4    4    0    0  0.10383090920E+04  0.81642026538E+03  0.11874537141E+03  0.13261705375E+04  0.10566000000E+00 0. -1.
          4    1    3    3  502    0 -0.27748433822E+03  0.21762235002E+03 -0.71868801827E+03  0.80054326104E+03  0.00000000000E+00 0.  1.
         -4    1    4    4    0  501 -0.20010736241E+03 -0.10143346748E+02 -0.31115502420E+02  0.20276592037E+03  0.00000000000E+00 0. -1.
</event>
<event>
 8    1  0.7096247E-006  0.1312239E+04  0.7818608E-02  0.8526520E-01
         -1   -1    0    0    0  501 -0.00000000000E+00  0.00000000000E+00  0.43184146138E+04  0.43184146138E+04  0.00000000000E+00 0. -1.
          1   -1    0    0  502    0  0.00000000000E+00 -0.00000000000E+00 -0.44665688128E+03  0.44665688128E+03  0.00000000000E+00 0.  1.
    9000010    2    1    2  502    0 -0.64458007498E+03  0.53882688828E+03  0.27209657848E+04  0.30224644774E+04  0.10128271452E+04 0.  0.
   -9000010    2    1    2    0  501  0.64458007498E+03 -0.53882688828E+03  0.11507919477E+04  0.17426070177E+04  0.10032642836E+04 0.  0.
        -13    1    3    3    0    0 -0.37177358293E+03  0.51544204135E+03  0.26691890476E+04  0.27438050729E+04  0.10566000000E+00 0.  1.
         13    1    4    4    0    0  0.19849205519E+03 -0.42815417995E+03 -0.32643803660E+02  0.47305467640E+03  0.10566000000E+00 0. -1.
          4    1    3    3  502    0 -0.27280649205E+03  0.23384846937E+02  0.51776737198E+02  0.27865940445E+03  0.00000000000E+00 0.  1.
         -4    1    4    4    0  501  0.44608801979E+03 -0.11067270834E+03  0.11834357513E+04  0.12695523413E+04  0.00000000000E+00 0. -1.
</event>
<event>
 8    1  0.7096247E-006  0.1042945E+04  0.7818608E-02  0.8735255E-01
         -4   -1    0    0    0  501 -0.00000000000E+00  0.00000000000E+00  0.34637659794E+03  0.34637659794E+03  0.00000000000E+00 0. -1.
          4   -1    0    0  502    0  0.00000000000E+00 -0.00000000000E+00 -0.31607069170E+04  0.31607069170E+04  0.00000000000E+00 0.  1.
    9000010    2    1    2  502    0 -0.28842151488E+03 -0.99294522842E+02 -0.15870807317E+04  0.19316526801E+04  0.10580219540E+04 0.  0.
   -9000010    2    1    2    0  501  0.28842151488E+03  0.99294522842E+02 -0.12272495874E+04  0.15754308349E+04  0.93957138804E+03 0.  0.
        -13    1    3    3    0    0  0.20126608615E+03  0.22914833077E+03 -0.11708166765E+04  0.12098878858E+04  0.10566000000E+00 0.  1.
         13    1    4    4    0    0  0.20663068513E+03  0.28160692433E+03 -0.17960901647E+02  0.34974462829E+03  0.10566000000E+00 0. -1.
          4    1    3    3  502    0 -0.48968760103E+03 -0.32844285361E+03 -0.41626405515E+03  0.72176479431E+03  0.00000000000E+00 0.  1.
         -4    1    4    4    0  501  0.81790829754E+02 -0.18231240149E+03 -0.12092886857E+04  0.12256862066E+04  0.00000000000E+00 0. -1.
</event>
<event>
 8    1  0.7096247E-006  0.1130381E+04  0.7818608E-02  0.8660916E-01
         -5   -1    0    0    0  501 -0.00000000000E+00  0.00000000000E+00  0.64439703254E+03  0.64439703254E+03  0.00000000000E+00 0.  1.
          5   -1    0    0  502    0  0.00000000000E+00 -0.00000000000E+00 -0.20300955324E+04  0.20300955324E+04  0.00000000000E+00 0. -1.
    9000010    2    1    2  502    0 -0.19558793617E+03 -0.47748766625E+03 -0.48174743721E+03  0.12169466756E+04  0.99127670500E+03 0.  0.
   -9000010    2    1    2    0  501  0.19558793617E+03  0.47748766625E+03 -0.90395106268E+03  0.14575458893E+04  0.10203251362E+04 0.  0.
        -13    1    3    3    0    0 -0.20161994613E+03  0.40252394861E+02  0.24801924159E+03  0.32215588360E+03  0.10566000000E+00 0.  1.
         13    1    4    4    0    0  0.25576096530E+03  0.20531407286E+03 -0.10794354769E+04  0.11281615576E+04  0.10566000000E+00 0. -1.
          4    1    3    3  502    0  0.60320099567E+01 -0.51774006111E+03 -0.72976667881E+03  0.89479079204E+03  0.00000000000E+00 0.  1.
         -4    1    4    4    0  501 -0.60173029127E+02  0.27217359339E+03  0.17548441427E+03  0.32938433178E+03  0.00000000000E+00 0. -1.
</event>
<event>
 8    1  0.7096247E-006  0.1024718E+04  0.7818608E-02  0.8751707E-01
         -2   -1    0    0    0  501 -0.00000000000E+00  0.00000000000E+00  0.43912181120E+03  0.43912181120E+03  0.00000000000E+00 0. -1.
          2   -1    0    0  502    0  0.00000000000E+00 -0.00000000000E+00 -0.24423110158E+04  0.24423110158E+04  0.00000000000E+00 0.  1.
    9000010    2    1    2  502    0  0.27357273877E+03  0.53127613207E+02 -0.12154817590E+04  0.15936700008E+04  0.99233239306E+03 0.  0.
   -9000010    2    1    2    0  501 -0.27357273877E+03 -0.53127613207E+02 -0.78770744564E+03  0.12877628262E+04  0.97989055003E+03 0.  0.
        -13    1    3    3    0    0 -0.15582612009E+02  0.46125043698E+03 -0.87298237398E+03  0.98746798422E+03  0.10566000000E+00 0.  1.
         13    1    4    4    0    0  0.78217620509E+02 -0.38062663266E+03 -0.29044838284E+02  0.38966427016E+03  0.10566000000E+00 0. -1.
          4    1    3    3  502    0  0.28915535078E+03 -0.40812282377E+03 -0.34249938498E+03  0.60620201656E+03  0.00000000000E+00 0.  1.
         -4    1    4    4    0  501 -0.35179035928E+03  0.32749901945E+03 -0.75866260736E+03  0.89809855607E+03  0.00000000000E+00 0. -1.
</event>
<event>
 8    1  0.7096247E-006  0.1119517E+04  0.7818608E-02  0.8669765E-01
         -4   -1    0    0    0  501 -0.00000000000E+00  0.00000000000E+00  0.17128749960E+04  0.17128749960E+04  0.00000000000E+00 0. -1.
          4   -1    0    0  502    0  0.00000000000E+00 -0.00000000000E+00 -0.79415181956E+03  0.79415181956E+03  0.00000000000E+00 0.  1.
    9000010    2    1    2  502    0 -0.13656795519E+03 -0.47694330661E+03  0.10386086753E+03  0.11132850303E+04  0.99120671648E+03 0.  0.
   -9000010    2    1    2    0  501  0.13656795519E+03  0.47694330661E+03  0.81486230888E+03  0.13937417852E+04  0.10160658725E+04 0.  0.
        -13    1    3    3    0    0 -0.30259421222E+03  0.19746757967E+03 -0.12447845325E+03  0.38216697761E+03  0.10566000000E+00 0.  1.
         13    1    4    4    0    0 -0.27467657066E+03  0.58201291711E+03  0.25753626997E+03  0.69318914855E+03  0.10566000000E+00 0. -1.
          4    1    3    3  502    0  0.16602625703E+03 -0.67441088628E+03  0.22833932078E+03  0.73111805269E+03  0.00000000000E+00 0.  1.
         -4    1    4    4    0  501  0.41124452585E+03 -0.10506961050E+03  0.55732603891E+03  0.70055263667E+03  0.00000000000E+00 0. -1.
</event>
<event>
 8    1  0.7096247E-006  0.9934491E+03  0.7818608E-02  0.8780771E-01
          2   -1    0    0  502    0  0.00000000000E+00  0.00000000000E+00  0.84941808763E+03  0.84941808763E+03  0.00000000000E+00 0. -1.
         -2   -1    0    0    0  501 -0.00000000000E+00 -0.00000000000E+00 -0.11655533900E+04  0.11655533900E+04  0.00000000000E+00 0.  1.
    9000010    2    1    2  502    0 -0.33032589167E+02  0.27021516103E+03 -0.20692833916E+03  0.10504495802E+04  0.99323592249E+03 0.  0.
   -9000010    2    1    2    0  501  0.33032589167E+02 -0.27021516103E+03 -0.10920696325E+03  0.96452189751E+03  0.91884108787E+03 0.  0.
        -13    1    3    3    0    0  0.63181651144E+02 -0.18006210572E+03 -0.47901424593E+03  0.51562480732E+03  0.10566000000E+00 0.  1.
         13    1    4    4    0    0 -0.14128492178E+03 -0.75014563066E+02  0.37856665642E+03  0.41097607997E+03  0.10566000000E+00 0. -1.
          4    1    3    3  502    0 -0.96214240312E+02  0.45027726674E+03  0.27208590677E+03  0.53482477284E+03  0.00000000000E+00 0.  1.
         -4    1    4    4    0  501  0.17431751095E+03 -0.19520059796E+03 -0.48777361967E+03  0.55354581753E+03  0.00000000000E+00 0. -1.
</event>
<event>
 8    1  0.7096247E-006  0.1181206E+04  0.7818608E-02  0.8620851E-01
          2   -1    0    0  502    0  0.00000000000E+00  0.00000000000E+00  0.36527664996E+04  0.36527664996E+04  0.00000000000E+00 0. -1.
         -2   -1    0    0    0  501 -0.00000000000E+00 -0.00000000000E+00 -0.45512300974E+03  0.45512300974E+03  0.00000000000E+00 0.  1.
    9000010    2    1    2  502    0  0.49567141813E+03  0.35064680778E+03  0.24184740397E+04  0.26900590975E+04  0.10093353895E+04 0.  0.
   -9000010    2    1    2    0  501 -0.49567141813E+03 -0.35064680778E+03  0.77916945017E+03  0.14178304119E+04  0.10171011288E+04 0.  0.
        -13    1    3    3    0    0  0.67730972395E+03  0.23433973893E+03  0.87255230308E+03  0.11291638978E+04  0.10566000000E+00 0.  1.
         13    1    4    4    0    0 -0.67661633560E+03  0.10643021989E+03  0.53397219556E+03  0.86848337583E+03  0.10566000000E+00 0. -1.
          4    1    3    3  502    0 -0.18163830582E+03  0.11630706885E+03  0.15459217366E+04  0.15608951996E+04  0.00000000000E+00 0.  1.
         -4    1    4    4    0  501  0.18094491747E+03 -0.45707702767E+03  0.24519725461E+03  0.54934703608E+03  0.00000000000E+00 0. -1.
</event>
<event>
 8    1  0.7096247E-006  0.1541583E+04  0.7818608E-02  0.8385962E-01
          2   -1    0    0  502    0  0.00000000000E+00  0.00000000000E+00  0.38191810513E+04  0.38191810513E+04  0.00000000000E+00 0.  1.
         -2   -1    0    0    0  501 -0.00000000000E+00 -0.00000000000E+00 -0.64018946039E+03  0.64018946039E+03  0.00000000000E+00 0. -1.
    9000010    2    1    2  502    0 -0.55574156099E+03  0.10440720652E+04  0.12282255070E+04  0.19801599297E+04  0.10067573150E+04 0.  0.
   -9000010    2    1    2    0  501  0.55574156099E+03 -0.10440720652E+04  0.19507660840E+04  0.24792105820E+04  0.97059859662E+03 0.  0.
        -13    1    3    3    0    0 -0.15367049312E+03  0.64181154487E+02  0.83326474381E+03  0.84974348217E+03  0.10566000000E+00 0.  1.
         13    1    4    4    0    0  0.60060168029E+03 -0.47143065700E+03  0.16775756256E+04  0.18431574088E+04  0.10566000000E+00 0. -1.
          4    1    3    3  502    0 -0.40207106787E+03  0.97989091067E+03  0.39496076317E+03  0.11304164475E+04  0.00000000000E+00 0.  1.
         -4    1    4    4    0  501 -0.44860119296E+02 -0.57264140816E+03  0.27319045834E+03  0.63605317322E+03  0.00000000000E+00 0. -1.
</event>
<event>
 8    1  0.7096247E-006  0.1151701E+04  0.7818608E-02  0.8643848E-01
          2   -1    0    0  502    0  0.00000000000E+00  0.00000000000E+00  0.38432330012E+04  0.38432330012E+04  0.00000000000E+00 0. -1.
         -2   -1    0    0    0  501 -0.00000000000E+00 -0.00000000000E+00 -0.35944357609E+03  0.35944357609E+03  0.00000000000E+00 0.  1.
    9000010    2    1    2  502    0 -0.44347937503E+03  0.31589078772E+03  0.13402875420E+04  0.17749062302E+04  0.10283289770E+04 0.  0.
   -9000010    2    1    2    0  501  0.44347937503E+03 -0.31589078772E+03  0.21435018831E+04  0.24277703471E+04  0.10015026657E+04 0.  0.
        -13    1    3    3    0    0  0.27558307618E+03 -0.14063988268E+03  0.40926066379E+03  0.51304961804E+03  0.10566000000E+00 0.  1.
         13    1    4    4    0    0 -0.25898608723E+02 -0.44023517810E+03  0.33111934410E+03  0.55146874904E+03  0.10566000000E+00 0. -1.
          4    1    3    3  502    0 -0.71906245121E+03  0.45653067040E+03  0.93102687820E+03  0.12618566122E+04  0.00000000000E+00 0.  1.
         -4    1    4    4    0  501  0.46937798376E+03  0.12434439038E+03  0.18123825390E+04  0.18763015981E+04  0.00000000000E+00 0. -1.
</event>
<event>
 8    1  0.7096247E-006  0.1172679E+04  0.7818608E-02  0.8627424E-01
          2   -1    0    0  502    0  0.00000000000E+00  0.00000000000E+00  0.31123257930E+04  0.31123257930E+04  0.00000000000E+00 0. -1.
         -2   -1    0    0    0  501 -0.00000000000E+00 -0.00000000000E+00 -0.45933478431E+03  0.45933478431E+03  0.00000000000E+00 0.  1.
    9000010    2    1    2  502    0 -0.40075889489E+03 -0.48088139059E+03  0.16662341286E+04  0.20330576675E+04  0.98241167770E+03 0.  0.
   -9000010    2    1    2    0  501  0.40075889489E+03  0.48088139059E+03  0.98675688013E+03  0.15386029098E+04  0.10008772003E+04 0.  0.
        -13    1    3    3    0    0 -0.41947972529E+03  0.11884548073E+03  0.26864439566E+03  0.51211064303E+03  0.10566000000E+00 0.  1.
         13    1    4    4    0    0  0.57441937024E+03  0.28409371838E+03  0.14521007124E+03  0.65707901327E+03  0.10566000000E+00 0. -1.
          4    1    3    3  502    0  0.18720830400E+02 -0.59972687132E+03  0.13975897329E+04  0.15209470245E+04  0.00000000000E+00 0.  1.
         -4    1    4    4    0  501 -0.17366047535E+03  0.19678767221E+03  0.84154680889E+03  0.88152389655E+03  0.00000000000E+00 0. -1.
</event>
<event>
 8    1  0.7096247E-006  0.1412930E+04  0.7818608E-02  0.8461440E-01
          2   -1    0    0  502    0  0.00000000000E+00  0.00000000000E+00  0.22917561134E+04  0.22917561134E+04  0.00000000000E+00 0. -1.
         -2   -1    0    0    0  501 -0.00000000000E+00 -0.00000000000E+00 -0.87606925972E+03  0.87606925972E+03  0.00000000000E+00 0.  1.
    9000010    2    1    2  502    0 -0.92648083696E+03  0.39694715599E+03  0.58589857681E+03  0.15241308879E+04  0.98171484423E+03 0.  0.
   -9000010    2    1    2    0  501  0.92648083696E+03 -0.39694715599E+03  0.82978827683E+03  0.16436944851E+04  0.99862364793E+03 0.  0.
        -13    1    3    3    0    0  0.16962833666E+03  0.24560785657E+03  0.15836353516E+03  0.33789941143E+03  0.10566000000E+00 0.  1.
         13    1    4    4    0    0  0.97859697772E+03 -0.61885099249E+03  0.54723915394E+03  0.12806636164E+04  0.10566000000E+00 0. -1.
          4    1    3    3  502    0 -0.10961091736E+04  0.15133929941E+03  0.42753504165E+03  0.11862314765E+04  0.00000000000E+00 0.  1.
         -4    1    4    4    0  501 -0.52116140761E+02  0.22190383650E+03  0.28254912289E+03  0.36303086870E+03  0.00000000000E+00 0. -1.
</event>
<event>
 8    1  0.7096247E-006  0.1367862E+04  0.7818608E-02  0.8489856E-01
         -2   -1    0    0    0  501 -0.00000000000E+00  0.00000000000E+00  0.13739815636E+04  0.13739815636E+04  0.00000000000E+00 0. -1.
          2   -1    0    0  502    0  0.00000000000E+00 -0.00000000000E+00 -0.13977234080E+04  0.13977234080E+04  0.00000000000E+00 0.  1.
    9000010    2    1    2  502    0 -0.91149902427E+03 -0.24969227925E+03  0.21030973253E+03  0.13884239531E+04  0.99514530819E+03 0.  0.
   -9000010    2    1    2    0  501  0.91149902427E+03  0.24969227925E+03 -0.23405157697E+03  0.13832810185E+04  0.98260344493E+03 0.  0.
        -13    1    3    3    0    0 -0.35341581375E+03 -0.17523670696E+03  0.58971712475E+03  0.70949061958E+03  0.10566000000E+00 0.  1.
         13    1    4    4    0    0  0.68378864408E+03  0.27447566756E+03  0.30510053147E+03  0.79748990421E+03  0.10566000000E+00 0. -1.
          4    1    3    3  502    0 -0.55808321052E+03 -0.74455572288E+02 -0.37940739222E+03  0.67893333353E+03  0.00000000000E+00 0.  1.
         -4    1    4    4    0  501  0.22771038019E+03 -0.24783388309E+02 -0.53915210844E+03  0.58579111432E+03  0.00000000000E+00 0. -1.
</event>
<event>
 8    1  0.7096247E-006  0.1269262E+04  0.7818608E-02  0.8556155E-01
          2   -1    0    0  502    0  0.00000000000E+00  0.00000000000E+00  0.16106887583E+04  0.16106887583E+04  0.00000000000E+00 0.  1.
         -2   -1    0    0    0  501 -0.00000000000E+00 -0.00000000000E+00 -0.10675382265E+04  0.10675382265E+04  0.00000000000E+00 0. -1.
    9000010    2    1    2  502    0  0.64063678425E+03  0.46983330540E+03 -0.66684686428E+02  0.12603446159E+04  0.97614695571E+03 0.  0.
   -9000010    2    1    2    0  501 -0.64063678425E+03 -0.46983330540E+03  0.60983521831E+03  0.14178823689E+04  0.10036596009E+04 0.  0.
        -13    1    3    3    0    0  0.32486091415E+03 -0.21806078663E+03  0.22246621908E+03  0.45008482534E+03  0.10566000000E+00 0.  1.
         13    1    4    4    0    0 -0.10060076996E+03  0.25364665449E+03  0.41116853030E+03  0.49347412468E+03  0.10566000000E+00 0. -1.
          4    1    3    3  502    0  0.31577587010E+03  0.68789409203E+03 -0.28915090550E+03  0.81025979053E+03  0.00000000000E+00 0.  1.
         -4    1    4    4    0  501 -0.54003601429E+03 -0.72347995989E+03  0.19866668800E+03  0.92440824424E+03  0.00000000000E+00 0. -1.
</event>
<event>
 8    1  0.7096247E-006  0.1600663E+04  0.7818608E-02  0.8353812E-01
         -1   -1    0    0    0  501 -0.00000000000E+00  0.00000000000E+00  0.26344013382E+04  0.26344013382E+04  0.00000000000E+00 0. -1.
          1   -1    0    0  502    0  0.00000000000E+00 -0.00000000000E+00 -0.97272463495E+03  0.97272463495E+03  0.00000000000E+00 0.  1.
    9000010    2    1    2  502    0  0.89324446444E+03  0.85328874526E+03  0.85577217216E+03  0.18187405509E+04  0.10244431780E+04 0.  0.
   -9000010    2    1    2    0  501 -0.89324446444E+03 -0.85328874526E+03  0.80590453111E+03  0.17883854222E+04  0.10113619279E+04 0.  0.
        -13    1    3    3    0    0 -0.14889569138E+01  0.37201370705E+03 -0.13873614279E+03  0.39704425913E+03  0.10566000000E+00 0.  1.
         13    1    4    4    0    0 -0.48864434132E+03  0.11079079957E+03  0.47838637610E+03  0.69274918230E+03  0.10566000000E+00 0. -1.
          4    1    3    3  502    0  0.89473342135E+03  0.48127503820E+03  0.99450831495E+03  0.14216962918E+04  0.00000000000E+00 0.  1.
         -4    1    4    4    0  501 -0.40460012312E+03 -0.96407954483E+03  0.32751815501E+03  0.10956362399E+04  0.00000000000E+00 0. -1.
</event>
<event>
 8    1  0.7096247E-006  0.1129016E+04  0.7818608E-02  0.8662022E-01
         -2   -1    0    0    0  501 -0.00000000000E+00  0.00000000000E+00  0.10868533422E+04  0.10868533422E+04  0.00000000000E+00 0.  1.
          2   -1    0    0  502    0  0.00000000000E+00 -0.00000000000E+00 -0.12537488355E+04  0.12537488355E+04  0.00000000000E+00 0. -1.
    9000010    2    1    2  502    0 -0.55335264922E+03  0.62248142368E+02  0.21401231301E+03  0.11474170526E+04  0.98014827290E+03 0.  0.
   -9000010    2    1    2    0  501  0.55335264922E+03 -0.62248142368E+02 -0.38090780632E+03  0.11931851251E+04  0.98413718571E+03 0.  0.
        -13    1    3    3    0    0 -0.48815799512E+03 -0.27139626085E+03  0.46344934496E+03  0.72576818965E+03  0.10566000000E+00 0.  1.
         13    1    4    4    0    0  0.45879936286E+03  0.32622446274E+03  0.95758518342E+02  0.57104199534E+03  0.10566000000E+00 0. -1.
          4    1    3    3  502    0 -0.65194654098E+02  0.33364440322E+03 -0.24943703195E+03  0.42164886295E+03  0.00000000000E+00 0.  1.
         -4    1    4    4    0  501  0.94553286364E+02 -0.38847260511E+03 -0.47666632466E+03  0.62214312979E+03  0.00000000000E+00 0. -1.
</event>
<event>
 8    1  0.7096247E-006  0.1327241E+04  0.7818608E-02  0.8516450E-01
         -2   -1    0    0    0  501 -0.00000000000E+00  0.00000000000E+00  0.93066604563E+03  0.93066604563E+03  0.00000000000E+00 0.  1.
          2   -1    0    0  502    0  0.00000000000E+00 -0.00000000000E+00 -0.18991750745E+04  0.18991750745E+04  0.00000000000E+00 0. -1.
    9000010    2    1    2  502    0 -0.82303260228E+02 -0.90640759655E+03 -0.56750203291E+03  0.14470324708E+04  0.97133714878E+03 0.  0.
   -9000010    2    1    2    0  501  0.82303260228E+02  0.90640759655E+03 -0.40100699595E+03  0.13828086493E+04  0.96073127981E+03 0.  0.
        -13    1    3    3    0    0  0.33922235848E+03 -0.46057795074E+02 -0.29251301030E+03  0.45028546650E+03  0.10566000000E+00 0.  1.
         13    1    4    4    0    0 -0.11568256765E+03  0.62982931655E+03  0.21804240805E+03  0.67646871865E+03  0.10566000000E+00 0. -1.
          4    1    3    3  502    0 -0.42152561871E+03 -0.86034980147E+03 -0.27498902261E+03  0.99674700435E+03  0.00000000000E+00 0.  1.
         -4    1    4    4    0  501  0.19798582788E+03  0.27657828000E+03 -0.61904940401E+03  0.70633993063E+03  0.00000000000E+00 0. -1.
</event>
<event>
 8    1  0.7096247E-006  0.1213149E+04  0.7818608E-02  0.8596726E-01
         -2   -1    0    0    0  501 -0.00000000000E+00  0.00000000000E+00  0.82848103016E+03  0.82848103016E+03  0.00000000000E+00 0.  1.
          2   -1    0    0  502    0  0.00000000000E+00 -0.00000000000E+00 -0.22097516649E+04  0.22097516649E+04  0.00000000000E+00 0. -1.
    9000010    2    1    2  502    0 -0.44234904158E+02 -0.70359518532E+03 -0.17087527765E+02  0.12114366004E+04  0.98502981758E+03 0.  0.
   -9000010    2    1    2    0  501  0.44234904158E+02  0.70359518532E+03 -0.13641831070E+04  0.18267960947E+04  0.98953802895E+03 0.  0.
        -13    1    3    3    0    0  0.41765904007E+03 -0.45231049431E+03  0.19300794994E+03  0.64519449542E+03  0.10566000000E+00 0.  1.
         13    1    4    4    0    0 -0.44837999755E+02  0.83013307702E+03 -0.54715684062E+03  0.99524468910E+03  0.10566000000E+00 0. -1.
          4    1    3    3  502    0 -0.46189394423E+03 -0.25128469101E+03 -0.21009547770E+03  0.56624210493E+03  0.00000000000E+00 0.  1.
         -4    1    4    4    0  501  0.89072903913E+02 -0.12653789170E+03 -0.81702626638E+03  0.83155140563E+03  0.00000000000E+00 0. -1.
</event>
<event>
 8    1  0.7096247E-006  0.1545075E+04  0.7818608E-02  0.8384021E-01
          2   -1    0    0  502    0  0.00000000000E+00  0.00000000000E+00  0.36134200040E+04  0.36134200040E+04  0.00000000000E+00 0.  1.
         -2   -1    0    0    0  501 -0.00000000000E+00 -0.00000000000E+00 -0.66547114792E+03  0.66547114792E+03  0.00000000000E+00 0. -1.
    9000010    2    1    2  502    0  0.78918664631E+03  0.87867562556E+03  0.16573071134E+04  0.22669020434E+04  0.99864487606E+03 0.  0.
   -9000010    2    1    2    0  501 -0.78918664631E+03 -0.87867562556E+03  0.12906417427E+04  0.20119891085E+04  0.99370903552E+03 0.  0.
        -13    1    3    3    0    0 -0.56233549917E+02 -0.16926217770E+03  0.33615929019E+03  0.38054562996E+03  0.10566000000E+00 0.  1.
         13    1    4    4    0    0 -0.21530190281E+03 -0.90924092626E+03  0.99774809751E+03  0.13669583931E+04  0.10566000000E+00 0. -1.
          4    1    3    3  502    0  0.84542019623E+03  0.10479378033E+04  0.13211478232E+04  0.18863564134E+04  0.00000000000E+00 0.  1.
         -4    1    4    4    0  501 -0.57388474350E+03  0.30565300694E+02  0.29289364517E+03  0.64503071540E+03  0.00000000000E+00 0. -1.
</event>
<event>
 8    1  0.7096247E-006  0.1397733E+04  0.7818608E-02  0.8470899E-01
          2   -1    0    0  502    0  0.00000000000E+00  0.00000000000E+00  0.31424633154E+04  0.31424633154E+04  0.00000000000E+00 0.  1.
         -2   -1    0    0    0  501 -0.00000000000E+00 -0.00000000000E+00 -0.70110133562E+03  0.70110133562E+03  0.00000000000E+00 0. -1.
    9000010    2    1    2  502    0 -0.50628808613E+03  0.83421184174E+03  0.18689164418E+04  0.23349283162E+04  0.10033965080E+04 0.  0.
   -9000010    2    1    2    0  501  0.50628808613E+03 -0.83421184174E+03  0.57244553805E+03  0.15086363349E+04  0.99802438541E+03 0.  0.
        -13    1    3    3    0    0  0.13278380562E+03 -0.14860694877E+03  0.46499405512E+03  0.50590023396E+03  0.10566000000E+00 0.  1.
         13    1    4    4    0    0 -0.84414885905E+01 -0.69566920720E+03  0.67097528449E+03  0.96655819698E+03  0.10566000000E+00 0. -1.
          4    1    3    3  502    0 -0.63907189174E+03  0.98281879051E+03  0.14039223866E+04  0.18290280822E+04  0.00000000000E+00 0.  1.
         -4    1    4    4    0  501  0.51472957472E+03 -0.13854263453E+03 -0.98529746437E+02  0.54207813791E+03  0.00000000000E+00 0. -1.
</event>
<event>
 8    1  0.7096247E-006  0.1402064E+04  0.7818608E-02  0.8468190E-01
         -2   -1    0    0    0  501 -0.00000000000E+00  0.00000000000E+00  0.10348487698E+04  0.10348487698E+04  0.00000000000E+00 0.  1.
          2   -1    0    0  502    0  0.00000000000E+00 -0.00000000000E+00 -0.19086904502E+04  0.19086904502E+04  0.00000000000E+00 0. -1.
    9000010    2    1    2  502    0  0.10211934339E+04 -0.29955472274E+03 -0.53445979206E+03  0.15595794879E+04  0.10070113448E+04 0.  0.
   -9000010    2    1    2    0  501 -0.10211934339E+04  0.29955472274E+03 -0.33938188835E+03  0.13839597321E+04  0.81706512142E+03 0.  0.
        -13    1    3    3    0    0  0.15484984008E+03 -0.54346813003E+03 -0.20231205378E+03  0.60022184199E+03  0.10566000000E+00 0.  1.
         13    1    4    4    0    0 -0.57188661439E+03  0.44818431280E+02 -0.57859290534E+03  0.81475932199E+03  0.10566000000E+00 0. -1.
          4    1    3    3  502    0  0.86634359383E+03  0.24391340729E+03 -0.33214773828E+03  0.95935764596E+03  0.00000000000E+00 0.  1.
         -4    1    4    4    0  501 -0.44930681951E+03  0.25473629146E+03  0.23921101699E+03  0.56920041013E+03  0.00000000000E+00 0. -1.
</event>
<event>
 8    1  0.7096247E-006  0.1899489E+04  0.7818608E-02  0.8210588E-01
          2   -1    0    0  502    0  0.00000000000E+00  0.00000000000E+00  0.87653585854E+03  0.87653585854E+03  0.00000000000E+00 0. -1.
         -2   -1    0    0    0  501 -0.00000000000E+00 -0.00000000000E+00 -0.44355882632E+04  0.44355882632E+04  0.00000000000E+00 0.  1.
    9000010    2    1    2  502    0 -0.14009225990E+04  0.80711886947E+03 -0.24913001684E+04  0.31322245668E+04  0.99510261282E+03 0.  0.
   -9000010    2    1    2    0  501  0.14009225990E+04 -0.80711886947E+03 -0.10677522362E+04  0.21798995549E+04  0.99892053419E+03 0.  0.
        -13    1    3    3    0    0 -0.66928346241E+03 -0.78941975881E+02 -0.13695656763E+04  0.15263952114E+04  0.10566000000E+00 0.  1.
         13    1    4    4    0    0  0.10570475915E+04 -0.91288247620E+03 -0.45425046583E+03  0.14686890491E+04  0.10566000000E+00 0. -1.
          4    1    3    3  502    0 -0.73163913658E+03  0.88606084535E+03 -0.11217344921E+04  0.16058293554E+04  0.00000000000E+00 0.  1.
         -4    1    4    4    0  501  0.34387500745E+03  0.10576360674E+03 -0.61350177035E+03  0.71121050574E+03  0.00000000000E+00 0. -1.
</event>
<event>
 8    1  0.7096247E-006  0.1050214E+04  0.7818608E-02  0.8728790E-01
         -2   -1    0    0    0  501 -0.00000000000E+00  0.00000000000E+00  0.56472207384E+03  0.56472207384E+03  0.00000000000E+00 0.  1.
          2   -1    0    0  502    0  0.00000000000E+00 -0.00000000000E+00 -0.27044715413E+04  0.27044715413E+04  0.00000000000E+00 0. -1.
    9000010    2    1    2  502    0  0.25773124502E+03 -0.24891458328E+02 -0.19232259405E+04  0.21860721044E+04  0.10065129150E+04 0.  0.
   -9000010    2    1    2    0  501 -0.25773124502E+03  0.24891458328E+02 -0.21652352695E+03  0.10831215107E+04  0.10291864700E+04 0.  0.
        -13    1    3    3    0    0 -0.72001902910E+02 -0.34685088991E+03 -0.20970894370E+03  0.41166450671E+03  0.10566000000E+00 0.  1.
         13    1    4    4    0    0  0.40005447130E+02  0.41515993324E+03 -0.38152288088E+03  0.56525916690E+03  0.10566000000E+00 0. -1.
          4    1    3    3  502    0  0.32973314793E+03  0.32195943158E+03 -0.17135169968E+04  0.17744075977E+04  0.00000000000E+00 0.  1.
         -4    1    4    4    0  501 -0.29773669215E+03 -0.39026847492E+03  0.16499935393E+03  0.51786234383E+03  0.00000000000E+00 0. -1.
</event>
<event>
 8    1  0.7096247E-006  0.1087001E+04  0.7818608E-02  0.8696886E-01
         -2   -1    0    0    0  501 -0.00000000000E+00  0.00000000000E+00  0.87309414312E+03  0.87309414312E+03  0.00000000000E+00 0. -1.
          2   -1    0    0  502    0  0.00000000000E+00 -0.00000000000E+00 -0.13540191434E+04  0.13540191434E+04  0.00000000000E+00 0.  1.
    9000010    2    1    2  502    0  0.37290063438E+03 -0.20051414283E+03 -0.26294321531E+03  0.11109587407E+04  0.99288941197E+03 0.  0.
   -9000010    2    1    2    0  501 -0.37290063438E+03  0.20051414283E+03 -0.21798178495E+03  0.11161545458E+04  0.10094672392E+04 0.  0.
        -13    1    3    3    0    0 -0.15005671825E+03  0.41462715044E+02 -0.47275081977E+03  0.49772434559E+03  0.10566000000E+00 0.  1.
         13    1    4    4    0    0  0.16301097366E+03  0.78934320052E+02 -0.47583325179E+03  0.50913701406E+03  0.10566000000E+00 0. -1.
          4    1    3    3  502    0  0.52295735263E+03 -0.24197685788E+03  0.20980760446E+03  0.61323439508E+03  0.00000000000E+00 0.  1.
         -4    1    4    4    0  501 -0.53591160804E+03  0.12157982278E+03  0.25785146683E+03  0.60701753178E+03  0.00000000000E+00 0. -1.
</event>
<event>
 8    1  0.7096247E-006  0.1409806E+04  0.7818608E-02  0.8463374E-01
          4   -1    0    0  502    0  0.00000000000E+00  0.00000000000E+00  0.14050837900E+04  0.14050837900E+04  0.00000000000E+00 0. -1.
         -4   -1    0    0    0  501 -0.00000000000E+00 -0.00000000000E+00 -0.15682848121E+04  0.15682848121E+04  0.00000000000E+00 0.  1.
    9000010    2    1    2  502    0  0.96274426944E+03  0.18455634897E+03 -0.54671856136E+03  0.15064302066E+04  0.10047353920E+04 0.  0.
   -9000010    2    1    2    0  501 -0.96274426944E+03 -0.18455634897E+03  0.38351753925E+03  0.14669383954E+04  0.10217068948E+04 0.  0.
        -13    1    3    3    0    0  0.47956142202E+03  0.35543838258E+03  0.17427415734E+03  0.62184169559E+03  0.10566000000E+00 0.  1.
         13    1    4    4    0    0 -0.77507107853E+03 -0.56981260068E+03  0.13461341356E+03  0.97136108577E+03  0.10566000000E+00 0. -1.
          4    1    3    3  502    0  0.48318284742E+03 -0.17088203361E+03 -0.72099271870E+03  0.88458851104E+03  0.00000000000E+00 0.  1.
         -4    1    4    4    0  501 -0.18767319090E+03  0.38525625171E+03  0.24890412569E+03  0.49557730966E+03  0.00000000000E+00 0. -1.
</event>
<event>
 8    1  0.7096247E-006  0.1201851E+04  0.7818608E-02  0.8605170E-01
          2   -1    0    0  502    0  0.00000000000E+00  0.00000000000E+00  0.30256620994E+04  0.30256620994E+04  0.00000000000E+00 0. -1.
         -2   -1    0    0    0  501 -0.00000000000E+00 -0.00000000000E+00 -0.48325229940E+03  0.48325229940E+03  0.00000000000E+00 0.  1.
    9000010    2    1    2  502    0  0.38766904200E+03  0.55998346645E+03  0.14558212999E+04  0.18828832992E+04  0.98079819147E+03 0.  0.
   -9000010    2    1    2    0  501 -0.38766904200E+03 -0.55998346645E+03  0.10865885001E+04  0.16260310996E+04  0.99971685963E+03 0.  0.
        -13    1    3    3    0    0  0.50077815263E+03  0.21102487457E+03  0.14125898416E+04  0.15135125793E+04  0.10566000000E+00 0.  1.
         13    1    4    4    0    0 -0.70443710435E+03 -0.54709730267E+03  0.77691383887E+03  0.11828534215E+04  0.10566000000E+00 0. -1.
          4    1    3    3  502    0 -0.11310911063E+03  0.34895859188E+03  0.43231458273E+02  0.36937071993E+03  0.00000000000E+00 0.  1.
         -4    1    4    4    0  501  0.31676806235E+03 -0.12886163778E+02  0.30967466123E+03  0.44317767808E+03  0.00000000000E+00 0. -1.
</event>
<event>
 8    1  0.7096247E-006  0.1298967E+04  0.7818608E-02  0.8535546E-01
         -2   -1    0    0    0  501 -0.00000000000E+00  0.00000000000E+00  0.48386027009E+03  0.48386027009E+03  0.00000000000E+00 0.  1.
          2   -1    0    0  502    0  0.00000000000E+00 -0.00000000000E+00 -0.35654258470E+04  0.35654258470E+04  0.00000000000E+00 0. -1.
    9000010    2    1    2  502    0  0.70118278917E+02 -0.84355413828E+03 -0.12245825744E+04  0.17745079709E+04  0.96580324088E+03 0.  0.
   -9000010    2    1    2    0  501 -0.70118278917E+02  0.84355413828E+03 -0.18569830025E+04  0.22747781462E+04  0.10048530169E+04 0.  0.
        -13    1    3    3    0    0  0.85990196090E+02  0.14254031354E+03  0.39623955162E+02  0.17112020277E+03  0.10566000000E+00 0.  1.
         13    1    4    4    0    0 -0.50971351474E+03  0.23147765067E+03 -0.82166786154E+03  0.99424738155E+03  0.10566000000E+00 0. -1.
          4    1    3    3  502    0 -0.15871917173E+02 -0.98609445182E+03 -0.12642065296E+04  0.16033877682E+04  0.00000000000E+00 0.  1.
         -4    1    4    4    0  501  0.43959523583E+03  0.61207648761E+03 -0.10353151410E+04  0.12805307646E+04  0.00000000000E+00 0. -1.
</event>
<event>
 8    1  0.7096247E-006  0.1140499E+04  0.7818608E-02  0.8652767E-01
         -2   -1    0    0    0  501 -0.00000000000E+00  0.00000000000E+00  0.65194514064E+03  0.65194514064E+03  0.00000000000E+00 0.  1.
          2   -1    0    0  502    0  0.00000000000E+00 -0.00000000000E+00 -0.20600953556E+04  0.20600953556E+04  0.00000000000E+00 0. -1.
    9000010    2    1    2  502    0 -0.55154281435E+03 -0.11935131162E+03 -0.48332707043E+03  0.12659853250E+04  0.10250217434E+04 0.  0.
   -9000010    2    1    2    0  501  0.55154281435E+03  0.11935131162E+03 -0.92482314450E+03  0.14460551712E+04  0.95777528576E+03 0.  0.
        -13    1    3    3    0    0  0.42523300465E+02  0.23442174533E+03 -0.52166765350E+03  0.57349711215E+03  0.10566000000E+00 0.  1.
         13    1    4    4    0    0  0.65924464251E+03 -0.24559982271E+03 -0.44012170603E+03  0.82983727253E+03  0.10566000000E+00 0. -1.
          4    1    3    3  502    0 -0.59406611481E+03 -0.35377305695E+03  0.38340583073E+02  0.69248821282E+03  0.00000000000E+00 0.  1.
         -4    1    4    4    0  501 -0.10770182816E+03  0.36495113433E+03 -0.48470143847E+03  0.61621789871E+03  0.00000000000E+00 0. -1.
</event>
<event>
 8    1  0.7096247E-006  0.1269222E+04  0.7818608E-02  0.8556183E-01
          1   -1    0    0  502    0  0.00000000000E+00  0.00000000000E+00  0.21776052384E+04  0.21776052384E+04  0.00000000000E+00 0. -1.
         -1   -1    0    0    0  501 -0.00000000000E+00 -0.00000000000E+00 -0.76968078873E+03  0.76968078873E+03  0.00000000000E+00 0.  1.
    9000010    2    1    2  502    0  0.40072730830E+03  0.65382499571E+03  0.99304811362E+03  0.16094682730E+04  0.10080545943E+04 0.  0.
   -9000010    2    1    2    0  501 -0.40072730830E+03 -0.65382499571E+03  0.41487633609E+03  0.13378177542E+04  0.10146745629E+04 0.  0.
        -13    1    3    3    0    0 -0.29668785575E+03  0.11250115564E+03  0.56303413396E+02  0.32225809422E+03  0.10566000000E+00 0.  1.
         13    1    4    4    0    0 -0.27706108157E+03 -0.72453695189E+03 -0.11943254411E+03  0.78484443129E+03  0.10566000000E+00 0. -1.
          4    1    3    3  502    0  0.69741516405E+03  0.54132384007E+03  0.93674470022E+03  0.12872101787E+04  0.00000000000E+00 0.  1.
         -4    1    4    4    0  501 -0.12366622673E+03  0.70711956174E+02  0.53430888020E+03  0.55297332290E+03  0.00000000000E+00 0. -1.
</event>
<event>
 8    1  0.7096247E-006  0.1402733E+04  0.7818608E-02  0.8467773E-01
          2   -1    0    0  502    0  0.00000000000E+00  0.00000000000E+00  0.21718047956E+04  0.21718047956E+04  0.00000000000E+00 0.  1.
         -2   -1    0    0    0  501 -0.00000000000E+00 -0.00000000000E+00 -0.11084612422E+04  0.11084612422E+04  0.00000000000E+00 0. -1.
    9000010    2    1    2  502    0  0.72925938591E+03  0.65346112520E+03  0.12303820858E+04  0.18605737943E+04  0.99451700485E+03 0.  0.
   -9000010    2    1    2    0  501 -0.72925938591E+03 -0.65346112520E+03 -0.16703853239E+03  0.14196922435E+04  0.10142945829E+04 0.  0.
        -13    1    3    3    0    0  0.39710718923E+03 -0.20992736288E+03  0.25603606495E+03  0.51702813768E+03  0.10566000000E+00 0.  1.
         13    1    4    4    0    0 -0.62829361679E+03 -0.73678198908E+03  0.23539782762E+03  0.99650023419E+03  0.10566000000E+00 0. -1.
          4    1    3    3  502    0  0.33215219668E+03  0.86338848808E+03  0.97434602089E+03  0.13435456567E+04  0.00000000000E+00 0.  1.
         -4    1    4    4    0  501 -0.10096576912E+03  0.83320863880E+02 -0.40243636001E+03  0.42319200932E+03  0.00000000000E+00 0. -1.
</event>
<event>
 8    1  0.7096247E-006  0.1021851E+04  0.7818608E-02  0.8754327E-01
          1   -1    0    0  502    0  0.00000000000E+00  0.00000000000E+00  0.11628212118E+04  0.11628212118E+04  0.00000000000E+00 0. -1.
         -1   -1    0    0    0  501 -0.00000000000E+00 -0.00000000000E+00 -0.10010612816E+04  0.10010612816E+04  0.00000000000E+00 0.  1.
    9000010    2    1    2  502    0 -0.93012445311E+01  0.26568102529E+03  0.42680848142E+03  0.10948529426E+04  0.97255568774E+03 0.  0.
   -9000010    2    1    2    0  501  0.93012445311E+01 -0.26568102529E+03 -0.26504855125E+03  0.10690295507E+04  0.10009498117E+04 0.  0.
        -13    1    3    3    0    0 -0.16414180443E+03  0.57316685574E+03  0.72111138180E+02  0.60055208258E+03  0.10566000000E+00 0.  1.
         13    1    4    4    0    0 -0.14783646816E+03 -0.60053516767E+03 -0.31789635013E+03  0.69538206010E+03  0.10566000000E+00 0. -1.
          4    1    3    3  502    0  0.15484055990E+03 -0.30748583044E+03  0.35469734324E+03  0.49430086002E+03  0.00000000000E+00 0.  1.
         -4    1    4    4    0  501  0.15713771269E+03  0.33485414238E+03  0.52847798875E+02  0.37364749064E+03  0.00000000000E+00 0. -1.
</event>
<event>
 8    1  0.7096247E-006  0.1401187E+04  0.7818608E-02  0.8468738E-01
          2   -1    0    0  502    0  0.00000000000E+00  0.00000000000E+00  0.19442798969E+04  0.19442798969E+04  0.00000000000E+00 0. -1.
         -2   -1    0    0    0  501 -0.00000000000E+00 -0.00000000000E+00 -0.13502956302E+04  0.13502956302E+04  0.00000000000E+00 0.  1.
    9000010    2    1    2  502    0  0.32719345388E+03 -0.93180758599E+03 -0.52899143407E+03  0.15046996593E+04  0.10044740882E+04 0.  0.
   -9000010    2    1    2    0  501 -0.32719345388E+03  0.93180758599E+03  0.11229757008E+04  0.17898758678E+04  0.98349390636E+03 0.  0.
        -13    1    3    3    0    0  0.63275531442E+03 -0.73322767040E+03 -0.15198766174E+03  0.98035828402E+03  0.10566000000E+00 0.  1.
         13    1    4    4    0    0 -0.26520126880E+03 -0.89597448622E+02  0.13059817800E+02  0.28023202133E+03  0.10566000000E+00 0. -1.
          4    1    3    3  502    0 -0.30556186054E+03 -0.19857991559E+03 -0.37700377232E+03  0.52434137529E+03  0.00000000000E+00 0.  1.
         -4    1    4    4    0  501 -0.61992185074E+02  0.10214050346E+04  0.11099158830E+04  0.15096438464E+04  0.00000000000E+00 0. -1.
</event>
<event>
 8    1  0.7096247E-006  0.2489996E+04  0.7818608E-02  0.7993784E-01
         -2   -1    0    0    0  501 -0.00000000000E+00  0.00000000000E+00  0.40229748920E+04  0.40229748920E+04  0.00000000000E+00 0. -1.
          2   -1    0    0  502    0  0.00000000000E+00 -0.00000000000E+00 -0.15527557801E+04  0.15527557801E+04  0.00000000000E+00 0.  1.
    9000010    2    1    2  502    0  0.48779646305E+03  0.22434198092E+04  0.99459682180E+03  0.26818989168E+04  0.96565062634E+03 0.  0.
   -9000010    2    1    2    0  501 -0.48779646305E+03 -0.22434198092E+04  0.14756222901E+04  0.28938317554E+04  0.96224906120E+03 0.  0.
        -13    1    3    3    0    0  0.42439889078E+03  0.12781195562E+04  0.10577412583E+04  0.17124603935E+04  0.10566000000E+00 0.  1.
         13    1    4    4    0    0  0.29360655647E+03 -0.69685539884E+03  0.42466525379E+03  0.86726745923E+03  0.10566000000E+00 0. -1.
          4    1    3    3  502    0  0.63397572276E+02  0.96530025299E+03 -0.63144436532E+02  0.96943852330E+03  0.00000000000E+00 0.  1.
         -4    1    4    4    0  501 -0.78140301952E+03 -0.15465644104E+04  0.10509570363E+04  0.20265642962E+04  0.00000000000E+00 0. -1.
</event>
<event>
 8    1  0.7096247E-006  0.1124652E+04  0.7818608E-02  0.8665569E-01
         -2   -1    0    0    0  501 -0.00000000000E+00  0.00000000000E+00  0.46486945200E+03  0.46486945200E+03  0.00000000000E+00 0. -1.
          2   -1    0    0  502    0  0.00000000000E+00 -0.00000000000E+00 -0.28244139521E+04  0.28244139521E+04  0.00000000000E+00 0.  1.
    9000010    2    1    2  502    0 -0.13605155898E+03 -0.54013771805E+03 -0.85491092407E+03  0.14046393499E+04  0.96533943982E+03 0.  0.
   -9000010    2    1    2    0  501  0.13605155898E+03  0.54013771805E+03 -0.15046335760E+04  0.18846440542E+04  0.98878826435E+03 0.  0.
        -13    1    3    3    0    0 -0.17155265998E+03 -0.81651734898E+03 -0.60853072497E+03  0.10326860853E+04  0.10566000000E+00 0.  1.
         13    1    4    4    0    0  0.27541214690E+03  0.15307905947E+03 -0.14327983028E+04  0.14670364811E+04  0.10566000000E+00 0. -1.
          4    1    3    3  502    0  0.35501100998E+02  0.27637963093E+03 -0.24638019910E+03  0.37195326464E+03  0.00000000000E+00 0.  1.
         -4    1    4    4    0  501 -0.13936058792E+03  0.38705865857E+03 -0.71835273223E+02  0.41760757311E+03  0.00000000000E+00 0. -1.
</event>
<event>
 8    1  0.7096247E-006  0.1386331E+04  0.7818608E-02  0.8478077E-01
          1   -1    0    0  502    0  0.00000000000E+00  0.00000000000E+00  0.79683197627E+03  0.79683197627E+03  0.00000000000E+00 0. -1.
         -1   -1    0    0    0  501 -0.00000000000E+00 -0.00000000000E+00 -0.24539730299E+04  0.24539730299E+04  0.00000000000E+00 0.  1.
    9000010    2    1    2  502    0 -0.54392950279E+03 -0.78977891805E+03 -0.10398712215E+04  0.17310891453E+04  0.99786142736E+03 0.  0.
   -9000010    2    1    2    0  501  0.54392950279E+03  0.78977891805E+03 -0.61726983217E+03  0.15197158609E+04  0.10044422377E+04 0.  0.
        -13    1    3    3    0    0  0.20469815895E+03 -0.53361309997E+03 -0.28969691779E+03  0.64075626573E+03  0.10566000000E+00 0.  1.
         13    1    4    4    0    0  0.54728695911E+03  0.11687809405E+03  0.62631172216E+02  0.56312181576E+03  0.10566000000E+00 0. -1.
          4    1    3    3  502    0 -0.74862766174E+03 -0.25616581808E+03 -0.75017430367E+03  0.10903328795E+04  0.00000000000E+00 0.  1.
         -4    1    4    4    0  501 -0.33574563235E+01  0.67290082400E+03 -0.67990100439E+03  0.95659404515E+03  0.00000000000E+00 0. -1.
</event>
<event>
 8    1  0.7096247E-006  0.1241900E+04  0.7818608E-02  0.8575661E-01
         -4   -1    0    0    0  501 -0.00000000000E+00  0.00000000000E+00  0.19328157221E+04  0.19328157221E+04  0.00000000000E+00 0. -1.
          4   -1    0    0  502    0  0.00000000000E+00 -0.00000000000E+00 -0.80878298039E+03  0.80878298039E+03  0.00000000000E+00 0.  1.
    9000010    2    1    2  502    0  0.47347813876E+03  0.56855073592E+03  0.40158363642E+03  0.13010530206E+04  0.99198692435E+03 0.  0.
   -9000010    2    1    2    0  501 -0.47347813876E+03 -0.56855073592E+03  0.72244910532E+03  0.14405456820E+04  0.10028996285E+04 0.  0.
        -13    1    3    3    0    0  0.59789682209E+03  0.69885353576E+03  0.68371649909E+02  0.92225352695E+03  0.10566000000E+00 0.  1.
         13    1    4    4    0    0 -0.88907629938E+02  0.22694058062E+03 -0.70086270456E+02  0.25361129759E+03  0.10566000000E+00 0. -1.
          4    1    3    3  502    0 -0.12441868333E+03 -0.13030279984E+03  0.33321198652E+03  0.37879949362E+03  0.00000000000E+00 0.  1.
         -4    1    4    4    0  501 -0.38457050882E+03 -0.79549131654E+03  0.79253537577E+03  0.11869343844E+04  0.00000000000E+00 0. -1.
</event>
<event>
 8    1  0.7096247E-006  0.1540053E+04  0.7818608E-02  0.8386814E-01
          1   -1    0    0  502    0  0.00000000000E+00  0.00000000000E+00  0.21514409383E+04  0.21514409383E+04  0.00000000000E+00 0.  1.
         -1   -1    0    0    0  501 -0.00000000000E+00 -0.00000000000E+00 -0.12239996042E+04  0.12239996042E+04  0.00000000000E+00 0. -1.
    9000010    2    1    2  502    0  0.94659225243E+03  0.69265133454E+03  0.99898073767E+03  0.18465832464E+04  0.10178921397E+04 0.  0.
   -9000010    2    1    2    0  501 -0.94659225243E+03 -0.69265133454E+03 -0.71539403559E+02  0.15288572961E+04  0.97799999081E+03 0.  0.
        -13    1    3    3    0    0  0.11640182833E+04  0.64109476488E+03  0.87418580940E+03  0.15906419779E+04  0.10566000000E+00 0.  1.
         13    1    4    4    0    0 -0.67861410010E+03 -0.93579862164E+03 -0.12651066540E+03  0.11628590270E+04  0.10566000000E+00 0. -1.
          4    1    3    3  502    0 -0.21742603089E+03  0.51556569662E+02  0.12479492826E+03  0.25594126846E+03  0.00000000000E+00 0.  1.
         -4    1    4    4    0  501 -0.26797815233E+03  0.24314728710E+03  0.54971261845E+02  0.36599826909E+03  0.00000000000E+00 0. -1.
</event>
<event>
 8    1  0.7096247E-006  0.1194541E+04  0.7818608E-02  0.8610684E-01
          1   -1    0    0  502    0  0.00000000000E+00  0.00000000000E+00  0.13199573978E+04  0.13199573978E+04  0.00000000000E+00 0. -1.
         -1   -1    0    0    0  501 -0.00000000000E+00 -0.00000000000E+00 -0.12282461556E+04  0.12282461556E+04  0.00000000000E+00 0.  1.
    9000010    2    1    2  502    0  0.61520361222E+03  0.24328047356E+03  0.48686306755E+03  0.12880005853E+04  0.99209323554E+03 0.  0.
   -9000010    2    1    2    0  501 -0.61520361222E+03 -0.24328047356E+03 -0.39515182532E+03  0.12602029680E+04  0.99714877640E+03 0.  0.
        -13    1    3    3    0    0  0.56720605231E+03  0.58277105213E+03  0.19154381769E+03  0.83548420107E+03  0.10566000000E+00 0.  1.
         13    1    4    4    0    0 -0.88806031881E+02 -0.11770899911E+03  0.32645866163E+03  0.35821388679E+03  0.10566000000E+00 0. -1.
          4    1    3    3  502    0  0.47997559914E+02 -0.33949057857E+03  0.29531924986E+03  0.45251638427E+03  0.00000000000E+00 0.  1.
         -4    1    4    4    0  501 -0.52639758034E+03 -0.12557147445E+03 -0.72161048696E+03  0.90198908124E+03  0.00000000000E+00 0. -1.
</event>
<event>
 8    1  0.7096247E-006  0.1557258E+04  0.7818608E-02  0.8377289E-01
          2   -1    0    0  502    0  0.00000000000E+00  0.00000000000E+00  0.16949828793E+04  0.16949828793E+04  0.00000000000E+00 0.  1.
         -2   -1    0    0    0  501 -0.00000000000E+00 -0.00000000000E+00 -0.14742658292E+04  0.14742658292E+04  0.00000000000E+00 0. -1.
    9000010    2    1    2  502    0 -0.10952957754E+04  0.98473391446E+02 -0.15517809874E+03  0.14878396003E+04  0.99005888186E+03 0.  0.
   -9000010    2    1    2    0  501  0.10952957754E+04 -0.98473391446E+02  0.37589514881E+03  0.16814091082E+04  0.12151006467E+04 0.  0.
        -13    1    3    3    0    0 -0.10092242374E+02 -0.86532211525E+02  0.28817510659E+03  0.30105577591E+03  0.10566000000E+00 0.  1.
         13    1    4    4    0    0  0.23975417425E+03 -0.33534592698E+03 -0.34522518191E+03  0.53769823526E+03  0.10566000000E+00 0. -1.
          4    1    3    3  502    0 -0.10852035330E+04  0.18500560297E+03 -0.44335320533E+03  0.11867838244E+04  0.00000000000E+00 0.  1.
         -4    1    4    4    0  501  0.85554160115E+03  0.23687253554E+03  0.72112033072E+03  0.11437108729E+04  0.00000000000E+00 0. -1.
</event>
<event>
 8    1  0.7096247E-006  0.1742700E+04  0.7818608E-02  0.8282052E-01
         -2   -1    0    0    0  501 -0.00000000000E+00  0.00000000000E+00  0.10506764149E+04  0.10506764149E+04  0.00000000000E+00 0. -1.
          2   -1    0    0  502    0  0.00000000000E+00 -0.00000000000E+00 -0.28911024454E+04  0.28911024454E+04  0.00000000000E+00 0.  1.
    9000010    2    1    2  502    0  0.71462811000E+03 -0.12279642127E+04 -0.94714737756E+03  0.19819500896E+04  0.10062050287E+04 0.  0.
   -9000010    2    1    2    0  501 -0.71462811000E+03  0.12279642127E+04 -0.89327865290E+03  0.19598287707E+04  0.10121228263E+04 0.  0.
        -13    1    3    3    0    0  0.49106657772E+03 -0.29587709734E+03 -0.84063860322E+03  0.10175278438E+04  0.10566000000E+00 0.  1.
         13    1    4    4    0    0  0.17092024859E+03  0.59416388770E+03 -0.13494784291E+03  0.63281544569E+03  0.10566000000E+00 0. -1.
          4    1    3    3  502    0  0.22356153228E+03 -0.93208711532E+03 -0.10650877434E+03  0.96442224584E+03  0.00000000000E+00 0.  1.
         -4    1    4    4    0  501 -0.88554835859E+03  0.63380032495E+03 -0.75833081000E+03  0.13270133250E+04  0.00000000000E+00 0. -1.
</event>
<event>
 8    1  0.7096247E-006  0.1513967E+04  0.7818608E-02  0.8401506E-01
          2   -1    0    0  502    0  0.00000000000E+00  0.00000000000E+00  0.17285849729E+04  0.17285849729E+04  0.00000000000E+00 0.  1.
         -2   -1    0    0    0  501 -0.00000000000E+00 -0.00000000000E+00 -0.13421427327E+04  0.13421427327E+04  0.00000000000E+00 0. -1.
    9000010    2    1    2  502    0  0.10514333877E+04  0.38112416526E+03  0.35959315825E+03  0.15440779436E+04  0.10020487305E+04 0.  0.
   -9000010    2    1    2    0  501 -0.10514333877E+04 -0.38112416526E+03  0.26849081976E+02  0.15266497620E+04  0.10388314707E+04 0.  0.
        -13    1    3    3    0    0  0.13121930993E+03  0.36245727245E+03 -0.23203528878E+03  0.44992684745E+03  0.10566000000E+00 0.  1.
         13    1    4    4    0    0 -0.10362111825E+04  0.97433054821E+02  0.85420339770E+02  0.10442813129E+04  0.10566000000E+00 0. -1.
          4    1    3    3  502    0  0.92021407780E+03  0.18666892804E+02  0.59162844703E+03  0.10941510962E+04  0.00000000000E+00 0.  1.
         -4    1    4    4    0  501 -0.15222205209E+02 -0.47855722008E+03 -0.58571257794E+02  0.48236844907E+03  0.00000000000E+00 0. -1.
</event>
<event>
 8    1  0.7096247E-006  0.1440141E+04  0.7818608E-02  0.8444804E-01
          2   -1    0    0  502    0  0.00000000000E+00  0.00000000000E+00  0.12928010829E+04  0.12928010829E+04  0.00000000000E+00 0.  1.
         -2   -1    0    0    0  501 -0.00000000000E+00 -0.00000000000E+00 -0.16048233371E+04  0.16048233371E+04  0.00000000000E+00 0. -1.
    9000010    2    1    2  502    0  0.87767177292E+02 -0.10252177630E+04 -0.18190323223E+03  0.14469694536E+04  0.10009282066E+04 0.  0.
   -9000010    2    1    2    0  501 -0.87767177292E+02  0.10252177630E+04 -0.13011902196E+03  0.14506549664E+04  0.10142456964E+04 0.  0.
        -13    1    3    3    0    0  0.15998594775E+03  0.11376878257E+03  0.16252051017E+03  0.25485636495E+03  0.10566000000E+00 0.  1.
         13    1    4    4    0    0  0.40604300875E+03  0.34622379892E+03 -0.27238891926E+03  0.59911399449E+03  0.10566000000E+00 0. -1.
          4    1    3    3  502    0 -0.72218770456E+02 -0.11389865456E+04 -0.34442374240E+03  0.11921130887E+04  0.00000000000E+00 0.  1.
         -4    1    4    4    0  501 -0.49381018604E+03  0.67899396411E+03  0.14226989730E+03  0.85154097189E+03  0.00000000000E+00 0. -1.
</event>
<event>
 8    1  0.7096247E-006  0.1212444E+04  0.7818608E-02  0.8597250E-01
         -2   -1    0    0    0  501 -0.00000000000E+00  0.00000000000E+00  0.79529890329E+03  0.79529890329E+03  0.00000000000E+00 0.  1.
          2   -1    0    0  502    0  0.00000000000E+00 -0.00000000000E+00 -0.18946043692E+04  0.18946043692E+04  0.00000000000E+00 0. -1.
    9000010    2    1    2  502    0 -0.30082135021E+03  0.65961075539E+03 -0.76955040790E+03  0.14592670340E+04  0.10058193739E+04 0.  0.
   -9000010    2    1    2    0  501  0.30082135021E+03 -0.65961075539E+03 -0.32975505798E+03  0.12306362384E+04  0.93816167035E+03 0.  0.
        -13    1    3    3    0    0 -0.41000055385E+03 -0.12873197542E+03 -0.37786954388E+03  0.57223926727E+03  0.10566000000E+00 0.  1.
         13    1    4    4    0    0 -0.32580311240E+03 -0.15371503768E+03  0.38579792242E+00  0.36024455702E+03  0.10566000000E+00 0. -1.
          4    1    3    3  502    0  0.10917920364E+03  0.78834273081E+03 -0.39168086402E+03  0.88702776674E+03  0.00000000000E+00 0.  1.
         -4    1    4    4    0  501  0.62662446261E+03 -0.50589571771E+03 -0.33014085590E+03  0.87039168141E+03  0.00000000000E+00 0. -1.
</event>
<event>
 8    1  0.7096247E-006  0.1133704E+04  0.7818608E-02  0.8658230E-01
         -2   -1    0    0    0  501 -0.00000000000E+00  0.00000000000E+00  0.12318035779E+04  0.12318035779E+04  0.00000000000E+00 0. -1.
          2   -1    0    0  502    0  0.00000000000E+00 -0.00000000000E+00 -0.10659047655E+04  0.10659047655E+04  0.00000000000E+00 0.  1.
    9000010    2    1    2  502    0  0.27646304088E+03 -0.41683641932E+03  0.24549759709E+03  0.11334077020E+04  0.98699520537E+03 0.  0.
   -9000010    2    1    2    0  501 -0.27646304088E+03  0.41683641932E+03 -0.79598784681E+02  0.11643006413E+04  0.10483680668E+04 0.  0.
        -13    1    3    3    0    0 -0.24923878418E+02  0.17028637671E+03 -0.25324473984E+03  0.30618876404E+03  0.10566000000E+00 0.  1.
         13    1    4    4    0    0  0.38937409068E+03  0.70980849225E+02  0.62396362873E+02  0.40067914933E+03  0.10566000000E+00 0. -1.
          4    1    3    3  502    0  0.30138691930E+03 -0.58712279602E+03  0.49874233693E+03  0.82721893800E+03  0.00000000000E+00 0.  1.
         -4    1    4    4    0  501 -0.66583713156E+03  0.34585557009E+03 -0.14199514755E+03  0.76362149201E+03  0.00000000000E+00 0. -1.
</event>
<event>
 8    1  0.7096247E-006  0.1255704E+04  0.7818608E-02  0.8565756E-01
          2   -1    0    0  502    0  0.00000000000E+00  0.00000000000E+00  0.43967140140E+04  0.43967140140E+04  0.00000000000E+00 0. -1.
         -2   -1    0    0    0  501 -0.00000000000E+00 -0.00000000000E+00 -0.35958792768E+03  0.35958792768E+03  0.00000000000E+00 0.  1.
    9000010    2    1    2  502    0 -0.47122246008E+03  0.60161825132E+03  0.21318062297E+04  0.24712923173E+04  0.98928903229E+03 0.  0.
   -9000010    2    1    2    0  501  0.47122246008E+03 -0.60161825132E+03  0.19053198566E+04  0.22850096244E+04  0.10035088939E+04 0.  0.
        -13    1    3    3    0    0 -0.10692973433E+03  0.80456299007E+03  0.16127871425E+04  0.18055021327E+04  0.10566000000E+00 0.  1.
         13    1    4    4    0    0  0.75417804916E+02 -0.58794907605E+03  0.17697893090E+04  0.18664206843E+04  0.10566000000E+00 0. -1.
          4    1    3    3  502    0 -0.36429272574E+03 -0.20294473875E+03  0.51901908714E+03  0.66579018454E+03  0.00000000000E+00 0.  1.
         -4    1    4    4    0  501  0.39580465516E+03 -0.13669175272E+02  0.13553054759E+03  0.41858894005E+03  0.00000000000E+00 0. -1.
</event>
<event>
 8    1  0.7096247E-006  0.1222063E+04  0.7818608E-02  0.8590131E-01
         -2   -1    0    0    0  501 -0.00000000000E+00  0.00000000000E+00  0.93385016436E+03  0.93385016436E+03  0.00000000000E+00 0.  1.
          2   -1    0    0  502    0  0.00000000000E+00 -0.00000000000E+00 -0.37832588811E+04  0.37832588811E+04  0.00000000000E+00 0. -1.
    9000010    2    1    2  502    0  0.59667646851E+03  0.36332778459E+03  0.36618831766E+03  0.12779302636E+04  0.10054760005E+04 0.  0.
   -9000010    2    1    2    0  501 -0.59667646851E+03 -0.36332778459E+03 -0.32155970344E+04  0.34391787819E+04  0.99992825682E+03 0.  0.
        -13    1    3    3    0    0  0.55738017400E+03  0.16078882739E+03  0.68534186215E+03  0.89789709018E+03  0.10566000000E+00 0.  1.
         13    1    4    4    0    0  0.35018224937E+02  0.28069539454E+03 -0.11662682316E+04  0.12000824054E+04  0.10566000000E+00 0. -1.
          4    1    3    3  502    0  0.39296294516E+02  0.20253895720E+03 -0.31915354449E+03  0.38003317343E+03  0.00000000000E+00 0.  1.
         -4    1    4    4    0  501 -0.63169469345E+03 -0.64402317913E+03 -0.20493288028E+04  0.22390963765E+04  0.00000000000E+00 0. -1.
</event>
<event>
 8    1  0.7096247E-006  0.1305181E+04  0.7818608E-02  0.8531306E-01
          2   -1    0    0  502    0  0.00000000000E+00  0.00000000000E+00  0.14534210182E+04  0.14534210182E+04  0.00000000000E+00 0. -1.
         -2   -1    0    0    0  501 -0.00000000000E+00 -0.00000000000E+00 -0.11978466072E+04  0.11978466072E+04  0.00000000000E+00 0.  1.
    9000010    2    1    2  502    0 -0.54091144664E+03  0.65179389108E+03  0.32267630808E+03  0.13490246196E+04  0.99916312734E+03 0.  0.
   -9000010    2    1    2    0  501  0.54091144664E+03 -0.65179389108E+03 -0.67101897119E+02  0.13022430058E+04  0.98687066631E+03 0.  0.
        -13    1    3    3    0    0 -0.53138547556E+03  0.80260989095E+03  0.52504404758E+03  0.10964599508E+04  0.10566000000E+00 0.  1.
         13    1    4    4    0    0  0.56624750698E+03 -0.49715315881E+03 -0.45752379242E+03  0.88154723882E+03  0.10566000000E+00 0. -1.
          4    1    3    3  502    0 -0.95259710806E+01 -0.15081599987E+03 -0.20236773950E+03  0.25256466882E+03  0.00000000000E+00 0.  1.
         -4    1    4    4    0  501 -0.25336060339E+02 -0.15464073226E+03  0.39042189530E+03  0.42069576698E+03  0.00000000000E+00 0. -1.
</event>
<event>
 8    1  0.7096247E-006  0.1241968E+04  0.7818608E-02  0.8575612E-01
          1   -1    0    0  502    0  0.00000000000E+00  0.00000000000E+00  0.96336103901E+03  0.96336103901E+03  0.00000000000E+00 0.  1.
         -1   -1    0    0    0  501 -0.00000000000E+00 -0.00000000000E+00 -0.16089532119E+04  0.16089532119E+04  0.00000000000E+00 0. -1.
    9000010    2    1    2  502    0 -0.72079107363E+03 -0.70877093967E+02 -0.41399353644E+03  0.13164003265E+04  0.10183102852E+04 0.  0.
   -9000010    2    1    2    0  501  0.72079107363E+03  0.70877093967E+02 -0.23159863648E+03  0.12559139245E+04  0.99955916432E+03 0.  0.
        -13    1    3    3    0    0 -0.83730404716E+03  0.41835715701E+02  0.34958572691E+02  0.83907711652E+03  0.10566000000E+00 0.  1.
         13    1    4    4    0    0  0.47817413589E+03 -0.43739104033E+03 -0.29109987635E+01  0.64805085562E+03  0.10566000000E+00 0. -1.
          4    1    3    3  502    0  0.11651297353E+03 -0.11271280967E+03 -0.44895210913E+03  0.47732320995E+03  0.00000000000E+00 0.  1.
         -4    1    4    4    0  501  0.24261693775E+03  0.50826813430E+03 -0.22868763772E+03  0.60786306885E+03  0.00000000000E+00 0. -1.
</event>
<event>
 8    1  0.7096247E-006  0.1385207E+04  0.7818608E-02  0.8478789E-01
          2   -1    0    0  502    0  0.00000000000E+00  0.00000000000E+00  0.28809577366E+04  0.28809577366E+04  0.00000000000E+00 0.  1.
         -2   -1    0    0    0  501 -0.00000000000E+00 -0.00000000000E+00 -0.66606435005E+03  0.66606435005E+03  0.00000000000E+00 0. -1.
    9000010    2    1    2  502    0 -0.90886339241E+03  0.30399187607E+03  0.10924576189E+04  0.17618120408E+04  0.99602926212E+03 0.  0.
   -9000010    2    1    2    0  501  0.90886339241E+03 -0.30399187607E+03  0.11224357676E+04  0.17852100459E+04  0.10043252107E+04 0.  0.
        -13    1    3    3    0    0 -0.80909832160E+03 -0.22329149185E+03  0.58378612590E+03  0.10224017979E+04  0.10566000000E+00 0.  1.
         13    1    4    4    0    0  0.60888921205E+03 -0.48440109986E+03  0.11966708590E+04  0.14273792958E+04  0.10566000000E+00 0. -1.
          4    1    3    3  502    0 -0.99765070802E+02  0.52728336792E+03  0.50867149304E+03  0.73941024287E+03  0.00000000000E+00 0.  1.
         -4    1    4    4    0  501  0.29997418036E+03  0.18040922379E+03 -0.74235091415E+02  0.35783075009E+03  0.00000000000E+00 0. -1.
</event>
<event>
 8    1  0.7096247E-006  0.1123218E+04  0.7818608E-02  0.8666738E-01
         -1   -1    0    0    0  501 -0.00000000000E+00  0.00000000000E+00  0.71602438520E+03  0.71602438520E+03  0.00000000000E+00 0.  1.
          1   -1    0    0  502    0  0.00000000000E+00 -0.00000000000E+00 -0.19202207078E+04  0.19202207078E+04  0.00000000000E+00 0. -1.
    9000010    2    1    2  502    0  0.41175307720E+03 -0.45486561732E+03 -0.99456951330E+03  0.15251026051E+04  0.97996230182E+03 0.  0.
   -9000010    2    1    2    0  501 -0.41175307720E+03  0.45486561732E+03 -0.20962680931E+03  0.11111424879E+04  0.90235852231E+03 0.  0.
        -13    1    3    3    0    0 -0.31280510686E+03 -0.23645314963E+03 -0.26021413026E+03  0.47060443219E+03  0.10566000000E+00 0.  1.
         13    1    4    4    0    0 -0.51173774831E+03 -0.10504497531E+03 -0.97578976298E+02  0.53144297686E+03  0.10566000000E+00 0. -1.
          4    1    3    3  502    0  0.72455818406E+03 -0.21841246769E+03 -0.73435538304E+03  0.10544981729E+04  0.00000000000E+00 0.  1.
         -4    1    4    4    0  501  0.99984671104E+02  0.55991059263E+03 -0.11204783301E+03  0.57969951102E+03  0.00000000000E+00 0. -1.
</event>
<event>
 8    1  0.7096247E-006  0.1365015E+04  0.7818608E-02  0.8491689E-01
          2   -1    0    0  502    0  0.00000000000E+00  0.00000000000E+00  0.15043035339E+04  0.15043035339E+04  0.00000000000E+00 0.  1.
         -2   -1    0    0    0  501 -0.00000000000E+00 -0.00000000000E+00 -0.12407693844E+04  0.12407693844E+04  0.00000000000E+00 0. -1.
    9000010    2    1    2  502    0  0.92519912918E+03 -0.83880370700E+00  0.18892917601E+03  0.13788414967E+04  0.10047464890E+04 0.  0.
   -9000010    2    1    2    0  501 -0.92519912918E+03  0.83880370700E+00  0.74604973454E+02  0.13662314216E+04  0.10025109791E+04 0.  0.
        -13    1    3    3    0    0 -0.19766846488E+03  0.71402848539E+02 -0.74932761570E+02  0.22312803210E+03  0.10566000000E+00 0.  1.
         13    1    4    4    0    0 -0.35906436283E+03 -0.44018661030E+03 -0.19354617191E+03  0.60012632035E+03  0.10566000000E+00 0. -1.
          4    1    3    3  502    0  0.11228675941E+04 -0.72241652246E+02  0.26386193758E+03  0.11557134646E+04  0.00000000000E+00 0.  1.
         -4    1    4    4    0  501 -0.56613476635E+03  0.44102541401E+03  0.26815114537E+03  0.76610510129E+03  0.00000000000E+00 0. -1.
</event>
<event>
 8    1  0.7096247E-006  0.1056758E+04  0.7818608E-02  0.8723016E-01
         -4   -1    0    0    0  501 -0.00000000000E+00  0.00000000000E+00  0.24673984851E+04  0.24673984851E+04  0.00000000000E+00 0. -1.
          4   -1    0    0  502    0  0.00000000000E+00 -0.00000000000E+00 -0.45920269940E+03  0.45920269940E+03  0.00000000000E+00 0.  1.
    9000010    2    1    2  502    0 -0.33305335520E+03  0.32414747950E+02  0.82362643956E+03  0.13355108126E+04  0.99662097376E+03 0.  0.
   -9000010    2    1    2    0  501  0.33305335520E+03 -0.32414747950E+02  0.11845693461E+04  0.15910903719E+04  0.10081610895E+04 0.  0.
        -13    1    3    3    0    0  0.54519193569E+02 -0.10516780931E+03 -0.19994738962E+03  0.23240391641E+03  0.10566000000E+00 0.  1.
         13    1    4    4    0    0 -0.26795259795E+03 -0.27587014088E+03  0.26970554589E+03  0.46972760407E+03  0.10566000000E+00 0. -1.
          4    1    3    3  502    0 -0.38757254877E+03  0.13758255726E+03  0.10235738292E+04  0.11031068962E+04  0.00000000000E+00 0.  1.
         -4    1    4    4    0  501  0.60100595315E+03  0.24345539293E+03  0.91486380026E+03  0.11213627678E+04  0.00000000000E+00 0. -1.
</event>
<event>
 7    1  0.7096247E-006  0.8196168E+03  0.7818608E-02  0.8965503E-01
         -1   -1    0    0    0  501 -0.00000000000E+00  0.00000000000E+00  0.71013987259E+03  0.71013987259E+03  0.00000000000E+00 0. -1.
          1   -1    0    0  502    0  0.00000000000E+00 -0.00000000000E+00 -0.10479822642E+04  0.10479822642E+04  0.00000000000E+00 0.  1.
   -9000010    2    1    2    0  501 -0.39849622031E+03 -0.31969675970E+03 -0.14175411755E+03  0.11251239252E+04  0.99237309591E+03 0.  0.
        -13    1    1    2    0    0  0.35817702132E+03  0.31860279825E+03 -0.26898784953E+03  0.54968445131E+03  0.10566000000E+00 0.  1.
         13    1    3    3    0    0  0.61693334794E+02 -0.51794777613E+03 -0.29739332920E+03  0.60043215251E+03  0.10566000000E+00 0. -1.
          4    1    1    2  502    0  0.40319198992E+02  0.10939614539E+01  0.72899575430E+02  0.83313760309E+02  0.00000000000E+00 0.  1.
         -4    1    3    3    0  501 -0.46018955511E+03  0.19825101643E+03  0.15563921165E+03  0.52469177271E+03  0.00000000000E+00 0. -1.
</event>
<event>
 8    1  0.7096247E-006  0.1101986E+04  0.7818608E-02  0.8684266E-01
         -1   -1    0    0    0  501 -0.00000000000E+00  0.00000000000E+00  0.73719909731E+03  0.73719909731E+03  0.00000000000E+00 0.  1.
          1   -1    0    0  502    0  0.00000000000E+00 -0.00000000000E+00 -0.16589160259E+04  0.16589160259E+04  0.00000000000E+00 0. -1.
    9000010    2    1    2  502    0  0.17521816807E+03 -0.43896219132E+03 -0.36431523300E+03  0.11684448366E+04  0.10045638533E+04 0.  0.
   -9000010    2    1    2    0  501 -0.17521816807E+03  0.43896219132E+03 -0.55740169559E+03  0.12276702866E+04  0.98645246749E+03 0.  0.
        -13    1    3    3    0    0  0.19814983118E+02 -0.74587278300E+03 -0.34996805029E+03  0.82413378123E+03  0.10566000000E+00 0.  1.
         13    1    4    4    0    0 -0.51234266842E+03  0.52872748244E+03 -0.44897994335E+03  0.86234028159E+03  0.10566000000E+00 0. -1.
          4    1    3    3  502    0  0.15540318495E+03  0.30691059168E+03 -0.14347182709E+02  0.34431105534E+03  0.00000000000E+00 0.  1.
         -4    1    4    4    0  501  0.33712450035E+03 -0.89765291121E+02 -0.10842175224E+03  0.36533000504E+03  0.00000000000E+00 0. -1.
</event>
<event>
 8    1  0.7096247E-006  0.1057189E+04  0.7818608E-02  0.8722637E-01
          2   -1    0    0  502    0  0.00000000000E+00  0.00000000000E+00  0.17898692411E+04  0.17898692411E+04  0.00000000000E+00 0.  1.
         -2   -1    0    0    0  501 -0.00000000000E+00 -0.00000000000E+00 -0.62626107143E+03  0.62626107143E+03  0.00000000000E+00 0. -1.
    9000010    2    1    2  502    0  0.25089827512E+03  0.21708000824E+03  0.51304927362E+03  0.11686512994E+04  0.99621916662E+03 0.  0.
   -9000010    2    1    2    0  501 -0.25089827512E+03 -0.21708000824E+03  0.65055889605E+03  0.12474790131E+04  0.10113868383E+04 0.  0.
        -13    1    3    3    0    0  0.56010708820E+03  0.42846046485E+02  0.21233502140E+02  0.56214464930E+03  0.10566000000E+00 0.  1.
         13    1    4    4    0    0 -0.42871259589E+03 -0.16334612934E+02 -0.10842390568E+03  0.44251221897E+03  0.10566000000E+00 0. -1.
          4    1    3    3  502    0 -0.30920881309E+03  0.17423396176E+03  0.49181577148E+03  0.60650665008E+03  0.00000000000E+00 0.  1.
         -4    1    4    4    0  501  0.17781432077E+03 -0.20074539531E+03  0.75898280172E+03  0.80496679417E+03  0.00000000000E+00 0. -1.
</event>
<event>
 7    1  0.7096247E-006  0.1469757E+04  0.7818608E-02  0.8427120E-01
          1   -1    0    0  502    0  0.00000000000E+00  0.00000000000E+00  0.98310219529E+03  0.98310219529E+03  0.00000000000E+00 0.  1.
         -1   -1    0    0    0  501 -0.00000000000E+00 -0.00000000000E+00 -0.26194886568E+04  0.26194886568E+04  0.00000000000E+00 0. -1.
   -9000010    2    1    2    0  501 -0.41140343803E+03 -0.17136057955E+03 -0.11365997129E+04  0.15854906541E+04  0.10115851273E+04 0.  0.
        -13    1    1    2    0    0  0.99532656815E+03 -0.28515783052E+03 -0.69944029277E+03  0.12494825729E+04  0.10566000000E+00 0.  1.
         13    1    3    3    0    0  0.95883966471E+02 -0.48466838073E+03 -0.38644692917E+03  0.62724669352E+03  0.10566000000E+00 0. -1.
          4    1    1    2  502    0 -0.58392313012E+03  0.45651841007E+03  0.19965354421E+03  0.76761762508E+03  0.00000000000E+00 0.  1.
         -4    1    3    3    0  501 -0.50728740450E+03  0.31330780118E+03 -0.75015278373E+03  0.95824396057E+03  0.00000000000E+00 0. -1.
</event>
<event>
 8    1  0.7096247E-006  0.1138812E+04  0.7818608E-02  0.8654120E-01
          4   -1    0    0  502    0  0.00000000000E+00  0.00000000000E+00  0.25182438096E+04  0.25182438096E+04  0.00000000000E+00 0. -1.
         -4   -1    0    0    0  501 -0.00000000000E+00 -0.00000000000E+00 -0.54796511794E+03  0.54796511794E+03  0.00000000000E+00 0.  1.
    9000010    2    1    2  502    0  0.40545415779E+03 -0.36282112716E+03  0.61031817303E+03  0.12933600164E+04  0.10021275444E+04 0.  0.
   -9000010    2    1    2    0  501 -0.40545415779E+03  0.36282112716E+03  0.13599605186E+04  0.17728489112E+04  0.99873340048E+03 0.  0.
        -13    1    3    3    0    0 -0.10149863422E+03  0.28802881183E+03  0.91533670999E+02  0.31881184621E+03  0.10566000000E+00 0.  1.
         13    1    4    4    0    0 -0.18899002490E+03 -0.28271035803E+03  0.12438011418E+03  0.36209501518E+03  0.10566000000E+00 0. -1.
          4    1    3    3  502    0  0.50695279201E+03 -0.65084993899E+03  0.51878450203E+03  0.97454817016E+03  0.00000000000E+00 0.  1.
         -4    1    4    4    0  501 -0.21646413288E+03  0.64553148519E+03  0.12355804044E+04  0.14107538960E+04  0.00000000000E+00 0. -1.
</event>
<event>
 8    1  0.7096247E-006  0.1242666E+04  0.7818608E-02  0.8575108E-01
         -2   -1    0    0    0  501 -0.00000000000E+00  0.00000000000E+00  0.63922629386E+03  0.63922629386E+03  0.00000000000E+00 0. -1.
          2   -1    0    0  502    0  0.00000000000E+00 -0.00000000000E+00 -0.24286262721E+04  0.24286262721E+04  0.00000000000E+00 0.  1.
    9000010    2    1    2  502    0  0.16893932941E+03  0.72516142761E+03 -0.78526524098E+03  0.14725230354E+04  0.99864057504E+03 0.  0.
   -9000010    2    1    2    0  501 -0.16893932941E+03 -0.72516142761E+03 -0.10041347373E+04  0.15953295305E+04  0.99115596514E+03 0.  0.
        -13    1    3    3    0    0  0.37522522078E+03 -0.73540647905E+02 -0.42698633977E+03  0.57316624003E+03  0.10566000000E+00 0.  1.
         13    1    4    4    0    0 -0.39698377100E+02 -0.29768620243E+03 -0.10985599826E+04  0.11388709685E+04  0.10566000000E+00 0. -1.
          4    1    3    3  502    0 -0.20628589136E+03  0.79870207552E+03 -0.35827890121E+03  0.89935679541E+03  0.00000000000E+00 0.  1.
         -4    1    4    4    0  501 -0.12924095231E+03 -0.42747522518E+03  0.94425245357E+02  0.45645856204E+03  0.00000000000E+00 0. -1.
</event>
<event>
 8    1  0.7096247E-006  0.1080493E+04  0.7818608E-02  0.8702433E-01
         -4   -1    0    0    0  501 -0.00000000000E+00  0.00000000000E+00  0.26830024606E+04  0.26830024606E+04  0.00000000000E+00 0. -1.
          4   -1    0    0  502    0  0.00000000000E+00 -0.00000000000E+00 -0.47603590708E+03  0.47603590708E+03  0.00000000000E+00 0.  1.
    9000010    2    1    2  502    0  0.25951400937E+02  0.41275632491E+03  0.64697998732E+03  0.12652750670E+04  0.10056324539E+04 0.  0.
   -9000010    2    1    2    0  501 -0.25951400937E+02 -0.41275632491E+03  0.15599865662E+04  0.18937633007E+04  0.99082798369E+03 0.  0.
        -13    1    3    3    0    0  0.30248329179E+03  0.50150863271E+03  0.33621065568E+02  0.58663228492E+03  0.10566000000E+00 0.  1.
         13    1    4    4    0    0 -0.40431838564E+03  0.42292373850E+02  0.99807537061E+03  0.10776903351E+04  0.10566000000E+00 0. -1.
          4    1    3    3  502    0 -0.27653189085E+03 -0.88752307802E+02  0.61335892175E+03  0.67864278209E+03  0.00000000000E+00 0.  1.
         -4    1    4    4    0  501  0.37836698470E+03 -0.45504869876E+03  0.56191119561E+03  0.81607296555E+03  0.00000000000E+00 0. -1.
</event>
<event>
 8    1  0.7096247E-006  0.1560923E+04  0.7818608E-02  0.8375276E-01
         -2   -1    0    0    0  501 -0.00000000000E+00  0.00000000000E+00  0.37990907779E+04  0.37990907779E+04  0.00000000000E+00 0. -1.
          2   -1    0    0  502    0  0.00000000000E+00 -0.00000000000E+00 -0.70483402843E+03  0.70483402843E+03  0.00000000000E+00 0.  1.
    9000010    2    1    2  502    0  0.73564093218E+03 -0.94398591801E+03  0.87315873166E+03  0.17904475407E+04  0.10054945205E+04 0.  0.
   -9000010    2    1    2    0  501 -0.73564093218E+03  0.94398591801E+03  0.22210980178E+04  0.27134772657E+04  0.99870189350E+03 0.  0.
        -13    1    3    3    0    0  0.25892656016E+03  0.13442248101E+03  0.45286545291E+03  0.53870167677E+03  0.10566000000E+00 0.  1.
         13    1    4    4    0    0 -0.84504976338E+03  0.36655578852E+03  0.10077859724E+04  0.13653222425E+04  0.10566000000E+00 0. -1.
          4    1    3    3  502    0  0.47671437202E+03 -0.10784083990E+04  0.42029327875E+03  0.12517458639E+04  0.00000000000E+00 0.  1.
         -4    1    4    4    0  501  0.10940883120E+03  0.57743012949E+03  0.12133120454E+04  0.13481550231E+04  0.00000000000E+00 0. -1.
</event>
<event>
 8    1  0.7096247E-006  0.1787656E+04  0.7818608E-02  0.8260796E-01
          1   -1    0    0  502    0  0.00000000000E+00  0.00000000000E+00  0.11444214113E+04  0.11444214113E+04  0.00000000000E+00 0. -1.
         -1   -1    0    0    0  501 -0.00000000000E+00 -0.00000000000E+00 -0.28091870654E+04  0.28091870654E+04  0.00000000000E+00 0.  1.
    9000010    2    1    2  502    0  0.37200447088E+03 -0.14237510428E+04 -0.98185952525E+03  0.20338001281E+04  0.10034144087E+04 0.  0.
   -9000010    2    1    2    0  501 -0.37200447088E+03  0.14237510428E+04 -0.68290612881E+03  0.19198083486E+04  0.10265714571E+04 0.  0.
        -13    1    3    3    0    0  0.16235194708E+03 -0.88343221335E+03 -0.11222732615E+04  0.14374657961E+04  0.10566000000E+00 0.  1.
         13    1    4    4    0    0  0.23704412907E+03  0.77091840508E+03 -0.18241670395E+02  0.80674523619E+03  0.10566000000E+00 0. -1.
          4    1    3    3  502    0  0.20965252381E+03 -0.54031882947E+03  0.14041373625E+03  0.59633433202E+03  0.00000000000E+00 0.  1.
         -4    1    4    4    0  501 -0.60904859995E+03  0.65283263774E+03 -0.66466445842E+03  0.11130631124E+04  0.00000000000E+00 0. -1.
</event>
<event>
 8    1  0.7096247E-006  0.1297963E+04  0.7818608E-02  0.8536232E-01
          2   -1    0    0  502    0  0.00000000000E+00  0.00000000000E+00  0.16139135305E+04  0.16139135305E+04  0.00000000000E+00 0.  1.
         -2   -1    0    0    0  501 -0.00000000000E+00 -0.00000000000E+00 -0.10980796016E+04  0.10980796016E+04  0.00000000000E+00 0. -1.
    9000010    2    1    2  502    0  0.59662883650E+03 -0.56854815007E+03 -0.42271836162E+02  0.13042403977E+04  0.10099718508E+04 0.  0.
   -9000010    2    1    2    0  501 -0.59662883650E+03  0.56854815007E+03  0.55810576512E+03  0.14077527344E+04  0.99552636765E+03 0.  0.
        -13    1    3    3    0    0  0.71622759704E+03 -0.75250454632E+03  0.98534054411E+02  0.10435296038E+04  0.10566000000E+00 0.  1.
         13    1    4    4    0    0 -0.34363040504E+03  0.48420395768E+02 -0.24012108814E+03  0.42200063759E+03  0.10566000000E+00 0. -1.
          4    1    3    3  502    0 -0.11959876053E+03  0.18395639625E+03 -0.14080589057E+03  0.26071079391E+03  0.00000000000E+00 0.  1.
         -4    1    4    4    0  501 -0.25299843146E+03  0.52012775430E+03  0.79822685326E+03  0.98575209682E+03  0.00000000000E+00 0. -1.
</event>
<event>
 8    1  0.7096247E-006  0.1036778E+04  0.7818608E-02  0.8740783E-01
          2   -1    0    0  502    0  0.00000000000E+00  0.00000000000E+00  0.29597673922E+04  0.29597673922E+04  0.00000000000E+00 0. -1.
         -2   -1    0    0    0  501 -0.00000000000E+00 -0.00000000000E+00 -0.48688147572E+03  0.48688147572E+03  0.00000000000E+00 0.  1.
    9000010    2    1    2  502    0  0.29386011737E+03  0.33763222344E+03  0.43746615636E+03  0.11922765121E+04  0.10147893163E+04 0.  0.
   -9000010    2    1    2    0  501 -0.29386011737E+03 -0.33763222344E+03  0.20354197601E+04  0.22543723559E+04  0.85959980921E+03 0.  0.
        -13    1    3    3    0    0  0.19151701170E+03  0.62559637882E+03  0.56178080294E+03  0.86234985747E+03  0.10566000000E+00 0.  1.
         13    1    4    4    0    0  0.26386606109E+03  0.49948592464E+02  0.80956768886E+03  0.85294783785E+03  0.10566000000E+00 0. -1.
          4    1    3    3  502    0  0.10234310567E+03 -0.28796415538E+03 -0.12431464658E+03  0.32992665461E+03  0.00000000000E+00 0.  1.
         -4    1    4    4    0  501 -0.55772617846E+03 -0.38758081590E+03  0.12258520713E+04  0.14014245180E+04  0.00000000000E+00 0. -1.
</event>
<event>
 7    1  0.7096247E-006  0.1216616E+04  0.7818608E-02  0.8594154E-01
          4   -1    0    0  502    0  0.00000000000E+00  0.00000000000E+00  0.94833195195E+03  0.94833195195E+03  0.00000000000E+00 0.  1.
         -4   -1    0    0    0  501 -0.00000000000E+00 -0.00000000000E+00 -0.18452602383E+04  0.18452602383E+04  0.00000000000E+00 0. -1.
    9000010    2    1    2  502    0  0.26343646773E+02 -0.88486529096E+03 -0.10174446425E+04  0.16844150046E+04  0.10091480249E+04 0.  0.
        -13    1    3    3    0    0  0.21957869864E+03  0.13907477341E+03 -0.54448843288E+02  0.26555844026E+03  0.10566000000E+00 0.  1.
         13    1    1    2    0    0 -0.25018851672E+03  0.55771948595E+03 -0.14983807295E+03  0.62936219951E+03  0.10566000000E+00 0. -1.
          4    1    3    3  502    0 -0.19323505187E+03 -0.10239400644E+04 -0.96299579925E+03  0.14188565643E+04  0.00000000000E+00 0.  1.
         -4    1    1    2    0  501  0.22384486994E+03  0.32714580501E+03  0.27035442919E+03  0.47981498613E+03  0.00000000000E+00 0. -1.
</event>
<event>
 8    1  0.7096247E-006  0.1368075E+04  0.7818608E-02  0.8489719E-01
         -2   -1    0    0    0  501 -0.00000000000E+00  0.00000000000E+00  0.12649639631E+04  0.12649639631E+04  0.00000000000E+00 0.  1.
          2   -1    0    0  502    0  0.00000000000E+00 -0.00000000000E+00 -0.17279555491E+04  0.17279555491E+04  0.00000000000E+00 0. -1.
    9000010    2    1    2  502    0  0.51022968084E+02 -0.93532801019E+03 -0.80018471580E+03  0.15936065581E+04  0.10108632216E+04 0.  0.
   -9000010    2    1    2    0  501 -0.51022968084E+02  0.93532801019E+03  0.33719312978E+03  0.13993129540E+04  0.98332889039E+03 0.  0.
        -13    1    3    3    0    0  0.42072293862E+03 -0.76809706681E+03 -0.80247997086E+03  0.11878362724E+04  0.10566000000E+00 0.  1.
         13    1    4    4    0    0  0.24222620805E+03  0.30312191102E+03  0.54778172572E+03  0.67128329266E+03  0.10566000000E+00 0. -1.
          4    1    3    3  502    0 -0.36969997054E+03 -0.16723094337E+03  0.22952550545E+01  0.40577028580E+03  0.00000000000E+00 0.  1.
         -4    1    4    4    0  501 -0.29324917613E+03  0.63220609916E+03 -0.21058859594E+03  0.72802966139E+03  0.00000000000E+00 0. -1.
</event>
<event>
 8    1  0.7096247E-006  0.1124492E+04  0.7818608E-02  0.8665700E-01
         -2   -1    0    0    0  501 -0.00000000000E+00  0.00000000000E+00  0.75424516456E+03  0.75424516456E+03  0.00000000000E+00 0.  1.
          2   -1    0    0  502    0  0.00000000000E+00 -0.00000000000E+00 -0.17954555998E+04  0.17954555998E+04  0.00000000000E+00 0. -1.
    9000010    2    1    2  502    0 -0.12675305690E+02  0.48806461274E+03 -0.85133955521E+03  0.14153074340E+04  0.10197785862E+04 0.  0.
   -9000010    2    1    2    0  501  0.12675305690E+02 -0.48806461274E+03 -0.18987088007E+03  0.11343933304E+04  0.10061955811E+04 0.  0.
        -13    1    3    3    0    0 -0.21774963035E+03  0.10476697670E+03 -0.94092894732E+03  0.97146194779E+03  0.10566000000E+00 0.  1.
         13    1    4    4    0    0  0.19390304786E+03 -0.29228597121E+03 -0.57042752271E+03  0.66963949313E+03  0.10566000000E+00 0. -1.
          4    1    3    3  502    0  0.20507432466E+03  0.38329763604E+03  0.89589392118E+02  0.44384548618E+03  0.00000000000E+00 0.  1.
         -4    1    4    4    0  501 -0.18122774217E+03 -0.19577864153E+03  0.38055664264E+03  0.46475383728E+03  0.00000000000E+00 0. -1.
</event>
<event>
 8    1  0.7096247E-006  0.1093466E+04  0.7818608E-02  0.8691415E-01
         -2   -1    0    0    0  501 -0.00000000000E+00  0.00000000000E+00  0.48465641315E+03  0.48465641315E+03  0.00000000000E+00 0.  1.
          2   -1    0    0  502    0  0.00000000000E+00 -0.00000000000E+00 -0.25274776722E+04  0.25274776722E+04  0.00000000000E+00 0. -1.
    9000010    2    1    2  502    0  0.37073290719E+03  0.28088103508E+03 -0.77487043621E+03  0.13271440871E+04  0.97187972026E+03 0.  0.
   -9000010    2    1    2    0  501 -0.37073290719E+03 -0.28088103508E+03 -0.12679508229E+04  0.16849899983E+04  0.10075489868E+04 0.  0.
        -13    1    3    3    0    0 -0.36689275998E+02  0.57192171753E+03 -0.35892784635E+03  0.67621724616E+03  0.10566000000E+00 0.  1.
         13    1    4    4    0    0  0.18622892367E+03 -0.43535286292E+03 -0.30929839168E+03  0.56557831776E+03  0.10566000000E+00 0. -1.
          4    1    3    3  502    0  0.40742218319E+03 -0.29104068244E+03 -0.41594258986E+03  0.65092684094E+03  0.00000000000E+00 0.  1.
         -4    1    4    4    0  501 -0.55696183087E+03  0.15447182784E+03 -0.95865243119E+03  0.11194116805E+04  0.00000000000E+00 0. -1.
</event>
<event>
 8    1  0.7096247E-006  0.1218195E+04  0.7818608E-02  0.8592986E-01
          2   -1    0    0  502    0  0.00000000000E+00  0.00000000000E+00  0.14942469737E+04  0.14942469737E+04  0.00000000000E+00 0. -1.
         -2   -1    0    0    0  501 -0.00000000000E+00 -0.00000000000E+00 -0.10218376159E+04  0.10218376159E+04  0.00000000000E+00 0.  1.
    9000010    2    1    2  502    0 -0.49281690007E+03  0.55257816357E+03  0.23454951853E+02  0.12062527089E+04  0.95198967380E+03 0.  0.
   -9000010    2    1    2    0  501  0.49281690007E+03 -0.55257816357E+03  0.44895440595E+03  0.13098318808E+04  0.98279620145E+03 0.  0.
        -13    1    3    3    0    0 -0.20804766176E+03  0.10448882261E+03  0.46218723741E+03  0.51751212276E+03  0.10566000000E+00 0.  1.
         13    1    4    4    0    0  0.95253245783E+02  0.12867178169E+03  0.49447900280E+03  0.51974907755E+03  0.10566000000E+00 0. -1.
          4    1    3    3  502    0 -0.28476923831E+03  0.44808934095E+03 -0.43873228555E+03  0.68874058610E+03  0.00000000000E+00 0.  1.
         -4    1    4    4    0  501  0.39756365429E+03 -0.68124994526E+03 -0.45524596854E+02  0.79008280329E+03  0.00000000000E+00 0. -1.
</event>
<event>
 8    1  0.7096247E-006  0.1288203E+04  0.7818608E-02  0.8542947E-01
          2   -1    0    0  502    0  0.00000000000E+00  0.00000000000E+00  0.13938357293E+04  0.13938357293E+04  0.00000000000E+00 0. -1.
         -2   -1    0    0    0  501 -0.00000000000E+00 -0.00000000000E+00 -0.13039934384E+04  0.13039934384E+04  0.00000000000E+00 0.  1.
    9000010    2    1    2  502    0  0.68097035909E+03  0.42299426842E+03 -0.35306874865E+03  0.13278214644E+04  0.99790155780E+03 0.  0.
   -9000010    2    1    2    0  501 -0.68097035909E+03 -0.42299426842E+03  0.44291103957E+03  0.13700077033E+04  0.10188749369E+04 0.  0.
        -13    1    3    3    0    0  0.59611388575E+03 -0.21539202225E+03 -0.21391014886E+03  0.66895668842E+03  0.10566000000E+00 0.  1.
         13    1    4    4    0    0 -0.14628181869E+03 -0.63717547282E+03  0.17564476060E+02  0.65398736656E+03  0.10566000000E+00 0. -1.
          4    1    3    3  502    0  0.84856473340E+02  0.63838629067E+03 -0.13915859978E+03  0.65886477601E+03  0.00000000000E+00 0.  1.
         -4    1    4    4    0  501 -0.53468854040E+03  0.21418120440E+03  0.42534656351E+03  0.71602033675E+03  0.00000000000E+00 0. -1.
</event>
<event>
 8    1  0.7096247E-006  0.1089613E+04  0.7818608E-02  0.8694672E-01
          1   -1    0    0  502    0  0.00000000000E+00  0.00000000000E+00  0.21550871499E+04  0.21550871499E+04  0.00000000000E+00 0.  1.
         -1   -1    0    0    0  501 -0.00000000000E+00 -0.00000000000E+00 -0.57452560605E+03  0.57452560605E+03  0.00000000000E+00 0. -1.
    9000010    2    1    2  502    0  0.50036424650E+02 -0.43149758369E+03  0.52022651185E+03  0.12158009614E+04  0.10093773058E+04 0.  0.
   -9000010    2    1    2    0  501 -0.50036424650E+02  0.43149758369E+03  0.10603350321E+04  0.15138117946E+04  0.98925323389E+03 0.  0.
        -13    1    3    3    0    0 -0.33730228145E+03 -0.57245169353E+03  0.43708935351E+03  0.79531181596E+03  0.10566000000E+00 0.  1.
         13    1    4    4    0    0  0.22935069524E+03  0.41898718466E+03  0.11289603513E+04  0.12258480690E+04  0.10566000000E+00 0. -1.
          4    1    3    3  502    0  0.38733870610E+03  0.14095410984E+03  0.83137158340E+02  0.42048914542E+03  0.00000000000E+00 0.  1.
         -4    1    4    4    0  501 -0.27938711989E+03  0.12510399028E+02 -0.68625319210E+02  0.28796372563E+03  0.00000000000E+00 0. -1.
</event>
<event>
 8    1  0.7096247E-006  0.1142984E+04  0.7818608E-02  0.8650780E-01
         -1   -1    0    0    0  501 -0.00000000000E+00  0.00000000000E+00  0.15125129762E+04  0.15125129762E+04  0.00000000000E+00 0. -1.
          1   -1    0    0  502    0  0.00000000000E+00 -0.00000000000E+00 -0.91483736324E+03  0.91483736324E+03  0.00000000000E+00 0.  1.
    9000010    2    1    2  502    0  0.24716214940E+03 -0.49124023717E+03  0.10736454422E+02  0.11377311408E+04  0.99594717657E+03 0.  0.
   -9000010    2    1    2    0  501 -0.24716214940E+03  0.49124023717E+03  0.58693915849E+03  0.12896191986E+04  0.10080744035E+04 0.  0.
        -13    1    3    3    0    0 -0.16831663307E+03 -0.39106943700E+03 -0.37097635112E+03  0.56470280482E+03  0.10566000000E+00 0.  1.
         13    1    4    4    0    0 -0.31396978279E+03 -0.53405723387E+02  0.66311446451E+03  0.73562898257E+03  0.10566000000E+00 0. -1.
          4    1    3    3  502    0  0.41547878247E+03 -0.10017080017E+03  0.38171280554E+03  0.57302833595E+03  0.00000000000E+00 0.  1.
         -4    1    4    4    0  501  0.66807633389E+02  0.54464596056E+03 -0.76175306016E+02  0.55399021605E+03  0.00000000000E+00 0. -1.
</event>
<event>
 8    1  0.7096247E-006  0.1055020E+04  0.7818608E-02  0.8724545E-01
          1   -1    0    0  502    0  0.00000000000E+00  0.00000000000E+00  0.10295091213E+04  0.10295091213E+04  0.00000000000E+00 0. -1.
         -1   -1    0    0    0  501 -0.00000000000E+00 -0.00000000000E+00 -0.11297643343E+04  0.11297643343E+04  0.00000000000E+00 0.  1.
    9000010    2    1    2  502    0 -0.12785610538E+03 -0.34017508833E+03  0.17311857348E+03  0.10789820593E+04  0.10010823989E+04 0.  0.
   -9000010    2    1    2    0  501  0.12785610538E+03  0.34017508833E+03 -0.27337378646E+03  0.10802913964E+04  0.97991326125E+03 0.  0.
        -13    1    3    3    0    0 -0.46165193671E+03  0.13609014111E+03  0.11228918002E+03  0.49421848234E+03  0.10566000000E+00 0.  1.
         13    1    4    4    0    0  0.36770406536E+03  0.58646716446E+03 -0.24905841579E+03  0.73564945477E+03  0.10566000000E+00 0. -1.
          4    1    3    3  502    0  0.33379583133E+03 -0.47626522944E+03  0.60829393458E+02  0.58476357692E+03  0.00000000000E+00 0.  1.
         -4    1    4    4    0  501 -0.23984795998E+03 -0.24629207613E+03 -0.24315370669E+02  0.34464194161E+03  0.00000000000E+00 0. -1.
</event>
<event>
 8    1  0.7096247E-006  0.1072692E+04  0.7818608E-02  0.8709137E-01
         -2   -1    0    0    0  501 -0.00000000000E+00  0.00000000000E+00  0.57080153594E+03  0.57080153594E+03  0.00000000000E+00 0.  1.
          2   -1    0    0  502    0  0.00000000000E+00 -0.00000000000E+00 -0.20553182742E+04  0.20553182742E+04  0.00000000000E+00 0. -1.
    9000010    2    1    2  502    0 -0.18381312690E+03  0.32845846915E+03 -0.92185875862E+03  0.14118892123E+04  0.10009672049E+04 0.  0.
   -9000010    2    1    2    0  501  0.18381312690E+03 -0.32845846915E+03 -0.56265797961E+03  0.12142305978E+04  0.10080177137E+04 0.  0.
        -13    1    3    3    0    0 -0.51934232945E+03 -0.94316701362E+02 -0.49696547391E+03  0.72497364692E+03  0.10566000000E+00 0.  1.
         13    1    4    4    0    0  0.29700643365E+03 -0.28193592279E+03  0.19017411352E+03  0.45151621322E+03  0.10566000000E+00 0. -1.
          4    1    3    3  502    0  0.33552920254E+03  0.42277517051E+03 -0.42489328471E+03  0.68691556537E+03  0.00000000000E+00 0.  1.
         -4    1    4    4    0  501 -0.11319330674E+03 -0.46522546356E+02 -0.75283209312E+03  0.76271438458E+03  0.00000000000E+00 0. -1.
</event>
<event>
 8    1  0.7096247E-006  0.1028288E+04  0.7818608E-02  0.8748457E-01
         -2   -1    0    0    0  501 -0.00000000000E+00  0.00000000000E+00  0.57829795590E+03  0.57829795590E+03  0.00000000000E+00 0. -1.
          2   -1    0    0  502    0  0.00000000000E+00 -0.00000000000E+00 -0.19302817182E+04  0.19302817182E+04  0.00000000000E+00 0.  1.
    9000010    2    1    2  502    0  0.25174875499E+03  0.25395164246E+01 -0.96169263709E+03  0.14051308930E+04  0.99305398314E+03 0.  0.
   -9000010    2    1    2    0  501 -0.25174875499E+03 -0.25395164246E+01 -0.39029112523E+03  0.11034487811E+04  0.10009436374E+04 0.  0.
        -13    1    3    3    0    0 -0.19976689483E+03  0.31629584871E+03 -0.10742670250E+03  0.38921765602E+03  0.10566000000E+00 0.  1.
         13    1    4    4    0    0 -0.10453155299E+03 -0.30580852472E+03 -0.61747021165E+03  0.69693268886E+03  0.10566000000E+00 0. -1.
          4    1    3    3  502    0  0.45151564982E+03 -0.31375633228E+03 -0.85426593459E+03  0.10159132370E+04  0.00000000000E+00 0.  1.
         -4    1    4    4    0  501 -0.14721720199E+03  0.30326900830E+03  0.22717908642E+03  0.40651609226E+03  0.00000000000E+00 0. -1.
</event>
<event>
 8    1  0.7096247E-006  0.1073978E+04  0.7818608E-02  0.8708027E-01
          2   -1    0    0  502    0  0.00000000000E+00  0.00000000000E+00  0.22306358508E+04  0.22306358508E+04  0.00000000000E+00 0. -1.
         -2   -1    0    0    0  501 -0.00000000000E+00 -0.00000000000E+00 -0.70932561314E+03  0.70932561314E+03  0.00000000000E+00 0.  1.
    9000010    2    1    2  502    0 -0.41058038661E+03  0.11465028620E+03  0.15231042656E+04  0.18605819215E+04  0.97989669894E+03 0.  0.
   -9000010    2    1    2    0  501  0.41058038661E+03 -0.11465028620E+03 -0.17940279980E+01  0.10793795424E+04  0.99163301482E+03 0.  0.
        -13    1    3    3    0    0 -0.34616056412E+03  0.42954787713E+03  0.37182341488E+03  0.66527526477E+03  0.10566000000E+00 0.  1.
         13    1    4    4    0    0 -0.18625336345E+03  0.29287662637E+03  0.66739127816E+02  0.35344187077E+03  0.10566000000E+00 0. -1.
          4    1    3    3  502    0 -0.64419822493E+02 -0.31489759093E+03  0.11512808507E+04  0.11953066567E+04  0.00000000000E+00 0.  1.
         -4    1    4    4    0  501  0.59683375006E+03 -0.40752691256E+03 -0.68533155814E+02  0.72593767165E+03  0.00000000000E+00 0. -1.
</event>
<event>
 8    1  0.7096247E-006  0.1123066E+04  0.7818608E-02  0.8666862E-01
          2   -1    0    0  502    0  0.00000000000E+00  0.00000000000E+00  0.17169168849E+04  0.17169168849E+04  0.00000000000E+00 0.  1.
         -2   -1    0    0    0  501 -0.00000000000E+00 -0.00000000000E+00 -0.74171971366E+03  0.74171971366E+03  0.00000000000E+00 0. -1.
    9000010    2    1    2  502    0  0.37278652907E+03  0.25684938943E+02  0.61526079562E+03  0.13311695751E+04  0.11197486676E+04 0.  0.
   -9000010    2    1    2    0  501 -0.37278652907E+03 -0.25684938943E+02  0.35993637557E+03  0.11274670235E+04  0.10009985925E+04 0.  0.
        -13    1    3    3    0    0  0.71355501262E+03  0.12698814914E+03  0.65055560922E+03  0.97391445102E+03  0.10566000000E+00 0.  1.
         13    1    4    4    0    0 -0.18824323156E+02 -0.31727429550E+03 -0.22115931978E+03  0.38720639150E+03  0.10566000000E+00 0. -1.
          4    1    3    3  502    0 -0.34076848355E+03 -0.10130321020E+03 -0.35294813607E+02  0.35725512403E+03  0.00000000000E+00 0.  1.
         -4    1    4    4    0  501 -0.35396220591E+03  0.29158935656E+03  0.58109569535E+03  0.74026063196E+03  0.00000000000E+00 0. -1.
</event>
<event>
 8    1  0.7096247E-006  0.1123350E+04  0.7818608E-02  0.8666631E-01
          2   -1    0    0  502    0  0.00000000000E+00  0.00000000000E+00  0.25919259815E+04  0.25919259815E+04  0.00000000000E+00 0. -1.
         -2   -1    0    0    0  501 -0.00000000000E+00 -0.00000000000E+00 -0.53305839932E+03  0.53305839932E+03  0.00000000000E+00 0.  1.
    9000010    2    1    2  502    0 -0.50847590052E+03 -0.15929122409E+03  0.14772599814E+04  0.18474630750E+04  0.97308854959E+03 0.  0.
   -9000010    2    1    2    0  501  0.50847590052E+03  0.15929122409E+03  0.58160760075E+03  0.12775213058E+04  0.10049238031E+04 0.  0.
        -13    1    3    3    0    0 -0.61806821580E+03 -0.48601940929E+02  0.35494879599E+03  0.71439423779E+03  0.10566000000E+00 0.  1.
         13    1    4    4    0    0  0.52027592530E+03  0.54326411957E+03  0.41119487614E+03  0.85726552444E+03  0.10566000000E+00 0. -1.
          4    1    3    3  502    0  0.10959231527E+03 -0.11068928316E+03  0.11223111854E+04  0.11330688372E+04  0.00000000000E+00 0.  1.
         -4    1    4    4    0  501 -0.11800024776E+02 -0.38397289548E+03  0.17041272460E+03  0.42025578134E+03  0.00000000000E+00 0. -1.
</event>
<event>
 8    1  0.7096247E-006  0.1103184E+04  0.7818608E-02  0.8683266E-01
          2   -1    0    0  502    0  0.00000000000E+00  0.00000000000E+00  0.13507398926E+04  0.13507398926E+04  0.00000000000E+00 0. -1.
         -2   -1    0    0    0  501 -0.00000000000E+00 -0.00000000000E+00 -0.90159187785E+03  0.90159187785E+03  0.00000000000E+00 0.  1.
    9000010    2    1    2  502    0  0.22027375563E+02 -0.53221532141E+03  0.20517692922E+03  0.10982567936E+04  0.93826012321E+03 0.  0.
   -9000010    2    1    2    0  501 -0.22027375563E+02  0.53221532141E+03  0.24397108554E+03  0.11540749769E+04  0.99429814844E+03 0.  0.
        -13    1    3    3    0    0  0.13937413675E+03  0.14289697314E+03  0.34529762135E+03  0.39884226632E+03  0.10566000000E+00 0.  1.
         13    1    4    4    0    0  0.18072579170E+03  0.85840444522E+02 -0.33821163531E+03  0.39295994086E+03  0.10566000000E+00 0. -1.
          4    1    3    3  502    0 -0.11734676119E+03 -0.67511229456E+03 -0.14012069213E+03  0.69941452729E+03  0.00000000000E+00 0.  1.
         -4    1    4    4    0  501 -0.20275316726E+03  0.44637487689E+03  0.58218272085E+03  0.76111503599E+03  0.00000000000E+00 0. -1.
</event>
<event>
 8    1  0.7096247E-006  0.1080995E+04  0.7818608E-02  0.8702004E-01
         -2   -1    0    0    0  501 -0.00000000000E+00  0.00000000000E+00  0.10466280057E+04  0.10466280057E+04  0.00000000000E+00 0.  1.
          2   -1    0    0  502    0  0.00000000000E+00 -0.00000000000E+00 -0.11311172817E+04  0.11311172817E+04  0.00000000000E+00 0. -1.
    9000010    2    1    2  502    0 -0.35252672346E+03  0.25549710361E+02 -0.16612346935E+03  0.10955347622E+04  0.10235582688E+04 0.  0.
   -9000010    2    1    2    0  501  0.35252672346E+03 -0.25549710361E+02  0.81634193335E+02  0.10822105252E+04  0.10196016873E+04 0.  0.
        -13    1    3    3    0    0  0.17140744925E+03  0.41593762115E+02 -0.46136185805E+03  0.49392846641E+03  0.10566000000E+00 0.  1.
         13    1    4    4    0    0  0.70635556114E+03 -0.19035755709E+02  0.14853187756E+03  0.72205420058E+03  0.10566000000E+00 0. -1.
          4    1    3    3  502    0 -0.52393417271E+03 -0.16044051754E+02  0.29523838870E+03  0.60160629576E+03  0.00000000000E+00 0.  1.
         -4    1    4    4    0  501 -0.35382883769E+03 -0.65139546514E+01 -0.66897684222E+02  0.36015632458E+03  0.00000000000E+00 0. -1.
</event>
<event>
 8    1  0.7096247E-006  0.1161330E+04  0.7818608E-02  0.8636265E-01
         -1   -1    0    0    0  501 -0.00000000000E+00  0.00000000000E+00  0.23340276283E+04  0.23340276283E+04  0.00000000000E+00 0.  1.
          1   -1    0    0  502    0  0.00000000000E+00 -0.00000000000E+00 -0.63076943063E+03  0.63076943063E+03  0.00000000000E+00 0. -1.
    9000010    2    1    2  502    0  0.24396162850E+03 -0.54439526860E+03  0.42504663434E+03  0.12406084295E+04  0.10012797558E+04 0.  0.
   -9000010    2    1    2    0  501 -0.24396162850E+03  0.54439526860E+03  0.12782115634E+04  0.17241886294E+04  0.99152314369E+03 0.  0.
        -13    1    3    3    0    0  0.39032606468E+03 -0.24172538378E+03 -0.22310291618E+03  0.51045129082E+03  0.10566000000E+00 0.  1.
         13    1    4    4    0    0  0.18816254237E+02 -0.18082224371E+03  0.79150775426E+03  0.81211776945E+03  0.10566000000E+00 0. -1.
          4    1    3    3  502    0 -0.14636443618E+03 -0.30266988482E+03  0.64814955052E+03  0.73015713870E+03  0.00000000000E+00 0.  1.
         -4    1    4    4    0  501 -0.26277788274E+03  0.72521751231E+03  0.48670380911E+03  0.91207085998E+03  0.00000000000E+00 0. -1.
</event>
<event>
 8    1  0.7096247E-006  0.1172729E+04  0.7818608E-02  0.8627386E-01
          2   -1    0    0  502    0  0.00000000000E+00  0.00000000000E+00  0.17041559581E+04  0.17041559581E+04  0.00000000000E+00 0.  1.
         -2   -1    0    0    0  501 -0.00000000000E+00 -0.00000000000E+00 -0.81388090190E+03  0.81388090190E+03  0.00000000000E+00 0. -1.
    9000010    2    1    2  502    0 -0.25125658669E+02  0.62967832676E+03  0.33193448759E+03  0.12244358248E+04  0.99596008507E+03 0.  0.
   -9000010    2    1    2    0  501  0.25125658669E+02 -0.62967832676E+03  0.55834056857E+03  0.12936010352E+04  0.98210658981E+03 0.  0.
        -13    1    3    3    0    0  0.16738262079E+03 -0.21384829623E+03 -0.54275533348E+02  0.27693659965E+03  0.10566000000E+00 0.  1.
         13    1    4    4    0    0 -0.30823967765E+03  0.12940577674E+03  0.20675470771E+03  0.39307133482E+03  0.10566000000E+00 0. -1.
          4    1    3    3  502    0 -0.19250827946E+03  0.84352662299E+03  0.38621002094E+03  0.94749922513E+03  0.00000000000E+00 0.  1.
         -4    1    4    4    0  501  0.33336533632E+03 -0.75908410351E+03  0.35158586085E+03  0.90052970035E+03  0.00000000000E+00 0. -1.
</event>
<event>
 8    1  0.7096247E-006  0.1172347E+04  0.7818608E-02  0.8627681E-01
         -1   -1    0    0    0  501 -0.00000000000E+00  0.00000000000E+00  0.92812621825E+03  0.92812621825E+03  0.00000000000E+00 0.  1.
          1   -1    0    0  502    0  0.00000000000E+00 -0.00000000000E+00 -0.15985640072E+04  0.15985640072E+04  0.00000000000E+00 0. -1.
    9000010    2    1    2  502    0 -0.36131726268E+03  0.41164050168E+03  0.12126829129E+02  0.11532218266E+04  0.10147785248E+04 0.  0.
   -9000010    2    1    2    0  501  0.36131726268E+03 -0.41164050168E+03 -0.68256461812E+03  0.13734683989E+04  0.10585475511E+04 0.  0.
        -13    1    3    3    0    0  0.26537301641E+03 -0.56138945947E+02 -0.20685265840E+03  0.34111941097E+03  0.10566000000E+00 0.  1.
         13    1    4    4    0    0  0.57970051251E+02  0.61625706145E+02  0.26142760614E+03  0.27477747164E+03  0.10566000000E+00 0. -1.
          4    1    3    3  502    0 -0.62669027909E+03  0.46777944763E+03  0.21897948753E+03  0.81210241564E+03  0.00000000000E+00 0.  1.
         -4    1    4    4    0  501  0.30334721143E+03 -0.47326620782E+03 -0.94399222426E+03  0.10986909273E+04  0.00000000000E+00 0. -1.
</event>
<event>
 8    1  0.7096247E-006  0.1170997E+04  0.7818608E-02  0.8628728E-01
         -2   -1    0    0    0  501 -0.00000000000E+00  0.00000000000E+00  0.82564274508E+03  0.82564274508E+03  0.00000000000E+00 0.  1.
          2   -1    0    0  502    0  0.00000000000E+00 -0.00000000000E+00 -0.16867728594E+04  0.16867728594E+04  0.00000000000E+00 0. -1.
    9000010    2    1    2  502    0  0.14949096836E+02 -0.60048367122E+03 -0.58405463988E+03  0.13030735061E+04  0.99803638458E+03 0.  0.
   -9000010    2    1    2    0  501 -0.14949096836E+02  0.60048367122E+03 -0.27707547441E+03  0.12093420984E+04  0.10123899335E+04 0.  0.
        -13    1    3    3    0    0 -0.41736720950E+03 -0.12413775619E+03 -0.18320014820E+01  0.43544108381E+03  0.10566000000E+00 0.  1.
         13    1    4    4    0    0 -0.13034080614E+03  0.21742253976E+03 -0.62796470322E+03  0.67720083151E+03  0.10566000000E+00 0. -1.
          4    1    3    3  502    0  0.43231630633E+03 -0.47634591503E+03 -0.58222263840E+03  0.86763242225E+03  0.00000000000E+00 0.  1.
         -4    1    4    4    0  501  0.11539170930E+03  0.38306113146E+03  0.35088922881E+03  0.53214126687E+03  0.00000000000E+00 0. -1.
</event>
<event>
 7    1  0.7096247E-006  0.9799708E+03  0.7818608E-02  0.8793641E-01
          1   -1    0    0  502    0  0.00000000000E+00  0.00000000000E+00  0.10491720881E+04  0.10491720881E+04  0.00000000000E+00 0.  1.
         -1   -1    0    0    0  501 -0.00000000000E+00 -0.00000000000E+00 -0.11894728056E+04  0.11894728056E+04  0.00000000000E+00 0. -1.
   -9000010    2    1    2    0  501  0.19968737549E+03  0.51192335059E+03  0.43376066840E+03  0.12182954288E+04  0.99707315161E+03 0.  0.
        -13    1    1    2    0    0 -0.34186619404E+03 -0.58878902027E+03 -0.48378015755E+03  0.83521749085E+03  0.10566000000E+00 0.  1.
         13    1    3    3    0    0  0.46470420877E+03 -0.96176132390E+02  0.19994709847E+03  0.51495504992E+03  0.10566000000E+00 0. -1.
          4    1    1    2  502    0  0.14217881855E+03  0.76865669683E+02 -0.90281228271E+02  0.18513197400E+03  0.00000000000E+00 0.  1.
         -4    1    3    3    0  501 -0.26501683328E+03  0.60809948298E+03  0.23381356993E+03  0.70334037891E+03  0.00000000000E+00 0. -1.
</event>
<event>
 8    1  0.7096247E-006  0.1462357E+04  0.7818608E-02  0.8431499E-01
          2   -1    0    0  502    0  0.00000000000E+00  0.00000000000E+00  0.37649729366E+04  0.37649729366E+04  0.00000000000E+00 0. -1.
         -2   -1    0    0    0  501 -0.00000000000E+00 -0.00000000000E+00 -0.57266507606E+03  0.57266507606E+03  0.00000000000E+00 0.  1.
    9000010    2    1    2  502    0  0.44019042409E+03  0.97962327302E+03  0.17915260762E+04  0.23123091074E+04  0.99185601763E+03 0.  0.
   -9000010    2    1    2    0  501 -0.44019042409E+03 -0.97962327302E+03  0.14007817843E+04  0.20253289053E+04  0.99314560910E+03 0.  0.
        -13    1    3    3    0    0  0.26863882537E+03  0.11592308981E+04  0.13051255976E+04  0.17661641856E+04  0.10566000000E+00 0.  1.
         13    1    4    4    0    0 -0.85644316011E+02 -0.39959651673E+03  0.12685895667E+04  0.13327909907E+04  0.10566000000E+00 0. -1.
          4    1    3    3  502    0  0.17155159872E+03 -0.17960762510E+03  0.48640047864E+03  0.54614492183E+03  0.00000000000E+00 0.  1.
         -4    1    4    4    0  501 -0.35454610808E+03 -0.58002675629E+03  0.13219221764E+03  0.69253791460E+03  0.00000000000E+00 0. -1.
</event>
<event>
 8    1  0.7096247E-006  0.1390199E+04  0.7818608E-02  0.8475634E-01
         -4   -1    0    0    0  501 -0.00000000000E+00  0.00000000000E+00  0.13372375296E+04  0.13372375296E+04  0.00000000000E+00 0. -1.
          4   -1    0    0  502    0  0.00000000000E+00 -0.00000000000E+00 -0.17129751599E+04  0.17129751599E+04  0.00000000000E+00 0.  1.
    9000010    2    1    2  502    0 -0.52508409241E+03 -0.82541236116E+03 -0.79092881021E+03  0.16004979903E+04  0.98944760555E+03 0.  0.
   -9000010    2    1    2    0  501  0.52508409241E+03  0.82541236116E+03  0.41519117991E+03  0.14497146993E+04  0.98603758718E+03 0.  0.
        -13    1    3    3    0    0  0.16393732253E+03  0.13276491509E+03 -0.13122460131E+03  0.24843887689E+03  0.10566000000E+00 0.  1.
         13    1    4    4    0    0  0.59308647472E+03  0.61707170710E+02  0.44129952057E+02  0.59791872796E+03  0.10566000000E+00 0. -1.
          4    1    3    3  502    0 -0.68902141494E+03 -0.95817727625E+03 -0.65970420891E+03  0.13520591134E+04  0.00000000000E+00 0.  1.
         -4    1    4    4    0  501 -0.68002382307E+02  0.76370519045E+03  0.37106122785E+03  0.85179597131E+03  0.00000000000E+00 0. -1.
</event>
<event>
 8    1  0.7096247E-006  0.1161348E+04  0.7818608E-02  0.8636251E-01
          2   -1    0    0  502    0  0.00000000000E+00  0.00000000000E+00  0.42505230473E+04  0.42505230473E+04  0.00000000000E+00 0. -1.
         -2   -1    0    0    0  501 -0.00000000000E+00 -0.00000000000E+00 -0.34967605495E+03  0.34967605495E+03  0.00000000000E+00 0.  1.
    9000010    2    1    2  502    0 -0.47195360011E+03 -0.47846861345E+03  0.27186923642E+04  0.29765098682E+04  0.10082908360E+04 0.  0.
   -9000010    2    1    2    0  501  0.47195360011E+03  0.47846861345E+03  0.11821546282E+04  0.16236892340E+04  0.88724559682E+03 0.  0.
        -13    1    3    3    0    0 -0.44203044065E+03  0.15483027202E+03  0.57819742288E+03  0.74409380765E+03  0.10566000000E+00 0.  1.
         13    1    4    4    0    0  0.17006302594E+03  0.71059386080E+03  0.73564001993E+03  0.10368371704E+04  0.10566000000E+00 0. -1.
          4    1    3    3  502    0 -0.29923159460E+02 -0.63329888547E+03  0.21404949413E+04  0.22324160606E+04  0.00000000000E+00 0.  1.
         -4    1    4    4    0  501  0.30189057417E+03 -0.23212524735E+03  0.44651460823E+03  0.58685206364E+03  0.00000000000E+00 0. -1.
</event>
<event>
 8    1  0.7096247E-006  0.1547035E+04  0.7818608E-02  0.8382933E-01
          2   -1    0    0  502    0  0.00000000000E+00  0.00000000000E+00  0.56470925623E+03  0.56470925623E+03  0.00000000000E+00 0. -1.
         -2   -1    0    0    0  501 -0.00000000000E+00 -0.00000000000E+00 -0.42386459034E+04  0.42386459034E+04  0.00000000000E+00 0.  1.
    9000010    2    1    2  502    0 -0.87140139589E+03 -0.82804099148E+03 -0.18406561336E+04  0.23966270290E+04  0.95436567303E+03 0.  0.
   -9000010    2    1    2    0  501  0.87140139589E+03  0.82804099148E+03 -0.18332805135E+04  0.24067281305E+04  0.99319211469E+03 0.  0.
        -13    1    3    3    0    0  0.71031091756E+02 -0.51431906116E+03 -0.83415048935E+03  0.98253578190E+03  0.10566000000E+00 0.  1.
         13    1    4    4    0    0  0.26559004077E+03  0.90981661562E+03 -0.11335692302E+04  0.14775938395E+04  0.10566000000E+00 0. -1.
          4    1    3    3  502    0 -0.94243248765E+03 -0.31372193032E+03 -0.10065056442E+04  0.14140912471E+04  0.00000000000E+00 0.  1.
         -4    1    4    4    0  501  0.60581135512E+03 -0.81775624137E+02 -0.69971128337E+03  0.92913429103E+03  0.00000000000E+00 0. -1.
</event>
<event>
 8    1  0.7096247E-006  0.1483432E+04  0.7818608E-02  0.8419098E-01
          1   -1    0    0  502    0  0.00000000000E+00  0.00000000000E+00  0.20995341157E+04  0.20995341157E+04  0.00000000000E+00 0. -1.
         -1   -1    0    0    0  501 -0.00000000000E+00 -0.00000000000E+00 -0.10484524061E+04  0.10484524061E+04  0.00000000000E+00 0.  1.
    9000010    2    1    2  502    0  0.10572824695E+04 -0.31164201362E+03  0.50046699065E+03  0.15711617883E+04  0.10015563845E+04 0.  0.
   -9000010    2    1    2    0  501 -0.10572824695E+04  0.31164201362E+03  0.55061471901E+03  0.15768247335E+04  0.98398816387E+03 0.  0.
        -13    1    3    3    0    0  0.17958369209E+03  0.24112759440E+03  0.43899635737E+03  0.53208141501E+03  0.10566000000E+00 0.  1.
         13    1    4    4    0    0 -0.11757283014E+04  0.27939019019E+03  0.22552844772E+03  0.12293327495E+04  0.10566000000E+00 0. -1.
          4    1    3    3  502    0  0.87769877738E+03 -0.55276960803E+03  0.61470633281E+02  0.10390803733E+04  0.00000000000E+00 0.  1.
         -4    1    4    4    0  501  0.11844583191E+03  0.32251823433E+02  0.32508627129E+03  0.34749198407E+03  0.00000000000E+00 0. -1.
</event>
<event>
 8    1  0.7096247E-006  0.1074087E+04  0.7818608E-02  0.8707934E-01
          2   -1    0    0  502    0  0.00000000000E+00  0.00000000000E+00  0.27473347435E+04  0.27473347435E+04  0.00000000000E+00 0. -1.
         -2   -1    0    0    0  501 -0.00000000000E+00 -0.00000000000E+00 -0.65816039348E+03  0.65816039348E+03  0.00000000000E+00 0.  1.
    9000010    2    1    2  502    0  0.15979310736E+03  0.36154746091E+03  0.24404880341E+02  0.10811852275E+04  0.10060395093E+04 0.  0.
   -9000010    2    1    2    0  501 -0.15979310736E+03 -0.36154746091E+03  0.20647694697E+04  0.23243099095E+04  0.99140969767E+03 0.  0.
        -13    1    3    3    0    0 -0.52173354786E+02  0.53368870912E+03  0.36199733270E+03  0.64698359889E+03  0.10566000000E+00 0.  1.
         13    1    4    4    0    0  0.37438150699E+03 -0.26855098773E+03  0.13546272196E+04  0.14308375384E+04  0.10566000000E+00 0. -1.
          4    1    3    3  502    0  0.21196646215E+03 -0.17214124820E+03 -0.33759245236E+03  0.43420162863E+03  0.00000000000E+00 0.  1.
         -4    1    4    4    0  501 -0.53417461436E+03 -0.92996473179E+02  0.71014225004E+03  0.89347237111E+03  0.00000000000E+00 0. -1.
</event>
<event>
 8    1  0.7096247E-006  0.1348175E+04  0.7818608E-02  0.8502624E-01
          1   -1    0    0  502    0  0.00000000000E+00  0.00000000000E+00  0.51641023811E+04  0.51641023811E+04  0.00000000000E+00 0. -1.
         -1   -1    0    0    0  501 -0.00000000000E+00 -0.00000000000E+00 -0.52203925669E+03  0.52203925669E+03  0.00000000000E+00 0.  1.
    9000010    2    1    2  502    0  0.75198688239E+03  0.50558962439E+03  0.39460780309E+04  0.41706607040E+04  0.10008864782E+04 0.  0.
   -9000010    2    1    2    0  501 -0.75198688239E+03 -0.50558962439E+03  0.69598509351E+03  0.15154809338E+04  0.99558127281E+03 0.  0.
        -13    1    3    3    0    0  0.96127989491E+03  0.29892333695E+03  0.25019119910E+04  0.26968459021E+04  0.10566000000E+00 0.  1.
         13    1    4    4    0    0 -0.28109852168E+03  0.15204578864E+03 -0.14298185159E+03  0.35011158476E+03  0.10566000000E+00 0. -1.
          4    1    3    3  502    0 -0.20929301253E+03  0.20666628744E+03  0.14441660399E+04  0.14738148019E+04  0.00000000000E+00 0.  1.
         -4    1    4    4    0  501 -0.47088836070E+03 -0.65763541303E+03  0.83896694510E+03  0.11653693490E+04  0.00000000000E+00 0. -1.
</event>
<event>
 8    1  0.7096247E-006  0.1059489E+04  0.7818608E-02  0.8720619E-01
          2   -1    0    0  502    0  0.00000000000E+00  0.00000000000E+00  0.19104846609E+04  0.19104846609E+04  0.00000000000E+00 0.  1.
         -2   -1    0    0    0  501 -0.00000000000E+00 -0.00000000000E+00 -0.61927744708E+03  0.61927744708E+03  0.00000000000E+00 0. -1.
    9000010    2    1    2  502    0 -0.34827635604E+03 -0.11012357578E+03  0.36745577524E+03  0.11340485207E+04  0.10087708751E+04 0.  0.
   -9000010    2    1    2    0  501  0.34827635604E+03  0.11012357578E+03  0.92375143861E+03  0.13957135873E+04  0.98044687536E+03 0.  0.
        -13    1    3    3    0    0  0.32031384802E+03 -0.63236169908E+02 -0.69696929807E+02  0.33385243388E+03  0.10566000000E+00 0.  1.
         13    1    4    4    0    0 -0.23413472317E+03  0.34361464619E+02  0.74517428785E+03  0.78184685795E+03  0.10566000000E+00 0. -1.
          4    1    3    3  502    0 -0.66859020406E+03 -0.46887405873E+02  0.43715270504E+03  0.80019608679E+03  0.00000000000E+00 0.  1.
         -4    1    4    4    0  501  0.58241107921E+03  0.75762111162E+02  0.17857715076E+03  0.61386672938E+03  0.00000000000E+00 0. -1.
</event>
<event>
 8    1  0.7096247E-006  0.1460545E+04  0.7818608E-02  0.8432574E-01
          2   -1    0    0  502    0  0.00000000000E+00  0.00000000000E+00  0.16337944047E+04  0.16337944047E+04  0.00000000000E+00 0.  1.
         -2   -1    0    0    0  501 -0.00000000000E+00 -0.00000000000E+00 -0.13532945405E+04  0.13532945405E+04  0.00000000000E+00 0. -1.
    9000010    2    1    2  502    0 -0.10578831856E+04  0.13243784879E+03 -0.14003370718E+03  0.14661829484E+04  0.99670777105E+03 0.  0.
   -9000010    2    1    2    0  501  0.10578831856E+04 -0.13243784879E+03  0.42053357137E+03  0.15209059969E+04  0.99982495897E+03 0.  0.
        -13    1    3    3    0    0 -0.90190477271E+03 -0.22621924545E+03 -0.38313153127E+03  0.10056824287E+04  0.10566000000E+00 0.  1.
         13    1    4    4    0    0  0.89854875052E+01 -0.25833997100E+03  0.38519069860E+03  0.46388809540E+03  0.10566000000E+00 0. -1.
          4    1    3    3  502    0 -0.15597841287E+03  0.35865709424E+03  0.24309782409E+03  0.46050051966E+03  0.00000000000E+00 0.  1.
         -4    1    4    4    0  501  0.10488976981E+04  0.12590212221E+03  0.35342872769E+02  0.10570179015E+04  0.00000000000E+00 0. -1.
</event>
<event>
 8    1  0.7096247E-006  0.1329534E+04  0.7818608E-02  0.8514923E-01
          2   -1    0    0  502    0  0.00000000000E+00  0.00000000000E+00  0.12217547598E+04  0.12217547598E+04  0.00000000000E+00 0. -1.
         -2   -1    0    0    0  501 -0.00000000000E+00 -0.00000000000E+00 -0.16790625375E+04  0.16790625375E+04  0.00000000000E+00 0.  1.
    9000010    2    1    2  502    0 -0.83057877674E+03 -0.31667748711E+03  0.31050011023E+03  0.13670364840E+04  0.99107653334E+03 0.  0.
   -9000010    2    1    2    0  501  0.83057877674E+03  0.31667748711E+03 -0.76780788786E+03  0.15337808133E+04  0.98631074985E+03 0.  0.
        -13    1    3    3    0    0 -0.56455179207E+03 -0.37721555995E+03  0.64423490516E+03  0.93597485479E+03  0.10566000000E+00 0.  1.
         13    1    4    4    0    0  0.49921226425E+03 -0.30060047512E+03 -0.15500038777E+03  0.60299142763E+03  0.10566000000E+00 0. -1.
          4    1    3    3  502    0 -0.26602698467E+03  0.60538072845E+02 -0.33373479493E+03  0.43106162922E+03  0.00000000000E+00 0.  1.
         -4    1    4    4    0  501  0.33136651249E+03  0.61727796223E+03 -0.61280750009E+03  0.93078938563E+03  0.00000000000E+00 0. -1.
</event>
<event>
 8    1  0.7096247E-006  0.1526831E+04  0.7818608E-02  0.8394223E-01
         -2   -1    0    0    0  501 -0.00000000000E+00  0.00000000000E+00  0.10415501042E+04  0.10415501042E+04  0.00000000000E+00 0.  1.
          2   -1    0    0  502    0  0.00000000000E+00 -0.00000000000E+00 -0.24521586825E+04  0.24521586825E+04  0.00000000000E+00 0. -1.
    9000010    2    1    2  502    0  0.42325772463E+03 -0.10535411233E+04 -0.12212912754E+04  0.19552044265E+04  0.10208702024E+04 0.  0.
   -9000010    2    1    2    0  501 -0.42325772463E+03  0.10535411233E+04 -0.18931730288E+03  0.15385043602E+04  0.10208127278E+04 0.  0.
        -13    1    3    3    0    0  0.30143359721E+03 -0.11990039178E+04 -0.12559222766E+04  0.17623318032E+04  0.10566000000E+00 0.  1.
         13    1    4    4    0    0 -0.95263566556E+02 -0.18265564383E+03 -0.15719737763E+03  0.25913173876E+03  0.10566000000E+00 0. -1.
          4    1    3    3  502    0  0.12182412742E+03  0.14546279448E+03  0.34631001161E+02  0.19287262336E+03  0.00000000000E+00 0.  1.
         -4    1    4    4    0  501 -0.32799415808E+03  0.12361967672E+04 -0.32119925250E+02  0.12793726214E+04  0.00000000000E+00 0. -1.
</event>
<event>
 7    1  0.7096247E-006  0.1337559E+04  0.7818608E-02  0.8509603E-01
         -2   -1    0    0    0  501 -0.00000000000E+00  0.00000000000E+00  0.66521673425E+03  0.66521673425E+03  0.00000000000E+00 0.  1.
          2   -1    0    0  502    0  0.00000000000E+00 -0.00000000000E+00 -0.27101787765E+04  0.27101787765E+04  0.00000000000E+00 0. -1.
    9000010    2    1    2  502    0  0.14203815817E+03 -0.46120076711E+03 -0.10820233440E+04  0.16656257284E+04  0.11707491466E+04 0.  0.
        -13    1    3    3    0    0  0.27720506178E+03 -0.16346269382E+03 -0.12550730885E+04  0.12956740204E+04  0.10566000000E+00 0.  1.
         13    1    1    2    0    0 -0.58260934057E+03 -0.13446990878E+03 -0.16365971441E+03  0.61991960234E+03  0.10566000000E+00 0. -1.
          4    1    3    3  502    0 -0.13516690361E+03 -0.29773807329E+03  0.17304974455E+03  0.36995170794E+03  0.00000000000E+00 0.  1.
         -4    1    1    2    0  501  0.44057118239E+03  0.59567067589E+03 -0.79927898389E+03  0.10898501800E+04  0.00000000000E+00 0. -1.
</event>
<event>
 8    1  0.7096247E-006  0.1189740E+04  0.7818608E-02  0.8614329E-01
         -1   -1    0    0    0  501 -0.00000000000E+00  0.00000000000E+00  0.13775871001E+04  0.13775871001E+04  0.00000000000E+00 0. -1.
          1   -1    0    0  502    0  0.00000000000E+00 -0.00000000000E+00 -0.10456477533E+04  0.10456477533E+04  0.00000000000E+00 0.  1.
    9000010    2    1    2  502    0  0.52133237474E+03  0.32770346904E+03  0.52239558645E+01  0.11780643016E+04  0.10043063279E+04 0.  0.
   -9000010    2    1    2    0  501 -0.52133237474E+03 -0.32770346904E+03  0.32671539096E+03  0.12451705518E+04  0.10317605089E+04 0.  0.
        -13    1    3    3    0    0  0.37911458385E+03  0.65829795616E+03 -0.16898707317E+03  0.77822921356E+03  0.10566000000E+00 0.  1.
         13    1    4    4    0    0 -0.12573782472E+02 -0.77315612565E+02 -0.35208520760E+03  0.36069351052E+03  0.10566000000E+00 0. -1.
          4    1    3    3  502    0  0.14221779089E+03 -0.33059448712E+03  0.17421102904E+03  0.39983508800E+03  0.00000000000E+00 0.  1.
         -4    1    4    4    0  501 -0.50875859227E+03 -0.25038785647E+03  0.67880059856E+03  0.88447704124E+03  0.00000000000E+00 0. -1.
</event>
<event>
 8    1  0.7096247E-006  0.1120781E+04  0.7818608E-02  0.8668730E-01
          2   -1    0    0  502    0  0.00000000000E+00  0.00000000000E+00  0.25769162486E+04  0.25769162486E+04  0.00000000000E+00 0.  1.
         -2   -1    0    0    0  501 -0.00000000000E+00 -0.00000000000E+00 -0.49246825201E+03  0.49246825201E+03  0.00000000000E+00 0. -1.
    9000010    2    1    2  502    0 -0.42231815021E+03 -0.58678119078E+03  0.94246030503E+03  0.13836190022E+04  0.70958109539E+03 0.  0.
   -9000010    2    1    2    0  501  0.42231815021E+03  0.58678119078E+03  0.11419876915E+04  0.16857654984E+04  0.10074743877E+04 0.  0.
        -13    1    3    3    0    0 -0.56863297662E+03 -0.39158123954E+03  0.90268239824E+03  0.11364483501E+04  0.10566000000E+00 0.  1.
         13    1    4    4    0    0  0.20938668369E+03  0.76208625642E+03  0.38304692628E+03  0.87826146700E+03  0.10566000000E+00 0. -1.
          4    1    3    3  502    0  0.14631482641E+03 -0.19519995124E+03  0.39777906797E+02  0.24717065211E+03  0.00000000000E+00 0.  1.
         -4    1    4    4    0  501  0.21293146652E+03 -0.17530506563E+03  0.75894076526E+03  0.80750403135E+03  0.00000000000E+00 0. -1.
</event>
<event>
 8    1  0.7096247E-006  0.1160591E+04  0.7818608E-02  0.8636844E-01
         -2   -1    0    0    0  501 -0.00000000000E+00  0.00000000000E+00  0.90061652060E+03  0.90061652060E+03  0.00000000000E+00 0. -1.
          2   -1    0    0  502    0  0.00000000000E+00 -0.00000000000E+00 -0.16081576164E+04  0.16081576164E+04  0.00000000000E+00 0.  1.
    9000010    2    1    2  502    0 -0.36464769685E+03 -0.47074151983E+03 -0.68485931292E+03  0.13453416896E+04  0.99314976817E+03 0.  0.
   -9000010    2    1    2    0  501  0.36464769685E+03  0.47074151983E+03 -0.22681782886E+02  0.11634324474E+04  0.99924725422E+03 0.  0.
        -13    1    3    3    0    0 -0.52966742471E+03  0.33283839669E+02 -0.73139832962E+02  0.53572832772E+03  0.10566000000E+00 0.  1.
         13    1    4    4    0    0  0.56733131950E+03  0.12540823638E+03  0.29562557005E+03  0.65190991761E+03  0.10566000000E+00 0. -1.
          4    1    3    3  502    0  0.16501972787E+03 -0.50402535950E+03 -0.61171947996E+03  0.80961336190E+03  0.00000000000E+00 0.  1.
         -4    1    4    4    0  501 -0.20268362266E+03  0.34533328345E+03 -0.31830735293E+03  0.51152252979E+03  0.00000000000E+00 0. -1.
</event>
<event>
 8    1  0.7096247E-006  0.1184648E+04  0.7818608E-02  0.8618214E-01
          1   -1    0    0  502    0  0.00000000000E+00  0.00000000000E+00  0.14494565854E+04  0.14494565854E+04  0.00000000000E+00 0. -1.
         -1   -1    0    0    0  501 -0.00000000000E+00 -0.00000000000E+00 -0.10285745088E+04  0.10285745088E+04  0.00000000000E+00 0.  1.
    9000010    2    1    2  502    0  0.10856185773E+03  0.71520794373E+03 -0.92367728326E+02  0.11679190746E+04  0.91224727345E+03 0.  0.
   -9000010    2    1    2    0  501 -0.10856185773E+03 -0.71520794373E+03  0.51324980496E+03  0.13101120195E+04  0.96418881021E+03 0.  0.
        -13    1    3    3    0    0  0.26061618379E+03  0.81507649868E+03  0.14596864781E+03  0.86808833149E+03  0.10566000000E+00 0.  1.
         13    1    4    4    0    0  0.75693727687E+02  0.53782664123E+02 -0.21556920153E+03  0.23471729204E+03  0.10566000000E+00 0. -1.
          4    1    3    3  502    0 -0.15205432606E+03 -0.99868554953E+02 -0.23833637614E+03  0.29983074314E+03  0.00000000000E+00 0.  1.
         -4    1    4    4    0  501 -0.18425558542E+03 -0.76899060785E+03  0.72881900649E+03  0.10753947275E+04  0.00000000000E+00 0. -1.
</event>
<event>
 8    1  0.7096247E-006  0.1436716E+04  0.7818608E-02  0.8446877E-01
          2   -1    0    0  502    0  0.00000000000E+00  0.00000000000E+00  0.26019793937E+04  0.26019793937E+04  0.00000000000E+00 0. -1.
         -2   -1    0    0    0  501 -0.00000000000E+00 -0.00000000000E+00 -0.10073936670E+04  0.10073936670E+04  0.00000000000E+00 0.  1.
    9000010    2    1    2  502    0  0.35302747602E+02  0.10284311940E+04 -0.35028587004E+02  0.14363178691E+04  0.10014314826E+04 0.  0.
   -9000010    2    1    2    0  501 -0.35302747602E+02 -0.10284311940E+04  0.16296143137E+04  0.21730551917E+04  0.10037973152E+04 0.  0.
        -13    1    3    3    0    0 -0.23365157442E+03  0.11191496735E+04 -0.91416969016E+02  0.11469289967E+04  0.10566000000E+00 0.  1.
         13    1    4    4    0    0 -0.16190166249E+03 -0.49883664031E+03  0.15327488133E+04  0.16199904561E+04  0.10566000000E+00 0. -1.
          4    1    3    3  502    0  0.26895432202E+03 -0.90718479513E+02  0.56388382012E+02  0.28938887243E+03  0.00000000000E+00 0.  1.
         -4    1    4    4    0  501  0.12659891488E+03 -0.52959455370E+03  0.96865500352E+02  0.55306473556E+03  0.00000000000E+00 0. -1.
</event>
<event>
 8    1  0.7096247E-006  0.1332906E+04  0.7818608E-02  0.8512682E-01
          1   -1    0    0  502    0  0.00000000000E+00  0.00000000000E+00  0.23082976826E+04  0.23082976826E+04  0.00000000000E+00 0. -1.
         -1   -1    0    0    0  501 -0.00000000000E+00 -0.00000000000E+00 -0.77560966179E+03  0.77560966179E+03  0.00000000000E+00 0.  1.
    9000010    2    1    2  502    0  0.12257789256E+03  0.89442804848E+03  0.90398838459E+03  0.16147455005E+04  0.98751261170E+03 0.  0.
   -9000010    2    1    2    0  501 -0.12257789256E+03 -0.89442804848E+03  0.62869963619E+03  0.14691618439E+04  0.97372810231E+03 0.  0.
        -13    1    3    3    0    0 -0.34968714970E+03  0.19040659585E+03  0.58777622651E+03  0.70994132012E+03  0.10566000000E+00 0.  1.
         13    1    4    4    0    0 -0.26124286710E+03 -0.84074951543E+02  0.58464241035E+03  0.64585075074E+03  0.10566000000E+00 0. -1.
          4    1    3    3  502    0  0.47226504226E+03  0.70402145264E+03  0.31621215808E+03  0.90480418038E+03  0.00000000000E+00 0.  1.
         -4    1    4    4    0  501  0.13866497455E+03 -0.81035309694E+03  0.44057225835E+02  0.82331109311E+03  0.00000000000E+00 0. -1.
</event>
<event>
 8    1  0.7096247E-006  0.1092496E+04  0.7818608E-02  0.8692234E-01
          2   -1    0    0  502    0  0.00000000000E+00  0.00000000000E+00  0.25772008873E+04  0.25772008873E+04  0.00000000000E+00 0. -1.
         -2   -1    0    0    0  501 -0.00000000000E+00 -0.00000000000E+00 -0.85420629777E+03  0.85420629777E+03  0.00000000000E+00 0.  1.
    9000010    2    1    2  502    0  0.18344289706E+02  0.48514573408E+03  0.20148766915E+04  0.22839912072E+04  0.95978375498E+03 0.  0.
   -9000010    2    1    2    0  501 -0.18344289706E+02 -0.48514573408E+03 -0.29188210197E+03  0.11474159779E+04  0.99783033056E+03 0.  0.
        -13    1    3    3    0    0 -0.19303351494E+03 -0.18018735491E+03  0.11107966232E+04  0.11417524119E+04  0.10566000000E+00 0.  1.
         13    1    4    4    0    0 -0.30454563658E+03 -0.62292599282E+03 -0.41346469094E+03  0.80730285465E+03  0.10566000000E+00 0. -1.
          4    1    3    3  502    0  0.21137780464E+03  0.66533308899E+03  0.90408006823E+03  0.11422387952E+04  0.00000000000E+00 0.  1.
         -4    1    4    4    0  501  0.28620134688E+03  0.13778025874E+03  0.12158258898E+03  0.34011312323E+03  0.00000000000E+00 0. -1.
</event>
<event>
 8    1  0.7096247E-006  0.1250061E+04  0.7818608E-02  0.8569789E-01
          2   -1    0    0  502    0  0.00000000000E+00  0.00000000000E+00  0.32747500567E+04  0.32747500567E+04  0.00000000000E+00 0. -1.
         -2   -1    0    0    0  501 -0.00000000000E+00 -0.00000000000E+00 -0.82330697689E+03  0.82330697689E+03  0.00000000000E+00 0.  1.
    9000010    2    1    2  502    0  0.41625227946E+03  0.60619646860E+03 -0.98515867714E+02  0.12614708216E+04  0.10202270036E+04 0.  0.
   -9000010    2    1    2    0  501 -0.41625227946E+03 -0.60619646860E+03  0.25499589476E+04  0.28365862120E+04  0.10015940221E+04 0.  0.
        -13    1    3    3    0    0 -0.21095881773E+03 -0.16152508805E+03 -0.54074082168E+01  0.26575031153E+03  0.10566000000E+00 0.  1.
         13    1    4    4    0    0 -0.51029255336E+03 -0.14147491454E+03  0.48562824990E+03  0.71850431434E+03  0.10566000000E+00 0. -1.
          4    1    3    3  502    0  0.62721109720E+03  0.76772155665E+03 -0.93108459497E+02  0.99572051009E+03  0.00000000000E+00 0.  1.
         -4    1    4    4    0  501  0.94040273895E+02 -0.46472155405E+03  0.20643306977E+04  0.21180818977E+04  0.00000000000E+00 0. -1.
</event>
<event>
 8    1  0.7096247E-006  0.1129930E+04  0.7818608E-02  0.8661281E-01
          2   -1    0    0  502    0  0.00000000000E+00  0.00000000000E+00  0.27283011408E+04  0.27283011408E+04  0.00000000000E+00 0.  1.
         -2   -1    0    0    0  501 -0.00000000000E+00 -0.00000000000E+00 -0.65204666720E+03  0.65204666720E+03  0.00000000000E+00 0. -1.
    9000010    2    1    2  502    0  0.31480620819E+03  0.44085802848E+03  0.19410604673E+04  0.22497829347E+04  0.10001743676E+04 0.  0.
   -9000010    2    1    2    0  501 -0.31480620819E+03 -0.44085802848E+03  0.13519400630E+03  0.11305648733E+04  0.98307719096E+03 0.  0.
        -13    1    3    3    0    0  0.52943511533E+03 -0.47039418691E+02  0.13656090399E+04  0.14654017569E+04  0.10566000000E+00 0.  1.
         13    1    4    4    0    0 -0.49115470429E+03 -0.31063448835E+03 -0.29202204773E+03  0.65038728187E+03  0.10566000000E+00 0. -1.
          4    1    3    3  502    0 -0.21462890713E+03  0.48789744717E+03  0.57545142742E+03  0.78438117778E+03  0.00000000000E+00 0.  1.
         -4    1    4    4    0  501  0.17634849610E+03 -0.13022354013E+03  0.42721605403E+03  0.48017759142E+03  0.00000000000E+00 0. -1.
</event>
<event>
 8    1  0.7096247E-006  0.1385208E+04  0.7818608E-02  0.8478788E-01
         -1   -1    0    0    0  501 -0.00000000000E+00  0.00000000000E+00  0.16334454525E+04  0.16334454525E+04  0.00000000000E+00 0. -1.
          1   -1    0    0  502    0  0.00000000000E+00 -0.00000000000E+00 -0.24955409251E+04  0.24955409251E+04  0.00000000000E+00 0.  1.
    9000010    2    1    2  502    0  0.43340309413E+03  0.84027756134E+03 -0.19325774743E+04  0.23760705788E+04  0.10084399234E+04 0.  0.
   -9000010    2    1    2    0  501 -0.43340309413E+03 -0.84027756134E+03  0.10704820018E+04  0.17529157988E+04  0.10163057903E+04 0.  0.
        -13    1    3    3    0    0 -0.29627545072E+03  0.95299764657E+02 -0.66836116812E+03  0.73727054061E+03  0.10566000000E+00 0.  1.
         13    1    4    4    0    0  0.76413130636E+02  0.18210934032E+03  0.35112948405E+03  0.40285816871E+03  0.10566000000E+00 0. -1.
          4    1    3    3  502    0  0.72967854485E+03  0.74497779669E+03 -0.12642163062E+04  0.16388000382E+04  0.00000000000E+00 0.  1.
         -4    1    4    4    0  501 -0.50981622477E+03 -0.10223869017E+04  0.71935251773E+03  0.13500576301E+04  0.00000000000E+00 0. -1.
</event>
<event>
 8    1  0.7096247E-006  0.1253540E+04  0.7818608E-02  0.8567300E-01
          2   -1    0    0  502    0  0.00000000000E+00  0.00000000000E+00  0.73734714465E+03  0.73734714465E+03  0.00000000000E+00 0. -1.
         -2   -1    0    0    0  501 -0.00000000000E+00 -0.00000000000E+00 -0.21405174458E+04  0.21405174458E+04  0.00000000000E+00 0.  1.
    9000010    2    1    2  502    0 -0.74013231959E+03 -0.14223487980E+03 -0.79915797066E+03  0.14900451138E+04  0.10067543730E+04 0.  0.
   -9000010    2    1    2    0  501  0.74013231959E+03  0.14223487980E+03 -0.60401233051E+03  0.13878194767E+04  0.99658687172E+03 0.  0.
        -13    1    3    3    0    0 -0.92311537703E+03  0.35083739493E+02 -0.37867180346E+03  0.99838129690E+03  0.10566000000E+00 0.  1.
         13    1    4    4    0    0  0.52495438707E+02  0.39166803899E+03  0.60250667763E+02  0.39973713611E+03  0.10566000000E+00 0. -1.
          4    1    3    3  502    0  0.18298305745E+03 -0.17731861929E+03 -0.42048616720E+03  0.49166381692E+03  0.00000000000E+00 0.  1.
         -4    1    4    4    0  501  0.68763688088E+03 -0.24943315919E+03 -0.66426299827E+03  0.98808234056E+03  0.00000000000E+00 0. -1.
</event>
<event>
 7    1  0.7096247E-006  0.1376260E+04  0.7818608E-02  0.8484476E-01
          2   -1    0    0  502    0  0.00000000000E+00  0.00000000000E+00  0.18359749389E+04  0.18359749389E+04  0.00000000000E+00 0.  1.
         -2   -1    0    0    0  501 -0.00000000000E+00 -0.00000000000E+00 -0.11766881644E+04  0.11766881644E+04  0.00000000000E+00 0. -1.
    9000010    2    1    2  502    0  0.94324353918E+03  0.60705490728E+03 -0.16103309300E+03  0.15025242297E+04  0.98662220180E+03 0.  0.
        -13    1    3    3    0    0  0.75694424731E+03  0.55152865475E+03 -0.53677015625E+03  0.10794770319E+04  0.10566000000E+00 0.  1.
         13    1    1    2    0    0 -0.30539733960E+03 -0.29887580308E+02 -0.20117016216E+02  0.30751505329E+03  0.10566000000E+00 0. -1.
          4    1    3    3  502    0  0.18629929187E+03  0.55526252529E+02  0.37573706325E+03  0.42304719781E+03  0.00000000000E+00 0.  1.
         -4    1    1    2    0  501 -0.63784619957E+03 -0.57716732697E+03  0.84043688378E+03  0.12026238203E+04  0.00000000000E+00 0. -1.
</event>
<event>
 8    1  0.7096247E-006  0.1452537E+04  0.7818608E-02  0.8437350E-01
         -1   -1    0    0    0  501 -0.00000000000E+00  0.00000000000E+00  0.95595945942E+03  0.95595945942E+03  0.00000000000E+00 0. -1.
          1   -1    0    0  502    0  0.00000000000E+00 -0.00000000000E+00 -0.23988442876E+04  0.23988442876E+04  0.00000000000E+00 0.  1.
    9000010    2    1    2  502    0 -0.69317814734E+03  0.73486308505E+03 -0.26263624696E+03  0.15068649332E+04  0.10868046885E+04 0.  0.
   -9000010    2    1    2    0  501  0.69317814734E+03 -0.73486308505E+03 -0.11802485812E+04  0.18479388138E+04  0.10006854893E+04 0.  0.
        -13    1    3    3    0    0 -0.80837085333E+02  0.71853295746E+03  0.18716655069E+03  0.74689729828E+03  0.10566000000E+00 0.  1.
         13    1    4    4    0    0  0.63994802226E+03  0.26951038311E+02 -0.39467931623E+03  0.75235071841E+03  0.10566000000E+00 0. -1.
          4    1    3    3  502    0 -0.61234106200E+03  0.16330127594E+02 -0.44980279765E+03  0.75996763488E+03  0.00000000000E+00 0.  1.
         -4    1    4    4    0  501  0.53230125073E+02 -0.76181412336E+03 -0.78556926495E+03  0.10955880954E+04  0.00000000000E+00 0. -1.
</event>
<event>
 8    1  0.7096247E-006  0.1281110E+04  0.7818608E-02  0.8547866E-01
          1   -1    0    0  502    0  0.00000000000E+00  0.00000000000E+00  0.56848439328E+03  0.56848439328E+03  0.00000000000E+00 0.  1.
         -1   -1    0    0    0  501 -0.00000000000E+00 -0.00000000000E+00 -0.29891401861E+04  0.29891401861E+04  0.00000000000E+00 0. -1.
    9000010    2    1    2  502    0  0.51773691623E+03  0.61114963009E+03 -0.88420985010E+03  0.15589672027E+04  0.10034920504E+04 0.  0.
   -9000010    2    1    2    0  501 -0.51773691623E+03 -0.61114963009E+03 -0.15364459427E+04  0.19986573767E+04  0.99619766605E+03 0.  0.
        -13    1    3    3    0    0  0.30934335939E+02  0.71934909967E+03 -0.27276243337E+03  0.76994767132E+03  0.10566000000E+00 0.  1.
         13    1    4    4    0    0 -0.48358880775E+03 -0.84955290931E+03 -0.94320399845E+03  0.13583931959E+04  0.10566000000E+00 0. -1.
          4    1    3    3  502    0  0.48680258029E+03 -0.10819946959E+03 -0.61144741673E+03  0.78901953134E+03  0.00000000000E+00 0.  1.
         -4    1    4    4    0  501 -0.34148108487E+02  0.23840327923E+03 -0.59324194427E+03  0.64026418086E+03  0.00000000000E+00 0. -1.
</event>
<event>
 8    1  0.7096247E-006  0.1322862E+04  0.7818608E-02  0.8519375E-01
         -2   -1    0    0    0  501 -0.00000000000E+00  0.00000000000E+00  0.17766944368E+04  0.17766944368E+04  0.00000000000E+00 0.  1.
          2   -1    0    0  502    0  0.00000000000E+00 -0.00000000000E+00 -0.10568220279E+04  0.10568220279E+04  0.00000000000E+00 0. -1.
    9000010    2    1    2  502    0  0.67392934317E+03 -0.53810627790E+03  0.72752259533E+03  0.15035590278E+04  0.99381160066E+03 0.  0.
   -9000010    2    1    2    0  501 -0.67392934317E+03  0.53810627790E+03 -0.76501864724E+01  0.13299574368E+04  0.10124174695E+04 0.  0.
        -13    1    3    3    0    0  0.34247218689E+03  0.12031881501E+03 -0.11812264648E+03  0.38172868220E+03  0.10566000000E+00 0.  1.
         13    1    4    4    0    0 -0.21531309905E+03  0.49018854265E+03 -0.44367610047E+03  0.69533663161E+03  0.10566000000E+00 0. -1.
          4    1    3    3  502    0  0.33145715628E+03 -0.65842509291E+03  0.84564524180E+03  0.11218303456E+04  0.00000000000E+00 0.  1.
         -4    1    4    4    0  501 -0.45861624412E+03  0.47917735255E+02  0.43602591400E+03  0.63462080521E+03  0.00000000000E+00 0. -1.
</event>
<event>
 8    1  0.7096247E-006  0.1485550E+04  0.7818608E-02  0.8417864E-01
          2   -1    0    0  502    0  0.00000000000E+00  0.00000000000E+00  0.26291233159E+04  0.26291233159E+04  0.00000000000E+00 0. -1.
         -2   -1    0    0    0  501 -0.00000000000E+00 -0.00000000000E+00 -0.91451528919E+03  0.91451528919E+03  0.00000000000E+00 0.  1.
    9000010    2    1    2  502    0 -0.10928238092E+04 -0.13376583363E+03  0.13608223940E+04  0.20087621713E+04  0.98545963721E+03 0.  0.
   -9000010    2    1    2    0  501  0.10928238092E+04  0.13376583363E+03  0.35378563269E+03  0.15348764338E+04  0.10092196078E+04 0.  0.
        -13    1    3    3    0    0 -0.57947498380E+03 -0.29048292263E+03  0.13198855178E+04  0.14704657006E+04  0.10566000000E+00 0.  1.
         13    1    4    4    0    0 -0.14948466583E+03  0.13162507387E+03 -0.86096925006E+02  0.21698736610E+03  0.10566000000E+00 0. -1.
          4    1    3    3  502    0 -0.51334882545E+03  0.15671708900E+03  0.40936876154E+02  0.53829647073E+03  0.00000000000E+00 0.  1.
         -4    1    4    4    0  501  0.12423084751E+04  0.21407597645E+01  0.43988255769E+03  0.13178890677E+04  0.00000000000E+00 0. -1.
</event>
<event>
 8    1  0.7096247E-006  0.1510399E+04  0.7818608E-02  0.8403539E-01
         -2   -1    0    0    0  501 -0.00000000000E+00  0.00000000000E+00  0.15129904783E+04  0.15129904783E+04  0.00000000000E+00 0. -1.
          2   -1    0    0  502    0  0.00000000000E+00 -0.00000000000E+00 -0.16826204738E+04  0.16826204738E+04  0.00000000000E+00 0.  1.
    9000010    2    1    2  502    0 -0.13147834025E+03 -0.10980780095E+04 -0.60024523870E+03  0.16356460732E+04  0.10449793593E+04 0.  0.
   -9000010    2    1    2    0  501  0.13147834025E+03  0.10980780095E+04  0.43061524318E+03  0.15599648789E+04  0.10124223758E+04 0.  0.
        -13    1    3    3    0    0 -0.20284661128E+03 -0.12423652028E+04 -0.29861517278E+03  0.12937500058E+04  0.10566000000E+00 0.  1.
         13    1    4    4    0    0 -0.37218752099E+03  0.75335133485E+03  0.52333402674E+02  0.84190295207E+03  0.10566000000E+00 0. -1.
          4    1    3    3  502    0  0.71368271036E+02  0.14428719334E+03 -0.30163006592E+03  0.34189606746E+03  0.00000000000E+00 0.  1.
         -4    1    4    4    0  501  0.50366586124E+03  0.34472667461E+03  0.37828184050E+03  0.71806192687E+03  0.00000000000E+00 0. -1.
</event>
<event>
 8    1  0.7096247E-006  0.1127374E+04  0.7818608E-02  0.8663355E-01
         -2   -1    0    0    0  501 -0.00000000000E+00  0.00000000000E+00  0.66111702947E+03  0.66111702947E+03  0.00000000000E+00 0.  1.
          2   -1    0    0  502    0  0.00000000000E+00 -0.00000000000E+00 -0.19271312961E+04  0.19271312961E+04  0.00000000000E+00 0. -1.
    9000010    2    1    2  502    0  0.39388852972E+03  0.37238062939E+03 -0.69427154636E+03  0.13205487969E+04  0.98388039814E+03 0.  0.
   -9000010    2    1    2    0  501 -0.39388852972E+03 -0.37238062939E+03 -0.57174272027E+03  0.12676995287E+04  0.99315499792E+03 0.  0.
        -13    1    3    3    0    0  0.56098042187E+03  0.10343137277E+03 -0.80368527556E+03  0.98554914434E+03  0.10566000000E+00 0.  1.
         13    1    4    4    0    0 -0.38336378827E+03 -0.41894377869E+02  0.19540535759E+03  0.43232649467E+03  0.10566000000E+00 0. -1.
          4    1    3    3  502    0 -0.16709189215E+03  0.26894925662E+03  0.10941372920E+03  0.33499965253E+03  0.00000000000E+00 0.  1.
         -4    1    4    4    0  501 -0.10524741447E+02 -0.33048625152E+03 -0.76714807785E+03  0.83537303403E+03  0.00000000000E+00 0. -1.
</event>
<event>
 8    1  0.7096247E-006  0.1011511E+04  0.7818608E-02  0.8763851E-01
         -2   -1    0    0    0  501 -0.00000000000E+00  0.00000000000E+00  0.95782766977E+03  0.95782766977E+03  0.00000000000E+00 0.  1.
          2   -1    0    0  502    0  0.00000000000E+00 -0.00000000000E+00 -0.11837837891E+04  0.11837837891E+04  0.00000000000E+00 0. -1.
    9000010    2    1    2  502    0  0.11748625161E+03 -0.26680097161E+03  0.22168559805E+03  0.10348236914E+04  0.96784802012E+03 0.  0.
   -9000010    2    1    2    0  501 -0.11748625161E+03  0.26680097161E+03 -0.44764171741E+03  0.11067877675E+04  0.96933496658E+03 0.  0.
        -13    1    3    3    0    0  0.43680153999E+03 -0.45758030047E+03  0.19470444798E+03  0.66188001174E+03  0.10566000000E+00 0.  1.
         13    1    4    4    0    0  0.19318794552E+03  0.29847494595E+03  0.18535112236E+03  0.40095376963E+03  0.10566000000E+00 0. -1.
          4    1    3    3  502    0 -0.31931528838E+03  0.19077932885E+03  0.26981150073E+02  0.37294367962E+03  0.00000000000E+00 0.  1.
         -4    1    4    4    0  501 -0.31067419714E+03 -0.31673974338E+02 -0.63299283977E+03  0.70583399791E+03  0.00000000000E+00 0. -1.
</event>
<event>
 8    1  0.7096247E-006  0.1183041E+04  0.7818608E-02  0.8619443E-01
         -1   -1    0    0    0  501 -0.00000000000E+00  0.00000000000E+00  0.15992706071E+04  0.15992706071E+04  0.00000000000E+00 0.  1.
          1   -1    0    0  502    0  0.00000000000E+00 -0.00000000000E+00 -0.15939280061E+04  0.15939280061E+04  0.00000000000E+00 0. -1.
    9000010    2    1    2  502    0  0.62106262311E+03 -0.23954318379E+03  0.10748214139E+04  0.15954833089E+04  0.97325546411E+03 0.  0.
   -9000010    2    1    2    0  501 -0.62106262311E+03  0.23954318379E+03 -0.10694788129E+04  0.15977153043E+04  0.98275609582E+03 0.  0.
        -13    1    3    3    0    0 -0.14900822869E+03 -0.79074760149E+02  0.70750169257E+03  0.72733412271E+03  0.10566000000E+00 0.  1.
         13    1    4    4    0    0 -0.39631680092E+03 -0.18900994525E+03 -0.10209672665E+04  0.11113801945E+04  0.10566000000E+00 0. -1.
          4    1    3    3  502    0  0.77007085180E+03 -0.16046842364E+03  0.36731972135E+03  0.86814918618E+03  0.00000000000E+00 0.  1.
         -4    1    4    4    0  501 -0.22474582218E+03  0.42855312903E+03 -0.48511546318E+02  0.48633510990E+03  0.00000000000E+00 0. -1.
</event>
<event>
 8    1  0.7096247E-006  0.1137885E+04  0.7818608E-02  0.8654864E-01
          2   -1    0    0  502    0  0.00000000000E+00  0.00000000000E+00  0.19490018134E+04  0.19490018134E+04  0.00000000000E+00 0. -1.
         -2   -1    0    0    0  501 -0.00000000000E+00 -0.00000000000E+00 -0.66981308476E+03  0.66981308476E+03  0.00000000000E+00 0.  1.
    9000010    2    1    2  502    0 -0.53761807243E+03 -0.10586471806E+03  0.52324171056E+03  0.12557444289E+04  0.10014347970E+04 0.  0.
   -9000010    2    1    2    0  501  0.53761807243E+03  0.10586471806E+03  0.75594701808E+03  0.13630704693E+04  0.99310859415E+03 0.  0.
        -13    1    3    3    0    0 -0.34846482913E+03  0.21745721408E+03  0.72276901292E+03  0.83133052049E+03  0.10566000000E+00 0.  1.
         13    1    4    4    0    0  0.20297272209E+03 -0.41922469224E+03  0.13792236477E+03  0.48576728828E+03  0.10566000000E+00 0. -1.
          4    1    3    3  502    0 -0.18915324329E+03 -0.32332193214E+03 -0.19952730236E+03  0.42441390839E+03  0.00000000000E+00 0.  1.
         -4    1    4    4    0  501  0.33464535033E+03  0.52508941030E+03  0.61802465331E+03  0.87730318101E+03  0.00000000000E+00 0. -1.
</event>
<event>
 8    1  0.7096247E-006  0.2078856E+04  0.7818608E-02  0.8137020E-01
          2   -1    0    0  502    0  0.00000000000E+00  0.00000000000E+00  0.18980058187E+04  0.18980058187E+04  0.00000000000E+00 0.  1.
         -2   -1    0    0    0  501 -0.00000000000E+00 -0.00000000000E+00 -0.23800195486E+04  0.23800195486E+04  0.00000000000E+00 0. -1.
    9000010    2    1    2  502    0  0.91106469400E+03  0.15622368345E+04 -0.68682585309E+03  0.21954611730E+04  0.10381219610E+04 0.  0.
   -9000010    2    1    2    0  501 -0.91106469400E+03 -0.15622368345E+04  0.20481212311E+03  0.20825641943E+04  0.10121772641E+04 0.  0.
        -13    1    3    3    0    0  0.57251766283E+03  0.10880247415E+04 -0.95233644309E+03  0.15551588422E+04  0.10566000000E+00 0.  1.
         13    1    4    4    0    0  0.88621920232E+02 -0.74575420097E+03  0.24860087064E+03  0.79107874264E+03  0.10566000000E+00 0. -1.
          4    1    3    3  502    0  0.33854703117E+03  0.47421209293E+03  0.26551058999E+03  0.64030233077E+03  0.00000000000E+00 0.  1.
         -4    1    4    4    0  501 -0.99968661424E+03 -0.81648263351E+03 -0.43788747538E+02  0.12914854517E+04  0.00000000000E+00 0. -1.
</event>
<event>
 8    1  0.7096247E-006  0.1439645E+04  0.7818608E-02  0.8445104E-01
         -2   -1    0    0    0  501 -0.00000000000E+00  0.00000000000E+00  0.17181652892E+04  0.17181652892E+04  0.00000000000E+00 0.  1.
          2   -1    0    0  502    0  0.00000000000E+00 -0.00000000000E+00 -0.12613259000E+04  0.12613259000E+04  0.00000000000E+00 0. -1.
    9000010    2    1    2  502    0  0.62998294162E+03  0.79401427280E+03  0.53696350874E+03  0.15224296487E+04  0.10010619628E+04 0.  0.
   -9000010    2    1    2    0  501 -0.62998294162E+03 -0.79401427280E+03 -0.80124119593E+02  0.14570615405E+04  0.10436816019E+04 0.  0.
        -13    1    3    3    0    0  0.64448545389E+03  0.38789693299E+03  0.75117071310E+03  0.10630536121E+04  0.10566000000E+00 0.  1.
         13    1    4    4    0    0 -0.66618018758E+03 -0.30975722698E+03  0.34501035873E+03  0.81165124332E+03  0.10566000000E+00 0. -1.
          4    1    3    3  502    0 -0.14502512273E+02  0.40611733981E+03 -0.21420720435E+03  0.45937603655E+03  0.00000000000E+00 0.  1.
         -4    1    4    4    0  501  0.36197245960E+02 -0.48425704581E+03 -0.42513447832E+03  0.64541029717E+03  0.00000000000E+00 0. -1.
</event>
<event>
 8    1  0.7096247E-006  0.1276634E+04  0.7818608E-02  0.8550986E-01
         -1   -1    0    0    0  501 -0.00000000000E+00  0.00000000000E+00  0.30228897096E+04  0.30228897096E+04  0.00000000000E+00 0.  1.
          1   -1    0    0  502    0  0.00000000000E+00 -0.00000000000E+00 -0.12640571230E+04  0.12640571230E+04  0.00000000000E+00 0. -1.
    9000010    2    1    2  502    0 -0.83128511232E+03  0.11638771917E+03 -0.73314473640E+03  0.15021088375E+04  0.10070991590E+04 0.  0.
   -9000010    2    1    2    0  501  0.83128511232E+03 -0.11638771917E+03  0.24919773231E+04  0.27848379951E+04  0.91694636760E+03 0.  0.
        -13    1    3    3    0    0 -0.28764519268E+03 -0.28338504094E+03 -0.72196294828E+03  0.82721058271E+03  0.10566000000E+00 0.  1.
         13    1    4    4    0    0 -0.54065961504E+02 -0.32646487641E+03  0.74137117098E+03  0.81187047491E+03  0.10566000000E+00 0. -1.
          4    1    3    3  502    0 -0.54363991964E+03  0.39977276011E+03 -0.11181788123E+02  0.67489825481E+03  0.00000000000E+00 0.  1.
         -4    1    4    4    0  501  0.88535107382E+03  0.21007715723E+03  0.17506061521E+04  0.19729675202E+04  0.00000000000E+00 0. -1.
</event>
<event>
 8    1  0.7096247E-006  0.1429054E+04  0.7818608E-02  0.8451536E-01
          2   -1    0    0  502    0  0.00000000000E+00  0.00000000000E+00  0.33470124657E+04  0.33470124657E+04  0.00000000000E+00 0. -1.
         -2   -1    0    0    0  501 -0.00000000000E+00 -0.00000000000E+00 -0.65057481029E+03  0.65057481029E+03  0.00000000000E+00 0.  1.
    9000010    2    1    2  502    0  0.45553917882E+02 -0.10070691760E+04  0.18542706556E+04  0.23465936894E+04  0.10256309250E+04 0.  0.
   -9000010    2    1    2    0  501 -0.45553917882E+02  0.10070691760E+04  0.84216699984E+03  0.16509935866E+04  0.10001355322E+04 0.  0.
        -13    1    3    3    0    0 -0.47227421419E+03 -0.29207540671E+03  0.71191075503E+03  0.90286649672E+03  0.10566000000E+00 0.  1.
         13    1    4    4    0    0 -0.98372444858E+02  0.29579373456E+03 -0.21288492483E+03  0.37747989840E+03  0.10566000000E+00 0. -1.
          4    1    3    3  502    0  0.51782813208E+03 -0.71499376926E+03  0.11423599006E+04  0.14437271927E+04  0.00000000000E+00 0.  1.
         -4    1    4    4    0  501  0.52818526976E+02  0.71127544140E+03  0.10550519247E+04  0.12735136882E+04  0.00000000000E+00 0. -1.
</event>
<event>
 8    1  0.7096247E-006  0.1332554E+04  0.7818608E-02  0.8512916E-01
          2   -1    0    0  502    0  0.00000000000E+00  0.00000000000E+00  0.19479137882E+04  0.19479137882E+04  0.00000000000E+00 0. -1.
         -2   -1    0    0    0  501 -0.00000000000E+00 -0.00000000000E+00 -0.91856391464E+03  0.91856391464E+03  0.00000000000E+00 0.  1.
    9000010    2    1    2  502    0 -0.77486157417E+03  0.41324940254E+03  0.63853323787E+03  0.14753189799E+04  0.99882724673E+03 0.  0.
   -9000010    2    1    2    0  501  0.77486157417E+03 -0.41324940254E+03  0.39081663569E+03  0.13911587229E+04  0.10056835595E+04 0.  0.
        -13    1    3    3    0    0 -0.58388921913E+02 -0.78121162219E+02 -0.22817357247E+03  0.24814385450E+03  0.10566000000E+00 0.  1.
         13    1    4    4    0    0  0.45009322582E+03 -0.46724407271E+03  0.68942680216E+03  0.94668382373E+03  0.10566000000E+00 0. -1.
          4    1    3    3  502    0 -0.71647265226E+03  0.49137056476E+03  0.86670681034E+03  0.12271751254E+04  0.00000000000E+00 0.  1.
         -4    1    4    4    0  501  0.32476834835E+03  0.53994670174E+02 -0.29861016647E+03  0.44447489920E+03  0.00000000000E+00 0. -1.
</event>
<event>
 8    1  0.7096247E-006  0.1236634E+04  0.7818608E-02  0.8579475E-01
         -2   -1    0    0    0  501 -0.00000000000E+00  0.00000000000E+00  0.85655253238E+03  0.85655253238E+03  0.00000000000E+00 0. -1.
          2   -1    0    0  502    0  0.00000000000E+00 -0.00000000000E+00 -0.18023975682E+04  0.18023975682E+04  0.00000000000E+00 0.  1.
    9000010    2    1    2  502    0  0.42947561282E+03 -0.40033396541E+03 -0.53306328657E+03  0.12721656175E+04  0.99475238376E+03 0.  0.
   -9000010    2    1    2    0  501 -0.42947561282E+03  0.40033396541E+03 -0.41278174929E+03  0.13867844831E+04  0.11866195027E+04 0.  0.
        -13    1    3    3    0    0  0.49476630771E+03 -0.52995850854E+03 -0.55379244542E+01  0.72503820574E+03  0.10566000000E+00 0.  1.
         13    1    4    4    0    0 -0.78201997444E+03  0.99623294230E+02 -0.47325256832E+03  0.91948248801E+03  0.10566000000E+00 0. -1.
          4    1    3    3  502    0 -0.65290694891E+02  0.12962454313E+03 -0.52752536212E+03  0.54712741176E+03  0.00000000000E+00 0.  1.
         -4    1    4    4    0  501  0.35254436162E+03  0.30071067118E+03  0.60470819029E+02  0.46730199510E+03  0.00000000000E+00 0. -1.
</event>
<event>
 8    1  0.7096247E-006  0.1650455E+04  0.7818608E-02  0.8327811E-01
          2   -1    0    0  502    0  0.00000000000E+00  0.00000000000E+00  0.20897860046E+04  0.20897860046E+04  0.00000000000E+00 0. -1.
         -2   -1    0    0    0  501 -0.00000000000E+00 -0.00000000000E+00 -0.13888976775E+04  0.13888976775E+04  0.00000000000E+00 0.  1.
    9000010    2    1    2  502    0 -0.11139164291E+04 -0.69444251420E+03  0.78216467764E+03  0.18281750540E+04  0.10036843271E+04 0.  0.
   -9000010    2    1    2    0  501  0.11139164291E+04  0.69444251420E+03 -0.81276350545E+02  0.16505086282E+04  0.99725256083E+03 0.  0.
        -13    1    3    3    0    0 -0.29569909577E+03  0.80246071417E+02 -0.17226786202E+03  0.35150194120E+03  0.10566000000E+00 0.  1.
         13    1    4    4    0    0  0.72145479080E+03 -0.13130531225E+03 -0.85986301898E+01  0.73335669888E+03  0.10566000000E+00 0. -1.
          4    1    3    3  502    0 -0.81821733332E+03 -0.77468858561E+03  0.95443253966E+03  0.14766731128E+04  0.00000000000E+00 0.  1.
         -4    1    4    4    0  501  0.39246163830E+03  0.82574782645E+03 -0.72677720355E+02  0.91715192932E+03  0.00000000000E+00 0. -1.
</event>
<event>
 8    1  0.7096247E-006  0.1141440E+04  0.7818608E-02  0.8652014E-01
         -2   -1    0    0    0  501 -0.00000000000E+00  0.00000000000E+00  0.19324899907E+04  0.19324899907E+04  0.00000000000E+00 0. -1.
          2   -1    0    0  502    0  0.00000000000E+00 -0.00000000000E+00 -0.88988248347E+03  0.88988248347E+03  0.00000000000E+00 0.  1.
    9000010    2    1    2  502    0  0.49091581851E+03 -0.25310782670E+03  0.12150218824E+04  0.16650746348E+04  0.99555685524E+03 0.  0.
   -9000010    2    1    2    0  501 -0.49091581851E+03  0.25310782670E+03 -0.17241437516E+03  0.11572978394E+04  0.10022722482E+04 0.  0.
        -13    1    3    3    0    0  0.61116778288E+03 -0.14200353793E+03  0.13262226704E+04  0.14671597208E+04  0.10566000000E+00 0.  1.
         13    1    4    4    0    0 -0.11670818135E+03  0.30548994540E+03  0.37155335969E+03  0.49497153109E+03  0.10566000000E+00 0. -1.
          4    1    3    3  502    0 -0.12025196437E+03 -0.11110428877E+03 -0.11120078806E+03  0.19791491400E+03  0.00000000000E+00 0.  1.
         -4    1    4    4    0  501 -0.37420763716E+03 -0.52382118700E+02 -0.54396773485E+03  0.66232630827E+03  0.00000000000E+00 0. -1.
</event>
<event>
 8    1  0.7096247E-006  0.1128527E+04  0.7818608E-02  0.8662419E-01
          2   -1    0    0  502    0  0.00000000000E+00  0.00000000000E+00  0.10708253502E+04  0.10708253502E+04  0.00000000000E+00 0. -1.
         -2   -1    0    0    0  501 -0.00000000000E+00 -0.00000000000E+00 -0.12633761403E+04  0.12633761403E+04  0.00000000000E+00 0.  1.
    9000010    2    1    2  502    0  0.44782715412E+03 -0.74636762163E+02 -0.37749771898E+03  0.11781093439E+04  0.10194691227E+04 0.  0.
   -9000010    2    1    2    0  501 -0.44782715412E+03  0.74636762163E+02  0.18494692889E+03  0.11560921467E+04  0.10470071055E+04 0.  0.
        -13    1    3    3    0    0  0.60883870816E+03  0.78958891413E+02 -0.60353883713E+03  0.86091707974E+03  0.10566000000E+00 0.  1.
         13    1    4    4    0    0 -0.74530026613E+03 -0.13884047952E+03  0.30587657869E+02  0.75873894155E+03  0.10566000000E+00 0. -1.
          4    1    3    3  502    0 -0.16101155404E+03 -0.15359565358E+03  0.22604111815E+03  0.31719226413E+03  0.00000000000E+00 0.  1.
         -4    1    4    4    0  501  0.29747311201E+03  0.21347724168E+03  0.15435927102E+03  0.39735320514E+03  0.00000000000E+00 0. -1.
</event>
<event>
 8    1  0.7096247E-006  0.1404612E+04  0.7818608E-02  0.8466602E-01
          1   -1    0    0  502    0  0.00000000000E+00  0.00000000000E+00  0.12303816797E+04  0.12303816797E+04  0.00000000000E+00 0. -1.
         -1   -1    0    0    0  501 -0.00000000000E+00 -0.00000000000E+00 -0.17714014684E+04  0.17714014684E+04  0.00000000000E+00 0.  1.
    9000010    2    1    2  502    0 -0.67014598627E+03 -0.72080622465E+03  0.19185157429E+03  0.14159222839E+04  0.99968576622E+03 0.  0.
   -9000010    2    1    2    0  501  0.67014598627E+03  0.72080622465E+03 -0.73287136300E+03  0.15858608642E+04  0.10045879700E+04 0.  0.
        -13    1    3    3    0    0 -0.34289072234E+03 -0.86032955538E+03  0.39431216421E+03  0.10065898297E+04  0.10566000000E+00 0.  1.
         13    1    4    4    0    0  0.78453231969E+03  0.73805064695E+03 -0.88547167754E+03  0.13943707617E+04  0.10566000000E+00 0. -1.
          4    1    3    3  502    0 -0.32725526393E+03  0.13952333073E+03 -0.20246058992E+03  0.40933245420E+03  0.00000000000E+00 0.  1.
         -4    1    4    4    0  501 -0.11438633341E+03 -0.17244422301E+02  0.15260031454E+03  0.19149010254E+03  0.00000000000E+00 0. -1.
</event>
<event>
 8    1  0.7096247E-006  0.1324612E+04  0.7818608E-02  0.8518204E-01
         -2   -1    0    0    0  501 -0.00000000000E+00  0.00000000000E+00  0.85004534821E+03  0.85004534821E+03  0.00000000000E+00 0.  1.
          2   -1    0    0  502    0  0.00000000000E+00 -0.00000000000E+00 -0.21275914400E+04  0.21275914400E+04  0.00000000000E+00 0. -1.
    9000010    2    1    2  502    0  0.66254936163E+03  0.61968588751E+03 -0.87972053064E+03  0.15655828825E+04  0.92420738702E+03 0.  0.
   -9000010    2    1    2    0  501 -0.66254936163E+03 -0.61968588751E+03 -0.39782556120E+03  0.14120539057E+04  0.10063045264E+04 0.  0.
        -13    1    3    3    0    0  0.46838520932E+03 -0.10893385213E+03 -0.58180741778E+03  0.75481863451E+03  0.10566000000E+00 0.  1.
         13    1    4    4    0    0 -0.72723824402E+02 -0.36218960908E+03 -0.62795978792E+03  0.72856267676E+03  0.10566000000E+00 0. -1.
          4    1    3    3  502    0  0.19416415231E+03  0.72861973964E+03 -0.29791311285E+03  0.81076424801E+03  0.00000000000E+00 0.  1.
         -4    1    4    4    0  501 -0.58982553723E+03 -0.25749627844E+03  0.23013422672E+03  0.68349122898E+03  0.00000000000E+00 0. -1.
</event>
<event>
 8    1  0.7096247E-006  0.1201354E+04  0.7818608E-02  0.8605543E-01
         -1   -1    0    0    0  501 -0.00000000000E+00  0.00000000000E+00  0.75923757042E+03  0.75923757042E+03  0.00000000000E+00 0.  1.
          1   -1    0    0  502    0  0.00000000000E+00 -0.00000000000E+00 -0.25268629707E+04  0.25268629707E+04  0.00000000000E+00 0. -1.
    9000010    2    1    2  502    0 -0.50488541588E+03 -0.42818656628E+03 -0.17010938776E+04  0.20820404169E+04  0.10014583858E+04 0.  0.
   -9000010    2    1    2    0  501  0.50488541588E+03  0.42818656628E+03 -0.66531522603E+02  0.12040601242E+04  0.10035344141E+04 0.  0.
        -13    1    3    3    0    0  0.90997229650E+02 -0.60099968290E+02  0.10098962285E+03  0.14863181718E+03  0.10566000000E+00 0.  1.
         13    1    4    4    0    0  0.47118235994E+03  0.43617187297E+02 -0.45495323654E+03  0.65642801125E+03  0.10566000000E+00 0. -1.
          4    1    3    3  502    0 -0.59588264553E+03 -0.36808659799E+03 -0.18020835005E+04  0.19334085997E+04  0.00000000000E+00 0.  1.
         -4    1    4    4    0  501  0.33703055941E+02  0.38456937898E+03  0.38842171393E+03  0.54763211291E+03  0.00000000000E+00 0. -1.
</event>
<event>
 8    1  0.7096247E-006  0.1088991E+04  0.7818608E-02  0.8695199E-01
         -4   -1    0    0    0  501 -0.00000000000E+00  0.00000000000E+00  0.14014370051E+04  0.14014370051E+04  0.00000000000E+00 0. -1.
          4   -1    0    0  502    0  0.00000000000E+00 -0.00000000000E+00 -0.85416223981E+03  0.85416223981E+03  0.00000000000E+00 0.  1.
    9000010    2    1    2  502    0  0.39373275528E+03 -0.17676896778E+03  0.38323525175E+03  0.11574176470E+04  0.10032315788E+04 0.  0.
   -9000010    2    1    2    0  501 -0.39373275528E+03  0.17676896778E+03  0.16403951352E+03  0.10981815979E+04  0.99640408947E+03 0.  0.
        -13    1    3    3    0    0  0.13229141984E+03  0.12551335466E+03  0.65119288481E+03  0.67624463499E+03  0.10566000000E+00 0.  1.
         13    1    4    4    0    0 -0.48386114485E+03 -0.31997230782E+03  0.11023994338E+03  0.59047162637E+03  0.10566000000E+00 0. -1.
          4    1    3    3  502    0  0.26144133544E+03 -0.30228232243E+03 -0.26795763306E+03  0.48117301197E+03  0.00000000000E+00 0.  1.
         -4    1    4    4    0  501  0.90128389568E+02  0.49674127560E+03  0.53799570143E+02  0.50770997157E+03  0.00000000000E+00 0. -1.
</event>
<event>
 8    1  0.7096247E-006  0.1099202E+04  0.7818608E-02  0.8686594E-01
         -2   -1    0    0    0  501 -0.00000000000E+00  0.00000000000E+00  0.38608482851E+03  0.38608482851E+03  0.00000000000E+00 0. -1.
          2   -1    0    0  502    0  0.00000000000E+00 -0.00000000000E+00 -0.31449623646E+04  0.31449623646E+04  0.00000000000E+00 0.  1.
    9000010    2    1    2  502    0  0.18184766764E+03 -0.40564810536E+03 -0.12540536261E+04  0.16667902224E+04  0.10039522841E+04 0.  0.
   -9000010    2    1    2    0  501 -0.18184766764E+03  0.40564810536E+03 -0.15048239100E+04  0.18642569707E+04  0.10066479490E+04 0.  0.
        -13    1    3    3    0    0  0.51977810425E+03 -0.38581523204E+03 -0.11374736021E+04  0.13087661662E+04  0.10566000000E+00 0.  1.
         13    1    4    4    0    0  0.17080956072E+03  0.63786126353E+03 -0.74928615206E+03  0.99873552374E+03  0.10566000000E+00 0. -1.
          4    1    3    3  502    0 -0.33793043661E+03 -0.19832873319E+02 -0.11658002394E+03  0.35802405622E+03  0.00000000000E+00 0.  1.
         -4    1    4    4    0  501 -0.35265722837E+03 -0.23221315817E+03 -0.75553775792E+03  0.86552144699E+03  0.00000000000E+00 0. -1.
</event>
<event>
 8    1  0.7096247E-006  0.1011797E+04  0.7818608E-02  0.8763586E-01
          2   -1    0    0  502    0  0.00000000000E+00  0.00000000000E+00  0.27388092127E+04  0.27388092127E+04  0.00000000000E+00 0.  1.
         -2   -1    0    0    0  501 -0.00000000000E+00 -0.00000000000E+00 -0.40761606798E+03  0.40761606798E+03  0.00000000000E+00 0. -1.
    9000010    2    1    2  502    0 -0.49006611953E+02 -0.14237435241E+03  0.16215906702E+04  0.19127635714E+04  0.10032128757E+04 0.  0.
   -9000010    2    1    2    0  501  0.49006611953E+02  0.14237435241E+03  0.70960247450E+03  0.12336617093E+04  0.99785441673E+03 0.  0.
        -13    1    3    3    0    0  0.47155232372E+03 -0.19100086427E+02  0.87707841984E+03  0.99598844020E+03  0.10566000000E+00 0.  1.
         13    1    4    4    0    0 -0.15663542832E+03  0.51574557121E+03  0.21391632995E+03  0.57990374978E+03  0.10566000000E+00 0. -1.
          4    1    3    3  502    0 -0.52055893567E+03 -0.12327426598E+03  0.74451225039E+03  0.91677513117E+03  0.00000000000E+00 0.  1.
         -4    1    4    4    0  501  0.20564204028E+03 -0.37337121880E+03  0.49568614456E+03  0.65375795954E+03  0.00000000000E+00 0. -1.
</event>
<event>
 8    1  0.7096247E-006  0.1391432E+04  0.7818608E-02  0.8474857E-01
          2   -1    0    0  502    0  0.00000000000E+00  0.00000000000E+00  0.26256330641E+04  0.26256330641E+04  0.00000000000E+00 0.  1.
         -2   -1    0    0    0  501 -0.00000000000E+00 -0.00000000000E+00 -0.73848393520E+03  0.73848393520E+03  0.00000000000E+00 0. -1.
    9000010    2    1    2  502    0 -0.94734017968E+03 -0.14265414798E+03  0.88738442094E+03  0.16597112029E+04  0.10243956972E+04 0.  0.
   -9000010    2    1    2    0  501  0.94734017968E+03  0.14265414798E+03  0.99976470794E+03  0.17044057964E+04  0.99381387876E+03 0.  0.
        -13    1    3    3    0    0 -0.10896436694E+03 -0.50950874995E+00 -0.23062268497E+03  0.25506925892E+03  0.10566000000E+00 0.  1.
         13    1    4    4    0    0  0.32229008260E+03 -0.59468013390E+01  0.10117123472E+04  0.10618230297E+04  0.10566000000E+00 0. -1.
          4    1    3    3  502    0 -0.83837581274E+03 -0.14214463923E+03  0.11180071059E+04  0.14046419440E+04  0.00000000000E+00 0.  1.
         -4    1    4    4    0  501  0.62505009708E+03  0.14860094932E+03 -0.11947639235E+02  0.64258276672E+03  0.00000000000E+00 0. -1.
</event>
<event>
 8    1  0.7096247E-006  0.1217013E+04  0.7818608E-02  0.8593860E-01
          2   -1    0    0  502    0  0.00000000000E+00  0.00000000000E+00  0.23627533553E+04  0.23627533553E+04  0.00000000000E+00 0. -1.
         -2   -1    0    0    0  501 -0.00000000000E+00 -0.00000000000E+00 -0.73849272453E+03  0.73849272453E+03  0.00000000000E+00 0.  1.
    9000010    2    1    2  502    0 -0.62250436073E+03  0.10532062152E+03  0.22115477637E+03  0.12568503924E+04  0.10640297747E+04 0.  0.
   -9000010    2    1    2    0  501  0.62250436073E+03 -0.10532062152E+03  0.14031058544E+04  0.18443956874E+04  0.10170965051E+04 0.  0.
        -13    1    3    3    0    0 -0.13014277230E+03 -0.29964051338E+03 -0.29224083386E+03  0.43832213563E+03  0.10566000000E+00 0.  1.
         13    1    4    4    0    0  0.72206644954E+03  0.26706537579E+03  0.69025206854E+03  0.10339979699E+04  0.10566000000E+00 0. -1.
          4    1    3    3  502    0 -0.49236158843E+03  0.40496113491E+03  0.51339561023E+03  0.81852825678E+03  0.00000000000E+00 0.  1.
         -4    1    4    4    0  501 -0.99562088811E+02 -0.37238599731E+03  0.71285378583E+03  0.81039771748E+03  0.00000000000E+00 0. -1.
</event>
<event>
 8    1  0.7096247E-006  0.1037963E+04  0.7818608E-02  0.8739717E-01
          2   -1    0    0  502    0  0.00000000000E+00  0.00000000000E+00  0.33820365275E+04  0.33820365275E+04  0.00000000000E+00 0. -1.
         -2   -1    0    0    0  501 -0.00000000000E+00 -0.00000000000E+00 -0.44359087661E+03  0.44359087661E+03  0.00000000000E+00 0.  1.
    9000010    2    1    2  502    0 -0.18362349785E+03  0.20925551046E+03  0.24800566851E+04  0.26867351671E+04  0.99516794509E+03 0.  0.
   -9000010    2    1    2    0  501  0.18362349785E+03 -0.20925551046E+03  0.45838896579E+03  0.11388922371E+04  0.10047137035E+04 0.  0.
        -13    1    3    3    0    0 -0.59288872411E+03  0.55907309955E+02  0.14824390999E+04  0.15975820363E+04  0.10566000000E+00 0.  1.
         13    1    4    4    0    0  0.54348418167E+03 -0.29631269129E+03  0.10650575165E+03  0.62810807434E+03  0.10566000000E+00 0. -1.
          4    1    3    3  502    0  0.40926522626E+03  0.15334820051E+03  0.99761758519E+03  0.10891531308E+04  0.00000000000E+00 0.  1.
         -4    1    4    4    0  501 -0.35986068382E+03  0.87057180823E+02  0.35188321413E+03  0.51078416272E+03  0.00000000000E+00 0. -1.
</event>
<event>
 8    1  0.7096247E-006  0.1332711E+04  0.7818608E-02  0.8512812E-01
         -1   -1    0    0    0  501 -0.00000000000E+00  0.00000000000E+00  0.13374596666E+04  0.13374596666E+04  0.00000000000E+00 0. -1.
          1   -1    0    0  502    0  0.00000000000E+00 -0.00000000000E+00 -0.13280427606E+04  0.13280427606E+04  0.00000000000E+00 0.  1.
    9000010    2    1    2  502    0  0.52262953817E+02 -0.90263143198E+03  0.11713886525E+00  0.13246559326E+04  0.96811074148E+03 0.  0.
   -9000010    2    1    2    0  501 -0.52262953817E+02  0.90263143198E+03  0.92997671001E+01  0.13408464945E+04  0.99010500349E+03 0.  0.
        -13    1    3    3    0    0  0.16923353321E+02 -0.98375217928E+03  0.28662396320E+03  0.10247965933E+04  0.10566000000E+00 0.  1.
         13    1    4    4    0    0 -0.97788748055E+02  0.91901970965E+02  0.41283369388E+03  0.43409708762E+03  0.10566000000E+00 0. -1.
          4    1    3    3  502    0  0.35339600496E+02  0.81120747304E+02 -0.28650682433E+03  0.29985933935E+03  0.00000000000E+00 0.  1.
         -4    1    4    4    0  501  0.45525794238E+02  0.81072946102E+03 -0.40353392678E+03  0.90674940693E+03  0.00000000000E+00 0. -1.
</event>
<event>
 8    1  0.7096247E-006  0.1124791E+04  0.7818608E-02  0.8665456E-01
          2   -1    0    0  502    0  0.00000000000E+00  0.00000000000E+00  0.21727217352E+04  0.21727217352E+04  0.00000000000E+00 0.  1.
         -2   -1    0    0    0  501 -0.00000000000E+00 -0.00000000000E+00 -0.70054223116E+03  0.70054223116E+03  0.00000000000E+00 0. -1.
    9000010    2    1    2  502    0  0.35831833352E+03 -0.46408478293E+03  0.16450134856E+03  0.11686654329E+04  0.99747254928E+03 0.  0.
   -9000010    2    1    2    0  501 -0.35831833352E+03  0.46408478293E+03  0.13076781555E+04  0.17045985334E+04  0.92296656924E+03 0.  0.
        -13    1    3    3    0    0  0.46791633840E+03  0.72967610668E+02  0.35123745904E+03  0.58960812048E+03  0.10566000000E+00 0.  1.
         13    1    4    4    0    0  0.26340053135E+03  0.31665134708E+03  0.75380862592E+03  0.85899672362E+03  0.10566000000E+00 0. -1.
          4    1    3    3  502    0 -0.10959800487E+03 -0.53705239360E+03 -0.18673611048E+03  0.57905731245E+03  0.00000000000E+00 0.  1.
         -4    1    4    4    0  501 -0.62171886487E+03  0.14743343585E+03  0.55386952954E+03  0.84560180978E+03  0.00000000000E+00 0. -1.
</event>
<event>
 8    1  0.7096247E-006  0.1134091E+04  0.7818608E-02  0.8657917E-01
         -2   -1    0    0    0  501 -0.00000000000E+00  0.00000000000E+00  0.90361182256E+03  0.90361182256E+03  0.00000000000E+00 0.  1.
          2   -1    0    0  502    0  0.00000000000E+00 -0.00000000000E+00 -0.14396062065E+04  0.14396062065E+04  0.00000000000E+00 0. -1.
    9000010    2    1    2  502    0 -0.13068679792E+02  0.46794990146E+03 -0.39536113751E+03  0.12193102963E+04  0.10541628285E+04 0.  0.
   -9000010    2    1    2    0  501  0.13068679792E+02 -0.46794990146E+03 -0.14063324642E+03  0.11239077327E+04  0.10120489025E+04 0.  0.
        -13    1    3    3    0    0 -0.39994790733E+03 -0.11790558298E+03 -0.29346590044E+03  0.50988459572E+03  0.10566000000E+00 0.  1.
         13    1    4    4    0    0  0.21623620334E+03 -0.55413309865E+03 -0.44860312716E+03  0.74502776023E+03  0.10566000000E+00 0. -1.
          4    1    3    3  502    0  0.38687922753E+03  0.58585548444E+03 -0.10189523708E+03  0.70942570061E+03  0.00000000000E+00 0.  1.
         -4    1    4    4    0  501 -0.20316752355E+03  0.86183197190E+02  0.30796988075E+03  0.37887997249E+03  0.00000000000E+00 0. -1.
</event>
<event>
 8    1  0.7096247E-006  0.1282176E+04  0.7818608E-02  0.8547124E-01
          2   -1    0    0  502    0  0.00000000000E+00  0.00000000000E+00  0.16016670032E+04  0.16016670032E+04  0.00000000000E+00 0.  1.
         -2   -1    0    0    0  501 -0.00000000000E+00 -0.00000000000E+00 -0.10271531950E+04  0.10271531950E+04  0.00000000000E+00 0. -1.
    9000010    2    1    2  502    0  0.23080389084E+03 -0.81171158136E+03  0.31172284470E+03  0.13486829741E+04  0.10048027197E+04 0.  0.
   -9000010    2    1    2    0  501 -0.23080389084E+03  0.81171158136E+03  0.26279096354E+03  0.12801372240E+04  0.92603784725E+03 0.  0.
        -13    1    3    3    0    0 -0.21514895112E+03 -0.19410316081E+03 -0.26542400331E+03  0.39295676722E+03  0.10566000000E+00 0.  1.
         13    1    4    4    0    0  0.24788567540E+03  0.16980963514E+03  0.36515152339E+03  0.47288293102E+03  0.10566000000E+00 0. -1.
          4    1    3    3  502    0  0.44595284196E+03 -0.61760842055E+03  0.57714684801E+03  0.95572620690E+03  0.00000000000E+00 0.  1.
         -4    1    4    4    0  501 -0.47868956624E+03  0.64190194623E+03 -0.10236055985E+03  0.80725429303E+03  0.00000000000E+00 0. -1.
</event>
<event>
 8    1  0.7096247E-006  0.1437335E+04  0.7818608E-02  0.8446502E-01
          1   -1    0    0  502    0  0.00000000000E+00  0.00000000000E+00  0.22594932993E+04  0.22594932993E+04  0.00000000000E+00 0.  1.
         -1   -1    0    0    0  501 -0.00000000000E+00 -0.00000000000E+00 -0.16114541090E+04  0.16114541090E+04  0.00000000000E+00 0. -1.
    9000010    2    1    2  502    0 -0.55039995102E+03  0.86654071737E+03  0.15977626680E+04  0.21530776826E+04  0.10144284318E+04 0.  0.
   -9000010    2    1    2    0  501  0.55039995102E+03 -0.86654071737E+03 -0.94972347767E+03  0.17178697256E+04  0.99763158995E+03 0.  0.
        -13    1    3    3    0    0 -0.71890348981E+03  0.82859536961E+03  0.16420463463E+04  0.19747680190E+04  0.10566000000E+00 0.  1.
         13    1    4    4    0    0  0.40076460159E+02 -0.15271178439E+03 -0.81493951902E+03  0.83009243014E+03  0.10566000000E+00 0. -1.
          4    1    3    3  502    0  0.16850353878E+03  0.37945347759E+02 -0.44283678270E+02  0.17830966368E+03  0.00000000000E+00 0.  1.
         -4    1    4    4    0  501  0.51032349086E+03 -0.71382893298E+03 -0.13478395865E+03  0.88777729550E+03  0.00000000000E+00 0. -1.
</event>
<event>
 8    1  0.7096247E-006  0.1278979E+04  0.7818608E-02  0.8549350E-01
          1   -1    0    0  502    0  0.00000000000E+00  0.00000000000E+00  0.12467503097E+04  0.12467503097E+04  0.00000000000E+00 0. -1.
         -1   -1    0    0    0  501 -0.00000000000E+00 -0.00000000000E+00 -0.13180203515E+04  0.13180203515E+04  0.00000000000E+00 0.  1.
    9000010    2    1    2  502    0 -0.79037181835E+03 -0.97438445618E+02 -0.12192950521E+03  0.12826251383E+04  0.99803736358E+03 0.  0.
   -9000010    2    1    2    0  501  0.79037181835E+03  0.97438445618E+02  0.50659463378E+02  0.12821455229E+04  0.10035680838E+04 0.  0.
        -13    1    3    3    0    0  0.18549881327E+03 -0.44351334066E+02 -0.23063861439E+03  0.29928419966E+03  0.10566000000E+00 0.  1.
         13    1    4    4    0    0  0.27529877042E+03 -0.35920956842E+03 -0.26545544327E+03  0.52467850210E+03  0.10566000000E+00 0. -1.
          4    1    3    3  502    0 -0.97587063163E+03 -0.53087111552E+02  0.10870910918E+03  0.98334093859E+03  0.00000000000E+00 0.  1.
         -4    1    4    4    0  501  0.51507304793E+03  0.45664801404E+03  0.31611490665E+03  0.75746702082E+03  0.00000000000E+00 0. -1.
</event>
<event>
 8    1  0.7096247E-006  0.1147036E+04  0.7818608E-02  0.8647550E-01
         -2   -1    0    0    0  501 -0.00000000000E+00  0.00000000000E+00  0.82871787651E+03  0.82871787651E+03  0.00000000000E+00 0. -1.
          2   -1    0    0  502    0  0.00000000000E+00 -0.00000000000E+00 -0.17306908973E+04  0.17306908973E+04  0.00000000000E+00 0.  1.
    9000010    2    1    2  502    0  0.52647651526E+03  0.18466113240E+03 -0.81853443568E+02  0.11465932935E+04  0.99834810536E+03 0.  0.
   -9000010    2    1    2    0  501 -0.52647651526E+03 -0.18466113240E+03 -0.82011957722E+03  0.14128154803E+04  0.10060686883E+04 0.  0.
        -13    1    3    3    0    0  0.46610024622E+03  0.27403169113E+03  0.38737238082E+03  0.66513170113E+03  0.10566000000E+00 0.  1.
         13    1    4    4    0    0 -0.23475285337E+03  0.41881690883E+03 -0.34084345900E+03  0.58880453463E+03  0.10566000000E+00 0. -1.
          4    1    3    3  502    0  0.60376269040E+02 -0.89370558725E+02 -0.46922582439E+03  0.48146159234E+03  0.00000000000E+00 0.  1.
         -4    1    4    4    0  501 -0.29172366189E+03 -0.60347804123E+03 -0.47927611822E+03  0.82401094571E+03  0.00000000000E+00 0. -1.
</event>
<event>
 8    1  0.7096247E-006  0.1215779E+04  0.7818608E-02  0.8594774E-01
          2   -1    0    0  502    0  0.00000000000E+00  0.00000000000E+00  0.16661286382E+04  0.16661286382E+04  0.00000000000E+00 0. -1.
         -2   -1    0    0    0  501 -0.00000000000E+00 -0.00000000000E+00 -0.95884647943E+03  0.95884647943E+03  0.00000000000E+00 0.  1.
    9000010    2    1    2  502    0  0.10881519529E+03  0.55833273653E+03 -0.16193924320E+02  0.11462980975E+04  0.99506828591E+03 0.  0.
   -9000010    2    1    2    0  501 -0.10881519529E+03 -0.55833273653E+03  0.72347608307E+03  0.14786770202E+04  0.11573642019E+04 0.  0.
        -13    1    3    3    0    0 -0.22358145760E+02 -0.21627921057E+03  0.23626817705E+03  0.32109071344E+03  0.10566000000E+00 0.  1.
         13    1    4    4    0    0 -0.40041129800E+03 -0.48958417128E+03  0.92286969265E+03  0.11187986187E+04  0.10566000000E+00 0. -1.
          4    1    3    3  502    0  0.13117334105E+03  0.77461194710E+03 -0.25246210138E+03  0.82520738401E+03  0.00000000000E+00 0.  1.
         -4    1    4    4    0  501  0.29159610271E+03 -0.68748565256E+02 -0.19939360957E+03  0.35987840151E+03  0.00000000000E+00 0. -1.
</event>
<event>
 8    1  0.7096247E-006  0.1011064E+04  0.7818608E-02  0.8764265E-01
          2   -1    0    0  502    0  0.00000000000E+00  0.00000000000E+00  0.19703452880E+04  0.19703452880E+04  0.00000000000E+00 0. -1.
         -2   -1    0    0    0  501 -0.00000000000E+00 -0.00000000000E+00 -0.72001501661E+03  0.72001501661E+03  0.00000000000E+00 0.  1.
    9000010    2    1    2  502    0 -0.13587777477E+03 -0.16619195337E+03 -0.96920780299E+02  0.98967316344E+03  0.96123711837E+03 0.  0.
   -9000010    2    1    2    0  501  0.13587777477E+03  0.16619195337E+03  0.13472510517E+04  0.17006871411E+04  0.10154648299E+04 0.  0.
        -13    1    3    3    0    0  0.23576384423E+03  0.12179471801E+03 -0.36283626705E+03  0.44952053505E+03  0.10566000000E+00 0.  1.
         13    1    4    4    0    0 -0.14268364217E+03 -0.30757268743E+03  0.98683898234E+03  0.10434609566E+04  0.10566000000E+00 0. -1.
          4    1    3    3  502    0 -0.37164161900E+03 -0.28798667137E+03  0.26591548675E+03  0.54015262839E+03  0.00000000000E+00 0.  1.
         -4    1    4    4    0  501  0.27856141694E+03  0.47376464080E+03  0.36041206931E+03  0.65722618449E+03  0.00000000000E+00 0. -1.
</event>
<event>
 8    1  0.7096247E-006  0.1481770E+04  0.7818608E-02  0.8420069E-01
          2   -1    0    0  502    0  0.00000000000E+00  0.00000000000E+00  0.23411773910E+04  0.23411773910E+04  0.00000000000E+00 0. -1.
         -2   -1    0    0    0  501 -0.00000000000E+00 -0.00000000000E+00 -0.10592688743E+04  0.10592688743E+04  0.00000000000E+00 0.  1.
    9000010    2    1    2  502    0  0.95776382092E+03  0.52408081268E+03  0.64454168860E+02  0.14809807124E+04  0.99858765048E+03 0.  0.
   -9000010    2    1    2    0  501 -0.95776382092E+03 -0.52408081268E+03  0.12174543478E+04  0.19194655529E+04  0.10050774521E+04 0.  0.
        -13    1    3    3    0    0  0.35504661010E+03  0.30029208748E+03  0.51654470669E+03  0.69501933665E+03  0.10566000000E+00 0.  1.
         13    1    4    4    0    0 -0.69007626183E+02 -0.31741882610E+03  0.89429651087E+03  0.95146362209E+03  0.10566000000E+00 0. -1.
          4    1    3    3  502    0  0.60271721082E+03  0.22378872520E+03 -0.45209053783E+03  0.78596137573E+03  0.00000000000E+00 0.  1.
         -4    1    4    4    0  501 -0.88875619474E+03 -0.20666198658E+03  0.32315783695E+03  0.96800193076E+03  0.00000000000E+00 0. -1.
</event>
<event>
 8    1  0.7096247E-006  0.1684000E+04  0.7818608E-02  0.8310822E-01
         -2   -1    0    0    0  501 -0.00000000000E+00  0.00000000000E+00  0.14137642568E+04  0.14137642568E+04  0.00000000000E+00 0.  1.
          2   -1    0    0  502    0  0.00000000000E+00 -0.00000000000E+00 -0.20504472236E+04  0.20504472236E+04  0.00000000000E+00 0. -1.
    9000010    2    1    2  502    0  0.27669733680E+03  0.13232043675E+04 -0.62417338669E+02  0.16818471152E+04  0.99864036580E+03 0.  0.
   -9000010    2    1    2    0  501 -0.27669733680E+03 -0.13232043675E+04 -0.57426562812E+03  0.17823643652E+04  0.10097576463E+04 0.  0.
        -13    1    3    3    0    0  0.71624554985E+02  0.12412804997E+04  0.27991823652E+03  0.12744652157E+04  0.10566000000E+00 0.  1.
         13    1    4    4    0    0 -0.78479014097E+02 -0.10363464314E+03 -0.53030879226E+03  0.54600963473E+03  0.10566000000E+00 0. -1.
          4    1    3    3  502    0  0.20507278182E+03  0.81923867849E+02 -0.34233557519E+03  0.40738189946E+03  0.00000000000E+00 0.  1.
         -4    1    4    4    0  501 -0.19821832271E+03 -0.12195697244E+04 -0.43956835862E+02  0.12363547305E+04  0.00000000000E+00 0. -1.
</event>
<event>
 8    1  0.7096247E-006  0.1184741E+04  0.7818608E-02  0.8618142E-01
          2   -1    0    0  502    0  0.00000000000E+00  0.00000000000E+00  0.41804536227E+04  0.41804536227E+04  0.00000000000E+00 0.  1.
         -2   -1    0    0    0  501 -0.00000000000E+00 -0.00000000000E+00 -0.35037209546E+03  0.35037209546E+03  0.00000000000E+00 0. -1.
    9000010    2    1    2  502    0  0.39789029216E+03  0.47811668863E+03  0.23773557989E+04  0.26560946434E+04  0.10080207873E+04 0.  0.
   -9000010    2    1    2    0  501 -0.39789029216E+03 -0.47811668863E+03  0.14527257284E+04  0.18747310748E+04  0.10086090959E+04 0.  0.
        -13    1    3    3    0    0  0.14711848564E+03  0.37102181111E+03  0.17311532940E+03  0.43505167690E+03  0.10566000000E+00 0.  1.
         13    1    4    4    0    0 -0.15889097212E+03 -0.78220394977E+03  0.97093708143E+03  0.12569042077E+04  0.10566000000E+00 0. -1.
          4    1    3    3  502    0  0.25077180652E+03  0.10709487752E+03  0.22042404695E+04  0.22210429665E+04  0.00000000000E+00 0.  1.
         -4    1    4    4    0  501 -0.23899932005E+03  0.30408726113E+03  0.48178864696E+03  0.61782686710E+03  0.00000000000E+00 0. -1.
</event>
<event>
 8    1  0.7096247E-006  0.1452708E+04  0.7818608E-02  0.8437248E-01
         -2   -1    0    0    0  501 -0.00000000000E+00  0.00000000000E+00  0.14633857078E+04  0.14633857078E+04  0.00000000000E+00 0. -1.
          2   -1    0    0  502    0  0.00000000000E+00 -0.00000000000E+00 -0.19097461400E+04  0.19097461400E+04  0.00000000000E+00 0.  1.
    9000010    2    1    2  502    0 -0.10204224461E+04  0.28672260890E+03  0.61130565699E+03  0.15768742535E+04  0.99466878012E+03 0.  0.
   -9000010    2    1    2    0  501  0.10204224461E+04 -0.28672260890E+03 -0.10576660892E+04  0.17962575943E+04  0.99217537060E+03 0.  0.
        -13    1    3    3    0    0 -0.80532631300E+03  0.41146852381E+03 -0.13450757853E+02  0.90445439385E+03  0.10566000000E+00 0.  1.
         13    1    4    4    0    0  0.67766967150E+02 -0.46737519091E+03 -0.44757605338E+03  0.65065833249E+03  0.10566000000E+00 0. -1.
          4    1    3    3  502    0 -0.21509613307E+03 -0.12474591491E+03  0.62475641485E+03  0.67241985964E+03  0.00000000000E+00 0.  1.
         -4    1    4    4    0  501  0.95265547892E+03  0.18065258201E+03 -0.61009003584E+03  0.11455992618E+04  0.00000000000E+00 0. -1.
</event>
<event>
 8    1  0.7096247E-006  0.1385354E+04  0.7818608E-02  0.8478695E-01
          1   -1    0    0  502    0  0.00000000000E+00  0.00000000000E+00  0.13914049087E+04  0.13914049087E+04  0.00000000000E+00 0. -1.
         -1   -1    0    0    0  501 -0.00000000000E+00 -0.00000000000E+00 -0.14049013942E+04  0.14049013942E+04  0.00000000000E+00 0.  1.
    9000010    2    1    2  502    0 -0.41552572342E+03 -0.88024396635E+03 -0.19378406935E+03  0.13758754660E+04  0.95288507458E+03 0.  0.
   -9000010    2    1    2    0  501  0.41552572342E+03  0.88024396635E+03  0.18028758383E+03  0.14204308369E+04  0.10186408015E+04 0.  0.
        -13    1    3    3    0    0  0.16260786282E+03 -0.46480352103E+03  0.23412651699E+03  0.54525119655E+03  0.10566000000E+00 0.  1.
         13    1    4    4    0    0  0.51414149720E+03  0.10611626068E+04  0.24523590020E+03  0.12043870703E+04  0.10566000000E+00 0. -1.
          4    1    3    3  502    0 -0.57813358624E+03 -0.41544044532E+03 -0.42791058634E+03  0.83062426948E+03  0.00000000000E+00 0.  1.
         -4    1    4    4    0  501 -0.98615773777E+02 -0.18091864046E+03 -0.64948316376E+02  0.21604376664E+03  0.00000000000E+00 0. -1.
</event>
<event>
 8    1  0.7096247E-006  0.1251768E+04  0.7818608E-02  0.8568567E-01
         -1   -1    0    0    0  501 -0.00000000000E+00  0.00000000000E+00  0.93810247280E+03  0.93810247280E+03  0.00000000000E+00 0. -1.
          1   -1    0    0  502    0  0.00000000000E+00 -0.00000000000E+00 -0.19022136213E+04  0.19022136213E+04  0.00000000000E+00 0.  1.
    9000010    2    1    2  502    0 -0.28786743828E+03 -0.69100673507E+03  0.13802402391E+02  0.12518494676E+04  0.10032839146E+04 0.  0.
   -9000010    2    1    2    0  501  0.28786743828E+03  0.69100673507E+03 -0.97791355094E+03  0.15884666265E+04  0.10032713195E+04 0.  0.
        -13    1    3    3    0    0  0.31161258808E+02 -0.26945032993E+03 -0.46516834948E+03  0.53847572729E+03  0.10566000000E+00 0.  1.
         13    1    4    4    0    0  0.32726524074E+03  0.30412478308E+03 -0.10947588779E+04  0.11824091650E+04  0.10566000000E+00 0. -1.
          4    1    3    3  502    0 -0.31902869709E+03 -0.42155640514E+03  0.47897075187E+03  0.71337374036E+03  0.00000000000E+00 0.  1.
         -4    1    4    4    0  501 -0.39397802462E+02  0.38688195200E+03  0.11684532698E+03  0.40605746152E+03  0.00000000000E+00 0. -1.
</event>
<event>
 8    1  0.7096247E-006  0.1268624E+04  0.7818608E-02  0.8556604E-01
         -2   -1    0    0    0  501 -0.00000000000E+00  0.00000000000E+00  0.89672505051E+03  0.89672505051E+03  0.00000000000E+00 0.  1.
          2   -1    0    0  502    0  0.00000000000E+00 -0.00000000000E+00 -0.20133934374E+04  0.20133934374E+04  0.00000000000E+00 0. -1.
    9000010    2    1    2  502    0 -0.76973528306E+03 -0.10488990744E+01 -0.76037766378E+02  0.12635813768E+04  0.99918098850E+03 0.  0.
   -9000010    2    1    2    0  501  0.76973528306E+03  0.10488990744E+01 -0.10406306206E+04  0.16465371111E+04  0.10176830861E+04 0.  0.
        -13    1    3    3    0    0 -0.34347152561E+03  0.30030814907E+03  0.36176788611E+03  0.58226599410E+03  0.10566000000E+00 0.  1.
         13    1    4    4    0    0  0.68148112220E+03 -0.42411644900E+03 -0.47234817439E+03  0.93134531257E+03  0.10566000000E+00 0. -1.
          4    1    3    3  502    0 -0.42626375745E+03 -0.30135704814E+03 -0.43780565249E+03  0.68131538272E+03  0.00000000000E+00 0.  1.
         -4    1    4    4    0  501  0.88254160856E+02  0.42516534808E+03 -0.56828244617E+03  0.71519179856E+03  0.00000000000E+00 0. -1.
</event>
<event>
 8    1  0.7096247E-006  0.1158564E+04  0.7818608E-02  0.8638435E-01
         -2   -1    0    0    0  501 -0.00000000000E+00  0.00000000000E+00  0.37939327241E+03  0.37939327241E+03  0.00000000000E+00 0. -1.
          2   -1    0    0  502    0  0.00000000000E+00 -0.00000000000E+00 -0.37470760827E+04  0.37470760827E+04  0.00000000000E+00 0.  1.
    9000010    2    1    2  502    0  0.53914832472E+03 -0.21233694216E+03 -0.12071334905E+04  0.16784956498E+04  0.10121306681E+04 0.  0.
   -9000010    2    1    2    0  501 -0.53914832472E+03  0.21233694216E+03 -0.21605493198E+04  0.24479737054E+04  0.99440133032E+03 0.  0.
        -13    1    3    3    0    0  0.14622507244E+03 -0.43908335927E+03 -0.88234609814E+02  0.47112771701E+03  0.10566000000E+00 0.  1.
         13    1    4    4    0    0  0.10874684215E+03  0.70531487340E+02  0.50868321850E+02  0.13924138651E+03  0.10566000000E+00 0. -1.
          4    1    3    3  502    0  0.39292325227E+03  0.22674641711E+03 -0.11188988807E+04  0.12073679328E+04  0.00000000000E+00 0.  1.
         -4    1    4    4    0  501 -0.64789516687E+03  0.14180545482E+03 -0.22114176417E+04  0.23087323188E+04  0.00000000000E+00 0. -1.
</event>
<event>
 8    1  0.7096247E-006  0.1716285E+04  0.7818608E-02  0.8294852E-01
         -1   -1    0    0    0  501 -0.00000000000E+00  0.00000000000E+00  0.34942439123E+04  0.34942439123E+04  0.00000000000E+00 0.  1.
          1   -1    0    0  502    0  0.00000000000E+00 -0.00000000000E+00 -0.88700365508E+03  0.88700365508E+03  0.00000000000E+00 0. -1.
    9000010    2    1    2  502    0  0.77402916751E+03  0.11645205994E+04  0.17934662947E+04  0.24842068821E+04  0.99976652492E+03 0.  0.
   -9000010    2    1    2    0  501 -0.77402916751E+03 -0.11645205994E+04  0.81377396260E+03  0.18970406853E+04  0.99060886371E+03 0.  0.
        -13    1    3    3    0    0  0.48050156772E+02  0.94856972495E+03  0.85239445412E+03  0.12761934247E+04  0.10566000000E+00 0.  1.
         13    1    4    4    0    0 -0.81756944362E+03 -0.12210775835E+04  0.94537057948E+03  0.17473339131E+04  0.10566000000E+00 0. -1.
          4    1    3    3  502    0  0.72597901074E+03  0.21595087448E+03  0.94107184054E+03  0.12080134574E+04  0.00000000000E+00 0.  1.
         -4    1    4    4    0  501  0.43540276112E+02  0.56556984038E+02 -0.13159661688E+03  0.14970677226E+03  0.00000000000E+00 0. -1.
</event>
<event>
 8    1  0.7096247E-006  0.1385820E+04  0.7818608E-02  0.8478401E-01
         -1   -1    0    0    0  501 -0.00000000000E+00  0.00000000000E+00  0.13864601793E+04  0.13864601793E+04  0.00000000000E+00 0.  1.
          1   -1    0    0  502    0  0.00000000000E+00 -0.00000000000E+00 -0.14981843501E+04  0.14981843501E+04  0.00000000000E+00 0. -1.
    9000010    2    1    2  502    0 -0.70316444888E+03  0.65025554670E+03  0.34030066415E+03  0.14258639744E+04  0.10000055067E+04 0.  0.
   -9000010    2    1    2    0  501  0.70316444888E+03 -0.65025554670E+03 -0.45202483494E+03  0.14587805550E+04  0.10032156986E+04 0.  0.
        -13    1    3    3    0    0 -0.53813672122E+03  0.24595427608E+03  0.65870472545E+03  0.88542451013E+03  0.10566000000E+00 0.  1.
         13    1    4    4    0    0  0.95750570889E+03 -0.47192068451E+03 -0.41753772319E+03  0.11462391009E+04  0.10566000000E+00 0. -1.
          4    1    3    3  502    0 -0.16502772766E+03  0.40430127062E+03 -0.31840406130E+03  0.54043946430E+03  0.00000000000E+00 0.  1.
         -4    1    4    4    0  501 -0.25434126001E+03 -0.17833486219E+03 -0.34487111752E+02  0.31254145404E+03  0.00000000000E+00 0. -1.
</event>
<event>
 8    1  0.7096247E-006  0.1159319E+04  0.7818608E-02  0.8637842E-01
          2   -1    0    0  502    0  0.00000000000E+00  0.00000000000E+00  0.13385688672E+04  0.13385688672E+04  0.00000000000E+00 0.  1.
         -2   -1    0    0    0  501 -0.00000000000E+00 -0.00000000000E+00 -0.11541361886E+04  0.11541361886E+04  0.00000000000E+00 0. -1.
    9000010    2    1    2  502    0  0.50386668159E+03 -0.28420583788E+03 -0.35729186576E+03  0.12118411171E+04  0.10031185497E+04 0.  0.
   -9000010    2    1    2    0  501 -0.50386668159E+03  0.28420583788E+03  0.54172454433E+03  0.12808639386E+04  0.10062267917E+04 0.  0.
        -13    1    3    3    0    0 -0.30739050244E+03 -0.39060802414E+02 -0.11335816654E+03  0.32994659017E+03  0.10566000000E+00 0.  1.
         13    1    4    4    0    0 -0.28521874602E+03  0.65552864522E+03  0.43533861753E+03  0.83701090845E+03  0.10566000000E+00 0. -1.
          4    1    3    3  502    0  0.81125718404E+03 -0.24514503547E+03 -0.24393369922E+03  0.88189452696E+03  0.00000000000E+00 0.  1.
         -4    1    4    4    0  501 -0.21864793557E+03 -0.37132280734E+03  0.10638592680E+03  0.44385303019E+03  0.00000000000E+00 0. -1.
</event>
<event>
 8    1  0.7096247E-006  0.1054154E+04  0.7818608E-02  0.8725308E-01
          1   -1    0    0  502    0  0.00000000000E+00  0.00000000000E+00  0.74616841863E+03  0.74616841863E+03  0.00000000000E+00 0. -1.
         -1   -1    0    0    0  501 -0.00000000000E+00 -0.00000000000E+00 -0.16887565665E+04  0.16887565665E+04  0.00000000000E+00 0.  1.
    9000010    2    1    2  502    0 -0.16668340966E+03 -0.29974717430E+03 -0.88783097513E+03  0.13746013902E+04  0.99179302982E+03 0.  0.
   -9000010    2    1    2    0  501  0.16668340966E+03  0.29974717430E+03 -0.54757172735E+02  0.10603235949E+04  0.10018263574E+04 0.  0.
        -13    1    3    3    0    0 -0.16876992238E+03  0.30843206467E+03 -0.61417074888E+03  0.70768590855E+03  0.10566000000E+00 0.  1.
         13    1    4    4    0    0  0.36921102450E+03  0.31116877992E+03 -0.42168189223E+03  0.64106038687E+03  0.10566000000E+00 0. -1.
          4    1    3    3  502    0  0.20865127151E+01 -0.60817923896E+03 -0.27366022625E+03  0.66691548166E+03  0.00000000000E+00 0.  1.
         -4    1    4    4    0  501 -0.20252761484E+03 -0.11421605627E+02  0.36692471950E+03  0.41926320805E+03  0.00000000000E+00 0. -1.
</event>
<event>
 8    1  0.7096247E-006  0.1162933E+04  0.7818608E-02  0.8635010E-01
          2   -1    0    0  502    0  0.00000000000E+00  0.00000000000E+00  0.26512981143E+04  0.26512981143E+04  0.00000000000E+00 0. -1.
         -2   -1    0    0    0  501 -0.00000000000E+00 -0.00000000000E+00 -0.57534166239E+03  0.57534166239E+03  0.00000000000E+00 0.  1.
    9000010    2    1    2  502    0  0.81918651843E+02 -0.59503695990E+03  0.15828602497E+04  0.19653356720E+04  0.99815734443E+03 0.  0.
   -9000010    2    1    2    0  501 -0.81918651843E+02  0.59503695990E+03  0.49309620216E+03  0.12613041047E+04  0.99346088537E+03 0.  0.
        -13    1    3    3    0    0  0.31980394494E+03  0.16839525672E+03  0.56895921851E+03  0.67405202260E+03  0.10566000000E+00 0.  1.
         13    1    4    4    0    0 -0.37484056519E+03 -0.11209263571E+03  0.11614615865E+03  0.40811781342E+03  0.10566000000E+00 0. -1.
          4    1    3    3  502    0 -0.23788529310E+03 -0.76343221662E+03  0.10139010312E+04  0.12912836494E+04  0.00000000000E+00 0.  1.
         -4    1    4    4    0  501  0.29292191335E+03  0.70712959562E+03  0.37695004351E+03  0.85318629127E+03  0.00000000000E+00 0. -1.
</event>
<event>
 8    1  0.7096247E-006  0.1312459E+04  0.7818608E-02  0.8526371E-01
         -2   -1    0    0    0  501 -0.00000000000E+00  0.00000000000E+00  0.15663849460E+04  0.15663849460E+04  0.00000000000E+00 0.  1.
          2   -1    0    0  502    0  0.00000000000E+00 -0.00000000000E+00 -0.11284156059E+04  0.11284156059E+04  0.00000000000E+00 0. -1.
    9000010    2    1    2  502    0 -0.65168666981E+03 -0.59106165704E+03  0.46951873494E+01  0.13163209217E+04  0.97909617810E+03 0.  0.
   -9000010    2    1    2    0  501  0.65168666981E+03  0.59106165704E+03  0.43327415276E+03  0.13784796302E+04  0.96872607135E+03 0.  0.
        -13    1    3    3    0    0 -0.58500967668E+03  0.27594991241E+02  0.26374974474E+03  0.64230969506E+03  0.10566000000E+00 0.  1.
         13    1    4    4    0    0  0.21207633131E+03 -0.26738499904E+03  0.73536631234E+02  0.34911137952E+03  0.10566000000E+00 0. -1.
          4    1    3    3  502    0 -0.66676993136E+02 -0.61865664828E+03 -0.25905455740E+03  0.67401122660E+03  0.00000000000E+00 0.  1.
         -4    1    4    4    0  501  0.43961033851E+03  0.85844665608E+03  0.35973752153E+03  0.10293682507E+04  0.00000000000E+00 0. -1.
</event>
<event>
 8    1  0.7096247E-006  0.1085995E+04  0.7818608E-02  0.8697741E-01
          2   -1    0    0  502    0  0.00000000000E+00  0.00000000000E+00  0.12566565791E+04  0.12566565791E+04  0.00000000000E+00 0. -1.
         -2   -1    0    0    0  501 -0.00000000000E+00 -0.00000000000E+00 -0.93972623264E+03  0.93972623264E+03  0.00000000000E+00 0.  1.
    9000010    2    1    2  502    0 -0.25932440377E+03 -0.36863299852E+03  0.19142743892E+03  0.10859419139E+04  0.96927083005E+03 0.  0.
   -9000010    2    1    2    0  501  0.25932440377E+03  0.36863299852E+03  0.12550290753E+03  0.11104408978E+04  0.10070692994E+04 0.  0.
        -13    1    3    3    0    0  0.16467148142E+03  0.26059507900E+03  0.84976088319E+02  0.31976153418E+03  0.10566000000E+00 0.  1.
         13    1    4    4    0    0  0.31368366952E+03  0.10150533833E+03 -0.40004587783E+03  0.51839897161E+03  0.10566000000E+00 0. -1.
          4    1    3    3  502    0 -0.42399588518E+03 -0.62922807752E+03  0.10645135060E+03  0.76618037970E+03  0.00000000000E+00 0.  1.
         -4    1    4    4    0  501 -0.54359265758E+02  0.26712766019E+03  0.52554878536E+03  0.59204192622E+03  0.00000000000E+00 0. -1.
</event>
<event>
 7    1  0.7096247E-006  0.1362024E+04  0.7818608E-02  0.8493619E-01
         -4   -1    0    0    0  501 -0.00000000000E+00  0.00000000000E+00  0.18904612681E+04  0.18904612681E+04  0.00000000000E+00 0. -1.
          4   -1    0    0  502    0  0.00000000000E+00 -0.00000000000E+00 -0.10024955321E+04  0.10024955321E+04  0.00000000000E+00 0.  1.
    9000010    2    1    2  502    0  0.62230062180E+03  0.32759141201E+03  0.25394982412E+03  0.12500150554E+04  0.10017349592E+04 0.  0.
        -13    1    3    3    0    0  0.45753865733E+03  0.63827984586E+02 -0.34403155890E+03  0.57599770767E+03  0.10566000000E+00 0.  1.
         13    1    1    2    0    0  0.24296662901E+03  0.18357539804E+03 -0.17639209475E+03  0.35191887110E+03  0.10566000000E+00 0. -1.
          4    1    3    3  502    0  0.16476196448E+03  0.26376342742E+03  0.59798138302E+03  0.67401734772E+03  0.00000000000E+00 0.  1.
         -4    1    1    2    0  501 -0.86526725081E+03 -0.51116681005E+03  0.81040800662E+03  0.12910228736E+04  0.00000000000E+00 0. -1.
</event>
<event>
 8    1  0.7096247E-006  0.1129386E+04  0.7818608E-02  0.8661722E-01
          1   -1    0    0  502    0  0.00000000000E+00  0.00000000000E+00  0.15258892714E+04  0.15258892714E+04  0.00000000000E+00 0. -1.
         -1   -1    0    0    0  501 -0.00000000000E+00 -0.00000000000E+00 -0.84042213876E+03  0.84042213876E+03  0.00000000000E+00 0.  1.
    9000010    2    1    2  502    0  0.49429241514E+03  0.83869864825E+02  0.42509562053E+03  0.11961010796E+04  0.99929593216E+03 0.  0.
   -9000010    2    1    2    0  501 -0.49429241514E+03 -0.83869864825E+02  0.26037151212E+03  0.11702103306E+04  0.10248120548E+04 0.  0.
        -13    1    3    3    0    0  0.20095323278E+03  0.34707444301E+03  0.63388295933E+03  0.75010031866E+03  0.10566000000E+00 0.  1.
         13    1    4    4    0    0 -0.30299256135E+03 -0.30305628675E+03  0.59086488255E+03  0.72991021761E+03  0.10566000000E+00 0. -1.
          4    1    3    3  502    0  0.29333918235E+03 -0.26320457819E+03 -0.20878733879E+03  0.44600076090E+03  0.00000000000E+00 0.  1.
         -4    1    4    4    0  501 -0.19129985378E+03  0.21918642193E+03 -0.33049337043E+03  0.44030011301E+03  0.00000000000E+00 0. -1.
</event>
<event>
 8    1  0.7096247E-006  0.1112847E+04  0.7818608E-02  0.8675249E-01
         -2   -1    0    0    0  501 -0.00000000000E+00  0.00000000000E+00  0.75871491927E+03  0.75871491927E+03  0.00000000000E+00 0.  1.
          2   -1    0    0  502    0  0.00000000000E+00 -0.00000000000E+00 -0.18665056813E+04  0.18665056813E+04  0.00000000000E+00 0. -1.
    9000010    2    1    2  502    0  0.27167750898E+03 -0.38343278362E+03 -0.83451002331E+02  0.11029808884E+04  0.99437085736E+03 0.  0.
   -9000010    2    1    2    0  501 -0.27167750898E+03  0.38343278362E+03 -0.10243397597E+04  0.15222397122E+04  0.10232851164E+04 0.  0.
        -13    1    3    3    0    0  0.26614975943E+03  0.29214813263E+03  0.90307221839E+02  0.40539071440E+03  0.10566000000E+00 0.  1.
         13    1    4    4    0    0 -0.56705970699E+03 -0.83280011202E+02 -0.54549859722E+03  0.79124016726E+03  0.10566000000E+00 0. -1.
          4    1    3    3  502    0  0.55277495491E+01 -0.67558091624E+03 -0.17375822417E+03  0.69759017401E+03  0.00000000000E+00 0.  1.
         -4    1    4    4    0  501  0.29538219801E+03  0.46671279482E+03 -0.47884116248E+03  0.73099954489E+03  0.00000000000E+00 0. -1.
</event>
<event>
 8    1  0.7096247E-006  0.1507966E+04  0.7818608E-02  0.8404929E-01
         -2   -1    0    0    0  501 -0.00000000000E+00  0.00000000000E+00  0.61477805178E+03  0.61477805178E+03  0.00000000000E+00 0.  1.
          2   -1    0    0  502    0  0.00000000000E+00 -0.00000000000E+00 -0.37439639629E+04  0.37439639629E+04  0.00000000000E+00 0. -1.
    9000010    2    1    2  502    0  0.10321618664E+04 -0.25904884138E+03 -0.13823908771E+04  0.20806423719E+04  0.11338446640E+04 0.  0.
   -9000010    2    1    2    0  501 -0.10321618664E+04  0.25904884138E+03 -0.17467950339E+04  0.22780996427E+04  0.10029858777E+04 0.  0.
        -13    1    3    3    0    0 -0.13897099841E+03 -0.34120406709E+03 -0.22304026241E+03  0.43067403406E+03  0.10566000000E+00 0.  1.
         13    1    4    4    0    0 -0.55384431851E+03  0.19154804135E+03 -0.14312649042E+03  0.60325731220E+03  0.10566000000E+00 0. -1.
          4    1    3    3  502    0  0.11711328648E+04  0.82155225716E+02 -0.11593506147E+04  0.16499683379E+04  0.00000000000E+00 0.  1.
         -4    1    4    4    0  501 -0.47831754786E+03  0.67500800025E+02 -0.16036685435E+04  0.16748423305E+04  0.00000000000E+00 0. -1.
</event>
<event>
 8    1  0.7096247E-006  0.1507572E+04  0.7818608E-02  0.8405155E-01
         -1   -1    0    0    0  501 -0.00000000000E+00  0.00000000000E+00  0.12593481088E+04  0.12593481088E+04  0.00000000000E+00 0. -1.
          1   -1    0    0  502    0  0.00000000000E+00 -0.00000000000E+00 -0.18410912936E+04  0.18410912936E+04  0.00000000000E+00 0.  1.
    9000010    2    1    2  502    0 -0.91684548601E+03 -0.65444765568E+03 -0.72435811346E+02  0.15062910209E+04  0.99737571345E+03 0.  0.
   -9000010    2    1    2    0  501  0.91684548601E+03  0.65444765568E+03 -0.50930737349E+03  0.15941483815E+04  0.10064828276E+04 0.  0.
        -13    1    3    3    0    0 -0.83072376438E+03 -0.70411744262E+02 -0.28160674564E+03  0.87997849791E+03  0.10566000000E+00 0.  1.
         13    1    4    4    0    0  0.69614677149E+03 -0.10036179661E+03 -0.10908804145E+03  0.71175348937E+03  0.10566000000E+00 0. -1.
          4    1    3    3  502    0 -0.86121721636E+02 -0.58403591141E+03  0.20917093430E+03  0.62631252304E+03  0.00000000000E+00 0.  1.
         -4    1    4    4    0  501  0.22069871453E+03  0.75480945229E+03 -0.40021933204E+03  0.88239489210E+03  0.00000000000E+00 0. -1.
</event>
<event>
 8    1  0.7096247E-006  0.1267898E+04  0.7818608E-02  0.8557115E-01
         -1   -1    0    0    0  501 -0.00000000000E+00  0.00000000000E+00  0.10235315496E+04  0.10235315496E+04  0.00000000000E+00 0.  1.
          1   -1    0    0  502    0  0.00000000000E+00 -0.00000000000E+00 -0.17271449463E+04  0.17271449463E+04  0.00000000000E+00 0. -1.
    9000010    2    1    2  502    0 -0.23773222240E+03  0.74668896546E+03 -0.76579613156E+03  0.14810057861E+04  0.99643033009E+03 0.  0.
   -9000010    2    1    2    0  501  0.23773222240E+03 -0.74668896546E+03  0.62182734804E+02  0.12696707098E+04  0.99706368805E+03 0.  0.
        -13    1    3    3    0    0 -0.43779690604E+03  0.84984313668E+03 -0.80834509750E+03  0.12519270329E+04  0.10566000000E+00 0.  1.
         13    1    4    4    0    0  0.50508927279E+03 -0.83483586766E+03 -0.21524132710E+02  0.97597612618E+03  0.10566000000E+00 0. -1.
          4    1    3    3  502    0  0.20006468364E+03 -0.10315417121E+03  0.42548965938E+02  0.22907875323E+03  0.00000000000E+00 0.  1.
         -4    1    4    4    0  501 -0.26735705039E+03  0.88146902200E+02  0.83706867514E+02  0.29369458359E+03  0.00000000000E+00 0. -1.
</event>
<event>
 8    1  0.7096247E-006  0.1303762E+04  0.7818608E-02  0.8532272E-01
          1   -1    0    0  502    0  0.00000000000E+00  0.00000000000E+00  0.60472297972E+03  0.60472297972E+03  0.00000000000E+00 0. -1.
         -1   -1    0    0    0  501 -0.00000000000E+00 -0.00000000000E+00 -0.34653182039E+04  0.34653182039E+04  0.00000000000E+00 0.  1.
    9000010    2    1    2  502    0 -0.18901950804E+03 -0.82296864378E+03 -0.23217105519E+04  0.26666706577E+04  0.10038858237E+04 0.  0.
   -9000010    2    1    2    0  501  0.18901950804E+03  0.82296864378E+03 -0.53888467227E+03  0.14033705259E+04  0.98287658424E+03 0.  0.
        -13    1    3    3    0    0 -0.11210255388E+03 -0.97538511415E+03 -0.12910177380E+04  0.16219340043E+04  0.10566000000E+00 0.  1.
         13    1    4    4    0    0 -0.17402023824E+03  0.32332885628E+03  0.21757858047E+03  0.42680796907E+03  0.10566000000E+00 0. -1.
          4    1    3    3  502    0 -0.76916954152E+02  0.15241647037E+03 -0.10306928139E+04  0.10447366534E+04  0.00000000000E+00 0.  1.
         -4    1    4    4    0  501  0.36303974627E+03  0.49963978750E+03 -0.75646325274E+03  0.97656255681E+03  0.00000000000E+00 0. -1.
</event>
<event>
 8    1  0.7096247E-006  0.1402238E+04  0.7818608E-02  0.8468082E-01
         -1   -1    0    0    0  501 -0.00000000000E+00  0.00000000000E+00  0.69848282423E+03  0.69848282423E+03  0.00000000000E+00 0.  1.
          1   -1    0    0  502    0  0.00000000000E+00 -0.00000000000E+00 -0.35541230726E+04  0.35541230726E+04  0.00000000000E+00 0. -1.
    9000010    2    1    2  502    0 -0.38691736785E+03  0.91348613335E+03 -0.23690024680E+04  0.27361122934E+04  0.94338529950E+03 0.  0.
   -9000010    2    1    2    0  501  0.38691736785E+03 -0.91348613335E+03 -0.48663778039E+03  0.15164936035E+04  0.10386407245E+04 0.  0.
        -13    1    3    3    0    0 -0.64894626267E+03  0.81573217552E+03 -0.21167501286E+04  0.23594875190E+04  0.10566000000E+00 0.  1.
         13    1    4    4    0    0 -0.99014656140E+02 -0.30313256877E+02  0.24827729271E+03  0.26900635849E+03  0.10566000000E+00 0. -1.
          4    1    3    3  502    0  0.26202889482E+03  0.97753957830E+02 -0.25225233942E+03  0.37662477446E+03  0.00000000000E+00 0.  1.
         -4    1    4    4    0  501  0.48593202399E+03 -0.88317287647E+03 -0.73491507310E+03  0.12474872450E+04  0.00000000000E+00 0. -1.
</event>
<event>
 8    1  0.7096247E-006  0.1104775E+04  0.7818608E-02  0.8681941E-01
         -2   -1    0    0    0  501 -0.00000000000E+00  0.00000000000E+00  0.11334923178E+04  0.11334923178E+04  0.00000000000E+00 0. -1.
          2   -1    0    0  502    0  0.00000000000E+00 -0.00000000000E+00 -0.10806316896E+04  0.10806316896E+04  0.00000000000E+00 0.  1.
    9000010    2    1    2  502    0 -0.43501447335E+02 -0.69152885038E+03 -0.10568745002E+02  0.11599108052E+04  0.93014883262E+03 0.  0.
   -9000010    2    1    2    0  501  0.43501447335E+02  0.69152885038E+03  0.63429373186E+02  0.10542132021E+04  0.79198337315E+03 0.  0.
        -13    1    3    3    0    0  0.14671680717E+03 -0.14933679790E+03 -0.40984199365E+03  0.46021491897E+03  0.10566000000E+00 0.  1.
         13    1    4    4    0    0  0.20040686066E+03 -0.10951208188E+03 -0.38539265256E+02  0.23160546627E+03  0.10566000000E+00 0. -1.
          4    1    3    3  502    0 -0.19021825451E+03 -0.54219205248E+03  0.39927324865E+03  0.69969588623E+03  0.00000000000E+00 0.  1.
         -4    1    4    4    0  501 -0.15690541332E+03  0.80104093226E+03  0.10196863844E+03  0.82260773587E+03  0.00000000000E+00 0. -1.
</event>
<event>
 8    1  0.7096247E-006  0.1280991E+04  0.7818608E-02  0.8547948E-01
         -2   -1    0    0    0  501 -0.00000000000E+00  0.00000000000E+00  0.10645109949E+04  0.10645109949E+04  0.00000000000E+00 0. -1.
          2   -1    0    0  502    0  0.00000000000E+00 -0.00000000000E+00 -0.17423585213E+04  0.17423585213E+04  0.00000000000E+00 0.  1.
    9000010    2    1    2  502    0 -0.78720900063E+03  0.31938284839E+02 -0.81295949635E+03  0.15087447634E+04  0.99734124234E+03 0.  0.
   -9000010    2    1    2    0  501  0.78720900063E+03 -0.31938284839E+02  0.13511196994E+03  0.12981247528E+04  0.10228169752E+04 0.  0.
        -13    1    3    3    0    0 -0.10044603201E+03  0.41814962072E+03 -0.89893296715E+02  0.43933964835E+03  0.10566000000E+00 0.  1.
         13    1    4    4    0    0  0.21935687392E+03  0.14805045526E+03 -0.41175942717E+03  0.48947136021E+03  0.10566000000E+00 0. -1.
          4    1    3    3  502    0 -0.68676296862E+03 -0.38621133588E+03 -0.72306619964E+03  0.10694051150E+04  0.00000000000E+00 0.  1.
         -4    1    4    4    0  501  0.56785212670E+03 -0.17998874010E+03  0.54687139711E+03  0.80865339258E+03  0.00000000000E+00 0. -1.
</event>
<event>
 8    1  0.7096247E-006  0.1241316E+04  0.7818608E-02  0.8576083E-01
          2   -1    0    0  502    0  0.00000000000E+00  0.00000000000E+00  0.99050310354E+03  0.99050310354E+03  0.00000000000E+00 0.  1.
         -2   -1    0    0    0  501 -0.00000000000E+00 -0.00000000000E+00 -0.15704782393E+04  0.15704782393E+04  0.00000000000E+00 0. -1.
    9000010    2    1    2  502    0 -0.22203476130E+03  0.68526699051E+03 -0.16949650141E+03  0.12664825971E+04  0.10277931802E+04 0.  0.
   -9000010    2    1    2    0  501  0.22203476130E+03 -0.68526699051E+03 -0.41047863435E+03  0.12944987457E+04  0.99415492250E+03 0.  0.
        -13    1    3    3    0    0  0.14286715129E+03  0.41314725973E+03 -0.52913725279E+03  0.68635845198E+03  0.10566000000E+00 0.  1.
         13    1    4    4    0    0 -0.10392189647E+03 -0.24074638416E+02 -0.53617779512E+03  0.54668637072E+03  0.10566000000E+00 0. -1.
          4    1    3    3  502    0 -0.36490191260E+03  0.27211973078E+03  0.35964075139E+03  0.58012414512E+03  0.00000000000E+00 0.  1.
         -4    1    4    4    0  501  0.32595665777E+03 -0.66119235210E+03  0.12569916077E+03  0.74781237502E+03  0.00000000000E+00 0. -1.
</event>
<event>
 8    1  0.7096247E-006  0.1433920E+04  0.7818608E-02  0.8448574E-01
          4   -1    0    0  502    0  0.00000000000E+00  0.00000000000E+00  0.11026466108E+04  0.11026466108E+04  0.00000000000E+00 0.  1.
         -4   -1    0    0    0  501 -0.00000000000E+00 -0.00000000000E+00 -0.20907121133E+04  0.20907121133E+04  0.00000000000E+00 0. -1.
    9000010    2    1    2  502    0 -0.10095571875E+04 -0.26316844976E+03  0.29384672002E+02  0.14391216890E+04  0.99083017154E+03 0.  0.
   -9000010    2    1    2    0  501  0.10095571875E+04  0.26316844976E+03 -0.10174501745E+04  0.17542370351E+04  0.97656508732E+03 0.  0.
        -13    1    3    3    0    0 -0.86834349670E+03  0.17511005122E+03  0.26128752462E+03  0.92355570486E+03  0.10566000000E+00 0.  1.
         13    1    4    4    0    0  0.60518673361E+03 -0.32716522391E+03 -0.33406133313E+03  0.76477777931E+03  0.10566000000E+00 0. -1.
          4    1    3    3  502    0 -0.14121369084E+03 -0.43827850098E+03 -0.23190285262E+03  0.51556598410E+03  0.00000000000E+00 0.  1.
         -4    1    4    4    0  501  0.40437045393E+03  0.59033367368E+03 -0.68338884141E+03  0.98945925578E+03  0.00000000000E+00 0. -1.
</event>
<event>
 8    1  0.7096247E-006  0.1088457E+04  0.7818608E-02  0.8695651E-01
          1   -1    0    0  502    0  0.00000000000E+00  0.00000000000E+00  0.12241075396E+04  0.12241075396E+04  0.00000000000E+00 0.  1.
         -1   -1    0    0    0  501 -0.00000000000E+00 -0.00000000000E+00 -0.11081475722E+04  0.11081475722E+04  0.00000000000E+00 0. -1.
    9000010    2    1    2  502    0  0.71311626632E+02  0.44620373221E+03 -0.35692391716E+03  0.11463105187E+04  0.99118616011E+03 0.  0.
   -9000010    2    1    2    0  501 -0.71311626632E+02 -0.44620373221E+03  0.47288388457E+03  0.11859445931E+04  0.98927361776E+03 0.  0.
        -13    1    3    3    0    0  0.30499794908E+03  0.18956025852E+02 -0.54455130409E+03  0.62443511577E+03  0.10566000000E+00 0.  1.
         13    1    4    4    0    0  0.44588733659E+02 -0.68497786687E+03  0.52043086064E+02  0.68839765197E+03  0.10566000000E+00 0. -1.
          4    1    3    3  502    0 -0.23368632245E+03  0.42724770636E+03  0.18762738693E+03  0.52187540296E+03  0.00000000000E+00 0.  1.
         -4    1    4    4    0  501 -0.11590036029E+03  0.23877413466E+03  0.42084079851E+03  0.49754694109E+03  0.00000000000E+00 0. -1.
</event>
<event>
 8    1  0.7096247E-006  0.1045410E+04  0.7818608E-02  0.8733057E-01
         -2   -1    0    0    0  501 -0.00000000000E+00  0.00000000000E+00  0.11252582508E+04  0.11252582508E+04  0.00000000000E+00 0.  1.
          2   -1    0    0  502    0  0.00000000000E+00 -0.00000000000E+00 -0.13148415208E+04  0.13148415208E+04  0.00000000000E+00 0. -1.
    9000010    2    1    2  502    0  0.32686493022E+03  0.87597185004E+02  0.52793245680E+03  0.11822011490E+04  0.10021840791E+04 0.  0.
   -9000010    2    1    2    0  501 -0.32686493022E+03 -0.87597185004E+02 -0.71751572677E+03  0.12578986226E+04  0.97619986535E+03 0.  0.
        -13    1    3    3    0    0  0.51314728915E+03  0.51560941927E+02  0.73722244169E+03  0.89970862549E+03  0.10566000000E+00 0.  1.
         13    1    4    4    0    0 -0.14174845814E+03 -0.53198310476E+03 -0.35194855092E+03  0.65342669274E+03  0.10566000000E+00 0. -1.
          4    1    3    3  502    0 -0.18628235893E+03  0.36036243077E+02 -0.20928998489E+03  0.28249252351E+03  0.00000000000E+00 0.  1.
         -4    1    4    4    0  501 -0.18511647208E+03  0.44438591975E+03 -0.36556717585E+03  0.60447192984E+03  0.00000000000E+00 0. -1.
</event>
<event>
 8    1  0.7096247E-006  0.1060167E+04  0.7818608E-02  0.8720025E-01
          2   -1    0    0  502    0  0.00000000000E+00  0.00000000000E+00  0.15512638055E+04  0.15512638055E+04  0.00000000000E+00 0. -1.
         -2   -1    0    0    0  501 -0.00000000000E+00 -0.00000000000E+00 -0.73206544863E+03  0.73206544863E+03  0.00000000000E+00 0.  1.
    9000010    2    1    2  502    0  0.26314175316E+03  0.21631624468E+03  0.52187879760E+03  0.11743509275E+04  0.99534231372E+03 0.  0.
   -9000010    2    1    2    0  501 -0.26314175316E+03 -0.21631624468E+03  0.29731955923E+03  0.11089783266E+04  0.10126192318E+04 0.  0.
        -13    1    3    3    0    0 -0.30672322825E+03  0.77706090939E+02  0.49470751176E+03  0.58724178042E+03  0.10566000000E+00 0.  1.
         13    1    4    4    0    0 -0.45939522210E+03 -0.37505773701E+03 -0.13512850663E+03  0.60825323727E+03  0.10566000000E+00 0. -1.
          4    1    3    3  502    0  0.56986498141E+03  0.13861015374E+03  0.27171285839E+02  0.58710914703E+03  0.00000000000E+00 0.  1.
         -4    1    4    4    0  501  0.19625346894E+03  0.15874149233E+03  0.43244806586E+03  0.50072508937E+03  0.00000000000E+00 0. -1.
</event>
<event>
 8    1  0.7096247E-006  0.1450816E+04  0.7818608E-02  0.8438380E-01
         -2   -1    0    0    0  501 -0.00000000000E+00  0.00000000000E+00  0.78178482919E+03  0.78178482919E+03  0.00000000000E+00 0. -1.
          2   -1    0    0  502    0  0.00000000000E+00 -0.00000000000E+00 -0.27598039575E+04  0.27598039575E+04  0.00000000000E+00 0.  1.
    9000010    2    1    2  502    0 -0.93433475666E+03  0.43524211064E+03 -0.71215972586E+03  0.16160651116E+04  0.10208221379E+04 0.  0.
   -9000010    2    1    2    0  501  0.93433475666E+03 -0.43524211064E+03 -0.12658594025E+04  0.19255236752E+04  0.10211876734E+04 0.  0.
        -13    1    3    3    0    0  0.16293516736E+03 -0.13724681488E+03 -0.10713805643E+03  0.23845991541E+03  0.10566000000E+00 0.  1.
         13    1    4    4    0    0  0.74474976223E+03  0.14267942978E+03 -0.37269678592E+03  0.84493344911E+03  0.10566000000E+00 0. -1.
          4    1    3    3  502    0 -0.10972699240E+04  0.57248892552E+03 -0.60502166943E+03  0.13776051962E+04  0.00000000000E+00 0.  1.
         -4    1    4    4    0  501  0.18958499442E+03 -0.57792154042E+03 -0.89316261657E+03  0.10805902260E+04  0.00000000000E+00 0. -1.
</event>
<event>
 8    1  0.7096247E-006  0.1335157E+04  0.7818608E-02  0.8511191E-01
          1   -1    0    0  502    0  0.00000000000E+00  0.00000000000E+00  0.24421088225E+04  0.24421088225E+04  0.00000000000E+00 0. -1.
         -1   -1    0    0    0  501 -0.00000000000E+00 -0.00000000000E+00 -0.73483121102E+03  0.73483121102E+03  0.00000000000E+00 0.  1.
    9000010    2    1    2  502    0  0.18411303025E+03  0.85151654176E+03  0.72328850820E+03  0.15170402863E+04  0.10095974124E+04 0.  0.
   -9000010    2    1    2    0  501 -0.18411303025E+03 -0.85151654176E+03  0.98398910330E+03  0.16598997473E+04  0.10139302673E+04 0.  0.
        -13    1    3    3    0    0  0.56232796229E+03  0.71012448321E+03  0.36282850991E+03  0.97577356881E+03  0.10566000000E+00 0.  1.
         13    1    4    4    0    0  0.29769116368E+03 -0.11630065212E+03  0.64113832176E+03  0.71638273946E+03  0.10566000000E+00 0. -1.
          4    1    3    3  502    0 -0.37821493204E+03  0.14139205854E+03  0.36045999829E+03  0.54126671744E+03  0.00000000000E+00 0.  1.
         -4    1    4    4    0  501 -0.48180419393E+03 -0.73521588964E+03  0.34285078154E+03  0.94351700783E+03  0.00000000000E+00 0. -1.
</event>
<event>
 8    1  0.7096247E-006  0.1346241E+04  0.7818608E-02  0.8503891E-01
          1   -1    0    0  502    0  0.00000000000E+00  0.00000000000E+00  0.23675130322E+04  0.23675130322E+04  0.00000000000E+00 0. -1.
         -1   -1    0    0    0  501 -0.00000000000E+00 -0.00000000000E+00 -0.76865933558E+03  0.76865933558E+03  0.00000000000E+00 0.  1.
    9000010    2    1    2  502    0  0.19696907037E+03  0.87746797977E+03  0.70177107998E+03  0.15219628307E+04  0.10075422270E+04 0.  0.
   -9000010    2    1    2    0  501 -0.19696907037E+03 -0.87746797977E+03  0.89708261670E+03  0.16142095371E+04  0.99607647215E+03 0.  0.
        -13    1    3    3    0    0  0.37453577536E+03 -0.74319579757E+02  0.18057557082E+03  0.42238370577E+03  0.10566000000E+00 0.  1.
         13    1    4    4    0    0  0.12174807108E+03 -0.42856075623E+03 -0.11672987433E+03  0.46055704241E+03  0.10566000000E+00 0. -1.
          4    1    3    3  502    0 -0.17756670499E+03  0.95178755953E+03  0.52119550916E+03  0.10995791249E+04  0.00000000000E+00 0.  1.
         -4    1    4    4    0  501 -0.31871714145E+03 -0.44890722355E+03  0.10138124910E+04  0.11536524947E+04  0.00000000000E+00 0. -1.
</event>
<event>
 8    1  0.7096247E-006  0.1152845E+04  0.7818608E-02  0.8642943E-01
         -2   -1    0    0    0  501 -0.00000000000E+00  0.00000000000E+00  0.67600647096E+03  0.67600647096E+03  0.00000000000E+00 0. -1.
          2   -1    0    0  502    0  0.00000000000E+00 -0.00000000000E+00 -0.19848480477E+04  0.19848480477E+04  0.00000000000E+00 0.  1.
    9000010    2    1    2  502    0 -0.15988692855E+03  0.55661395097E+03 -0.52474199789E+03  0.12664117873E+04  0.99652482677E+03 0.  0.
   -9000010    2    1    2    0  501  0.15988692855E+03 -0.55661395097E+03 -0.78409957889E+03  0.13944427314E+04  0.99713362251E+03 0.  0.
        -13    1    3    3    0    0  0.80469814084E+02 -0.17841086547E+03 -0.44849041126E+03  0.48933576209E+03  0.10566000000E+00 0.  1.
         13    1    4    4    0    0  0.69147328604E+01 -0.83244139614E+03 -0.62634664346E+03  0.10417853044E+04  0.10566000000E+00 0. -1.
          4    1    3    3  502    0 -0.24035674263E+03  0.73502481645E+03 -0.76251586629E+02  0.77707602523E+03  0.00000000000E+00 0.  1.
         -4    1    4    4    0  501  0.15297219569E+03  0.27582744517E+03 -0.15775293543E+03  0.35265742697E+03  0.00000000000E+00 0. -1.
</event>
<event>
 8    1  0.7096247E-006  0.1100315E+04  0.7818608E-02  0.8685663E-01
          1   -1    0    0  502    0  0.00000000000E+00  0.00000000000E+00  0.16508243602E+04  0.16508243602E+04  0.00000000000E+00 0. -1.
         -1   -1    0    0    0  501 -0.00000000000E+00 -0.00000000000E+00 -0.74403641758E+03  0.74403641758E+03  0.00000000000E+00 0.  1.
    9000010    2    1    2  502    0 -0.35503986691E+02  0.49370659019E+03  0.59318688517E+03  0.12431154220E+04  0.97388836185E+03 0.  0.
   -9000010    2    1    2    0  501  0.35503986691E+02 -0.49370659019E+03  0.31360105746E+03  0.11517453558E+04  0.99154677707E+03 0.  0.
        -13    1    3    3    0    0  0.29337967327E+03  0.61606618138E+03  0.18939241701E+03  0.70815158781E+03  0.10566000000E+00 0.  1.
         13    1    4    4    0    0 -0.33360522251E+03  0.65829129350E+02 -0.11167365589E+03  0.35790632202E+03  0.10566000000E+00 0. -1.
          4    1    3    3  502    0 -0.32888365997E+03 -0.12235959119E+03  0.40379446816E+03  0.53496383417E+03  0.00000000000E+00 0.  1.
         -4    1    4    4    0  501  0.36910920920E+03 -0.55953571954E+03  0.42527471335E+03  0.79383903379E+03  0.00000000000E+00 0. -1.
</event>
<event>
 8    1  0.7096247E-006  0.1116389E+04  0.7818608E-02  0.8672331E-01
          2   -1    0    0  502    0  0.00000000000E+00  0.00000000000E+00  0.55278640966E+03  0.55278640966E+03  0.00000000000E+00 0. -1.
         -2   -1    0    0    0  501 -0.00000000000E+00 -0.00000000000E+00 -0.24457096182E+04  0.24457096182E+04  0.00000000000E+00 0.  1.
    9000010    2    1    2  502    0  0.38787111867E+03 -0.32890868687E+03 -0.13703221287E+04  0.17714708865E+04  0.10008503567E+04 0.  0.
   -9000010    2    1    2    0  501 -0.38787111867E+03  0.32890868687E+03 -0.52260107988E+03  0.12270251414E+04  0.98684035174E+03 0.  0.
        -13    1    3    3    0    0  0.71527043265E+02 -0.17339822248E+03  0.13134467005E+03  0.22898579649E+03  0.10566000000E+00 0.  1.
         13    1    4    4    0    0  0.32178212089E+03  0.76602233828E+02 -0.41636028285E+02  0.33338447110E+03  0.10566000000E+00 0. -1.
          4    1    3    3  502    0  0.31634407540E+03 -0.15551046439E+03 -0.15016667987E+04  0.15424850900E+04  0.00000000000E+00 0.  1.
         -4    1    4    4    0  501 -0.70965323956E+03  0.25230645304E+03 -0.48096505160E+03  0.89364067025E+03  0.00000000000E+00 0. -1.
</event>
<event>
 8    1  0.7096247E-006  0.1730574E+04  0.7818608E-02  0.8287899E-01
          1   -1    0    0  502    0  0.00000000000E+00  0.00000000000E+00  0.89987461152E+03  0.89987461152E+03  0.00000000000E+00 0.  1.
         -1   -1    0    0    0  501 -0.00000000000E+00 -0.00000000000E+00 -0.34525113474E+04  0.34525113474E+04  0.00000000000E+00 0. -1.
    9000010    2    1    2  502    0  0.97587603974E+03 -0.10303939910E+04 -0.16927418583E+04  0.24242105639E+04  0.99868715696E+03 0.  0.
   -9000010    2    1    2    0  501 -0.97587603974E+03  0.10303939910E+04 -0.85989487752E+03  0.19281753950E+04  0.98203631896E+03 0.  0.
        -13    1    3    3    0    0 -0.79893791659E+02  0.10685865028E+03 -0.34128171406E+03  0.36643554494E+03  0.10566000000E+00 0.  1.
         13    1    4    4    0    0 -0.63880799100E+03  0.10868375748E+04 -0.94552265062E+03  0.15758504553E+04  0.10566000000E+00 0. -1.
          4    1    3    3  502    0  0.10557698314E+04 -0.11372526413E+04 -0.13514601443E+04  0.20577750190E+04  0.00000000000E+00 0.  1.
         -4    1    4    4    0  501 -0.33706804874E+03 -0.56443583759E+02  0.85627773098E+02  0.35232493973E+03  0.00000000000E+00 0. -1.
</event>
<event>
 7    1  0.7096247E-006  0.1237739E+04  0.7818608E-02  0.8578674E-01
         -2   -1    0    0    0  501 -0.00000000000E+00  0.00000000000E+00  0.15225756784E+04  0.15225756784E+04  0.00000000000E+00 0. -1.
          2   -1    0    0  502    0  0.00000000000E+00 -0.00000000000E+00 -0.10321180713E+04  0.10321180713E+04  0.00000000000E+00 0.  1.
    9000010    2    1    2  502    0 -0.44089056531E+03 -0.14601309443E+03  0.88787653221E+02  0.10964669918E+04  0.98926856938E+03 0.  0.
        -13    1    3    3    0    0 -0.38339327077E+03 -0.52113670394E+03  0.23704482035E+03  0.68903129268E+03  0.10566000000E+00 0.  1.
         13    1    1    2    0    0  0.83542407518E+03  0.31675808143E+03  0.49050685496E+03  0.10192477881E+04  0.10566000000E+00 0. -1.
          4    1    3    3  502    0 -0.57497294538E+02  0.37512360951E+03 -0.14825716713E+03  0.40743569910E+03  0.00000000000E+00 0.  1.
         -4    1    1    2    0  501 -0.39453350987E+03 -0.17074498700E+03 -0.88836901068E+02  0.43897896987E+03  0.00000000000E+00 0. -1.
</event>
<event>
 8    1  0.7096247E-006  0.9853235E+03  0.7818608E-02  0.8788504E-01
          2   -1    0    0  502    0  0.00000000000E+00  0.00000000000E+00  0.91280578806E+03  0.91280578806E+03  0.00000000000E+00 0. -1.
         -2   -1    0    0    0  501 -0.00000000000E+00 -0.00000000000E+00 -0.11692762309E+04  0.11692762309E+04  0.00000000000E+00 0.  1.
    9000010    2    1    2  502    0  0.25027898893E+03  0.34032480701E+03  0.18015284528E+03  0.91437603058E+03  0.79067561684E+03 0.  0.
   -9000010    2    1    2    0  501 -0.25027898893E+03 -0.34032480701E+03 -0.43662328812E+03  0.11677059884E+04  0.99721453711E+03 0.  0.
        -13    1    3    3    0    0 -0.16085552876E+03  0.17426917500E+03 -0.21525325842E+03  0.32027835224E+03  0.10566000000E+00 0.  1.
         13    1    4    4    0    0 -0.13468310390E+03 -0.96474317780E+02 -0.74194557764E+03  0.76021712939E+03  0.10566000000E+00 0. -1.
          4    1    3    3  502    0  0.41113451769E+03  0.16605563202E+03  0.39540610370E+03  0.59409767834E+03  0.00000000000E+00 0.  1.
         -4    1    4    4    0  501 -0.11559588503E+03 -0.24385048923E+03  0.30532228952E+03  0.40748885901E+03  0.00000000000E+00 0. -1.
</event>
<event>
 8    1  0.7096247E-006  0.1907637E+04  0.7818608E-02  0.8207069E-01
         -1   -1    0    0    0  501 -0.00000000000E+00  0.00000000000E+00  0.21629180252E+04  0.21629180252E+04  0.00000000000E+00 0. -1.
          1   -1    0    0  502    0  0.00000000000E+00 -0.00000000000E+00 -0.16978206721E+04  0.16978206721E+04  0.00000000000E+00 0.  1.
    9000010    2    1    2  502    0  0.35425498505E+02 -0.16251847799E+04  0.49495563423E+02  0.19113631263E+04  0.10041805888E+04 0.  0.
   -9000010    2    1    2    0  501 -0.35425498505E+02  0.16251847799E+04  0.41560178964E+03  0.19493755710E+04  0.99240099490E+03 0.  0.
        -13    1    3    3    0    0 -0.31424134569E+03 -0.57191735451E+03  0.37779099654E+03  0.75403125396E+03  0.10566000000E+00 0.  1.
         13    1    4    4    0    0 -0.43098134028E+03  0.83509393876E+03 -0.67832155701E+02  0.94219319395E+03  0.10566000000E+00 0. -1.
          4    1    3    3  502    0  0.34966684419E+03 -0.10532674254E+04 -0.32829543312E+03  0.11573318723E+04  0.00000000000E+00 0.  1.
         -4    1    4    4    0  501  0.39555584178E+03  0.79009084114E+03  0.48343394535E+03  0.10071823771E+04  0.00000000000E+00 0. -1.
</event>
<event>
 8    1  0.7096247E-006  0.1796127E+04  0.7818608E-02  0.8256863E-01
          1   -1    0    0  502    0  0.00000000000E+00  0.00000000000E+00  0.17469471436E+04  0.17469471436E+04  0.00000000000E+00 0.  1.
         -1   -1    0    0    0  501 -0.00000000000E+00 -0.00000000000E+00 -0.24563835560E+04  0.24563835560E+04  0.00000000000E+00 0. -1.
    9000010    2    1    2  502    0  0.13622071315E+04 -0.62865886335E+03  0.69197230808E+03  0.19270977723E+04  0.99199794011E+03 0.  0.
   -9000010    2    1    2    0  501 -0.13622071315E+04  0.62865886335E+03 -0.14014087205E+04  0.22762329273E+04  0.98309190930E+03 0.  0.
        -13    1    3    3    0    0  0.36839937218E+03 -0.25180097095E+03  0.73891262626E+03  0.86319969115E+03  0.10566000000E+00 0.  1.
         13    1    4    4    0    0 -0.10573392306E+04 -0.80474602556E+01 -0.10402050874E+04  0.14832591295E+04  0.10566000000E+00 0. -1.
          4    1    3    3  502    0  0.99380775932E+03 -0.37685789240E+03 -0.46940318182E+02  0.10638980811E+04  0.00000000000E+00 0.  1.
         -4    1    4    4    0  501 -0.30486790088E+03  0.63670632360E+03 -0.36120363302E+03  0.79297379781E+03  0.00000000000E+00 0. -1.
</event>
<event>
 8    1  0.7096247E-006  0.1134942E+04  0.7818608E-02  0.8657232E-01
          2   -1    0    0  502    0  0.00000000000E+00  0.00000000000E+00  0.24941166278E+04  0.24941166278E+04  0.00000000000E+00 0.  1.
         -2   -1    0    0    0  501 -0.00000000000E+00 -0.00000000000E+00 -0.61759577910E+03  0.61759577910E+03  0.00000000000E+00 0. -1.
    9000010    2    1    2  502    0  0.53231451667E+03  0.43000102683E+02  0.15723407830E+04  0.19429998437E+04  0.10088533597E+04 0.  0.
   -9000010    2    1    2    0  501 -0.53231451667E+03 -0.43000102683E+02  0.30418006576E+03  0.11687125632E+04  0.99406025447E+03 0.  0.
        -13    1    3    3    0    0 -0.21728057269E+02 -0.41929107392E+03  0.56922788648E+03  0.70731712199E+03  0.10566000000E+00 0.  1.
         13    1    4    4    0    0 -0.12985155826E+03 -0.25521304285E+03 -0.29845719614E+03  0.41360830929E+03  0.10566000000E+00 0. -1.
          4    1    3    3  502    0  0.55404257394E+03  0.46229117660E+03  0.10031128965E+04  0.12356827217E+04  0.00000000000E+00 0.  1.
         -4    1    4    4    0  501 -0.40246295841E+03  0.21221294017E+03  0.60263726190E+03  0.75510425392E+03  0.00000000000E+00 0. -1.
</event>
<event>
 8    1  0.7096247E-006  0.1317166E+04  0.7818608E-02  0.8523198E-01
         -2   -1    0    0    0  501 -0.00000000000E+00  0.00000000000E+00  0.12544422615E+04  0.12544422615E+04  0.00000000000E+00 0.  1.
          2   -1    0    0  502    0  0.00000000000E+00 -0.00000000000E+00 -0.14694203111E+04  0.14694203111E+04  0.00000000000E+00 0. -1.
    9000010    2    1    2  502    0  0.74882665411E+03  0.42904977740E+03  0.22194282714E+03  0.13444819888E+04  0.10067512753E+04 0.  0.
   -9000010    2    1    2    0  501 -0.74882665411E+03 -0.42904977740E+03 -0.43692087674E+03  0.13793805839E+04  0.98334422926E+03 0.  0.
        -13    1    3    3    0    0  0.74524661493E+03  0.64564156248E+02 -0.21225518878E+03  0.77756885462E+03  0.10566000000E+00 0.  1.
         13    1    4    4    0    0  0.23624375591E+03 -0.12837202905E+03 -0.24658212525E+02  0.26999727528E+03  0.10566000000E+00 0. -1.
          4    1    3    3  502    0  0.35800391778E+01  0.36448562115E+03  0.43419801592E+03  0.56691313420E+03  0.00000000000E+00 0.  1.
         -4    1    4    4    0  501 -0.98507041002E+03 -0.30067774835E+03 -0.41226266421E+03  0.11093833086E+04  0.00000000000E+00 0. -1.
</event>
<event>
 8    1  0.7096247E-006  0.1485117E+04  0.7818608E-02  0.8418116E-01
         -2   -1    0    0    0  501 -0.00000000000E+00  0.00000000000E+00  0.90946792591E+03  0.90946792591E+03  0.00000000000E+00 0. -1.
          2   -1    0    0  502    0  0.00000000000E+00 -0.00000000000E+00 -0.29774625530E+04  0.29774625530E+04  0.00000000000E+00 0.  1.
    9000010    2    1    2  502    0 -0.92891916097E+01 -0.10937516905E+04 -0.19437606294E+03  0.14932746262E+04  0.99785169525E+03 0.  0.
   -9000010    2    1    2    0  501  0.92891916097E+01  0.10937516905E+04 -0.18736185641E+04  0.23936558527E+04  0.10113173428E+04 0.  0.
        -13    1    3    3    0    0 -0.16458606928E+03 -0.75521085664E+03  0.33794589573E+03  0.84358725204E+03  0.10566000000E+00 0.  1.
         13    1    4    4    0    0  0.18485550572E+03 -0.14714400332E+03 -0.28468638840E+03  0.36995846606E+03  0.10566000000E+00 0. -1.
          4    1    3    3  502    0  0.15529687767E+03 -0.33854083389E+03 -0.53232195867E+03  0.64968737413E+03  0.00000000000E+00 0.  1.
         -4    1    4    4    0  501 -0.17556631411E+03  0.12408956939E+04 -0.15889321757E+04  0.20236973866E+04  0.00000000000E+00 0. -1.
</event>
<event>
 8    1  0.7096247E-006  0.1169077E+04  0.7818608E-02  0.8630219E-01
         -2   -1    0    0    0  501 -0.00000000000E+00  0.00000000000E+00  0.18169832242E+04  0.18169832242E+04  0.00000000000E+00 0. -1.
          2   -1    0    0  502    0  0.00000000000E+00 -0.00000000000E+00 -0.20425176528E+04  0.20425176528E+04  0.00000000000E+00 0.  1.
    9000010    2    1    2  502    0 -0.61748572476E+03 -0.64793893790E+02 -0.16467667341E+04  0.20233442713E+04  0.99829579512E+03 0.  0.
   -9000010    2    1    2    0  501  0.61748572476E+03  0.64793893790E+02  0.14212323055E+04  0.18361566057E+04  0.98289518537E+03 0.  0.
        -13    1    3    3    0    0 -0.65666252886E+03 -0.29016093567E+03 -0.16447335297E+04  0.17945883763E+04  0.10566000000E+00 0.  1.
         13    1    4    4    0    0 -0.17056220591E+02 -0.19900627618E+03 -0.55549831340E+02  0.20731668420E+03  0.10566000000E+00 0. -1.
          4    1    3    3  502    0  0.39176804103E+02  0.22536704188E+03 -0.20332043423E+01  0.22875589493E+03  0.00000000000E+00 0.  1.
         -4    1    4    4    0  501  0.63454194535E+03  0.26380016997E+03  0.14767821369E+04  0.16288399215E+04  0.00000000000E+00 0. -1.
</event>
<event>
 8    1  0.7096247E-006  0.1245503E+04  0.7818608E-02  0.8573063E-01
         -2   -1    0    0    0  501 -0.00000000000E+00  0.00000000000E+00  0.73465596668E+03  0.73465596668E+03  0.00000000000E+00 0.  1.
          2   -1    0    0  502    0  0.00000000000E+00 -0.00000000000E+00 -0.21433554002E+04  0.21433554002E+04  0.00000000000E+00 0. -1.
    9000010    2    1    2  502    0  0.67956690861E+03  0.30686868205E+03 -0.52701931847E+03  0.13488690957E+04  0.99283377460E+03 0.  0.
   -9000010    2    1    2    0  501 -0.67956690861E+03 -0.30686868205E+03 -0.88168011509E+03  0.15291422712E+04  0.10024653056E+04 0.  0.
        -13    1    3    3    0    0  0.23300029594E+03  0.36718681433E+03 -0.73386793754E+03  0.85304012534E+03  0.10566000000E+00 0.  1.
         13    1    4    4    0    0 -0.91834026796E+03 -0.33105928754E+03 -0.83512630620E+03  0.12846731328E+04  0.10566000000E+00 0. -1.
          4    1    3    3  502    0  0.44656661268E+03 -0.60318132275E+02  0.20684861907E+03  0.49582897036E+03  0.00000000000E+00 0.  1.
         -4    1    4    4    0  501  0.23877335935E+03  0.24190605487E+02 -0.46553808890E+02  0.24446913844E+03  0.00000000000E+00 0. -1.
</event>
<event>
 8    1  0.7096247E-006  0.1103318E+04  0.7818608E-02  0.8683154E-01
          2   -1    0    0  502    0  0.00000000000E+00  0.00000000000E+00  0.71075762011E+03  0.71075762011E+03  0.00000000000E+00 0. -1.
         -2   -1    0    0    0  501 -0.00000000000E+00 -0.00000000000E+00 -0.20250851102E+04  0.20250851102E+04  0.00000000000E+00 0.  1.
    9000010    2    1    2  502    0 -0.20938015895E+03 -0.43698562761E+03 -0.11579214691E+03  0.11011089012E+04  0.98195544769E+03 0.  0.
   -9000010    2    1    2    0  501  0.20938015895E+03  0.43698562761E+03 -0.11985353432E+04  0.16347338291E+04  0.10005354734E+04 0.  0.
        -13    1    3    3    0    0  0.32485940015E+03 -0.29705732363E+03 -0.28392395870E+03  0.52382202023E+03  0.10566000000E+00 0.  1.
         13    1    4    4    0    0  0.28074229608E+03 -0.43912464104E+02 -0.11033320079E+04  0.11393358030E+04  0.10566000000E+00 0. -1.
          4    1    3    3  502    0 -0.53423955911E+03 -0.13992830398E+03  0.16813181179E+03  0.57728688094E+03  0.00000000000E+00 0.  1.
         -4    1    4    4    0  501 -0.71362137126E+02  0.48089809172E+03 -0.95203335328E+02  0.49539802612E+03  0.00000000000E+00 0. -1.
</event>
<event>
 8    1  0.7096247E-006  0.2094960E+04  0.7818608E-02  0.8130786E-01
          2   -1    0    0  502    0  0.00000000000E+00  0.00000000000E+00  0.19799820596E+04  0.19799820596E+04  0.00000000000E+00 0.  1.
         -2   -1    0    0    0  501 -0.00000000000E+00 -0.00000000000E+00 -0.22298547272E+04  0.22298547272E+04  0.00000000000E+00 0. -1.
    9000010    2    1    2  502    0  0.17972645022E+04 -0.39789753852E+03 -0.28729374217E+03  0.21179810081E+04  0.10073845911E+04 0.  0.
   -9000010    2    1    2    0  501 -0.17972645022E+04  0.39789753852E+03  0.37421074581E+02  0.20918557788E+04  0.99296430974E+03 0.  0.
        -13    1    3    3    0    0  0.89443177987E+03 -0.36107433960E+03  0.33473299937E+03  0.10209941624E+04  0.10566000000E+00 0.  1.
         13    1    4    4    0    0 -0.18520073723E+03  0.19960198857E+02  0.35964391743E+03  0.40502034655E+03  0.10566000000E+00 0. -1.
          4    1    3    3  502    0  0.90283272230E+03 -0.36823198923E+02 -0.62202674154E+03  0.10969868457E+04  0.00000000000E+00 0.  1.
         -4    1    4    4    0  501 -0.16120637649E+04  0.37793733966E+03 -0.32222284285E+03  0.16868354322E+04  0.00000000000E+00 0. -1.
</event>
<event>
 8    1  0.7096247E-006  0.1419451E+04  0.7818608E-02  0.8457418E-01
         -2   -1    0    0    0  501 -0.00000000000E+00  0.00000000000E+00  0.64353515351E+03  0.64353515351E+03  0.00000000000E+00 0. -1.
          2   -1    0    0  502    0  0.00000000000E+00 -0.00000000000E+00 -0.34278940036E+04  0.34278940036E+04  0.00000000000E+00 0.  1.
    9000010    2    1    2  502    0  0.80770639022E+02 -0.99440611964E+03 -0.19994556253E+04  0.24574069901E+04  0.10225746381E+04 0.  0.
   -9000010    2    1    2    0  501 -0.80770639022E+02  0.99440611964E+03 -0.78490322481E+03  0.16140221670E+04  0.99680843516E+03 0.  0.
        -13    1    3    3    0    0  0.21085162471E+03 -0.87753454086E+03 -0.68929838928E+03  0.11356309078E+04  0.10566000000E+00 0.  1.
         13    1    4    4    0    0  0.24085950321E+03  0.74077199238E+03 -0.59815951912E+02  0.78123901864E+03  0.10566000000E+00 0. -1.
          4    1    3    3  502    0 -0.13008098569E+03 -0.11687157878E+03 -0.13101572360E+04  0.13217760823E+04  0.00000000000E+00 0.  1.
         -4    1    4    4    0  501 -0.32163014223E+03  0.25363412726E+03 -0.72508727290E+03  0.83278314838E+03  0.00000000000E+00 0. -1.
</event>
<event>
 8    1  0.7096247E-006  0.2772662E+04  0.7818608E-02  0.7910832E-01
          2   -1    0    0  502    0  0.00000000000E+00  0.00000000000E+00  0.21409991382E+04  0.21409991382E+04  0.00000000000E+00 0. -1.
         -2   -1    0    0    0  501 -0.00000000000E+00 -0.00000000000E+00 -0.36878439158E+04  0.36878439158E+04  0.00000000000E+00 0.  1.
    9000010    2    1    2  502    0 -0.16853054594E+04 -0.20051904924E+04 -0.30733444150E+03  0.28128956054E+04  0.97820438835E+03 0.  0.
   -9000010    2    1    2    0  501  0.16853054594E+04  0.20051904924E+04 -0.12395103361E+04  0.30159474486E+04  0.83576894970E+03 0.  0.
        -13    1    3    3    0    0 -0.14338192883E+04 -0.19653007628E+04 -0.25236902283E+02  0.24328752027E+04  0.10566000000E+00 0.  1.
         13    1    4    4    0    0  0.17529375658E+04  0.19205810063E+04 -0.12825744920E+04  0.28993824946E+04  0.10566000000E+00 0. -1.
          4    1    3    3  502    0 -0.25148617111E+03 -0.39889729649E+02 -0.28209753922E+03  0.38002040264E+03  0.00000000000E+00 0.  1.
         -4    1    4    4    0  501 -0.67632106467E+02  0.84609486173E+02  0.43064155944E+02  0.11656495401E+03  0.00000000000E+00 0. -1.
</event>
<event>
 8    1  0.7096247E-006  0.1150377E+04  0.7818608E-02  0.8644897E-01
          2   -1    0    0  502    0  0.00000000000E+00  0.00000000000E+00  0.10328735998E+04  0.10328735998E+04  0.00000000000E+00 0. -1.
         -2   -1    0    0    0  501 -0.00000000000E+00 -0.00000000000E+00 -0.14084628131E+04  0.14084628131E+04  0.00000000000E+00 0.  1.
    9000010    2    1    2  502    0 -0.49273613587E+01  0.52193684190E+03  0.17390324499E+03  0.11906231765E+04  0.10558877137E+04 0.  0.
   -9000010    2    1    2    0  501  0.49273613587E+01 -0.52193684190E+03 -0.54949245828E+03  0.12507132364E+04  0.99493682828E+03 0.  0.
        -13    1    3    3    0    0 -0.24288113711E+03 -0.11992551229E+03  0.38815615800E+03  0.47332714840E+03  0.10566000000E+00 0.  1.
         13    1    4    4    0    0 -0.38168540274E+03 -0.56964420392E+03 -0.51902242809E+03  0.85997823097E+03  0.10566000000E+00 0. -1.
          4    1    3    3  502    0  0.23795377575E+03  0.64186235419E+03 -0.21425291301E+03  0.71729602805E+03  0.00000000000E+00 0.  1.
         -4    1    4    4    0  501  0.38661276410E+03  0.47707362017E+02 -0.30470030189E+02  0.39073500546E+03  0.00000000000E+00 0. -1.
</event>
<event>
 8    1  0.7096247E-006  0.1087005E+04  0.7818608E-02  0.8696883E-01
          1   -1    0    0  502    0  0.00000000000E+00  0.00000000000E+00  0.24366695015E+04  0.24366695015E+04  0.00000000000E+00 0. -1.
         -1   -1    0    0    0  501 -0.00000000000E+00 -0.00000000000E+00 -0.51229992899E+03  0.51229992899E+03  0.00000000000E+00 0.  1.
    9000010    2    1    2  502    0 -0.34569071723E+03 -0.52235244738E+03  0.11893994471E+04  0.15478336773E+04  0.76730951822E+03 0.  0.
   -9000010    2    1    2    0  501  0.34569071723E+03  0.52235244738E+03  0.73497012539E+03  0.14011357531E+04  0.10152074478E+04 0.  0.
        -13    1    3    3    0    0 -0.57702411402E+03 -0.44592325378E+03  0.10077788491E+04  0.12439544189E+04  0.10566000000E+00 0.  1.
         13    1    4    4    0    0 -0.33323432268E+03  0.30820220926E+03  0.43474712048E+03  0.62852110985E+03  0.10566000000E+00 0. -1.
          4    1    3    3  502    0  0.23133339679E+03 -0.76429193608E+02  0.18162059795E+03  0.30387925843E+03  0.00000000000E+00 0.  1.
         -4    1    4    4    0  501  0.67892503991E+03  0.21415023812E+03  0.30022300492E+03  0.77261464326E+03  0.00000000000E+00 0. -1.
</event>
<event>
 8    1  0.7096247E-006  0.1378409E+04  0.7818608E-02  0.8483106E-01
          2   -1    0    0  502    0  0.00000000000E+00  0.00000000000E+00  0.39780437481E+04  0.39780437481E+04  0.00000000000E+00 0.  1.
         -2   -1    0    0    0  501 -0.00000000000E+00 -0.00000000000E+00 -0.64251722070E+03  0.64251722070E+03  0.00000000000E+00 0. -1.
    9000010    2    1    2  502    0  0.93584489317E+03 -0.11152084199E+03  0.28370651494E+04  0.31536773974E+04  0.10042409584E+04 0.  0.
   -9000010    2    1    2    0  501 -0.93584489317E+03  0.11152084199E+03  0.49846137799E+03  0.14668835714E+04  0.10074924836E+04 0.  0.
        -13    1    3    3    0    0  0.10959435806E+02 -0.40346359501E+03  0.73098358681E+03  0.83500898024E+03  0.10566000000E+00 0.  1.
         13    1    4    4    0    0 -0.74324380909E+03 -0.39213849835E+03  0.30737966711E+03  0.89479954881E+03  0.10566000000E+00 0. -1.
          4    1    3    3  502    0  0.92488545736E+03  0.29194275302E+03  0.21060815626E+04  0.23186684172E+04  0.00000000000E+00 0.  1.
         -4    1    4    4    0  501 -0.19260108408E+03  0.50365934034E+03  0.19108171088E+03  0.57208402262E+03  0.00000000000E+00 0. -1.
</event>
<event>
 8    1  0.7096247E-006  0.1078251E+04  0.7818608E-02  0.8704354E-01
          2   -1    0    0  502    0  0.00000000000E+00  0.00000000000E+00  0.32039990782E+04  0.32039990782E+04  0.00000000000E+00 0.  1.
         -2   -1    0    0    0  501 -0.00000000000E+00 -0.00000000000E+00 -0.36296689838E+03  0.36296689838E+03  0.00000000000E+00 0. -1.
    9000010    2    1    2  502    0  0.33351496123E+03 -0.30526767348E+03  0.14060034387E+04  0.17615249255E+04  0.96005406710E+03 0.  0.
   -9000010    2    1    2    0  501 -0.33351496123E+03  0.30526767348E+03  0.14350287411E+04  0.18054410511E+04  0.99794254301E+03 0.  0.
        -13    1    3    3    0    0 -0.10581198247E+03 -0.50674350330E+03  0.10167346253E+04  0.11409357840E+04  0.10566000000E+00 0.  1.
         13    1    4    4    0    0  0.81373390122E+02 -0.27558915605E+03  0.79999861854E+03  0.85004047691E+03  0.10566000000E+00 0. -1.
          4    1    3    3  502    0  0.43932694370E+03  0.20147582982E+03  0.38926881335E+03  0.62058914147E+03  0.00000000000E+00 0.  1.
         -4    1    4    4    0  501 -0.41488835135E+03  0.58085682953E+03  0.63503012259E+03  0.95540057415E+03  0.00000000000E+00 0. -1.
</event>
<event>
 8    1  0.7096247E-006  0.1058610E+04  0.7818608E-02  0.8721390E-01
         -2   -1    0    0    0  501 -0.00000000000E+00  0.00000000000E+00  0.61454140729E+03  0.61454140729E+03  0.00000000000E+00 0. -1.
          2   -1    0    0  502    0  0.00000000000E+00 -0.00000000000E+00 -0.18544147122E+04  0.18544147122E+04  0.00000000000E+00 0.  1.
    9000010    2    1    2  502    0 -0.33291353515E+03  0.12206185013E+03 -0.46212860048E+03  0.11573084802E+04  0.10000347783E+04 0.  0.
   -9000010    2    1    2    0  501  0.33291353515E+03 -0.12206185013E+03 -0.77774470441E+03  0.13116476393E+04  0.99488802748E+03 0.  0.
        -13    1    3    3    0    0 -0.39873941292E+02 -0.37144977208E+03 -0.44780156189E+03  0.58317331418E+03  0.10566000000E+00 0.  1.
         13    1    4    4    0    0 -0.30301074552E+03 -0.10226365088E+03 -0.17468104119E+02  0.32027880357E+03  0.10566000000E+00 0. -1.
          4    1    3    3  502    0 -0.29303959386E+03  0.49351162221E+03 -0.14327038583E+02  0.57413516602E+03  0.00000000000E+00 0.  1.
         -4    1    4    4    0  501  0.63592428067E+03 -0.19798199250E+02 -0.76027660029E+03  0.99136883570E+03  0.00000000000E+00 0. -1.
</event>
<event>
 8    1  0.7096247E-006  0.1227425E+04  0.7818608E-02  0.8586192E-01
          2   -1    0    0  502    0  0.00000000000E+00  0.00000000000E+00  0.19223315978E+04  0.19223315978E+04  0.00000000000E+00 0.  1.
         -2   -1    0    0    0  501 -0.00000000000E+00 -0.00000000000E+00 -0.78471530663E+03  0.78471530663E+03  0.00000000000E+00 0. -1.
    9000010    2    1    2  502    0 -0.69585430947E+03 -0.66114527600E+02  0.52329842383E+03  0.13390056068E+04  0.10151405931E+04 0.  0.
   -9000010    2    1    2    0  501  0.69585430947E+03  0.66114527600E+02  0.61431786731E+03  0.13680412976E+04  0.10027792375E+04 0.  0.
        -13    1    3    3    0    0  0.26388915903E+03  0.36594262492E+02  0.13421346640E+03  0.29831173967E+03  0.10566000000E+00 0.  1.
         13    1    4    4    0    0  0.71935126061E+03 -0.17468994805E+03  0.77957299354E+03  0.10750427329E+04  0.10566000000E+00 0. -1.
          4    1    3    3  502    0 -0.95974346850E+03 -0.10270879009E+03  0.38908495743E+03  0.10406938671E+04  0.00000000000E+00 0.  1.
         -4    1    4    4    0  501 -0.23496951141E+02  0.24080447565E+03 -0.16525512622E+03  0.29299856476E+03  0.00000000000E+00 0. -1.
</event>
<event>
 8    1  0.7096247E-006  0.1190978E+04  0.7818608E-02  0.8613388E-01
          2   -1    0    0  502    0  0.00000000000E+00  0.00000000000E+00  0.24030767037E+04  0.24030767037E+04  0.00000000000E+00 0. -1.
         -2   -1    0    0    0  501 -0.00000000000E+00 -0.00000000000E+00 -0.59056601798E+03  0.59056601798E+03  0.00000000000E+00 0.  1.
    9000010    2    1    2  502    0 -0.52574018248E+03 -0.33503841787E+03  0.92861528657E+03  0.15011674652E+04  0.10012611683E+04 0.  0.
   -9000010    2    1    2    0  501  0.52574018248E+03  0.33503841787E+03  0.88389539915E+03  0.14924752565E+04  0.10283763094E+04 0.  0.
        -13    1    3    3    0    0 -0.57791745909E+03 -0.50977861476E+03  0.10347382923E+04  0.12901729227E+04  0.10566000000E+00 0.  1.
         13    1    4    4    0    0 -0.16181832225E+03  0.20420365220E+03 -0.10504391540E+03  0.28092443168E+03  0.10566000000E+00 0. -1.
          4    1    3    3  502    0  0.52177276611E+02  0.17474019689E+03 -0.10612300577E+03  0.21099454248E+03  0.00000000000E+00 0.  1.
         -4    1    4    4    0  501  0.68755850473E+03  0.13083476567E+03  0.98893931455E+03  0.12115508248E+04  0.00000000000E+00 0. -1.
</event>
<event>
 8    1  0.7096247E-006  0.1054549E+04  0.7818608E-02  0.8724960E-01
          2   -1    0    0  502    0  0.00000000000E+00  0.00000000000E+00  0.30795406632E+04  0.30795406632E+04  0.00000000000E+00 0.  1.
         -2   -1    0    0    0  501 -0.00000000000E+00 -0.00000000000E+00 -0.59516424026E+03  0.59516424026E+03  0.00000000000E+00 0. -1.
    9000010    2    1    2  502    0  0.32696227633E+03  0.12459137139E+03  0.23865802975E+04  0.26048835954E+04  0.98347632870E+03 0.  0.
   -9000010    2    1    2    0  501 -0.32696227633E+03 -0.12459137139E+03  0.97796125396E+02  0.10698213080E+04  0.10062436132E+04 0.  0.
        -13    1    3    3    0    0 -0.32501431710E+02  0.36442398514E+03  0.19733350763E+04  0.20069659983E+04  0.10566000000E+00 0.  1.
         13    1    4    4    0    0 -0.48793825484E+03  0.14223816441E+03  0.39153802779E+03  0.64157421575E+03  0.10566000000E+00 0. -1.
          4    1    3    3  502    0  0.35946370804E+03 -0.23983261375E+03  0.41324522125E+03  0.59791759708E+03  0.00000000000E+00 0.  1.
         -4    1    4    4    0  501  0.16097597851E+03 -0.26682953579E+03 -0.29374190239E+03  0.42824709228E+03  0.00000000000E+00 0. -1.
</event>
<event>
 8    1  0.7096247E-006  0.1293405E+04  0.7818608E-02  0.8539361E-01
          2   -1    0    0  502    0  0.00000000000E+00  0.00000000000E+00  0.14065936924E+04  0.14065936924E+04  0.00000000000E+00 0. -1.
         -2   -1    0    0    0  501 -0.00000000000E+00 -0.00000000000E+00 -0.12970204478E+04  0.12970204478E+04  0.00000000000E+00 0.  1.
    9000010    2    1    2  502    0  0.55964164460E+03 -0.65172114399E+03 -0.33318027761E+03  0.13574498821E+04  0.99685599015E+03 0.  0.
   -9000010    2    1    2    0  501 -0.55964164460E+03  0.65172114399E+03  0.44275352224E+03  0.13461642581E+04  0.93711701962E+03 0.  0.
        -13    1    3    3    0    0  0.68945884168E+03 -0.41425011452E+02 -0.20484720308E+03  0.72043869532E+03  0.10566000000E+00 0.  1.
         13    1    4    4    0    0 -0.73251437859E+03  0.36374143774E+03  0.35987140758E+02  0.81864536512E+03  0.10566000000E+00 0. -1.
          4    1    3    3  502    0 -0.12981719708E+03 -0.61029613254E+03 -0.12833307453E+03  0.63701118677E+03  0.00000000000E+00 0.  1.
         -4    1    4    4    0  501  0.17287273398E+03  0.28797970625E+03  0.40676638148E+03  0.52751889300E+03  0.00000000000E+00 0. -1.
</event>
<event>
 8    1  0.7096247E-006  0.1224531E+04  0.7818608E-02  0.8588315E-01
         -4   -1    0    0    0  501 -0.00000000000E+00  0.00000000000E+00  0.16583042289E+04  0.16583042289E+04  0.00000000000E+00 0. -1.
          4   -1    0    0  502    0  0.00000000000E+00 -0.00000000000E+00 -0.15563927976E+04  0.15563927976E+04  0.00000000000E+00 0.  1.
    9000010    2    1    2  502    0 -0.16287885277E+03 -0.71420143844E+03 -0.98907338497E+03  0.15845372245E+04  0.99793729240E+03 0.  0.
   -9000010    2    1    2    0  501  0.16287885277E+03  0.71420143844E+03  0.10909848162E+04  0.16301598020E+04  0.96465532470E+03 0.  0.
        -13    1    3    3    0    0  0.21415338891E+03 -0.18611628285E+02 -0.71594609073E+03  0.74752048981E+03  0.10566000000E+00 0.  1.
         13    1    4    4    0    0  0.56562747976E+03  0.49964591666E+03  0.69522684462E+03  0.10261193228E+04  0.10566000000E+00 0. -1.
          4    1    3    3  502    0 -0.37703224169E+03 -0.69558981015E+03 -0.27312729424E+03  0.83701673467E+03  0.00000000000E+00 0.  1.
         -4    1    4    4    0  501 -0.40274862699E+03  0.21455552178E+03  0.39575797158E+03  0.60404047922E+03  0.00000000000E+00 0. -1.
</event>
<event>
 8    1  0.7096247E-006  0.1526521E+04  0.7818608E-02  0.8394397E-01
          4   -1    0    0  502    0  0.00000000000E+00  0.00000000000E+00  0.27604947111E+04  0.27604947111E+04  0.00000000000E+00 0.  1.
         -4   -1    0    0    0  501 -0.00000000000E+00 -0.00000000000E+00 -0.12961960883E+04  0.12961960883E+04  0.00000000000E+00 0. -1.
    9000010    2    1    2  502    0 -0.26512563930E+03  0.11097908542E+04  0.19258673729E+04  0.24495558293E+04  0.99470160256E+03 0.  0.
   -9000010    2    1    2    0  501  0.26512563930E+03 -0.11097908542E+04 -0.46156875008E+03  0.16071349701E+04  0.10333971921E+04 0.  0.
        -13    1    3    3    0    0 -0.26213014513E+03  0.24055745503E+03  0.21785611163E+02  0.35644736803E+03  0.10566000000E+00 0.  1.
         13    1    4    4    0    0 -0.32552222392E+03 -0.86807364654E+02 -0.21727471399E+03  0.40088470827E+03  0.10566000000E+00 0. -1.
          4    1    3    3  502    0 -0.29954941704E+01  0.86923339916E+03  0.19040817618E+04  0.20931084613E+04  0.00000000000E+00 0.  1.
         -4    1    4    4    0  501  0.59064786322E+03 -0.10229834895E+04 -0.24429403609E+03  0.12062502619E+04  0.00000000000E+00 0. -1.
</event>
<event>
 8    1  0.7096247E-006  0.1095594E+04  0.7818608E-02  0.8689623E-01
         -2   -1    0    0    0  501 -0.00000000000E+00  0.00000000000E+00  0.41075820569E+03  0.41075820569E+03  0.00000000000E+00 0. -1.
          2   -1    0    0  502    0  0.00000000000E+00 -0.00000000000E+00 -0.29923579949E+04  0.29923579949E+04  0.00000000000E+00 0.  1.
    9000010    2    1    2  502    0 -0.34110320687E+02 -0.32335414985E+03 -0.10976869679E+04  0.15864920752E+04  0.10983255460E+04 0.  0.
   -9000010    2    1    2    0  501  0.34110320687E+02  0.32335414985E+03 -0.14839128213E+04  0.18166241254E+04  0.99619502680E+03 0.  0.
        -13    1    3    3    0    0 -0.31339775557E+03 -0.29341174714E+03  0.24183561426E+02  0.42999239803E+03  0.10566000000E+00 0.  1.
         13    1    4    4    0    0  0.45364400264E+03 -0.84665289377E+02 -0.69782387476E+03  0.83661177598E+03  0.10566000000E+00 0. -1.
          4    1    3    3  502    0  0.27928743488E+03 -0.29942402709E+02 -0.11218705293E+04  0.11564996772E+04  0.00000000000E+00 0.  1.
         -4    1    4    4    0  501 -0.41953368195E+03  0.40801943922E+03 -0.78608894655E+03  0.98001234940E+03  0.00000000000E+00 0. -1.
</event>
<event>
 8    1  0.7096247E-006  0.2281204E+04  0.7818608E-02  0.8062644E-01
         -1   -1    0    0    0  501 -0.00000000000E+00  0.00000000000E+00  0.14740174496E+04  0.14740174496E+04  0.00000000000E+00 0. -1.
          1   -1    0    0  502    0  0.00000000000E+00 -0.00000000000E+00 -0.39618427449E+04  0.39618427449E+04  0.00000000000E+00 0.  1.
    9000010    2    1    2  502    0  0.14839037017E+04  0.14125598658E+04 -0.34870181735E+03  0.23111236935E+04  0.10111400489E+04 0.  0.
   -9000010    2    1    2    0  501 -0.14839037017E+04 -0.14125598658E+04 -0.21391234779E+04  0.31247365011E+04  0.99540613658E+03 0.  0.
        -13    1    3    3    0    0  0.41353868856E+03  0.10257852120E+04 -0.38869416179E+03  0.11723193723E+04  0.10566000000E+00 0.  1.
         13    1    4    4    0    0 -0.13121632416E+04 -0.69433076499E+03 -0.17331205075E+04  0.22820110185E+04  0.10566000000E+00 0. -1.
          4    1    3    3  502    0  0.10703650132E+04  0.38677465380E+03  0.39992344438E+02  0.11388043211E+04  0.00000000000E+00 0.  1.
         -4    1    4    4    0  501 -0.17174046009E+03 -0.71822910086E+03 -0.40600297036E+03  0.84272548252E+03  0.00000000000E+00 0. -1.
</event>
<event>
 8    1  0.7096247E-006  0.1109286E+04  0.7818608E-02  0.8678193E-01
          1   -1    0    0  502    0  0.00000000000E+00  0.00000000000E+00  0.16358158743E+04  0.16358158743E+04  0.00000000000E+00 0. -1.
         -1   -1    0    0    0  501 -0.00000000000E+00 -0.00000000000E+00 -0.85648145850E+03  0.85648145850E+03  0.00000000000E+00 0.  1.
    9000010    2    1    2  502    0 -0.12605732550E+03 -0.47327703178E+03  0.82558598070E+03  0.13858792514E+04  0.99959366229E+03 0.  0.
   -9000010    2    1    2    0  501  0.12605732550E+03  0.47327703178E+03 -0.46251564902E+02  0.11064180815E+04  0.99102985101E+03 0.  0.
        -13    1    3    3    0    0 -0.30167276573E+03 -0.31087444103E+03 -0.87541496235E+02  0.44194219124E+03  0.10566000000E+00 0.  1.
         13    1    4    4    0    0 -0.14680005381E+03 -0.20873826615E+03 -0.23615706128E+03  0.34769539587E+03  0.10566000000E+00 0. -1.
          4    1    3    3  502    0  0.17561544023E+03 -0.16240259075E+03  0.91312747694E+03  0.94393706012E+03  0.00000000000E+00 0.  1.
         -4    1    4    4    0  501  0.27285737931E+03  0.68201529794E+03  0.18990549638E+03  0.75872268558E+03  0.00000000000E+00 0. -1.
</event>
<event>
 8    1  0.7096247E-006  0.1162585E+04  0.7818608E-02  0.8635282E-01
          2   -1    0    0  502    0  0.00000000000E+00  0.00000000000E+00  0.48526092358E+04  0.48526092358E+04  0.00000000000E+00 0. -1.
         -2   -1    0    0    0  501 -0.00000000000E+00 -0.00000000000E+00 -0.31477278988E+03  0.31477278988E+03  0.00000000000E+00 0.  1.
    9000010    2    1    2  502    0  0.37041501991E+03  0.47351152562E+03  0.31473028656E+04  0.33555038006E+04  0.99622787338E+03 0.  0.
   -9000010    2    1    2    0  501 -0.37041501991E+03 -0.47351152562E+03  0.13905335803E+04  0.18118782251E+04  0.99393088937E+03 0.  0.
        -13    1    3    3    0    0  0.58400369550E+03  0.30427231056E+03  0.10420312006E+04  0.12326682398E+04  0.10566000000E+00 0.  1.
         13    1    4    4    0    0 -0.48341749537E+03 -0.60687522309E+03  0.14351658997E+04  0.16314690258E+04  0.10566000000E+00 0. -1.
          4    1    3    3  502    0 -0.21358867559E+03  0.16923921506E+03  0.21052716650E+04  0.21228355607E+04  0.00000000000E+00 0.  1.
         -4    1    4    4    0  501  0.11300247546E+03  0.13336369747E+03 -0.44632319428E+02  0.18040919932E+03  0.00000000000E+00 0. -1.
</event>
<event>
 7    1  0.8338899E-006  0.8591495E+03  0.7818608E-02  0.8919544E-01
         -2   -1    0    0    0  501 -0.00000000000E+00  0.00000000000E+00  0.53015443988E+03  0.53015443988E+03  0.00000000000E+00 0. -1.
          2   -1    0    0  502    0  0.00000000000E+00 -0.00000000000E+00 -0.14696092288E+04  0.14696092288E+04  0.00000000000E+00 0.  1.
   -9000010    2    1    2    0  501 -0.21363093515E+03 -0.24500833236E+03 -0.48304023478E+03  0.11705861241E+04  0.10155179694E+04 0.  0.
        -13    1    1    2    0    0 -0.97377210985E+02 -0.11558597465E+03  0.23677125631E+02  0.15298057458E+03  0.10566000000E+00 0.  1.
         13    1    3    3    0    0  0.20055288314E+03  0.24367749303E+03  0.71176427544E+02  0.32352167554E+03  0.10566000000E+00 0. -1.
          4    1    1    2  502    0  0.31100814613E+03  0.36059430701E+03 -0.48009167979E+03  0.67619696999E+03  0.00000000000E+00 0.  1.
         -4    1    3    3    0  501 -0.41418381829E+03 -0.48868582539E+03 -0.55421666232E+03  0.84706444859E+03  0.00000000000E+00 0. -1.
</event>
<event>
 8    1  0.7096247E-006  0.1101471E+04  0.7818608E-02  0.8684696E-01
         -2   -1    0    0    0  501 -0.00000000000E+00  0.00000000000E+00  0.55906302725E+03  0.55906302725E+03  0.00000000000E+00 0. -1.
          2   -1    0    0  502    0  0.00000000000E+00 -0.00000000000E+00 -0.24910052721E+04  0.24910052721E+04  0.00000000000E+00 0.  1.
    9000010    2    1    2  502    0 -0.22947620781E+02  0.46833665564E+03 -0.15107898774E+04  0.18677576671E+04  0.99305933001E+03 0.  0.
   -9000010    2    1    2    0  501  0.22947620781E+02 -0.46833665564E+03 -0.42115236749E+03  0.11823106323E+04  0.10003116006E+04 0.  0.
        -13    1    3    3    0    0 -0.27169363089E+03  0.67909224318E+03 -0.78968642324E+03  0.10763774255E+04  0.10566000000E+00 0.  1.
         13    1    4    4    0    0 -0.34994888211E+03 -0.28418515676E+03 -0.58219860062E+03  0.73632916902E+03  0.10566000000E+00 0. -1.
          4    1    3    3  502    0  0.24874601011E+03 -0.21075558754E+03 -0.72110345416E+03  0.79138024162E+03  0.00000000000E+00 0.  1.
         -4    1    4    4    0  501  0.37289650290E+03 -0.18415149888E+03  0.16104623312E+03  0.44598146331E+03  0.00000000000E+00 0. -1.
</event>
<event>
 8    1  0.7096247E-006  0.1187193E+04  0.7818608E-02  0.8616269E-01
          1   -1    0    0  502    0  0.00000000000E+00  0.00000000000E+00  0.17367950745E+04  0.17367950745E+04  0.00000000000E+00 0.  1.
         -1   -1    0    0    0  501 -0.00000000000E+00 -0.00000000000E+00 -0.92091949707E+03  0.92091949707E+03  0.00000000000E+00 0. -1.
    9000010    2    1    2  502    0  0.74588370355E+03  0.26133907327E+02 -0.63371031448E+02  0.11307621223E+04  0.84710188833E+03 0.  0.
   -9000010    2    1    2    0  501 -0.74588370355E+03 -0.26133907327E+02  0.87924660887E+03  0.15269524493E+04  0.10007415765E+04 0.  0.
        -13    1    3    3    0    0  0.13458217629E+03  0.99480448343E+02 -0.39675583317E+03  0.43060878311E+03  0.10566000000E+00 0.  1.
         13    1    4    4    0    0  0.72055248953E+01  0.38596404823E+03  0.32961232520E+03  0.50760660181E+03  0.10566000000E+00 0. -1.
          4    1    3    3  502    0  0.61130152726E+03 -0.73346541016E+02  0.33338480172E+03  0.70015333916E+03  0.00000000000E+00 0.  1.
         -4    1    4    4    0  501 -0.75308922844E+03 -0.41209795556E+03  0.54963428367E+03  0.10193458475E+04  0.00000000000E+00 0. -1.
</event>
<event>
 8    1  0.7096247E-006  0.1874906E+04  0.7818608E-02  0.8221316E-01
         -2   -1    0    0    0  501 -0.00000000000E+00  0.00000000000E+00  0.12712178973E+04  0.12712178973E+04  0.00000000000E+00 0.  1.
          2   -1    0    0  502    0  0.00000000000E+00 -0.00000000000E+00 -0.28710037116E+04  0.28710037116E+04  0.00000000000E+00 0. -1.
    9000010    2    1    2  502    0  0.41322885756E+03 -0.14762079218E+04 -0.11739367144E+04  0.21719037078E+04  0.99453023546E+03 0.  0.
   -9000010    2    1    2    0  501 -0.41322885756E+03  0.14762079218E+04 -0.42584909981E+03  0.19703179011E+04  0.11622638506E+04 0.  0.
        -13    1    3    3    0    0  0.65612324771E+03 -0.13436498204E+04 -0.76897854365E+03  0.16814340807E+04  0.10566000000E+00 0.  1.
         13    1    4    4    0    0 -0.29370316082E+03  0.25047171908E+03  0.34475513883E+03  0.51754588748E+03  0.10566000000E+00 0. -1.
          4    1    3    3  502    0 -0.24289439015E+03 -0.13255810149E+03 -0.40495817078E+03  0.49046962712E+03  0.00000000000E+00 0.  1.
         -4    1    4    4    0  501 -0.11952569674E+03  0.12257362028E+04 -0.77060423864E+03  0.14527720136E+04  0.00000000000E+00 0. -1.
</event>
<event>
 8    1  0.7096247E-006  0.1319398E+04  0.7818608E-02  0.8521697E-01
         -2   -1    0    0    0  501 -0.00000000000E+00  0.00000000000E+00  0.57769204122E+03  0.57769204122E+03  0.00000000000E+00 0.  1.
          2   -1    0    0  502    0  0.00000000000E+00 -0.00000000000E+00 -0.30138986003E+04  0.30138986003E+04  0.00000000000E+00 0. -1.
    9000010    2    1    2  502    0  0.68047394238E+03 -0.52044059572E+03 -0.11928811909E+04  0.17770203837E+04  0.10004662456E+04 0.  0.
   -9000010    2    1    2    0  501 -0.68047394238E+03  0.52044059572E+03 -0.12433253683E+04  0.18145702579E+04  0.10064313437E+04 0.  0.
        -13    1    3    3    0    0  0.65731707931E+03  0.12580906703E+03 -0.56845077746E+03  0.87808311774E+03  0.10566000000E+00 0.  1.
         13    1    4    4    0    0 -0.36262990094E+03  0.72169806563E+03 -0.11846967828E+04  0.14338253106E+04  0.10566000000E+00 0. -1.
          4    1    3    3  502    0  0.23156863068E+02 -0.64624966275E+03 -0.62443041341E+03  0.89893726595E+03  0.00000000000E+00 0.  1.
         -4    1    4    4    0  501 -0.31784404143E+03 -0.20125746990E+03 -0.58628585489E+02  0.38074494731E+03  0.00000000000E+00 0. -1.
</event>
<event>
 8    1  0.7096247E-006  0.1092329E+04  0.7818608E-02  0.8692375E-01
         -2   -1    0    0    0  501 -0.00000000000E+00  0.00000000000E+00  0.33887537916E+03  0.33887537916E+03  0.00000000000E+00 0. -1.
          2   -1    0    0  502    0  0.00000000000E+00 -0.00000000000E+00 -0.35211499534E+04  0.35211499534E+04  0.00000000000E+00 0.  1.
    9000010    2    1    2  502    0  0.45115280716E+03 -0.20709828349E+01 -0.15975081035E+04  0.19335008404E+04  0.99138802432E+03 0.  0.
   -9000010    2    1    2    0  501 -0.45115280716E+03  0.20709828349E+01 -0.15847664707E+04  0.19265244921E+04  0.99823279230E+03 0.  0.
        -13    1    3    3    0    0  0.26193435991E+03  0.30086802299E+02  0.55460516963E+02  0.26942662207E+03  0.10566000000E+00 0.  1.
         13    1    4    4    0    0 -0.67941284800E+03 -0.25303289728E+03 -0.85885177664E+03  0.11239456617E+04  0.10566000000E+00 0. -1.
          4    1    3    3  502    0  0.18921844725E+03 -0.32157785134E+02 -0.16529686205E+04  0.16640742184E+04  0.00000000000E+00 0.  1.
         -4    1    4    4    0  501  0.22826004084E+03  0.25510388012E+03 -0.72591469405E+03  0.80257883036E+03  0.00000000000E+00 0. -1.
</event>
<event>
 8    1  0.7096247E-006  0.1094391E+04  0.7818608E-02  0.8690637E-01
          2   -1    0    0  502    0  0.00000000000E+00  0.00000000000E+00  0.21212087942E+04  0.21212087942E+04  0.00000000000E+00 0.  1.
         -2   -1    0    0    0  501 -0.00000000000E+00 -0.00000000000E+00 -0.77597178353E+03  0.77597178353E+03  0.00000000000E+00 0. -1.
    9000010    2    1    2  502    0  0.76285945618E+01  0.43653085553E+03 -0.87638196120E+02  0.10882107381E+04  0.99292737587E+03 0.  0.
   -9000010    2    1    2    0  501 -0.76285945618E+01 -0.43653085553E+03  0.14328752068E+04  0.18089698397E+04  0.10142105991E+04 0.  0.
        -13    1    3    3    0    0  0.24612879157E+03  0.67152056356E+03 -0.18646442117E+03  0.73911314482E+03  0.10566000000E+00 0.  1.
         13    1    4    4    0    0 -0.10077080036E+03  0.14044333593E+03 -0.77520128495E+02  0.18944251449E+03  0.10566000000E+00 0. -1.
          4    1    3    3  502    0 -0.23850019701E+03 -0.23498970803E+03  0.98826225055E+02  0.34909759325E+03  0.00000000000E+00 0.  1.
         -4    1    4    4    0  501  0.93142205799E+02 -0.57697419146E+03  0.15103953353E+04  0.16195273252E+04  0.00000000000E+00 0. -1.
</event>
<event>
 8    1  0.7096247E-006  0.1392998E+04  0.7818608E-02  0.8473871E-01
         -2   -1    0    0    0  501 -0.00000000000E+00  0.00000000000E+00  0.12981217070E+04  0.12981217070E+04  0.00000000000E+00 0.  1.
          2   -1    0    0  502    0  0.00000000000E+00 -0.00000000000E+00 -0.15225729350E+04  0.15225729350E+04  0.00000000000E+00 0. -1.
    9000010    2    1    2  502    0 -0.10464278285E+04  0.25023261786E+02 -0.28929086512E+03  0.13682421325E+04  0.83232203174E+03 0.  0.
   -9000010    2    1    2    0  501  0.10464278285E+04 -0.25023261786E+02  0.64839637115E+02  0.14524525095E+04  0.10048764849E+04 0.  0.
        -13    1    3    3    0    0 -0.96076969977E+03 -0.11759231937E+03 -0.50824104190E+03  0.10932590441E+04  0.10566000000E+00 0.  1.
         13    1    4    4    0    0  0.89396233158E+03  0.31155481569E+03  0.32458055405E+03  0.10007934855E+04  0.10566000000E+00 0. -1.
          4    1    3    3  502    0 -0.85658128766E+02  0.14261558115E+03  0.21895017678E+03  0.27498308844E+03  0.00000000000E+00 0.  1.
         -4    1    4    4    0  501  0.15246549696E+03 -0.33657807748E+03 -0.25974091693E+03  0.45165902397E+03  0.00000000000E+00 0. -1.
</event>
<event>
 8    1  0.7096247E-006  0.1195993E+04  0.7818608E-02  0.8609586E-01
          1   -1    0    0  502    0  0.00000000000E+00  0.00000000000E+00  0.20202016861E+04  0.20202016861E+04  0.00000000000E+00 0.  1.
         -1   -1    0    0    0  501 -0.00000000000E+00 -0.00000000000E+00 -0.71523912194E+03  0.71523912194E+03  0.00000000000E+00 0. -1.
    9000010    2    1    2  502    0 -0.58410725048E+03  0.42597286084E+03  0.55550742691E+03  0.13657764952E+04  0.10169182736E+04 0.  0.
   -9000010    2    1    2    0  501  0.58410725048E+03 -0.42597286084E+03  0.74945513723E+03  0.13696643129E+04  0.88975455545E+03 0.  0.
        -13    1    3    3    0    0 -0.60288095660E+03  0.70694348359E+03  0.55872225743E+03  0.10841610161E+04  0.10566000000E+00 0.  1.
         13    1    4    4    0    0  0.33525178254E+03 -0.56003899625E+03  0.98657924674E+02  0.66012940570E+03  0.10566000000E+00 0. -1.
          4    1    3    3  502    0  0.18773706119E+02 -0.28097062275E+03 -0.32148305158E+01  0.28161547903E+03  0.00000000000E+00 0.  1.
         -4    1    4    4    0  501  0.24885546794E+03  0.13406613541E+03  0.65079721256E+03  0.70953490715E+03  0.00000000000E+00 0. -1.
</event>
<event>
 8    1  0.7096247E-006  0.1035847E+04  0.7818608E-02  0.8741620E-01
         -1   -1    0    0    0  501 -0.00000000000E+00  0.00000000000E+00  0.76182875852E+03  0.76182875852E+03  0.00000000000E+00 0. -1.
          1   -1    0    0  502    0  0.00000000000E+00 -0.00000000000E+00 -0.14713569313E+04  0.14713569313E+04  0.00000000000E+00 0.  1.
    9000010    2    1    2  502    0  0.16234540714E+03 -0.24401250216E+03 -0.12865086418E+03  0.10571043142E+04  0.10074821854E+04 0.  0.
   -9000010    2    1    2    0  501 -0.16234540714E+03  0.24401250216E+03 -0.58087730865E+03  0.11760813756E+04  0.97971976707E+03 0.  0.
        -13    1    3    3    0    0 -0.11597162905E+03  0.27095598777E+03  0.22713320248E+03  0.37209685417E+03  0.10566000000E+00 0.  1.
         13    1    4    4    0    0  0.23261511582E+03 -0.50002849146E+02  0.15984650256E+03  0.28663738865E+03  0.10566000000E+00 0. -1.
          4    1    3    3  502    0  0.27831703619E+03 -0.51496848992E+03 -0.35578406666E+03  0.68500746006E+03  0.00000000000E+00 0.  1.
         -4    1    4    4    0  501 -0.39496052296E+03  0.29401535130E+03 -0.74072381121E+03  0.88944398698E+03  0.00000000000E+00 0. -1.
</event>
<event>
 8    1  0.7096247E-006  0.1125153E+04  0.7818608E-02  0.8665161E-01
          1   -1    0    0  502    0  0.00000000000E+00  0.00000000000E+00  0.10638837094E+04  0.10638837094E+04  0.00000000000E+00 0. -1.
         -1   -1    0    0    0  501 -0.00000000000E+00 -0.00000000000E+00 -0.12074482991E+04  0.12074482991E+04  0.00000000000E+00 0.  1.
    9000010    2    1    2  502    0 -0.39012234168E+03  0.32179037725E+03  0.65062767729E+02  0.11244937240E+04  0.10022517065E+04 0.  0.
   -9000010    2    1    2    0  501  0.39012234168E+03 -0.32179037725E+03 -0.20862735741E+03  0.11468382845E+04  0.10079524731E+04 0.  0.
        -13    1    3    3    0    0 -0.36559734493E+02 -0.35500165404E+03  0.53193530928E+02  0.36082177242E+03  0.10566000000E+00 0.  1.
         13    1    4    4    0    0 -0.32171975180E+02 -0.27408232287E+03 -0.54100013923E+03  0.60731978192E+03  0.10566000000E+00 0. -1.
          4    1    3    3  502    0 -0.35356260719E+03  0.67679203129E+03  0.11869236801E+02  0.76367195156E+03  0.00000000000E+00 0.  1.
         -4    1    4    4    0  501  0.42229431686E+03 -0.47708054383E+02  0.33237278182E+03  0.53951850256E+03  0.00000000000E+00 0. -1.
</event>
<event>
 8    1  0.7096247E-006  0.1029936E+04  0.7818608E-02  0.8746962E-01
          2   -1    0    0  502    0  0.00000000000E+00  0.00000000000E+00  0.23215717463E+04  0.23215717463E+04  0.00000000000E+00 0.  1.
         -2   -1    0    0    0  501 -0.00000000000E+00 -0.00000000000E+00 -0.46790229169E+03  0.46790229169E+03  0.00000000000E+00 0. -1.
    9000010    2    1    2  502    0 -0.44931175805E+01 -0.24855387297E+03  0.11399802078E+04  0.15359151025E+04  0.99883988303E+03 0.  0.
   -9000010    2    1    2    0  501  0.44931175805E+01  0.24855387297E+03  0.71368924674E+03  0.12535589355E+04  0.10001292156E+04 0.  0.
        -13    1    3    3    0    0  0.43245958904E+03 -0.16811162733E+03  0.21837859219E+03  0.51280799145E+03  0.10566000000E+00 0.  1.
         13    1    4    4    0    0  0.21686262455E+03  0.58981974767E+03  0.44694584600E+03  0.77115324877E+03  0.10566000000E+00 0. -1.
          4    1    3    3  502    0 -0.43695270662E+03 -0.80442245637E+02  0.92160161564E+03  0.10231071110E+04  0.00000000000E+00 0.  1.
         -4    1    4    4    0  501 -0.21236950697E+03 -0.34126587470E+03  0.26674340074E+03  0.48240568670E+03  0.00000000000E+00 0. -1.
</event>
<event>
 8    1  0.7096247E-006  0.1370607E+04  0.7818608E-02  0.8488093E-01
         -2   -1    0    0    0  501 -0.00000000000E+00  0.00000000000E+00  0.10294162210E+04  0.10294162210E+04  0.00000000000E+00 0.  1.
          2   -1    0    0  502    0  0.00000000000E+00 -0.00000000000E+00 -0.21083556414E+04  0.21083556414E+04  0.00000000000E+00 0. -1.
    9000010    2    1    2  502    0 -0.10009805863E+04  0.52626455099E+03  0.29745478602E+02  0.13878826004E+04  0.80400050204E+03 0.  0.
   -9000010    2    1    2    0  501  0.10009805863E+04 -0.52626455099E+03 -0.11086848990E+04  0.17498892619E+04  0.74432097370E+03 0.  0.
        -13    1    3    3    0    0 -0.58585422225E+03  0.71410318832E+03 -0.51257835978E+02  0.92509237928E+03  0.10566000000E+00 0.  1.
         13    1    4    4    0    0  0.34782593112E+03 -0.32494680694E+02 -0.80334941492E+03  0.87601887894E+03  0.10566000000E+00 0. -1.
          4    1    3    3  502    0 -0.41512636406E+03 -0.18783863733E+03  0.81003314580E+02  0.46279022115E+03  0.00000000000E+00 0.  1.
         -4    1    4    4    0  501  0.65315465520E+03 -0.49376987029E+03 -0.30533548408E+03  0.87387038298E+03  0.00000000000E+00 0. -1.
</event>
<event>
 8    1  0.7096247E-006  0.2074924E+04  0.7818608E-02  0.8138550E-01
          2   -1    0    0  502    0  0.00000000000E+00  0.00000000000E+00  0.18618393816E+04  0.18618393816E+04  0.00000000000E+00 0. -1.
         -2   -1    0    0    0  501 -0.00000000000E+00 -0.00000000000E+00 -0.26556720974E+04  0.26556720974E+04  0.00000000000E+00 0.  1.
    9000010    2    1    2  502    0 -0.56033176531E+03  0.17132972609E+04  0.41348640014E+03  0.21252834464E+04  0.10471387362E+04 0.  0.
   -9000010    2    1    2    0  501  0.56033176531E+03 -0.17132972609E+04 -0.12073191159E+04  0.23922280326E+04  0.10078572918E+04 0.  0.
        -13    1    3    3    0    0 -0.60065245987E+03  0.18081704335E+04  0.23580214743E+03  0.19198610257E+04  0.10566000000E+00 0.  1.
         13    1    4    4    0    0  0.31695386360E+03 -0.17076395254E+04 -0.78765179980E+03  0.19070626286E+04  0.10566000000E+00 0. -1.
          4    1    3    3  502    0  0.40320694569E+02 -0.94873172534E+02  0.17768425270E+03  0.20542242072E+03  0.00000000000E+00 0.  1.
         -4    1    4    4    0  501  0.24337790170E+03 -0.56577355021E+01 -0.41966731615E+03  0.48516540401E+03  0.00000000000E+00 0. -1.
</event>
<event>
 8    1  0.7096247E-006  0.1233506E+04  0.7818608E-02  0.8581750E-01
         -2   -1    0    0    0  501 -0.00000000000E+00  0.00000000000E+00  0.92666617956E+03  0.92666617956E+03  0.00000000000E+00 0.  1.
          2   -1    0    0  502    0  0.00000000000E+00 -0.00000000000E+00 -0.16425653795E+04  0.16425653795E+04  0.00000000000E+00 0. -1.
    9000010    2    1    2  502    0  0.38107855488E+02  0.71626316331E+03 -0.33692012101E+03  0.12866214929E+04  0.10136047407E+04 0.  0.
   -9000010    2    1    2    0  501 -0.38107855488E+02 -0.71626316331E+03 -0.37897907889E+03  0.12826100661E+04  0.99346782114E+03 0.  0.
        -13    1    3    3    0    0  0.29454300844E+03  0.87005941458E+03 -0.36027953847E+03  0.98669160619E+03  0.10566000000E+00 0.  1.
         13    1    4    4    0    0  0.44795065630E+03 -0.54633348189E+03 -0.16828757036E+03  0.72626495263E+03  0.10566000000E+00 0. -1.
          4    1    3    3  502    0 -0.25643515295E+03 -0.15379625126E+03  0.23359417461E+02  0.29992988673E+03  0.00000000000E+00 0.  1.
         -4    1    4    4    0  501 -0.48605851179E+03 -0.16992968143E+03 -0.21069150853E+03  0.55634511347E+03  0.00000000000E+00 0. -1.
</event>
<event>
 8    1  0.7096247E-006  0.1176939E+04  0.7818608E-02  0.8624133E-01
         -1   -1    0    0    0  501 -0.00000000000E+00  0.00000000000E+00  0.42622485290E+03  0.42622485290E+03  0.00000000000E+00 0. -1.
          1   -1    0    0  502    0  0.00000000000E+00 -0.00000000000E+00 -0.44635711268E+04  0.44635711268E+04  0.00000000000E+00 0.  1.
    9000010    2    1    2  502    0 -0.32329442031E+03 -0.53384926199E+03 -0.73820553165E+03  0.13854932337E+04  0.99253704055E+03 0.  0.
   -9000010    2    1    2    0  501  0.32329442031E+03  0.53384926199E+03 -0.32991407423E+04  0.35043027460E+04  0.10031419550E+04 0.  0.
        -13    1    3    3    0    0 -0.44309028611E+03  0.55015607806E+01  0.24385665527E+02  0.44379493087E+03  0.10566000000E+00 0.  1.
         13    1    4    4    0    0 -0.21055814846E+03  0.60120444709E+03 -0.16061891308E+04  0.17278961358E+04  0.10566000000E+00 0. -1.
          4    1    3    3  502    0  0.11979586580E+03 -0.53935082277E+03 -0.76259119718E+03  0.94169830280E+03  0.00000000000E+00 0.  1.
         -4    1    4    4    0  501  0.53385256877E+03 -0.67355185097E+02 -0.16929516115E+04  0.17764066103E+04  0.00000000000E+00 0. -1.
</event>
<event>
 8    1  0.7096247E-006  0.1153837E+04  0.7818608E-02  0.8642159E-01
         -2   -1    0    0    0  501 -0.00000000000E+00  0.00000000000E+00  0.69575244842E+03  0.69575244842E+03  0.00000000000E+00 0. -1.
          2   -1    0    0  502    0  0.00000000000E+00 -0.00000000000E+00 -0.21254413300E+04  0.21254413300E+04  0.00000000000E+00 0.  1.
    9000010    2    1    2  502    0  0.18173156566E+03  0.60130915561E+03 -0.28149820000E+03  0.12076717413E+04  0.99228561195E+03 0.  0.
   -9000010    2    1    2    0  501 -0.18173156566E+03 -0.60130915561E+03 -0.11481906816E+04  0.16135220371E+04  0.94366967754E+03 0.  0.
        -13    1    3    3    0    0  0.54735630534E+03  0.15466629915E+03 -0.77600046924E+01  0.56884164574E+03  0.10566000000E+00 0.  1.
         13    1    4    4    0    0  0.17709498283E+03 -0.20520368381E+03  0.72813460317E+02  0.28066527388E+03  0.10566000000E+00 0. -1.
          4    1    3    3  502    0 -0.36562473968E+03  0.44664285646E+03 -0.27373819531E+03  0.63883009561E+03  0.00000000000E+00 0.  1.
         -4    1    4    4    0  501 -0.35882654849E+03 -0.39610547180E+03 -0.12210041419E+04  0.13328567632E+04  0.00000000000E+00 0. -1.
</event>
<event>
 8    1  0.7096247E-006  0.1291402E+04  0.7818608E-02  0.8540739E-01
          1   -1    0    0  502    0  0.00000000000E+00  0.00000000000E+00  0.11768247794E+04  0.11768247794E+04  0.00000000000E+00 0.  1.
         -1   -1    0    0    0  501 -0.00000000000E+00 -0.00000000000E+00 -0.24330512345E+04  0.24330512345E+04  0.00000000000E+00 0. -1.
    9000010    2    1    2  502    0  0.52906261004E+03  0.71248247385E+03 -0.17820154996E+04  0.21779264827E+04  0.88331534698E+03 0.  0.
   -9000010    2    1    2    0  501 -0.52906261004E+03 -0.71248247385E+03  0.52578904448E+03  0.14319495312E+04  0.99322042860E+03 0.  0.
        -13    1    3    3    0    0  0.25895929424E+03  0.74141639597E+03 -0.66720132839E+03  0.10304929947E+04  0.10566000000E+00 0.  1.
         13    1    4    4    0    0 -0.70615805401E+03 -0.12611761026E+03  0.24378165406E+03  0.75762415147E+03  0.10566000000E+00 0. -1.
          4    1    3    3  502    0  0.27010331580E+03 -0.28933922116E+02 -0.11148141712E+04  0.11474334880E+04  0.00000000000E+00 0.  1.
         -4    1    4    4    0  501  0.17709544398E+03 -0.58636486359E+03  0.28200739042E+03  0.67432537976E+03  0.00000000000E+00 0. -1.
</event>
<event>
 8    1  0.7096247E-006  0.1006023E+04  0.7818608E-02  0.8768953E-01
         -2   -1    0    0    0  501 -0.00000000000E+00  0.00000000000E+00  0.39072241971E+03  0.39072241971E+03  0.00000000000E+00 0.  1.
          2   -1    0    0  502    0  0.00000000000E+00 -0.00000000000E+00 -0.27798546380E+04  0.27798546380E+04  0.00000000000E+00 0. -1.
    9000010    2    1    2  502    0  0.34327598574E+02  0.20120460719E+03 -0.76921518158E+03  0.12580614525E+04  0.97435360348E+03 0.  0.
   -9000010    2    1    2    0  501 -0.34327598574E+02 -0.20120460719E+03 -0.16199170367E+04  0.19125156053E+04  0.99595334054E+03 0.  0.
        -13    1    3    3    0    0 -0.82893169005E+02  0.25623810199E+03 -0.97688312264E+03  0.10133261513E+04  0.10566000000E+00 0.  1.
         13    1    4    4    0    0 -0.17224274768E+03  0.35176968036E+03 -0.37001548495E+03  0.53881438587E+03  0.10566000000E+00 0. -1.
          4    1    3    3  502    0  0.11722076758E+03 -0.55033494796E+02  0.20766794106E+03  0.24473530119E+03  0.00000000000E+00 0.  1.
         -4    1    4    4    0  501  0.13791514910E+03 -0.55297428755E+03 -0.12499015518E+04  0.13737012194E+04  0.00000000000E+00 0. -1.
</event>
<event>
 8    1  0.7096247E-006  0.1165687E+04  0.7818608E-02  0.8632858E-01
         -2   -1    0    0    0  501 -0.00000000000E+00  0.00000000000E+00  0.15788067212E+04  0.15788067212E+04  0.00000000000E+00 0. -1.
          2   -1    0    0  502    0  0.00000000000E+00 -0.00000000000E+00 -0.13737267448E+04  0.13737267448E+04  0.00000000000E+00 0.  1.
    9000010    2    1    2  502    0 -0.16941783636E+03 -0.65137869759E+03 -0.79652638745E+03  0.14433150227E+04  0.99785137065E+03 0.  0.
   -9000010    2    1    2    0  501  0.16941783636E+03  0.65137869759E+03  0.10016063639E+04  0.15092184434E+04  0.90638203355E+03 0.  0.
        -13    1    3    3    0    0 -0.29632559119E+03  0.17500505466E+03 -0.10940184656E+03  0.36111549447E+03  0.10566000000E+00 0.  1.
         13    1    4    4    0    0 -0.13558345303E+03  0.49659221359E+03  0.10445481580E+04  0.11645031408E+04  0.10566000000E+00 0. -1.
          4    1    3    3  502    0  0.12690775483E+03 -0.82638375225E+03 -0.68712454089E+03  0.10821995282E+04  0.00000000000E+00 0.  1.
         -4    1    4    4    0  501  0.30500128938E+03  0.15478648400E+03 -0.42941794146E+02  0.34471530259E+03  0.00000000000E+00 0. -1.
</event>
<event>
 8    1  0.7096247E-006  0.1389526E+04  0.7818608E-02  0.8476058E-01
          1   -1    0    0  502    0  0.00000000000E+00  0.00000000000E+00  0.38030019627E+04  0.38030019627E+04  0.00000000000E+00 0. -1.
         -1   -1    0    0    0  501 -0.00000000000E+00 -0.00000000000E+00 -0.50791244697E+03  0.50791244697E+03  0.00000000000E+00 0.  1.
    9000010    2    1    2  502    0 -0.73931391598E+03  0.69604070350E+03  0.16042994430E+04  0.21045898541E+04  0.90800001322E+03 0.  0.
   -9000010    2    1    2    0  501  0.73931391598E+03 -0.69604070350E+03  0.16907900727E+04  0.22063245555E+04  0.98895866802E+03 0.  0.
        -13    1    3    3    0    0 -0.20329149100E+03  0.63470942207E+03  0.38121076003E+03  0.76779237786E+03  0.10566000000E+00 0.  1.
         13    1    4    4    0    0  0.88972022127E+03 -0.26647333403E+03  0.13459870410E+04  0.16353260334E+04  0.10566000000E+00 0. -1.
          4    1    3    3  502    0 -0.53602242499E+03  0.61331281431E+02  0.12230886829E+04  0.13367974763E+04  0.00000000000E+00 0.  1.
         -4    1    4    4    0  501 -0.15040630529E+03 -0.42956736947E+03  0.34480303175E+03  0.57099852214E+03  0.00000000000E+00 0. -1.
</event>
<event>
 8    1  0.7096247E-006  0.1170167E+04  0.7818608E-02  0.8629372E-01
          2   -1    0    0  502    0  0.00000000000E+00  0.00000000000E+00  0.14962336157E+04  0.14962336157E+04  0.00000000000E+00 0. -1.
         -2   -1    0    0    0  501 -0.00000000000E+00 -0.00000000000E+00 -0.12638994476E+04  0.12638994476E+04  0.00000000000E+00 0.  1.
    9000010    2    1    2  502    0  0.23233157752E+03  0.54190495946E+03  0.84042747002E+03  0.14338872403E+04  0.10010371315E+04 0.  0.
   -9000010    2    1    2    0  501 -0.23233157752E+03 -0.54190495946E+03 -0.60809330190E+03  0.13262458230E+04  0.10205447428E+04 0.  0.
        -13    1    3    3    0    0  0.82489032757E+02 -0.20151893293E+03  0.60003691942E+03  0.63832486767E+03  0.10566000000E+00 0.  1.
         13    1    4    4    0    0 -0.78198048890E+02  0.92418530767E+02  0.23239378875E+03  0.26203626446E+03  0.10566000000E+00 0. -1.
          4    1    3    3  502    0  0.14984254476E+03  0.74342389240E+03  0.24039055061E+03  0.79556237268E+03  0.00000000000E+00 0.  1.
         -4    1    4    4    0  501 -0.15413352863E+03 -0.63432349023E+03 -0.84048709065E+03  0.10642095585E+04  0.00000000000E+00 0. -1.
</event>
<event>
 8    1  0.7096247E-006  0.2406550E+04  0.7818608E-02  0.8020443E-01
          2   -1    0    0  502    0  0.00000000000E+00  0.00000000000E+00  0.14394350919E+04  0.14394350919E+04  0.00000000000E+00 0. -1.
         -2   -1    0    0    0  501 -0.00000000000E+00 -0.00000000000E+00 -0.40859040685E+04  0.40859040685E+04  0.00000000000E+00 0.  1.
    9000010    2    1    2  502    0  0.15519918873E+04 -0.15485837207E+04 -0.97958403962E+03  0.25946962764E+04  0.98289038949E+03 0.  0.
   -9000010    2    1    2    0  501 -0.15519918873E+04  0.15485837207E+04 -0.16668849370E+04  0.29306428840E+04  0.10016845622E+04 0.  0.
        -13    1    3    3    0    0  0.67395835253E+03 -0.29519470470E+03 -0.74393019859E+03  0.10463230506E+04  0.10566000000E+00 0.  1.
         13    1    4    4    0    0 -0.36376882351E+03  0.62687218352E+03 -0.11127898780E+04  0.13280052015E+04  0.10566000000E+00 0. -1.
          4    1    3    3  502    0  0.87803353475E+03 -0.12533890160E+04 -0.23565384102E+03  0.15483732258E+04  0.00000000000E+00 0.  1.
         -4    1    4    4    0  501 -0.11882230638E+04  0.92171153715E+03 -0.55409505897E+03  0.16026376825E+04  0.00000000000E+00 0. -1.
</event>
<event>
 8    1  0.7096247E-006  0.1065547E+04  0.7818608E-02  0.8715329E-01
         -1   -1    0    0    0  501 -0.00000000000E+00  0.00000000000E+00  0.10398708563E+04  0.10398708563E+04  0.00000000000E+00 0. -1.
          1   -1    0    0  502    0  0.00000000000E+00 -0.00000000000E+00 -0.11000919852E+04  0.11000919852E+04  0.00000000000E+00 0.  1.
    9000010    2    1    2  502    0 -0.21064240658E+03  0.27399127444E+03 -0.11947850148E+03  0.10508820775E+04  0.98520890506E+03 0.  0.
   -9000010    2    1    2    0  501  0.21064240658E+03 -0.27399127444E+03  0.59257372579E+02  0.10890807639E+04  0.10310887606E+04 0.  0.
        -13    1    3    3    0    0 -0.23041399288E+03  0.55697220367E+03 -0.33958941895E+03  0.69183063563E+03  0.10566000000E+00 0.  1.
         13    1    4    4    0    0  0.50696108591E+03 -0.30172649016E+02 -0.27732974953E+03  0.57864646592E+03  0.10566000000E+00 0. -1.
          4    1    3    3  502    0  0.19771586303E+02 -0.28298092923E+03  0.22011091746E+03  0.35905144188E+03  0.00000000000E+00 0.  1.
         -4    1    4    4    0  501 -0.29631867933E+03 -0.24381862543E+03  0.33658712211E+03  0.51043429802E+03  0.00000000000E+00 0. -1.
</event>
<event>
 8    1  0.7096247E-006  0.1684620E+04  0.7818608E-02  0.8310512E-01
          2   -1    0    0  502    0  0.00000000000E+00  0.00000000000E+00  0.29490368182E+04  0.29490368182E+04  0.00000000000E+00 0. -1.
         -2   -1    0    0    0  501 -0.00000000000E+00 -0.00000000000E+00 -0.96292315805E+03  0.96292315805E+03  0.00000000000E+00 0.  1.
    9000010    2    1    2  502    0 -0.12889459871E+04  0.39794066068E+03  0.94598176381E+03  0.19341522496E+04  0.10130769469E+04 0.  0.
   -9000010    2    1    2    0  501  0.12889459871E+04 -0.39794066068E+03  0.10401318964E+04  0.19778077267E+04  0.10050425438E+04 0.  0.
        -13    1    3    3    0    0 -0.89514024303E+03  0.15450062320E+02  0.66948589324E+02  0.89777329204E+03  0.10566000000E+00 0.  1.
         13    1    4    4    0    0  0.97549210786E+03 -0.50731011789E+03  0.11841682864E+04  0.16159217029E+04  0.10566000000E+00 0. -1.
          4    1    3    3  502    0 -0.39380574402E+03  0.38249059836E+03  0.87903317448E+03  0.10363789576E+04  0.00000000000E+00 0.  1.
         -4    1    4    4    0  501  0.31345387919E+03  0.10936945721E+03 -0.14403639003E+03  0.36188602378E+03  0.00000000000E+00 0. -1.
</event>
<event>
 8    1  0.7096247E-006  0.1557327E+04  0.7818608E-02  0.8377251E-01
          2   -1    0    0  502    0  0.00000000000E+00  0.00000000000E+00  0.51465095683E+03  0.51465095683E+03  0.00000000000E+00 0. -1.
         -2   -1    0    0    0  501 -0.00000000000E+00 -0.00000000000E+00 -0.47328985468E+04  0.47328985468E+04  0.00000000000E+00 0.  1.
    9000010    2    1    2  502    0 -0.74177402086E+03  0.93013649841E+03 -0.22812732698E+04  0.27620176787E+04  0.10045652404E+04 0.  0.
   -9000010    2    1    2    0  501  0.74177402086E+03 -0.93013649841E+03 -0.19369743202E+04  0.24855318250E+04  0.10052941520E+04 0.  0.
        -13    1    3    3    0    0 -0.53043325109E+03  0.53885813738E+03 -0.45519641031E+03  0.88257085223E+03  0.10566000000E+00 0.  1.
         13    1    4    4    0    0  0.58943145241E+03 -0.88338616651E+03 -0.78003718331E+03  0.13176716491E+04  0.10566000000E+00 0. -1.
          4    1    3    3  502    0 -0.21134076977E+03  0.39127836103E+03 -0.18260768595E+04  0.18794468264E+04  0.00000000000E+00 0.  1.
         -4    1    4    4    0  501  0.15234256845E+03 -0.46750331898E+02 -0.11569371369E+04  0.11678601759E+04  0.00000000000E+00 0. -1.
</event>
<event>
 8    1  0.7096247E-006  0.9941910E+03  0.7818608E-02  0.8780069E-01
         -2   -1    0    0    0  501 -0.00000000000E+00  0.00000000000E+00  0.93414788771E+03  0.93414788771E+03  0.00000000000E+00 0. -1.
          2   -1    0    0  502    0  0.00000000000E+00 -0.00000000000E+00 -0.13459113722E+04  0.13459113722E+04  0.00000000000E+00 0.  1.
    9000010    2    1    2  502    0  0.57372189082E+02 -0.48834198325E+02  0.32138871217E+03  0.10443734656E+04  0.99083241988E+03 0.  0.
   -9000010    2    1    2    0  501 -0.57372189082E+02  0.48834198325E+02 -0.73315219664E+03  0.12356857943E+04  0.99183208853E+03 0.  0.
        -13    1    3    3    0    0  0.25884866527E+03  0.66625386666E+02  0.61468289003E+03  0.67028101578E+03  0.10566000000E+00 0.  1.
         13    1    4    4    0    0 -0.69937817480E+02  0.22805150439E+03  0.18390432845E+03  0.30119694579E+03  0.10566000000E+00 0. -1.
          4    1    3    3  502    0 -0.20147647619E+03 -0.11545958499E+03 -0.29329417786E+03  0.37409244979E+03  0.00000000000E+00 0.  1.
         -4    1    4    4    0  501  0.12565628398E+02 -0.17921730606E+03 -0.91705652509E+03  0.93448884853E+03  0.00000000000E+00 0. -1.
</event>
<event>
 8    1  0.7096247E-006  0.1405898E+04  0.7818608E-02  0.8465802E-01
         -1   -1    0    0    0  501 -0.00000000000E+00  0.00000000000E+00  0.31585828250E+04  0.31585828250E+04  0.00000000000E+00 0.  1.
          1   -1    0    0  502    0  0.00000000000E+00 -0.00000000000E+00 -0.64348262852E+03  0.64348262852E+03  0.00000000000E+00 0. -1.
    9000010    2    1    2  502    0 -0.88872288213E+03  0.40556226522E+03  0.96464665973E+03  0.17249830296E+04  0.10443726164E+04 0.  0.
   -9000010    2    1    2    0  501  0.88872288213E+03 -0.40556226522E+03  0.15504535367E+04  0.20770824239E+04  0.97778121994E+03 0.  0.
        -13    1    3    3    0    0 -0.31222837326E+03 -0.33459946593E+02  0.94962715934E+03  0.10001989192E+04  0.10566000000E+00 0.  1.
         13    1    4    4    0    0  0.26520413834E+03 -0.24473598397E+03 -0.38199842874E+02  0.36288865510E+03  0.10566000000E+00 0. -1.
          4    1    3    3  502    0 -0.57649450886E+03  0.43902221181E+03  0.15019500394E+02  0.72478411034E+03  0.00000000000E+00 0.  1.
         -4    1    4    4    0  501  0.62351874379E+03 -0.16082628125E+03  0.15886533796E+04  0.17141937688E+04  0.00000000000E+00 0. -1.
</event>
<event>
 8    1  0.7096247E-006  0.1279265E+04  0.7818608E-02  0.8549150E-01
          1   -1    0    0  502    0  0.00000000000E+00  0.00000000000E+00  0.16850059389E+04  0.16850059389E+04  0.00000000000E+00 0. -1.
         -1   -1    0    0    0  501 -0.00000000000E+00 -0.00000000000E+00 -0.10497232214E+04  0.10497232214E+04  0.00000000000E+00 0.  1.
    9000010    2    1    2  502    0 -0.27691167725E+03 -0.66810691419E+03 -0.64326286952E+02  0.12268619590E+04  0.98894159050E+03 0.  0.
   -9000010    2    1    2    0  501  0.27691167725E+03  0.66810691419E+03  0.69960900443E+03  0.15078672012E+04  0.11230154993E+04 0.  0.
        -13    1    3    3    0    0  0.19807633819E+03 -0.10540230195E+03  0.32420238662E+03  0.39427284926E+03  0.10566000000E+00 0.  1.
         13    1    4    4    0    0 -0.32302627089E+03  0.47361601715E+03  0.10026653719E+02  0.57337478872E+03  0.10566000000E+00 0. -1.
          4    1    3    3  502    0 -0.47498801544E+03 -0.56270461224E+03 -0.38852867357E+03  0.83258910973E+03  0.00000000000E+00 0.  1.
         -4    1    4    4    0  501  0.59993794814E+03  0.19449089704E+03  0.68958235071E+03  0.93449241252E+03  0.00000000000E+00 0. -1.
</event>
<event>
 8    1  0.7096247E-006  0.1298728E+04  0.7818608E-02  0.8535709E-01
         -2   -1    0    0    0  501 -0.00000000000E+00  0.00000000000E+00  0.95113027342E+03  0.95113027342E+03  0.00000000000E+00 0.  1.
          2   -1    0    0  502    0  0.00000000000E+00 -0.00000000000E+00 -0.22818375299E+04  0.22818375299E+04  0.00000000000E+00 0. -1.
    9000010    2    1    2  502    0 -0.48303720400E+03 -0.67719233648E+03  0.99156776104E+02  0.12988804552E+04  0.99264493632E+03 0.  0.
   -9000010    2    1    2    0  501  0.48303720400E+03  0.67719233648E+03 -0.14298640325E+04  0.19340873481E+04  0.10021318862E+04 0.  0.
        -13    1    3    3    0    0 -0.44332247957E+03 -0.12445507456E+03 -0.35578171604E+03  0.58189735101E+03  0.10566000000E+00 0.  1.
         13    1    4    4    0    0  0.50275214688E+03  0.84138753249E+03 -0.14672727825E+04  0.17645345364E+04  0.10566000000E+00 0. -1.
          4    1    3    3  502    0 -0.39714724429E+02 -0.55273726192E+03  0.45493849214E+03  0.71698310419E+03  0.00000000000E+00 0.  1.
         -4    1    4    4    0  501 -0.19714942881E+02 -0.16419519601E+03  0.37408749913E+02  0.16955281164E+03  0.00000000000E+00 0. -1.
</event>
<event>
 8    1  0.7096247E-006  0.1053763E+04  0.7818608E-02  0.8725653E-01
         -2   -1    0    0    0  501 -0.00000000000E+00  0.00000000000E+00  0.46623768252E+03  0.46623768252E+03  0.00000000000E+00 0.  1.
          2   -1    0    0  502    0  0.00000000000E+00 -0.00000000000E+00 -0.24244418191E+04  0.24244418191E+04  0.00000000000E+00 0. -1.
    9000010    2    1    2  502    0  0.21184881448E+03 -0.31221908205E+03 -0.79831776270E+03  0.13313134254E+04  0.99635511295E+03 0.  0.
   -9000010    2    1    2    0  501 -0.21184881448E+03  0.31221908205E+03 -0.11598863739E+04  0.15593660762E+04  0.97155827612E+03 0.  0.
        -13    1    3    3    0    0  0.10032014372E+03 -0.64929527463E+03 -0.70610597509E+03  0.96448646652E+03  0.10566000000E+00 0.  1.
         13    1    4    4    0    0  0.12481210633E+03  0.27069754809E+03 -0.11824122450E+04  0.12194072137E+04  0.10566000000E+00 0. -1.
          4    1    3    3  502    0  0.11152867076E+03  0.33707619258E+03 -0.92211787607E+02  0.36682695890E+03  0.00000000000E+00 0.  1.
         -4    1    4    4    0  501 -0.33666092080E+03  0.41521533964E+02  0.22525871071E+02  0.33995886258E+03  0.00000000000E+00 0. -1.
</event>
<event>
 8    1  0.7096247E-006  0.1292748E+04  0.7818608E-02  0.8539813E-01
          4   -1    0    0  502    0  0.00000000000E+00  0.00000000000E+00  0.18733277586E+04  0.18733277586E+04  0.00000000000E+00 0.  1.
         -4   -1    0    0    0  501 -0.00000000000E+00 -0.00000000000E+00 -0.11853786054E+04  0.11853786054E+04  0.00000000000E+00 0. -1.
    9000010    2    1    2  502    0 -0.77124126171E+03  0.25442909808E+03  0.11024009698E+04  0.16907279846E+04  0.99182960731E+03 0.  0.
   -9000010    2    1    2    0  501  0.77124126171E+03 -0.25442909808E+03 -0.41445181649E+03  0.13679783794E+04  0.10198270876E+04 0.  0.
        -13    1    3    3    0    0 -0.96497596514E+03  0.29005652718E+03  0.11027061470E+04  0.14937443757E+04  0.10566000000E+00 0.  1.
         13    1    4    4    0    0  0.70758351266E+03 -0.40741713466E+03 -0.67487894196E+03  0.10593038971E+04  0.10566000000E+00 0. -1.
          4    1    3    3  502    0  0.19373470344E+03 -0.35627429105E+02 -0.30517720852E+00  0.19698360884E+03  0.00000000000E+00 0.  1.
         -4    1    4    4    0  501  0.63657749048E+02  0.15298803658E+03  0.26042712546E+03  0.30867448231E+03  0.00000000000E+00 0. -1.
</event>
<event>
 8    1  0.7096247E-006  0.1765656E+04  0.7818608E-02  0.8271117E-01
         -2   -1    0    0    0  501 -0.00000000000E+00  0.00000000000E+00  0.63137074733E+03  0.63137074733E+03  0.00000000000E+00 0.  1.
          2   -1    0    0  502    0  0.00000000000E+00 -0.00000000000E+00 -0.49486254311E+04  0.49486254311E+04  0.00000000000E+00 0. -1.
    9000010    2    1    2  502    0 -0.12393220446E+04 -0.75287438306E+03 -0.22938594312E+04  0.28969570646E+04  0.10138195976E+04 0.  0.
   -9000010    2    1    2    0  501  0.12393220446E+04  0.75287438306E+03 -0.20233952526E+04  0.26830391139E+04  0.10009153669E+04 0.  0.
        -13    1    3    3    0    0 -0.95954398245E+03 -0.28754348446E+03 -0.20887881684E+04  0.23165582085E+04  0.10566000000E+00 0.  1.
         13    1    4    4    0    0  0.69221427592E+03 -0.57551093592E+02 -0.44057094629E+03  0.82254209743E+03  0.10566000000E+00 0. -1.
          4    1    3    3  502    0 -0.27977806220E+03 -0.46533089860E+03 -0.20507126286E+03  0.58039885607E+03  0.00000000000E+00 0.  1.
         -4    1    4    4    0  501  0.54710776873E+03  0.81042547665E+03 -0.15828243063E+04  0.18604970165E+04  0.00000000000E+00 0. -1.
</event>
<event>
 8    1  0.7096247E-006  0.1210659E+04  0.7818608E-02  0.8598579E-01
         -2   -1    0    0    0  501 -0.00000000000E+00  0.00000000000E+00  0.10085615206E+04  0.10085615206E+04  0.00000000000E+00 0. -1.
          2   -1    0    0  502    0  0.00000000000E+00 -0.00000000000E+00 -0.14537588351E+04  0.14537588351E+04  0.00000000000E+00 0.  1.
    9000010    2    1    2  502    0 -0.41060291328E+03 -0.57024004726E+03 -0.24518485282E+03  0.12445038975E+04  0.99744968538E+03 0.  0.
   -9000010    2    1    2    0  501  0.41060291328E+03  0.57024004726E+03 -0.20001246169E+03  0.12178164582E+04  0.97432206028E+03 0.  0.
        -13    1    3    3    0    0  0.21634260985E+03  0.42442535500E+02  0.16627010386E+03  0.27613629291E+03  0.10566000000E+00 0.  1.
         13    1    4    4    0    0 -0.22646307147E+03  0.46022863428E+03  0.69070739320E+02  0.51755839936E+03  0.10566000000E+00 0. -1.
          4    1    3    3  502    0 -0.62694552313E+03 -0.61268258276E+03 -0.41145495668E+03  0.96836760456E+03  0.00000000000E+00 0.  1.
         -4    1    4    4    0  501  0.63706598475E+03  0.11001141297E+03 -0.26908320101E+03  0.70025805884E+03  0.00000000000E+00 0. -1.
</event>
<event>
 8    1  0.7096247E-006  0.1196994E+04  0.7818608E-02  0.8608830E-01
          2   -1    0    0  502    0  0.00000000000E+00  0.00000000000E+00  0.20813921762E+04  0.20813921762E+04  0.00000000000E+00 0.  1.
         -2   -1    0    0    0  501 -0.00000000000E+00 -0.00000000000E+00 -0.74456213079E+03  0.74456213079E+03  0.00000000000E+00 0. -1.
    9000010    2    1    2  502    0 -0.62424020672E+03  0.20580723359E+03  0.10599365004E+04  0.16038904041E+04  0.10084476141E+04 0.  0.
   -9000010    2    1    2    0  501  0.62424020672E+03 -0.20580723359E+03  0.27689354502E+03  0.12220639029E+04  0.99233950565E+03 0.  0.
        -13    1    3    3    0    0 -0.61458117902E+03  0.56755056049E+03  0.66884265980E+03  0.10710621733E+04  0.10566000000E+00 0.  1.
         13    1    4    4    0    0  0.36207103306E+03  0.26663592327E+03 -0.20859139427E+03  0.49568188335E+03  0.10566000000E+00 0. -1.
          4    1    3    3  502    0 -0.96590276998E+01 -0.36174332689E+03  0.39109384060E+03  0.53282823079E+03  0.00000000000E+00 0.  1.
         -4    1    4    4    0  501  0.26216917366E+03 -0.47244315686E+03  0.48548493929E+03  0.72638201957E+03  0.00000000000E+00 0. -1.
</event>
<event>
 8    1  0.7096247E-006  0.1127834E+04  0.7818608E-02  0.8662981E-01
          2   -1    0    0  502    0  0.00000000000E+00  0.00000000000E+00  0.25478837320E+04  0.25478837320E+04  0.00000000000E+00 0. -1.
         -2   -1    0    0    0  501 -0.00000000000E+00 -0.00000000000E+00 -0.50943118611E+03  0.50943118611E+03  0.00000000000E+00 0.  1.
    9000010    2    1    2  502    0 -0.13545988820E+03 -0.51932491987E+03  0.12166562624E+04  0.16459924948E+04  0.97004694647E+03 0.  0.
   -9000010    2    1    2    0  501  0.13545988820E+03  0.51932491987E+03  0.82179628347E+03  0.14113224233E+04  0.10141173982E+04 0.  0.
        -13    1    3    3    0    0 -0.27631910217E+03 -0.70349597441E+03  0.53506109910E+03  0.92603953650E+03  0.10566000000E+00 0.  1.
         13    1    4    4    0    0 -0.63182739392E+02 -0.12645787938E+03 -0.16380721622E+03  0.21637113732E+03  0.10566000000E+00 0. -1.
          4    1    3    3  502    0  0.14085921397E+03  0.18417105455E+03  0.68159516334E+03  0.71995295831E+03  0.00000000000E+00 0.  1.
         -4    1    4    4    0  501  0.19864262759E+03  0.64578279925E+03  0.98560349969E+03  0.11949512860E+04  0.00000000000E+00 0. -1.
</event>
<event>
 8    1  0.7096247E-006  0.1149877E+04  0.7818608E-02  0.8645293E-01
          1   -1    0    0  502    0  0.00000000000E+00  0.00000000000E+00  0.36138782527E+04  0.36138782527E+04  0.00000000000E+00 0.  1.
         -1   -1    0    0    0  501 -0.00000000000E+00 -0.00000000000E+00 -0.37146263147E+03  0.37146263147E+03  0.00000000000E+00 0. -1.
    9000010    2    1    2  502    0 -0.50990279173E+03  0.31700074183E+03  0.19348821971E+04  0.23026120384E+04  0.10944234807E+04 0.  0.
   -9000010    2    1    2    0  501  0.50990279173E+03 -0.31700074183E+03  0.13075334241E+04  0.16827288458E+04  0.87260666172E+03 0.  0.
        -13    1    3    3    0    0 -0.75565745981E+03 -0.98614486990E+02  0.11005119715E+04  0.13386073450E+04  0.10566000000E+00 0.  1.
         13    1    4    4    0    0  0.65517466975E+03 -0.37857123222E+03  0.13230886423E+04  0.15241829261E+04  0.10566000000E+00 0. -1.
          4    1    3    3  502    0  0.24575466808E+03  0.41561522882E+03  0.83437022566E+03  0.96400469334E+03  0.00000000000E+00 0.  1.
         -4    1    4    4    0  501 -0.14527187802E+03  0.61570490395E+02 -0.15555218227E+02  0.15854591967E+03  0.00000000000E+00 0. -1.
</event>
<event>
 8    1  0.7096247E-006  0.1521992E+04  0.7818608E-02  0.8396954E-01
          2   -1    0    0  502    0  0.00000000000E+00  0.00000000000E+00  0.16472705027E+04  0.16472705027E+04  0.00000000000E+00 0.  1.
         -2   -1    0    0    0  501 -0.00000000000E+00 -0.00000000000E+00 -0.14439778752E+04  0.14439778752E+04  0.00000000000E+00 0. -1.
    9000010    2    1    2  502    0 -0.11220227833E+04  0.19739984812E+03  0.35152413393E+03  0.15622358626E+04  0.10095097064E+04 0.  0.
   -9000010    2    1    2    0  501  0.11220227833E+04 -0.19739984812E+03 -0.14823150639E+03  0.15290125153E+04  0.10089622720E+04 0.  0.
        -13    1    3    3    0    0 -0.18960825500E+03 -0.24410306002E+03  0.42777910277E+03  0.52776184610E+03  0.10566000000E+00 0.  1.
         13    1    4    4    0    0  0.21561715668E+03  0.61738567719E+00  0.39779832639E+03  0.45247614199E+03  0.10566000000E+00 0. -1.
          4    1    3    3  502    0 -0.93241452828E+03  0.44150290814E+03 -0.76254968836E+02  0.10344740165E+04  0.00000000000E+00 0.  1.
         -4    1    4    4    0  501  0.90640562660E+03 -0.19801723380E+03 -0.54602983278E+03  0.10765363733E+04  0.00000000000E+00 0. -1.
</event>
<event>
 8    1  0.7096247E-006  0.1230422E+04  0.7818608E-02  0.8583999E-01
         -2   -1    0    0    0  501 -0.00000000000E+00  0.00000000000E+00  0.18317713079E+04  0.18317713079E+04  0.00000000000E+00 0.  1.
          2   -1    0    0  502    0  0.00000000000E+00 -0.00000000000E+00 -0.89496204804E+03  0.89496204804E+03  0.00000000000E+00 0. -1.
    9000010    2    1    2  502    0  0.65553211009E+03 -0.31201509127E+03  0.84738357219E+03  0.14984870239E+04  0.10001643255E+04 0.  0.
   -9000010    2    1    2    0  501 -0.65553211009E+03  0.31201509127E+03  0.89425687682E+02  0.12282463320E+04  0.98666931337E+03 0.  0.
        -13    1    3    3    0    0  0.74340650758E+03 -0.36533606523E+02  0.17216129468E+03  0.76395514428E+03  0.10566000000E+00 0.  1.
         13    1    4    4    0    0  0.13232453388E+03  0.33147855092E+03  0.23429492069E+03  0.42694488288E+03  0.10566000000E+00 0. -1.
          4    1    3    3  502    0 -0.87874397493E+02 -0.27548148475E+03  0.67522227751E+03  0.73453187965E+03  0.00000000000E+00 0.  1.
         -4    1    4    4    0  501 -0.78785664397E+03 -0.19463459650E+02 -0.14486923301E+03  0.80130144913E+03  0.00000000000E+00 0. -1.
</event>
<event>
 8    1  0.7096247E-006  0.1398646E+04  0.7818608E-02  0.8470327E-01
          2   -1    0    0  502    0  0.00000000000E+00  0.00000000000E+00  0.34030840752E+04  0.34030840752E+04  0.00000000000E+00 0. -1.
         -2   -1    0    0    0  501 -0.00000000000E+00 -0.00000000000E+00 -0.75140180942E+03  0.75140180942E+03  0.00000000000E+00 0.  1.
    9000010    2    1    2  502    0 -0.69743956447E+03  0.70096351515E+03  0.23350648657E+04  0.27235250276E+04  0.99362410064E+03 0.  0.
   -9000010    2    1    2    0  501  0.69743956447E+03 -0.70096351515E+03  0.31661740010E+03  0.14309608570E+04  0.98469822820E+03 0.  0.
        -13    1    3    3    0    0  0.16184087658E+03  0.38324305763E+03  0.11677089385E+04  0.12396015032E+04  0.10566000000E+00 0.  1.
         13    1    4    4    0    0  0.52493730300E+03  0.43854844929E+02  0.40065735297E+03  0.66182229122E+03  0.10566000000E+00 0. -1.
          4    1    3    3  502    0 -0.85928044105E+03  0.31772045752E+03  0.11673559272E+04  0.14839235244E+04  0.00000000000E+00 0.  1.
         -4    1    4    4    0  501  0.17250226147E+03 -0.74481836008E+03 -0.84039952867E+02  0.76913856580E+03  0.00000000000E+00 0. -1.
</event>
<event>
 8    1  0.7096247E-006  0.1295035E+04  0.7818608E-02  0.8538241E-01
         -1   -1    0    0    0  501 -0.00000000000E+00  0.00000000000E+00  0.11525803373E+04  0.11525803373E+04  0.00000000000E+00 0. -1.
          1   -1    0    0  502    0  0.00000000000E+00 -0.00000000000E+00 -0.15129711720E+04  0.15129711720E+04  0.00000000000E+00 0.  1.
    9000010    2    1    2  502    0  0.67861364588E+03 -0.47565357985E+03 -0.44042331481E+03  0.13649113107E+04  0.99108394264E+03 0.  0.
   -9000010    2    1    2    0  501 -0.67861364588E+03  0.47565357985E+03  0.80032480049E+02  0.13006401986E+04  0.99924817737E+03 0.  0.
        -13    1    3    3    0    0 -0.22188425359E+03  0.29509280390E+02 -0.21015447493E+03  0.30703148718E+03  0.10566000000E+00 0.  1.
         13    1    4    4    0    0 -0.22154709828E+03  0.70503664425E+03 -0.12527824692E+03  0.74956950099E+03  0.10566000000E+00 0. -1.
          4    1    3    3  502    0  0.90049789947E+03 -0.50516286024E+03 -0.23026883988E+03  0.10578798235E+04  0.00000000000E+00 0.  1.
         -4    1    4    4    0  501 -0.45706654760E+03 -0.22938306441E+03  0.20531072696E+03  0.55107069763E+03  0.00000000000E+00 0. -1.
</event>
<event>
 8    1  0.7096247E-006  0.1089719E+04  0.7818608E-02  0.8694581E-01
         -1   -1    0    0    0  501 -0.00000000000E+00  0.00000000000E+00  0.10956395166E+04  0.10956395166E+04  0.00000000000E+00 0. -1.
          1   -1    0    0  502    0  0.00000000000E+00 -0.00000000000E+00 -0.11453622023E+04  0.11453622023E+04  0.00000000000E+00 0.  1.
    9000010    2    1    2  502    0  0.28604592676E+03 -0.31504738343E+03  0.23486031290E+03  0.11049801276E+04  0.99234297991E+03 0.  0.
   -9000010    2    1    2    0  501 -0.28604592676E+03  0.31504738343E+03 -0.28458299855E+03  0.11360215913E+04  0.10141402501E+04 0.  0.
        -13    1    3    3    0    0  0.29669133463E+03  0.23611911832E+03 -0.17541979964E+03  0.41779193787E+03  0.10566000000E+00 0.  1.
         13    1    4    4    0    0 -0.33425700717E+03 -0.29915705682E+03 -0.26205817396E+03  0.51951630310E+03  0.10566000000E+00 0. -1.
          4    1    3    3  502    0 -0.10645407869E+02 -0.55116650175E+03  0.41028011254E+03  0.68718818973E+03  0.00000000000E+00 0.  1.
         -4    1    4    4    0  501  0.48211080408E+02  0.61420444025E+03 -0.22524824595E+02  0.61650528823E+03  0.00000000000E+00 0. -1.
</event>
<event>
 8    1  0.7096247E-006  0.1417876E+04  0.7818608E-02  0.8458387E-01
          1   -1    0    0  502    0  0.00000000000E+00  0.00000000000E+00  0.99487585559E+03  0.99487585559E+03  0.00000000000E+00 0.  1.
         -1   -1    0    0    0  501 -0.00000000000E+00 -0.00000000000E+00 -0.20238364198E+04  0.20238364198E+04  0.00000000000E+00 0. -1.
    9000010    2    1    2  502    0  0.94204997659E+03 -0.33705873120E+03 -0.57501778113E+03  0.15340219575E+04  0.10106983580E+04 0.  0.
   -9000010    2    1    2    0  501 -0.94204997659E+03  0.33705873120E+03 -0.45394278305E+03  0.14846903178E+04  0.99858627215E+03 0.  0.
        -13    1    3    3    0    0  0.85570305825E+02 -0.91639619447E+02  0.27524976349E+03  0.30246080830E+03  0.10566000000E+00 0.  1.
         13    1    4    4    0    0 -0.90596989357E+03 -0.10567754247E+03 -0.10167846148E+03  0.91776233946E+03  0.10566000000E+00 0. -1.
          4    1    3    3  502    0  0.85647967076E+03 -0.24541911175E+03 -0.85026754461E+03  0.12315611492E+04  0.00000000000E+00 0.  1.
         -4    1    4    4    0  501 -0.36080083021E+02  0.44273627368E+03 -0.35226432157E+03  0.56692797838E+03  0.00000000000E+00 0. -1.
</event>
<event>
 8    1  0.7096247E-006  0.1204976E+04  0.7818608E-02  0.8602824E-01
         -1   -1    0    0    0  501 -0.00000000000E+00  0.00000000000E+00  0.76956225104E+03  0.76956225104E+03  0.00000000000E+00 0. -1.
          1   -1    0    0  502    0  0.00000000000E+00 -0.00000000000E+00 -0.19034912061E+04  0.19034912061E+04  0.00000000000E+00 0.  1.
    9000010    2    1    2  502    0 -0.50792187985E+03  0.39954327634E+03 -0.43620261216E+03  0.12688715250E+04  0.10010708078E+04 0.  0.
   -9000010    2    1    2    0  501  0.50792187985E+03 -0.39954327634E+03 -0.69772634286E+03  0.14041819321E+04  0.10330950505E+04 0.  0.
        -13    1    3    3    0    0 -0.76452242983E+03  0.32356029814E+03 -0.53042133074E+03  0.98515613560E+03  0.10566000000E+00 0.  1.
         13    1    4    4    0    0  0.13009699320E+03 -0.23342641120E+03 -0.90407460001E+03  0.94274281256E+03  0.10566000000E+00 0. -1.
          4    1    3    3  502    0  0.25660054998E+03  0.75982978199E+02  0.94218718575E+02  0.28371538935E+03  0.00000000000E+00 0.  1.
         -4    1    4    4    0  501  0.37782488666E+03 -0.16611686514E+03  0.20634825715E+03  0.46143911959E+03  0.00000000000E+00 0. -1.
</event>
<event>
 8    1  0.7096247E-006  0.2143435E+04  0.7818608E-02  0.8112368E-01
         -2   -1    0    0    0  501 -0.00000000000E+00  0.00000000000E+00  0.43998223181E+04  0.43998223181E+04  0.00000000000E+00 0. -1.
          2   -1    0    0  502    0  0.00000000000E+00 -0.00000000000E+00 -0.10449558054E+04  0.10449558054E+04  0.00000000000E+00 0.  1.
    9000010    2    1    2  502    0  0.14008343419E+04  0.12852491984E+04  0.16032006932E+04  0.26753698161E+04  0.98648306367E+03 0.  0.
   -9000010    2    1    2    0  501 -0.14008343419E+04 -0.12852491984E+04  0.17516658195E+04  0.27694083074E+04  0.99352245787E+03 0.  0.
        -13    1    3    3    0    0  0.12516160603E+03  0.71098725685E+02  0.66409933347E+03  0.67952070777E+03  0.10566000000E+00 0.  1.
         13    1    4    4    0    0 -0.85579851339E+03 -0.18338932514E+03  0.46973126016E+03  0.99331274432E+03  0.10566000000E+00 0. -1.
          4    1    3    3  502    0  0.12756727359E+04  0.12141504727E+04  0.93910135971E+03  0.19958491083E+04  0.00000000000E+00 0.  1.
         -4    1    4    4    0  501 -0.54503582853E+03 -0.11018598733E+04  0.12819345594E+04  0.17760955631E+04  0.00000000000E+00 0. -1.
</event>
<event>
 8    1  0.7096247E-006  0.1166602E+04  0.7818608E-02  0.8632145E-01
          1   -1    0    0  502    0  0.00000000000E+00  0.00000000000E+00  0.10510618063E+04  0.10510618063E+04  0.00000000000E+00 0.  1.
         -1   -1    0    0    0  501 -0.00000000000E+00 -0.00000000000E+00 -0.13438645804E+04  0.13438645804E+04  0.00000000000E+00 0. -1.
    9000010    2    1    2  502    0 -0.31998169226E+02  0.71963807289E+03  0.66137075746E+02  0.12311755582E+04  0.99625112476E+03 0.  0.
   -9000010    2    1    2    0  501  0.31998169226E+02 -0.71963807289E+03 -0.35893984987E+03  0.11637508285E+04  0.84058035675E+03 0.  0.
        -13    1    3    3    0    0 -0.12717806115E+03  0.95595354742E+03  0.11680099788E+03  0.97142366058E+03  0.10566000000E+00 0.  1.
         13    1    4    4    0    0  0.27741108580E+03  0.12976721380E+02  0.61058334008E+02  0.28434738814E+03  0.10566000000E+00 0. -1.
          4    1    3    3  502    0  0.95179891922E+02 -0.23631547452E+03 -0.50663922136E+02  0.25975189765E+03  0.00000000000E+00 0.  1.
         -4    1    4    4    0  501 -0.24541291658E+03 -0.73261479427E+03 -0.41999818387E+03  0.87940344033E+03  0.00000000000E+00 0. -1.
</event>
<event>
 8    1  0.7096247E-006  0.1093797E+04  0.7818608E-02  0.8691137E-01
         -2   -1    0    0    0  501 -0.00000000000E+00  0.00000000000E+00  0.49635144526E+03  0.49635144526E+03  0.00000000000E+00 0. -1.
          2   -1    0    0  502    0  0.00000000000E+00 -0.00000000000E+00 -0.29058534467E+04  0.29058534467E+04  0.00000000000E+00 0.  1.
    9000010    2    1    2  502    0  0.34205497666E+03  0.31031839722E+02 -0.19370590239E+04  0.22421929592E+04  0.10757634602E+04 0.  0.
   -9000010    2    1    2    0  501 -0.34205497666E+03 -0.31031839722E+02 -0.47244297755E+03  0.11600119327E+04  0.10022278857E+04 0.  0.
        -13    1    3    3    0    0  0.61536006994E+03 -0.21710562575E+03 -0.72614867864E+03  0.97626573384E+03  0.10566000000E+00 0.  1.
         13    1    4    4    0    0 -0.48995883587E+03  0.13333129205E+02  0.15482934086E+03  0.51401319938E+03  0.10566000000E+00 0. -1.
          4    1    3    3  502    0 -0.27330509328E+03  0.24813746548E+03 -0.12109103453E+04  0.12659272254E+04  0.00000000000E+00 0.  1.
         -4    1    4    4    0  501  0.14790385921E+03 -0.44364968927E+02 -0.62727231841E+03  0.64599873334E+03  0.00000000000E+00 0. -1.
</event>
<event>
 8    1  0.7096247E-006  0.1148877E+04  0.7818608E-02  0.8646087E-01
          2   -1    0    0  502    0  0.00000000000E+00  0.00000000000E+00  0.13095021294E+04  0.13095021294E+04  0.00000000000E+00 0. -1.
         -2   -1    0    0    0  501 -0.00000000000E+00 -0.00000000000E+00 -0.10411335421E+04  0.10411335421E+04  0.00000000000E+00 0.  1.
    9000010    2    1    2  502    0  0.58119608412E+03 -0.39934843797E+01 -0.75607335242E+02  0.11515729600E+04  0.99126130611E+03 0.  0.
   -9000010    2    1    2    0  501 -0.58119608412E+03  0.39934843797E+01  0.34397592262E+03  0.11990627115E+04  0.99077096980E+03 0.  0.
        -13    1    3    3    0    0  0.39291618932E+03  0.44343857043E+03  0.15753492383E+03  0.61305640928E+03  0.10566000000E+00 0.  1.
         13    1    4    4    0    0 -0.59016874557E+03 -0.19347629352E+03 -0.17371973634E+03  0.64491145311E+03  0.10566000000E+00 0. -1.
          4    1    3    3  502    0  0.18827989480E+03 -0.44743205481E+03 -0.23314225907E+03  0.53851655074E+03  0.00000000000E+00 0.  1.
         -4    1    4    4    0  501  0.89726614510E+01  0.19746977790E+03  0.51769565897E+03  0.55415125837E+03  0.00000000000E+00 0. -1.
</event>
<event>
 8    1  0.7096247E-006  0.1878351E+04  0.7818608E-02  0.8219803E-01
         -2   -1    0    0    0  501 -0.00000000000E+00  0.00000000000E+00  0.19164828159E+04  0.19164828159E+04  0.00000000000E+00 0.  1.
          2   -1    0    0  502    0  0.00000000000E+00 -0.00000000000E+00 -0.20551634195E+04  0.20551634195E+04  0.00000000000E+00 0. -1.
    9000010    2    1    2  502    0  0.57637705909E+03 -0.14747439204E+04 -0.71019169165E+03  0.20025057425E+04  0.99928817919E+03 0.  0.
   -9000010    2    1    2    0  501 -0.57637705909E+03  0.14747439204E+04  0.57151108807E+03  0.19691404928E+04  0.10216698154E+04 0.  0.
        -13    1    3    3    0    0  0.40568175348E+02  0.15289488183E+03 -0.74212698583E+02  0.17472881141E+03  0.10566000000E+00 0.  1.
         13    1    4    4    0    0 -0.83667312087E+03  0.83103563793E+03  0.46049470310E+03  0.12659769056E+04  0.10566000000E+00 0. -1.
          4    1    3    3  502    0  0.53580888375E+03 -0.16276388022E+04 -0.63597899307E+03  0.18277769311E+04  0.00000000000E+00 0.  1.
         -4    1    4    4    0  501  0.26029606177E+03  0.64370828244E+03  0.11101638497E+03  0.70316358721E+03  0.00000000000E+00 0. -1.
</event>
<event>
 8    1  0.7096247E-006  0.1593940E+04  0.7818608E-02  0.8357398E-01
          2   -1    0    0  502    0  0.00000000000E+00  0.00000000000E+00  0.33095169239E+04  0.33095169239E+04  0.00000000000E+00 0. -1.
         -2   -1    0    0    0  501 -0.00000000000E+00 -0.00000000000E+00 -0.77629534867E+03  0.77629534867E+03  0.00000000000E+00 0.  1.
    9000010    2    1    2  502    0  0.12150351413E+04 -0.13043154701E+03  0.14888270405E+04  0.21879368967E+04  0.10378531322E+04 0.  0.
   -9000010    2    1    2    0  501 -0.12150351413E+04  0.13043154701E+03  0.10443945347E+04  0.18978753759E+04  0.10088846391E+04 0.  0.
        -13    1    3    3    0    0  0.79085099271E+03  0.42283422960E+03  0.95338877357E+03  0.13088866426E+04  0.10566000000E+00 0.  1.
         13    1    4    4    0    0 -0.41146715592E+03  0.44290323425E+03  0.89152932178E+02  0.61107835159E+03  0.10566000000E+00 0. -1.
          4    1    3    3  502    0  0.42418414864E+03 -0.55326577661E+03  0.53543826693E+03  0.87905025409E+03  0.00000000000E+00 0.  1.
         -4    1    4    4    0  501 -0.80356798542E+03 -0.31247168724E+03  0.95524160251E+03  0.12867970243E+04  0.00000000000E+00 0. -1.
</event>
<event>
 8    1  0.7096247E-006  0.1533130E+04  0.7818608E-02  0.8390684E-01
         -1   -1    0    0    0  501 -0.00000000000E+00  0.00000000000E+00  0.31267893119E+04  0.31267893119E+04  0.00000000000E+00 0.  1.
          1   -1    0    0  502    0  0.00000000000E+00 -0.00000000000E+00 -0.77680405772E+03  0.77680405772E+03  0.00000000000E+00 0. -1.
    9000010    2    1    2  502    0 -0.11425080617E+04  0.20607893026E+03  0.15269422212E+04  0.21650093343E+04  0.10039520280E+04 0.  0.
   -9000010    2    1    2    0  501  0.11425080617E+04 -0.20607893026E+03  0.82304303296E+03  0.17385840352E+04  0.99873991456E+03 0.  0.
        -13    1    3    3    0    0  0.18693136591E+03  0.65085277903E+02  0.19723390074E+03  0.27942915332E+03  0.10566000000E+00 0.  1.
         13    1    4    4    0    0  0.77218762445E+03 -0.33989216503E+03  0.19678464454E+02  0.84391211884E+03  0.10566000000E+00 0. -1.
          4    1    3    3  502    0 -0.13294394276E+04  0.14099365236E+03  0.13297083204E+04  0.18855801810E+04  0.00000000000E+00 0.  1.
         -4    1    4    4    0  501  0.37032043723E+03  0.13381323478E+03  0.80336456850E+03  0.89467191638E+03  0.00000000000E+00 0. -1.
</event>
<event>
 8    1  0.7096247E-006  0.1782436E+04  0.7818608E-02  0.8263231E-01
         -1   -1    0    0    0  501 -0.00000000000E+00  0.00000000000E+00  0.10575788270E+04  0.10575788270E+04  0.00000000000E+00 0.  1.
          1   -1    0    0  502    0  0.00000000000E+00 -0.00000000000E+00 -0.30100409532E+04  0.30100409532E+04  0.00000000000E+00 0. -1.
    9000010    2    1    2  502    0 -0.65303906231E+03 -0.13037970646E+04 -0.89469584476E+03  0.20065875420E+04  0.10486019772E+04 0.  0.
   -9000010    2    1    2    0  501  0.65303906231E+03  0.13037970646E+04 -0.10577662814E+04  0.20610322382E+04  0.10013179207E+04 0.  0.
        -13    1    3    3    0    0  0.25416507192E+03 -0.53286299126E+03 -0.42181047286E+03  0.72558041416E+03  0.10566000000E+00 0.  1.
         13    1    4    4    0    0  0.83934874786E+03  0.75733972708E+03 -0.94346989566E+03  0.14724826783E+04  0.10566000000E+00 0. -1.
          4    1    3    3  502    0 -0.90720413422E+03 -0.77093407330E+03 -0.47288537190E+03  0.12810071278E+04  0.00000000000E+00 0.  1.
         -4    1    4    4    0  501 -0.18630968555E+03  0.54645733747E+03 -0.11429638576E+03  0.58854955986E+03  0.00000000000E+00 0. -1.
</event>
<event>
 8    1  0.7096247E-006  0.1690513E+04  0.7818608E-02  0.8307571E-01
          2   -1    0    0  502    0  0.00000000000E+00  0.00000000000E+00  0.30238645220E+04  0.30238645220E+04  0.00000000000E+00 0.  1.
         -2   -1    0    0    0  501 -0.00000000000E+00 -0.00000000000E+00 -0.94557969362E+03  0.94557969362E+03  0.00000000000E+00 0. -1.
    9000010    2    1    2  502    0  0.87800979668E+03  0.10334781980E+04  0.10775707108E+04  0.19973902524E+04  0.99470135957E+03 0.  0.
   -9000010    2    1    2    0  501 -0.87800979668E+03 -0.10334781980E+04  0.10007141176E+04  0.19720539632E+04  0.10240066894E+04 0.  0.
        -13    1    3    3    0    0  0.76595491322E+03  0.16669980700E+03  0.67789556163E+03  0.10363484734E+04  0.10566000000E+00 0.  1.
         13    1    4    4    0    0 -0.64944471973E+03 -0.17367148085E+03  0.82668023582E+03  0.10655235571E+04  0.10566000000E+00 0. -1.
          4    1    3    3  502    0  0.11205488346E+03  0.86677839101E+03  0.39967514917E+03  0.96104177896E+03  0.00000000000E+00 0.  1.
         -4    1    4    4    0  501 -0.22856507695E+03 -0.85980671717E+03  0.17403388177E+03  0.90653040616E+03  0.00000000000E+00 0. -1.
</event>
<event>
 8    1  0.7096247E-006  0.1757272E+04  0.7818608E-02  0.8275091E-01
          1   -1    0    0  502    0  0.00000000000E+00  0.00000000000E+00  0.88199422047E+03  0.88199422047E+03  0.00000000000E+00 0.  1.
         -1   -1    0    0    0  501 -0.00000000000E+00 -0.00000000000E+00 -0.35768772885E+04  0.35768772885E+04  0.00000000000E+00 0. -1.
    9000010    2    1    2  502    0 -0.90374732343E+03  0.11310048298E+04 -0.16740467033E+04  0.24292113486E+04  0.10013512178E+04 0.  0.
   -9000010    2    1    2    0  501  0.90374732343E+03 -0.11310048298E+04 -0.10208363647E+04  0.20296601604E+04  0.99069790234E+03 0.  0.
        -13    1    3    3    0    0 -0.44867551131E+03  0.10571385127E+04 -0.15887625800E+04  0.19603617259E+04  0.10566000000E+00 0.  1.
         13    1    4    4    0    0  0.34087203227E+03  0.67470106504E+02  0.16122766110E+02  0.34785904100E+03  0.10566000000E+00 0. -1.
          4    1    3    3  502    0 -0.45507181212E+03  0.73866317061E+02 -0.85284123320E+02  0.46884962266E+03  0.00000000000E+00 0.  1.
         -4    1    4    4    0  501  0.56287529116E+03 -0.11984749363E+04 -0.10369591308E+04  0.16818011194E+04  0.00000000000E+00 0. -1.
</event>
<event>
 8    1  0.7096247E-006  0.1001397E+04  0.7818608E-02  0.8773280E-01
         -2   -1    0    0    0  501 -0.00000000000E+00  0.00000000000E+00  0.14958902913E+04  0.14958902913E+04  0.00000000000E+00 0. -1.
          2   -1    0    0  502    0  0.00000000000E+00 -0.00000000000E+00 -0.68384393902E+03  0.68384393902E+03  0.00000000000E+00 0.  1.
    9000010    2    1    2  502    0  0.18949637104E+03 -0.71373061799E+02  0.26202306112E+03  0.10537516609E+04  0.10003666777E+04 0.  0.
   -9000010    2    1    2    0  501 -0.18949637104E+03  0.71373061799E+02  0.55002329119E+03  0.11259825694E+04  0.96140945345E+03 0.  0.
        -13    1    3    3    0    0  0.41615773226E+02 -0.48698996705E+03  0.35352862462E+03  0.60321936323E+03  0.10566000000E+00 0.  1.
         13    1    4    4    0    0  0.25905913237E+03 -0.23481544739E+03  0.45630406876E+03  0.57485941127E+03  0.10566000000E+00 0. -1.
          4    1    3    3  502    0  0.14788059781E+03  0.41561690525E+03 -0.91505563496E+02  0.45053229772E+03  0.00000000000E+00 0.  1.
         -4    1    4    4    0  501 -0.44855550340E+03  0.30618850919E+03  0.93719222436E+02  0.55112315815E+03  0.00000000000E+00 0. -1.
</event>
<event>
 8    1  0.7096247E-006  0.1816823E+04  0.7818608E-02  0.8247346E-01
         -4   -1    0    0    0  501 -0.00000000000E+00  0.00000000000E+00  0.18934890656E+04  0.18934890656E+04  0.00000000000E+00 0.  1.
          4   -1    0    0  502    0  0.00000000000E+00 -0.00000000000E+00 -0.17541001288E+04  0.17541001288E+04  0.00000000000E+00 0. -1.
    9000010    2    1    2  502    0  0.38796153163E+03 -0.14641671789E+04 -0.73766602664E+02  0.18120387236E+04  0.99183826626E+03 0.  0.
   -9000010    2    1    2    0  501 -0.38796153163E+03  0.14641671789E+04  0.21315553940E+03  0.18355504707E+04  0.10146480024E+04 0.  0.
        -13    1    3    3    0    0  0.14578222342E+03  0.13034957335E+03 -0.35667772699E+02  0.19878548516E+03  0.10566000000E+00 0.  1.
         13    1    4    4    0    0  0.31261356169E+02  0.77092538265E+03  0.56093549926E+03  0.95391397070E+03  0.10566000000E+00 0. -1.
          4    1    3    3  502    0  0.24217930821E+03 -0.15945167523E+04 -0.38098829965E+02  0.16132532385E+04  0.00000000000E+00 0.  1.
         -4    1    4    4    0  501 -0.41922288780E+03  0.69324179626E+03 -0.34777995986E+03  0.88163650005E+03  0.00000000000E+00 0. -1.
</event>
<event>
 8    1  0.7096247E-006  0.1164783E+04  0.7818608E-02  0.8633564E-01
         -1   -1    0    0    0  501 -0.00000000000E+00  0.00000000000E+00  0.16685473705E+04  0.16685473705E+04  0.00000000000E+00 0. -1.
          1   -1    0    0  502    0  0.00000000000E+00 -0.00000000000E+00 -0.81363014523E+03  0.81363014523E+03  0.00000000000E+00 0.  1.
    9000010    2    1    2  502    0  0.33755519561E+03  0.40245070832E+03  0.43472829836E+03  0.12201674164E+04  0.10118842562E+04 0.  0.
   -9000010    2    1    2    0  501 -0.33755519561E+03 -0.40245070832E+03  0.42018892690E+03  0.12620100993E+04  0.10678017952E+04 0.  0.
        -13    1    3    3    0    0  0.34915335657E+03  0.56438525997E+03  0.66428944369E+03  0.93899907573E+03  0.10566000000E+00 0.  1.
         13    1    4    4    0    0  0.29225482946E+03 -0.47033452026E+03  0.15283478270E+03  0.57444401665E+03  0.10566000000E+00 0. -1.
          4    1    3    3  502    0 -0.11598160955E+02 -0.16193455165E+03 -0.22956114533E+03  0.28116834068E+03  0.00000000000E+00 0.  1.
         -4    1    4    4    0  501 -0.62981002508E+03  0.67883811938E+02  0.26735414420E+03  0.68756608266E+03  0.00000000000E+00 0. -1.
</event>
<event>
 8    1  0.7096247E-006  0.1172056E+04  0.7818608E-02  0.8627907E-01
          2   -1    0    0  502    0  0.00000000000E+00  0.00000000000E+00  0.36903924282E+04  0.36903924282E+04  0.00000000000E+00 0. -1.
         -2   -1    0    0    0  501 -0.00000000000E+00 -0.00000000000E+00 -0.42671231426E+03  0.42671231426E+03  0.00000000000E+00 0.  1.
    9000010    2    1    2  502    0  0.35835565591E+03  0.47099701120E+03  0.23648592521E+04  0.26384697800E+04  0.10093099310E+04 0.  0.
   -9000010    2    1    2    0  501 -0.35835565591E+03 -0.47099701120E+03  0.89882086178E+03  0.14786349624E+04  0.10140145215E+04 0.  0.
        -13    1    3    3    0    0 -0.24450626400E+03 -0.15004120231E+03  0.80476045590E+03  0.85436238100E+03  0.10566000000E+00 0.  1.
         13    1    4    4    0    0 -0.28905670387E+03  0.75639520351E+02  0.87776057250E+03  0.92722098169E+03  0.10566000000E+00 0. -1.
          4    1    3    3  502    0  0.60286191991E+03  0.62103821352E+03  0.15600987962E+04  0.17841073990E+04  0.00000000000E+00 0.  1.
         -4    1    4    4    0  501 -0.69298952048E+02 -0.54663653156E+03  0.21060289278E+02  0.55141398075E+03  0.00000000000E+00 0. -1.
</event>
<event>
 8    1  0.7096247E-006  0.1410384E+04  0.7818608E-02  0.8463016E-01
         -2   -1    0    0    0  501 -0.00000000000E+00  0.00000000000E+00  0.21130144292E+04  0.21130144292E+04  0.00000000000E+00 0. -1.
          2   -1    0    0  502    0  0.00000000000E+00 -0.00000000000E+00 -0.95546903867E+03  0.95546903867E+03  0.00000000000E+00 0.  1.
    9000010    2    1    2  502    0  0.14526437028E+02 -0.10091581758E+04  0.39017624816E+03  0.14573612823E+04  0.97624441674E+03 0.  0.
   -9000010    2    1    2    0  501 -0.14526437028E+02  0.10091581758E+04  0.76736914240E+03  0.16111221856E+04  0.99410666186E+03 0.  0.
        -13    1    3    3    0    0  0.90501232399E+02 -0.11944895100E+04  0.38025120204E+03  0.12568160766E+04  0.10566000000E+00 0.  1.
         13    1    4    4    0    0 -0.35717243095E+03  0.99480291208E+03  0.68134340272E+03  0.12575507238E+04  0.10566000000E+00 0. -1.
          4    1    3    3  502    0 -0.75974795372E+02  0.18533133420E+03  0.99250461185E+01  0.20054520565E+03  0.00000000000E+00 0.  1.
         -4    1    4    4    0  501  0.34264599392E+03  0.14355263744E+02  0.86025739683E+02  0.35357146185E+03  0.00000000000E+00 0. -1.
</event>
<event>
 8    1  0.7096247E-006  0.1515134E+04  0.7818608E-02  0.8400842E-01
          1   -1    0    0  502    0  0.00000000000E+00  0.00000000000E+00  0.81696409143E+03  0.81696409143E+03  0.00000000000E+00 0.  1.
         -1   -1    0    0    0  501 -0.00000000000E+00 -0.00000000000E+00 -0.28151005026E+04  0.28151005026E+04  0.00000000000E+00 0. -1.
    9000010    2    1    2  502    0  0.11005706564E+04  0.11402700383E+03 -0.92113621814E+03  0.17727936171E+04  0.10344309301E+04 0.  0.
   -9000010    2    1    2    0  501 -0.11005706564E+04 -0.11402700383E+03 -0.10770001931E+04  0.18592709770E+04  0.10357129055E+04 0.  0.
        -13    1    3    3    0    0  0.38882147478E+03 -0.92094008651E+02 -0.95064927485E+03  0.10312116663E+04  0.10566000000E+00 0.  1.
         13    1    4    4    0    0 -0.11843707812E+04 -0.14235895323E+02 -0.11956708171E+04  0.16830227337E+04  0.10566000000E+00 0. -1.
          4    1    3    3  502    0  0.71174918160E+03  0.20612101249E+03  0.29513056710E+02  0.74158195085E+03  0.00000000000E+00 0.  1.
         -4    1    4    4    0  501  0.83800124770E+02 -0.99791108512E+02  0.11867062407E+03  0.17624824330E+03  0.00000000000E+00 0. -1.
</event>
<event>
 8    1  0.7096247E-006  0.1030003E+04  0.7818608E-02  0.8746901E-01
         -2   -1    0    0    0  501 -0.00000000000E+00  0.00000000000E+00  0.14685325787E+04  0.14685325787E+04  0.00000000000E+00 0.  1.
          2   -1    0    0  502    0  0.00000000000E+00 -0.00000000000E+00 -0.11747102628E+04  0.11747102628E+04  0.00000000000E+00 0. -1.
    9000010    2    1    2  502    0  0.26293273578E+03  0.82673440611E+02  0.96760491027E+03  0.14189094545E+04  0.10005379834E+04 0.  0.
   -9000010    2    1    2    0  501 -0.26293273578E+03 -0.82673440611E+02 -0.67378259439E+03  0.12243333870E+04  0.98439866759E+03 0.  0.
        -13    1    3    3    0    0  0.48600419003E+03  0.19687806933E+03  0.12394681997E+03  0.53881710464E+03  0.10566000000E+00 0.  1.
         13    1    4    4    0    0 -0.43520155690E+03 -0.20205198184E+03 -0.83287603556E+03  0.96120127979E+03  0.10566000000E+00 0. -1.
          4    1    3    3  502    0 -0.22307145425E+03 -0.11420462872E+03  0.84365809030E+03  0.88009234984E+03  0.00000000000E+00 0.  1.
         -4    1    4    4    0  501  0.17226882112E+03  0.11937854122E+03  0.15909344117E+03  0.26313210724E+03  0.00000000000E+00 0. -1.
</event>
<event>
 8    1  0.7096247E-006  0.1246427E+04  0.7818608E-02  0.8572399E-01
          2   -1    0    0  502    0  0.00000000000E+00  0.00000000000E+00  0.17759654236E+04  0.17759654236E+04  0.00000000000E+00 0. -1.
         -2   -1    0    0    0  501 -0.00000000000E+00 -0.00000000000E+00 -0.89773733099E+03  0.89773733099E+03  0.00000000000E+00 0.  1.
    9000010    2    1    2  502    0 -0.72725693877E+03 -0.16954507544E+03  0.22312965665E+03  0.12595845071E+04  0.98950396622E+03 0.  0.
   -9000010    2    1    2    0  501  0.72725693877E+03  0.16954507544E+03  0.65509843592E+03  0.14141182475E+04  0.10064433762E+04 0.  0.
        -13    1    3    3    0    0 -0.14814499463E+03  0.36874320443E+03  0.24821290612E+03  0.46853831025E+03  0.10566000000E+00 0.  1.
         13    1    4    4    0    0 -0.21311777637E+03 -0.16298476476E+02 -0.55573512132E+02  0.22084667386E+03  0.10566000000E+00 0. -1.
          4    1    3    3  502    0 -0.57911194414E+03 -0.53828827987E+03 -0.25083249475E+02  0.79104619682E+03  0.00000000000E+00 0.  1.
         -4    1    4    4    0  501  0.94037471514E+03  0.18584355192E+03  0.71067194805E+03  0.11932715736E+04  0.00000000000E+00 0. -1.
</event>
<event>
 8    1  0.7096247E-006  0.1694792E+04  0.7818608E-02  0.8305443E-01
          2   -1    0    0  502    0  0.00000000000E+00  0.00000000000E+00  0.10308399816E+04  0.10308399816E+04  0.00000000000E+00 0.  1.
         -2   -1    0    0    0  501 -0.00000000000E+00 -0.00000000000E+00 -0.32176181476E+04  0.32176181476E+04  0.00000000000E+00 0. -1.
    9000010    2    1    2  502    0  0.81158034501E+03  0.11117414638E+04 -0.32090705421E+03  0.17338877671E+04  0.10043673195E+04 0.  0.
   -9000010    2    1    2    0  501 -0.81158034501E+03 -0.11117414638E+04 -0.18658711118E+04  0.25145703621E+04  0.97311734208E+03 0.  0.
        -13    1    3    3    0    0 -0.16458083214E+03  0.58813361813E+02 -0.23854422467E+03  0.29571814304E+03  0.10566000000E+00 0.  1.
         13    1    4    4    0    0  0.21487595604E+03 -0.33660080633E+03 -0.45408672935E+03  0.60470368632E+03  0.10566000000E+00 0. -1.
          4    1    3    3  502    0  0.97616117714E+03  0.10529281020E+04 -0.82362829532E+02  0.14381696240E+04  0.00000000000E+00 0.  1.
         -4    1    4    4    0  501 -0.10264563010E+04 -0.77514065749E+03 -0.14117843825E+04  0.19098666758E+04  0.00000000000E+00 0. -1.
</event>
<event>
 8    1  0.7096247E-006  0.1078166E+04  0.7818608E-02  0.8704427E-01
          2   -1    0    0  502    0  0.00000000000E+00  0.00000000000E+00  0.80974065129E+03  0.80974065129E+03  0.00000000000E+00 0. -1.
         -2   -1    0    0    0  501 -0.00000000000E+00 -0.00000000000E+00 -0.14394721831E+04  0.14394721831E+04  0.00000000000E+00 0.  1.
    9000010    2    1    2  502    0 -0.30766301373E+03 -0.24498879143E+03 -0.25535665307E+03  0.11042315222E+04  0.99972205963E+03 0.  0.
   -9000010    2    1    2    0  501  0.30766301373E+03  0.24498879143E+03 -0.37437487872E+03  0.11449813121E+04  0.10080424681E+04 0.  0.
        -13    1    3    3    0    0 -0.66247109290E+03 -0.23986508236E+03 -0.25529752434E+03  0.74938644487E+03  0.10566000000E+00 0.  1.
         13    1    4    4    0    0  0.30906378388E+03  0.37282605673E+03 -0.66780271588E+03  0.82491221932E+03  0.10566000000E+00 0. -1.
          4    1    3    3  502    0  0.35480807917E+03 -0.51237090625E+01 -0.59128732013E-01  0.35484507737E+03  0.00000000000E+00 0.  1.
         -4    1    4    4    0  501 -0.14007701519E+01 -0.12783726530E+03  0.29342783716E+03  0.32006909282E+03  0.00000000000E+00 0. -1.
</event>
<event>
 8    1  0.7096247E-006  0.1302890E+04  0.7818608E-02  0.8532866E-01
         -1   -1    0    0    0  501 -0.00000000000E+00  0.00000000000E+00  0.43021356438E+04  0.43021356438E+04  0.00000000000E+00 0.  1.
          1   -1    0    0  502    0  0.00000000000E+00 -0.00000000000E+00 -0.40355209986E+03  0.40355209986E+03  0.00000000000E+00 0. -1.
    9000010    2    1    2  502    0  0.47543959409E+03  0.73853171479E+03  0.23054091637E+04  0.26498834222E+04  0.96721188891E+03 0.  0.
   -9000010    2    1    2    0  501 -0.47543959409E+03 -0.73853171479E+03  0.15931743803E+04  0.20558043214E+04  0.95742096319E+03 0.  0.
        -13    1    3    3    0    0  0.19735072735E+03  0.85013738502E+03  0.21319056830E+04  0.23036281678E+04  0.10566000000E+00 0.  1.
         13    1    4    4    0    0 -0.60078716745E+03 -0.15701067772E+03  0.44921055572E+03  0.76641223113E+03  0.10566000000E+00 0. -1.
          4    1    3    3  502    0  0.27808886674E+03 -0.11160567023E+03  0.17350348069E+03  0.34625525446E+03  0.00000000000E+00 0.  1.
         -4    1    4    4    0  501  0.12534757336E+03 -0.58152103707E+03  0.11439638245E+04  0.12893920903E+04  0.00000000000E+00 0. -1.
</event>
<event>
 8    1  0.7096247E-006  0.1047118E+04  0.7818608E-02  0.8731537E-01
          4   -1    0    0  502    0  0.00000000000E+00  0.00000000000E+00  0.26418860623E+04  0.26418860623E+04  0.00000000000E+00 0.  1.
         -4   -1    0    0    0  501 -0.00000000000E+00 -0.00000000000E+00 -0.43163488584E+03  0.43163488584E+03  0.00000000000E+00 0. -1.
    9000010    2    1    2  502    0  0.29657693636E+03 -0.11708341654E+03  0.79292770950E+03  0.13047322922E+04  0.98586286880E+03 0.  0.
   -9000010    2    1    2    0  501 -0.29657693636E+03  0.11708341654E+03  0.14173234669E+04  0.17687886559E+04  0.10090297785E+04 0.  0.
        -13    1    3    3    0    0 -0.13775782331E+03 -0.88372501268E+02 -0.17732589910E+03  0.24131183668E+03  0.10566000000E+00 0.  1.
         13    1    4    4    0    0  0.36782212229E+03  0.61953644006E+02  0.35715206458E+03  0.51641938001E+03  0.10566000000E+00 0. -1.
          4    1    3    3  502    0  0.43433475967E+03 -0.28710915268E+02  0.97025360861E+03  0.10634204555E+04  0.00000000000E+00 0.  1.
         -4    1    4    4    0  501 -0.66439905865E+03  0.55129772531E+02  0.10601714023E+04  0.12523692759E+04  0.00000000000E+00 0. -1.
</event>
<event>
 8    1  0.7096247E-006  0.1280352E+04  0.7818608E-02  0.8548393E-01
         -2   -1    0    0    0  501 -0.00000000000E+00  0.00000000000E+00  0.50109067606E+03  0.50109067606E+03  0.00000000000E+00 0.  1.
          2   -1    0    0  502    0  0.00000000000E+00 -0.00000000000E+00 -0.33480238259E+04  0.33480238259E+04  0.00000000000E+00 0. -1.
    9000010    2    1    2  502    0  0.62973722626E+03 -0.21672458971E+03 -0.12411642943E+04  0.18414291105E+04  0.11861002663E+04 0.  0.
   -9000010    2    1    2    0  501 -0.62973722626E+03  0.21672458971E+03 -0.16057688556E+04  0.20076853914E+04  0.10043746769E+04 0.  0.
        -13    1    3    3    0    0  0.92889045857E+03 -0.85394557426E+02 -0.56527370973E+03  0.10907172377E+04  0.10566000000E+00 0.  1.
         13    1    4    4    0    0 -0.68225341832E+03  0.54087626740E+03 -0.10722642227E+04  0.13812195473E+04  0.10566000000E+00 0. -1.
          4    1    3    3  502    0 -0.29915323231E+03 -0.13133003228E+03 -0.67589058456E+03  0.75071187287E+03  0.00000000000E+00 0.  1.
         -4    1    4    4    0  501  0.52516192061E+02 -0.32415167769E+03 -0.53350463284E+03  0.62646584411E+03  0.00000000000E+00 0. -1.
</event>
<event>
 8    1  0.7096247E-006  0.1394884E+04  0.7818608E-02  0.8472686E-01
          2   -1    0    0  502    0  0.00000000000E+00  0.00000000000E+00  0.24861009158E+04  0.24861009158E+04  0.00000000000E+00 0.  1.
         -2   -1    0    0    0  501 -0.00000000000E+00 -0.00000000000E+00 -0.78982843436E+03  0.78982843436E+03  0.00000000000E+00 0. -1.
    9000010    2    1    2  502    0  0.36718931474E+03  0.86165797441E+03  0.70595309380E+03  0.15817541782E+04  0.10612700184E+04 0.  0.
   -9000010    2    1    2    0  501 -0.36718931474E+03 -0.86165797441E+03  0.99031938766E+03  0.16941751720E+04  0.10060887466E+04 0.  0.
        -13    1    3    3    0    0  0.40904084750E+03  0.92133202325E+03  0.14776049370E+03  0.10188229908E+04  0.10566000000E+00 0.  1.
         13    1    4    4    0    0  0.28778224517E+03 -0.38828638857E+03  0.66717212420E+03  0.82383468891E+03  0.10566000000E+00 0. -1.
          4    1    3    3  502    0 -0.41851532760E+02 -0.59674048845E+02  0.55819260010E+03  0.56293118736E+03  0.00000000000E+00 0.  1.
         -4    1    4    4    0  501 -0.65497155991E+03 -0.47337158584E+03  0.32314726345E+03  0.87034048306E+03  0.00000000000E+00 0. -1.
</event>
<event>
 8    1  0.7096247E-006  0.1416133E+04  0.7818608E-02  0.8459462E-01
          2   -1    0    0  502    0  0.00000000000E+00  0.00000000000E+00  0.17678651697E+04  0.17678651697E+04  0.00000000000E+00 0. -1.
         -2   -1    0    0    0  501 -0.00000000000E+00 -0.00000000000E+00 -0.11407570230E+04  0.11407570230E+04  0.00000000000E+00 0.  1.
    9000010    2    1    2  502    0 -0.67816517944E+03 -0.75674672124E+03  0.42125878353E+03  0.14733951945E+04  0.98023508698E+03 0.  0.
   -9000010    2    1    2    0  501  0.67816517944E+03  0.75674672124E+03  0.20584936322E+03  0.14352269982E+04  0.99243587469E+03 0.  0.
        -13    1    3    3    0    0 -0.46252806768E+03 -0.97991027339E+03  0.42257593526E+03  0.11630678353E+04  0.10566000000E+00 0.  1.
         13    1    4    4    0    0 -0.24801836332E+03  0.53460682864E+02  0.77165705637E+02  0.26518995164E+03  0.10566000000E+00 0. -1.
          4    1    3    3  502    0 -0.21563711176E+03  0.22316355215E+03 -0.13171517337E+01  0.31032735920E+03  0.00000000000E+00 0.  1.
         -4    1    4    4    0  501  0.92618354276E+03  0.70328603838E+03  0.12868365758E+03  0.11700370466E+04  0.00000000000E+00 0. -1.
</event>
<event>
 8    1  0.7096247E-006  0.1356462E+04  0.7818608E-02  0.8497223E-01
          1   -1    0    0  502    0  0.00000000000E+00  0.00000000000E+00  0.18383396012E+04  0.18383396012E+04  0.00000000000E+00 0. -1.
         -1   -1    0    0    0  501 -0.00000000000E+00 -0.00000000000E+00 -0.10247038349E+04  0.10247038349E+04  0.00000000000E+00 0.  1.
    9000010    2    1    2  502    0 -0.46721807066E+03  0.78079843574E+03  0.18776558136E+03  0.13664258976E+04  0.10019605268E+04 0.  0.
   -9000010    2    1    2    0  501  0.46721807066E+03 -0.78079843574E+03  0.62587018496E+03  0.14966175385E+04  0.10100552684E+04 0.  0.
        -13    1    3    3    0    0 -0.23016039370E+03  0.10026745717E+04  0.14582643049E+03  0.10390358332E+04  0.10566000000E+00 0.  1.
         13    1    4    4    0    0  0.35338914238E+03  0.72439836872E+02 -0.95895895814E+02  0.37326592386E+03  0.10566000000E+00 0. -1.
          4    1    3    3  502    0 -0.23705767697E+03 -0.22187613598E+03  0.41939150870E+02  0.32739006445E+03  0.00000000000E+00 0.  1.
         -4    1    4    4    0  501  0.11382892828E+03 -0.85323827261E+03  0.72176608077E+03  0.11233516146E+04  0.00000000000E+00 0. -1.
</event>
<event>
 8    1  0.7096247E-006  0.1361831E+04  0.7818608E-02  0.8493744E-01
         -2   -1    0    0    0  501 -0.00000000000E+00  0.00000000000E+00  0.32733504123E+04  0.32733504123E+04  0.00000000000E+00 0.  1.
          2   -1    0    0  502    0  0.00000000000E+00 -0.00000000000E+00 -0.88320026082E+03  0.88320026082E+03  0.00000000000E+00 0. -1.
    9000010    2    1    2  502    0 -0.91980574092E+03  0.94648093615E+02 -0.49662924809E+02  0.13620823771E+04  0.99889996153E+03 0.  0.
   -9000010    2    1    2    0  501  0.91980574092E+03 -0.94648093615E+02  0.24398130763E+04  0.27944682960E+04  0.10006819413E+04 0.  0.
        -13    1    3    3    0    0  0.10464539143E+03  0.10797521227E+03  0.25253104429E+03  0.29390686263E+03  0.10566000000E+00 0.  1.
         13    1    4    4    0    0  0.88233266255E+03 -0.61885698632E+02  0.25361876664E+04  0.26859986332E+04  0.10566000000E+00 0. -1.
          4    1    3    3  502    0 -0.10244511324E+04 -0.13327118652E+02 -0.30219396909E+03  0.10681755144E+04  0.00000000000E+00 0.  1.
         -4    1    4    4    0  501  0.37473078375E+02 -0.32762394983E+02 -0.96374590148E+02  0.10846966283E+03  0.00000000000E+00 0. -1.
</event>
<event>
 8    1  0.7096247E-006  0.1401984E+04  0.7818608E-02  0.8468240E-01
          1   -1    0    0  502    0  0.00000000000E+00  0.00000000000E+00  0.12897872914E+04  0.12897872914E+04  0.00000000000E+00 0.  1.
         -1   -1    0    0    0  501 -0.00000000000E+00 -0.00000000000E+00 -0.15314876863E+04  0.15314876863E+04  0.00000000000E+00 0. -1.
    9000010    2    1    2  502    0  0.62297088614E+03  0.65046909119E+03 -0.20630738573E+03  0.13753161351E+04  0.10186898304E+04 0.  0.
   -9000010    2    1    2    0  501 -0.62297088614E+03 -0.65046909119E+03 -0.35393009118E+02  0.14459588426E+04  0.11306376722E+04 0.  0.
        -13    1    3    3    0    0  0.55254173430E+03  0.88312685668E+03 -0.34260493982E+03  0.10966282730E+04  0.10566000000E+00 0.  1.
         13    1    4    4    0    0  0.14698466131E+03  0.71534060850E+02 -0.31425140808E+03  0.35422531131E+03  0.10566000000E+00 0. -1.
          4    1    3    3  502    0  0.70429151837E+02 -0.23265776548E+03  0.13629755409E+03  0.27868786217E+03  0.00000000000E+00 0.  1.
         -4    1    4    4    0  501 -0.76995554745E+03 -0.72200315204E+03  0.27885839897E+03  0.10917335313E+04  0.00000000000E+00 0. -1.
</event>
<event>
 8    1  0.7096247E-006  0.1174080E+04  0.7818608E-02  0.8626341E-01
          1   -1    0    0  502    0  0.00000000000E+00  0.00000000000E+00  0.16720977042E+04  0.16720977042E+04  0.00000000000E+00 0. -1.
         -1   -1    0    0    0  501 -0.00000000000E+00 -0.00000000000E+00 -0.84065688250E+03  0.84065688250E+03  0.00000000000E+00 0.  1.
    9000010    2    1    2  502    0  0.50463824593E+03  0.35779045782E+03  0.58986504922E+03  0.13123747649E+04  0.99584786809E+03 0.  0.
   -9000010    2    1    2    0  501 -0.50463824593E+03 -0.35779045782E+03  0.24157577246E+03  0.12003798217E+04  0.99993954400E+03 0.  0.
        -13    1    3    3    0    0  0.23985490932E+03  0.40358984286E+03 -0.17549544901E+03  0.50121233282E+03  0.10566000000E+00 0.  1.
         13    1    4    4    0    0  0.30583069055E+03 -0.73128398195E+02  0.31265218409E+02  0.31600268820E+03  0.10566000000E+00 0. -1.
          4    1    3    3  502    0  0.26478333661E+03 -0.45799385037E+02  0.76536049824E+03  0.81116243212E+03  0.00000000000E+00 0.  1.
         -4    1    4    4    0  501 -0.81046893648E+03 -0.28466205962E+03  0.21031055405E+03  0.88437713354E+03  0.00000000000E+00 0. -1.
</event>
<event>
 8    1  0.7096247E-006  0.1117349E+04  0.7818608E-02  0.8671543E-01
         -2   -1    0    0    0  501 -0.00000000000E+00  0.00000000000E+00  0.51931142485E+03  0.51931142485E+03  0.00000000000E+00 0. -1.
          2   -1    0    0  502    0  0.00000000000E+00 -0.00000000000E+00 -0.24128210324E+04  0.24128210324E+04  0.00000000000E+00 0.  1.
    9000010    2    1    2  502    0 -0.42880055614E+03  0.27481954692E+03 -0.85487529805E+03  0.14032499792E+04  0.98939528437E+03 0.  0.
   -9000010    2    1    2    0  501  0.42880055614E+03 -0.27481954692E+03 -0.10386343095E+04  0.15288824780E+04  0.99966229415E+03 0.  0.
        -13    1    3    3    0    0 -0.56350652717E+03  0.50225959487E+03 -0.34719069349E+03  0.83087044455E+03  0.10566000000E+00 0.  1.
         13    1    4    4    0    0  0.61043924910E+03  0.60826230981E+02 -0.95992769818E+03  0.11392089818E+04  0.10566000000E+00 0. -1.
          4    1    3    3  502    0  0.13470597104E+03 -0.22744004795E+03 -0.50768460455E+03  0.57237953470E+03  0.00000000000E+00 0.  1.
         -4    1    4    4    0  501 -0.18163869296E+03 -0.33564577790E+03 -0.78706611295E+02  0.38967349623E+03  0.00000000000E+00 0. -1.
</event>
<event>
 8    1  0.7096247E-006  0.1161277E+04  0.7818608E-02  0.8636306E-01
         -2   -1    0    0    0  501 -0.00000000000E+00  0.00000000000E+00  0.72517581018E+03  0.72517581018E+03  0.00000000000E+00 0. -1.
          2   -1    0    0  502    0  0.00000000000E+00 -0.00000000000E+00 -0.19385343127E+04  0.19385343127E+04  0.00000000000E+00 0.  1.
    9000010    2    1    2  502    0 -0.30711786462E+03 -0.52191565083E+03 -0.33410380725E+03  0.12006515109E+04  0.98143841748E+03 0.  0.
   -9000010    2    1    2    0  501  0.30711786462E+03  0.52191565083E+03 -0.87925469531E+03  0.14630586120E+04  0.10003671094E+04 0.  0.
        -13    1    3    3    0    0 -0.55022928730E+03 -0.41374050034E+02  0.26688017142E+02  0.55242768037E+03  0.10566000000E+00 0.  1.
         13    1    4    4    0    0 -0.32640995608E+03  0.36717842283E+03 -0.22871710691E+03  0.54191787180E+03  0.10566000000E+00 0. -1.
          4    1    3    3  502    0  0.24311142268E+03 -0.48054160080E+03 -0.36079182440E+03  0.64822383054E+03  0.00000000000E+00 0.  1.
         -4    1    4    4    0  501  0.63352782071E+03  0.15473722800E+03 -0.65053758840E+03  0.92114074020E+03  0.00000000000E+00 0. -1.
</event>
<event>
 8    1  0.7096247E-006  0.1108717E+04  0.7818608E-02  0.8678665E-01
          1   -1    0    0  502    0  0.00000000000E+00  0.00000000000E+00  0.23848669221E+04  0.23848669221E+04  0.00000000000E+00 0.  1.
         -1   -1    0    0    0  501 -0.00000000000E+00 -0.00000000000E+00 -0.52912453973E+03  0.52912453973E+03  0.00000000000E+00 0. -1.
    9000010    2    1    2  502    0  0.34732711204E+03  0.40905325867E+03  0.11458287117E+04  0.15817094899E+04  0.94916846902E+03 0.  0.
   -9000010    2    1    2    0  501 -0.34732711204E+03 -0.40905325867E+03  0.70991367065E+03  0.13322819720E+04  0.99148229527E+03 0.  0.
        -13    1    3    3    0    0 -0.23474914203E+03  0.82154561850E+02  0.78372043570E+03  0.82223735273E+03  0.10566000000E+00 0.  1.
         13    1    4    4    0    0  0.88923384565E+02  0.23846620139E+03 -0.30425018514E+02  0.25631853316E+03  0.10566000000E+00 0. -1.
          4    1    3    3  502    0  0.58207625408E+03  0.32689869682E+03  0.36210827600E+03  0.75947213714E+03  0.00000000000E+00 0.  1.
         -4    1    4    4    0  501 -0.43625049661E+03 -0.64751946006E+03  0.74033868917E+03  0.10759634388E+04  0.00000000000E+00 0. -1.
</event>
<event>
 8    1  0.7096247E-006  0.1045971E+04  0.7818608E-02  0.8732557E-01
          1   -1    0    0  502    0  0.00000000000E+00  0.00000000000E+00  0.88397804702E+03  0.88397804702E+03  0.00000000000E+00 0. -1.
         -1   -1    0    0    0  501 -0.00000000000E+00 -0.00000000000E+00 -0.13732745834E+04  0.13732745834E+04  0.00000000000E+00 0.  1.
    9000010    2    1    2  502    0  0.10227636344E+03  0.23380419598E+03  0.11414614276E+03  0.10286914485E+04  0.98997570566E+03 0.  0.
   -9000010    2    1    2    0  501 -0.10227636344E+03 -0.23380419598E+03 -0.60344267914E+03  0.12285611819E+04  0.10392760240E+04 0.  0.
        -13    1    3    3    0    0 -0.30221187127E+03 -0.16383945464E+03  0.27375319445E+03  0.43944988869E+03  0.10566000000E+00 0.  1.
         13    1    4    4    0    0  0.38365737695E+03  0.18746394685E+03 -0.24492264461E+03  0.49226296556E+03  0.10566000000E+00 0. -1.
          4    1    3    3  502    0  0.40448823471E+03  0.39764365062E+03 -0.15960705169E+03  0.58924155985E+03  0.00000000000E+00 0.  1.
         -4    1    4    4    0  501 -0.48593374039E+03 -0.42126814283E+03 -0.35852003453E+03  0.73629821633E+03  0.00000000000E+00 0. -1.
</event>
<event>
 7    1  0.7096247E-006  0.1770147E+04  0.7818608E-02  0.8268998E-01
         -2   -1    0    0    0  501 -0.00000000000E+00  0.00000000000E+00  0.15759063755E+04  0.15759063755E+04  0.00000000000E+00 0. -1.
          2   -1    0    0  502    0  0.00000000000E+00 -0.00000000000E+00 -0.19940691778E+04  0.19940691778E+04  0.00000000000E+00 0.  1.
    9000010    2    1    2  502    0  0.15366560137E+04 -0.30149488742E+03 -0.16977184335E+03  0.18615077360E+04  0.99205730734E+03 0.  0.
        -13    1    3    3    0    0  0.29262526773E+03  0.14318282248E+03  0.31605231193E+03  0.45389419804E+03  0.10566000000E+00 0.  1.
         13    1    1    2    0    0 -0.72746663555E+03  0.63484451773E+02 -0.42754120577E+03  0.84618524878E+03  0.10566000000E+00 0. -1.
          4    1    3    3  502    0  0.12440307459E+04 -0.44467770990E+03 -0.48582415528E+03  0.14076135380E+04  0.00000000000E+00 0.  1.
         -4    1    1    2    0  501 -0.80918937810E+03  0.23801043565E+03  0.17915024682E+03  0.86228256856E+03  0.00000000000E+00 0. -1.
</event>
<event>
 8    1  0.7096247E-006  0.1382760E+04  0.7818608E-02  0.8480340E-01
         -2   -1    0    0    0  501 -0.00000000000E+00  0.00000000000E+00  0.44709114301E+04  0.44709114301E+04  0.00000000000E+00 0.  1.
          2   -1    0    0  502    0  0.00000000000E+00 -0.00000000000E+00 -0.67881856680E+03  0.67881856680E+03  0.00000000000E+00 0. -1.
    9000010    2    1    2  502    0 -0.95814570252E+03 -0.43393299620E+01  0.33423327903E+03  0.14275204202E+04  0.10040122750E+04 0.  0.
   -9000010    2    1    2    0  501  0.95814570252E+03  0.43393299620E+01  0.34578595842E+04  0.37222095766E+04  0.98994404438E+03 0.  0.
        -13    1    3    3    0    0 -0.99609158938E+03 -0.32158237285E+03  0.14642950231E+03  0.10569083628E+04  0.10566000000E+00 0.  1.
         13    1    4    4    0    0  0.68665373016E+03  0.42006645942E+03  0.26895336391E+04  0.28074081254E+04  0.10566000000E+00 0. -1.
          4    1    3    3  502    0  0.37945886863E+02  0.31724304289E+03  0.18780377672E+03  0.37061205747E+03  0.00000000000E+00 0.  1.
         -4    1    4    4    0  501  0.27149197236E+03 -0.41572712946E+03  0.76832594515E+03  0.91480145126E+03  0.00000000000E+00 0. -1.
</event>
<event>
 8    1  0.7096247E-006  0.1380971E+04  0.7818608E-02  0.8481476E-01
          1   -1    0    0  502    0  0.00000000000E+00  0.00000000000E+00  0.18781920607E+04  0.18781920607E+04  0.00000000000E+00 0. -1.
         -1   -1    0    0    0  501 -0.00000000000E+00 -0.00000000000E+00 -0.10250437166E+04  0.10250437166E+04  0.00000000000E+00 0.  1.
    9000010    2    1    2  502    0  0.86841565271E+03 -0.95002346951E+02  0.28264217592E+03  0.13500432952E+04  0.98972678430E+03 0.  0.
   -9000010    2    1    2    0  501 -0.86841565271E+03  0.95002346951E+02  0.57050616815E+03  0.15531924821E+04  0.11505470032E+04 0.  0.
        -13    1    3    3    0    0  0.52351124981E+03 -0.53927019219E+03  0.22566419612E+03  0.78472970469E+03  0.10566000000E+00 0.  1.
         13    1    4    4    0    0 -0.72185613859E+03 -0.27171441095E+03  0.78773968826E+03  0.11024694252E+04  0.10566000000E+00 0. -1.
          4    1    3    3  502    0  0.34490440291E+03  0.44426784524E+03  0.56977979797E+02  0.56531359053E+03  0.00000000000E+00 0.  1.
         -4    1    4    4    0  501 -0.14655951412E+03  0.36671675790E+03 -0.21723352011E+03  0.45072305683E+03  0.00000000000E+00 0. -1.
</event>
<event>
 8    1  0.7096247E-006  0.1025951E+04  0.7818608E-02  0.8750583E-01
         -1   -1    0    0    0  501 -0.00000000000E+00  0.00000000000E+00  0.89502515437E+03  0.89502515437E+03  0.00000000000E+00 0.  1.
          1   -1    0    0  502    0  0.00000000000E+00 -0.00000000000E+00 -0.11839364497E+04  0.11839364497E+04  0.00000000000E+00 0. -1.
    9000010    2    1    2  502    0  0.32518117918E+03  0.66504397299E+02 -0.22101081438E+03  0.10232713156E+04  0.94237613037E+03 0.  0.
   -9000010    2    1    2    0  501 -0.32518117918E+03 -0.66504397299E+02 -0.67900480905E+02  0.10556902884E+04  0.99985292699E+03 0.  0.
        -13    1    3    3    0    0 -0.92294550604E+02  0.42524399705E+03 -0.14547364107E+02  0.43538761818E+03  0.10566000000E+00 0.  1.
         13    1    4    4    0    0  0.15651643466E+03  0.10583931154E+03 -0.40232508394E+03  0.44448266391E+03  0.10566000000E+00 0. -1.
          4    1    3    3  502    0  0.41747572978E+03 -0.35873959975E+03 -0.20646345027E+03  0.58788369741E+03  0.00000000000E+00 0.  1.
         -4    1    4    4    0  501 -0.48169761384E+03 -0.17234370884E+03  0.33442460303E+03  0.61120762452E+03  0.00000000000E+00 0. -1.
</event>
<event>
 8    1  0.7096247E-006  0.1159920E+04  0.7818608E-02  0.8637370E-01
          2   -1    0    0  502    0  0.00000000000E+00  0.00000000000E+00  0.19498998388E+04  0.19498998388E+04  0.00000000000E+00 0. -1.
         -2   -1    0    0    0  501 -0.00000000000E+00 -0.00000000000E+00 -0.69969052459E+03  0.69969052459E+03  0.00000000000E+00 0.  1.
    9000010    2    1    2  502    0 -0.63369127445E+03 -0.87462099792E+02  0.47081066990E+03  0.12546968358E+04  0.97128122221E+03 0.  0.
   -9000010    2    1    2    0  501  0.63369127445E+03  0.87462099792E+02  0.77939864432E+03  0.13948935276E+04  0.96387315368E+03 0.  0.
        -13    1    3    3    0    0 -0.40101844349E+03 -0.32357503864E+03 -0.16214383909E+03  0.54019184867E+03  0.10566000000E+00 0.  1.
         13    1    4    4    0    0  0.48208343725E+02  0.13201776583E+03 -0.20507366913E+03  0.24861205891E+03  0.10566000000E+00 0. -1.
          4    1    3    3  502    0 -0.23267283096E+03  0.23611293885E+03  0.63295450899E+03  0.71450498711E+03  0.00000000000E+00 0.  1.
         -4    1    4    4    0  501  0.58548293072E+03 -0.44555666042E+02  0.98447231345E+03  0.11462814687E+04  0.00000000000E+00 0. -1.
</event>
<event>
 8    1  0.7096247E-006  0.1225048E+04  0.7818608E-02  0.8587935E-01
          2   -1    0    0  502    0  0.00000000000E+00  0.00000000000E+00  0.24923736030E+04  0.24923736030E+04  0.00000000000E+00 0. -1.
         -2   -1    0    0    0  501 -0.00000000000E+00 -0.00000000000E+00 -0.60237421374E+03  0.60237421374E+03  0.00000000000E+00 0.  1.
    9000010    2    1    2  502    0 -0.52637076330E+03  0.45181322856E+03  0.96900705158E+03  0.15563584777E+04  0.10010372976E+04 0.  0.
   -9000010    2    1    2    0  501  0.52637076330E+03 -0.45181322856E+03  0.92099233771E+03  0.15383893391E+04  0.10184367916E+04 0.  0.
        -13    1    3    3    0    0 -0.10274685968E+03 -0.23110011763E+03  0.63968131973E+03  0.68786363730E+03  0.10566000000E+00 0.  1.
         13    1    4    4    0    0 -0.29043588575E+03 -0.24948779280E+03  0.20965560982E+03  0.43652336522E+03  0.10566000000E+00 0. -1.
          4    1    3    3  502    0 -0.42362390363E+03  0.68291334619E+03  0.32932573185E+03  0.86849484039E+03  0.00000000000E+00 0.  1.
         -4    1    4    4    0  501  0.81680664906E+03 -0.20232543576E+03  0.71133672789E+03  0.11018659739E+04  0.00000000000E+00 0. -1.
</event>
<event>
 8    1  0.7096247E-006  0.1164727E+04  0.7818608E-02  0.8633608E-01
          2   -1    0    0  502    0  0.00000000000E+00  0.00000000000E+00  0.17282247084E+04  0.17282247084E+04  0.00000000000E+00 0. -1.
         -2   -1    0    0    0  501 -0.00000000000E+00 -0.00000000000E+00 -0.78805705056E+03  0.78805705056E+03  0.00000000000E+00 0.  1.
    9000010    2    1    2  502    0 -0.53017640214E+03  0.22677025962E+03  0.54973380419E+03  0.12897871331E+04  0.10143134748E+04 0.  0.
   -9000010    2    1    2    0  501  0.53017640214E+03 -0.22677025962E+03  0.39043385361E+03  0.12264946258E+04  0.10096230510E+04 0.  0.
        -13    1    3    3    0    0  0.28646513685E+03  0.10274918855E+03  0.12796458625E+02  0.30460372765E+03  0.10566000000E+00 0.  1.
         13    1    4    4    0    0  0.22593537687E+03 -0.12867527062E+03  0.72111930128E+03  0.76656192029E+03  0.10566000000E+00 0. -1.
          4    1    3    3  502    0 -0.81664153900E+03  0.12402107107E+03  0.53693734557E+03  0.98518340544E+03  0.00000000000E+00 0.  1.
         -4    1    4    4    0  501  0.30424102527E+03 -0.98094989002E+02 -0.33068544767E+03  0.45993270554E+03  0.00000000000E+00 0. -1.
</event>
<event>
 8    1  0.7096247E-006  0.1261494E+04  0.7818608E-02  0.8561641E-01
         -2   -1    0    0    0  501 -0.00000000000E+00  0.00000000000E+00  0.15108113665E+04  0.15108113665E+04  0.00000000000E+00 0.  1.
          2   -1    0    0  502    0  0.00000000000E+00 -0.00000000000E+00 -0.12229355538E+04  0.12229355538E+04  0.00000000000E+00 0. -1.
    9000010    2    1    2  502    0 -0.60761986143E+03  0.39431076607E+03  0.65422864441E+03  0.14347505307E+04  0.10515755274E+04 0.  0.
   -9000010    2    1    2    0  501  0.60761986143E+03 -0.39431076607E+03 -0.36635283164E+03  0.12989963896E+04  0.10141471031E+04 0.  0.
        -13    1    3    3    0    0 -0.14671359644E+03 -0.11432740959E+03 -0.24240860943E+03  0.30554472840E+03  0.10566000000E+00 0.  1.
         13    1    4    4    0    0  0.32232151350E+03 -0.34051097863E+03  0.31059844341E+03  0.56241469473E+03  0.10566000000E+00 0. -1.
          4    1    3    3  502    0 -0.46090626499E+03  0.50863817566E+03  0.89663725384E+03  0.11292058022E+04  0.00000000000E+00 0.  1.
         -4    1    4    4    0  501  0.28529834793E+03 -0.53799787442E+02 -0.67695127505E+03  0.73658169489E+03  0.00000000000E+00 0. -1.
</event>
<event>
 8    1  0.7096247E-006  0.1258288E+04  0.7818608E-02  0.8563917E-01
          2   -1    0    0  502    0  0.00000000000E+00  0.00000000000E+00  0.19250988762E+04  0.19250988762E+04  0.00000000000E+00 0.  1.
         -2   -1    0    0    0  501 -0.00000000000E+00 -0.00000000000E+00 -0.11790457937E+04  0.11790457937E+04  0.00000000000E+00 0. -1.
    9000010    2    1    2  502    0  0.29207924147E+02 -0.79204138403E+03 -0.47726110864E+03  0.13598596284E+04  0.99662299098E+03 0.  0.
   -9000010    2    1    2    0  501 -0.29207924147E+02  0.79204138403E+03  0.12233141912E+04  0.17442850416E+04  0.95804490447E+03 0.  0.
        -13    1    3    3    0    0  0.30592877869E+03 -0.91777244859E+03 -0.39523693063E+03  0.10450411128E+04  0.10566000000E+00 0.  1.
         13    1    4    4    0    0 -0.94480563775E+02  0.87173419591E+03  0.13318958437E+04  0.15946139454E+04  0.10566000000E+00 0. -1.
          4    1    3    3  502    0 -0.27672085454E+03  0.12573106456E+03 -0.82024178017E+02  0.31481851552E+03  0.00000000000E+00 0.  1.
         -4    1    4    4    0  501  0.65272639628E+02 -0.79692811883E+02 -0.10858165253E+03  0.14967109613E+03  0.00000000000E+00 0. -1.
</event>
<event>
 8    1  0.7096247E-006  0.2161714E+04  0.7818608E-02  0.8105552E-01
          1   -1    0    0  502    0  0.00000000000E+00  0.00000000000E+00  0.29746736004E+04  0.29746736004E+04  0.00000000000E+00 0. -1.
         -1   -1    0    0    0  501 -0.00000000000E+00 -0.00000000000E+00 -0.15710117980E+04  0.15710117980E+04  0.00000000000E+00 0.  1.
    9000010    2    1    2  502    0 -0.45570561312E+01  0.19162599879E+04  0.71819524193E+03  0.22779995401E+04  0.10007019492E+04 0.  0.
   -9000010    2    1    2    0  501  0.45570561312E+01 -0.19162599879E+04  0.68546656046E+03  0.22676858584E+04  0.10002307928E+04 0.  0.
        -13    1    3    3    0    0  0.29136359114E+03  0.21110855316E+03  0.36335626064E+03  0.51135833500E+03  0.10566000000E+00 0.  1.
         13    1    4    4    0    0  0.28625685535E+03 -0.27482124185E+03 -0.12428067164E+03  0.41583097373E+03  0.10566000000E+00 0. -1.
          4    1    3    3  502    0 -0.29592064727E+03  0.17051514347E+04  0.35483898129E+03  0.17666412051E+04  0.00000000000E+00 0.  1.
         -4    1    4    4    0  501 -0.28169979922E+03 -0.16414387461E+04  0.80974723210E+03  0.18518548847E+04  0.00000000000E+00 0. -1.
</event>
<event>
 8    1  0.7096247E-006  0.1064894E+04  0.7818608E-02  0.8715898E-01
         -2   -1    0    0    0  501 -0.00000000000E+00  0.00000000000E+00  0.96431623230E+03  0.96431623230E+03  0.00000000000E+00 0. -1.
          2   -1    0    0  502    0  0.00000000000E+00 -0.00000000000E+00 -0.11814450959E+04  0.11814450959E+04  0.00000000000E+00 0.  1.
    9000010    2    1    2  502    0  0.24698298452E+03 -0.35981540196E+03 -0.39236225566E+02  0.10827571771E+04  0.99012923654E+03 0.  0.
   -9000010    2    1    2    0  501 -0.24698298452E+03  0.35981540196E+03 -0.17789263799E+03  0.10630041511E+04  0.95281914148E+03 0.  0.
        -13    1    3    3    0    0 -0.16252463702E+03  0.21625084573E+03 -0.22512043574E+03  0.35193452185E+03  0.10566000000E+00 0.  1.
         13    1    4    4    0    0 -0.13589170628E+03  0.61934304909E+03 -0.35798020243E+03  0.72814985050E+03  0.10566000000E+00 0. -1.
          4    1    3    3  502    0  0.40950762155E+03 -0.57606624769E+03  0.18588421017E+03  0.73082265525E+03  0.00000000000E+00 0.  1.
         -4    1    4    4    0  501 -0.11109127825E+03 -0.25952764714E+03  0.18008756444E+03  0.33485430055E+03  0.00000000000E+00 0. -1.
</event>
<event>
 8    1  0.7096247E-006  0.9671685E+03  0.7818608E-02  0.8806066E-01
          2   -1    0    0  502    0  0.00000000000E+00  0.00000000000E+00  0.32208199455E+04  0.32208199455E+04  0.00000000000E+00 0.  1.
         -2   -1    0    0    0  501 -0.00000000000E+00 -0.00000000000E+00 -0.47104733027E+03  0.47104733027E+03  0.00000000000E+00 0. -1.
    9000010    2    1    2  502    0 -0.19255133945E+03  0.33174495295E+03  0.35201687922E+03  0.11450584588E+04  0.10198589406E+04 0.  0.
   -9000010    2    1    2    0  501  0.19255133945E+03 -0.33174495295E+03  0.23977557360E+04  0.25468088170E+04  0.76803115059E+03 0.  0.
        -13    1    3    3    0    0 -0.36492058917E+03 -0.25267397931E+03  0.29529897975E+03  0.53311600504E+03  0.10566000000E+00 0.  1.
         13    1    4    4    0    0  0.41402766073E+02  0.19208834017E+03  0.19221038411E+03  0.27487626742E+03  0.10566000000E+00 0. -1.
          4    1    3    3  502    0  0.17236924972E+03  0.58441893226E+03  0.56717899465E+02  0.61194245379E+03  0.00000000000E+00 0.  1.
         -4    1    4    4    0  501  0.15114857338E+03 -0.52383329312E+03  0.22055453519E+04  0.22719325495E+04  0.00000000000E+00 0. -1.
</event>
<event>
 8    1  0.7096247E-006  0.1376226E+04  0.7818608E-02  0.8484498E-01
          2   -1    0    0  502    0  0.00000000000E+00  0.00000000000E+00  0.20027523120E+04  0.20027523120E+04  0.00000000000E+00 0.  1.
         -2   -1    0    0    0  501 -0.00000000000E+00 -0.00000000000E+00 -0.95183223959E+03  0.95183223959E+03  0.00000000000E+00 0. -1.
    9000010    2    1    2  502    0  0.93988352212E+03  0.17567768505E+03  0.40377046989E+03  0.14254061020E+04  0.97698939557E+03 0.  0.
   -9000010    2    1    2    0  501 -0.93988352212E+03 -0.17567768505E+03  0.64714960247E+03  0.15291784496E+04  0.10026666637E+04 0.  0.
        -13    1    3    3    0    0  0.88865154451E+03 -0.21463670736E+02  0.65339967099E+03  0.11032195602E+04  0.10566000000E+00 0.  1.
         13    1    4    4    0    0 -0.83116466784E+03 -0.21897197268E+03  0.90371195536E+03  0.12471883335E+04  0.10566000000E+00 0. -1.
          4    1    3    3  502    0  0.51231977617E+02  0.19714135579E+03 -0.24962920110E+03  0.32218654183E+03  0.00000000000E+00 0.  1.
         -4    1    4    4    0  501 -0.10871885428E+03  0.43294287625E+02 -0.25656235289E+03  0.28199011602E+03  0.00000000000E+00 0. -1.
</event>
<event>
 8    1  0.7096247E-006  0.1385773E+04  0.7818608E-02  0.8478430E-01
          2   -1    0    0  502    0  0.00000000000E+00  0.00000000000E+00  0.17282027957E+04  0.17282027957E+04  0.00000000000E+00 0. -1.
         -2   -1    0    0    0  501 -0.00000000000E+00 -0.00000000000E+00 -0.11629003468E+04  0.11629003468E+04  0.00000000000E+00 0.  1.
    9000010    2    1    2  502    0 -0.66327292415E+03 -0.83269329808E+03  0.54151369993E+03  0.13869554151E+04  0.70505257657E+03 0.  0.
   -9000010    2    1    2    0  501  0.66327292415E+03  0.83269329808E+03  0.23788749026E+02  0.15041477273E+04  0.10623489919E+04 0.  0.
        -13    1    3    3    0    0 -0.28228404731E+03 -0.19699389038E+03 -0.14799067178E+03  0.37468937309E+03  0.10566000000E+00 0.  1.
         13    1    4    4    0    0  0.84988945337E+03  0.24683575007E+03  0.68547728292E+02  0.88765915344E+03  0.10566000000E+00 0. -1.
          4    1    3    3  502    0 -0.38098887684E+03 -0.63569940770E+03  0.68950437171E+03  0.10122660420E+04  0.00000000000E+00 0.  1.
         -4    1    4    4    0  501 -0.18661652922E+03  0.58585754800E+03 -0.44758979266E+02  0.61648857391E+03  0.00000000000E+00 0. -1.
</event>
<event>
 8    1  0.7096247E-006  0.1548045E+04  0.7818608E-02  0.8382374E-01
          1   -1    0    0  502    0  0.00000000000E+00  0.00000000000E+00  0.95899618915E+03  0.95899618915E+03  0.00000000000E+00 0.  1.
         -1   -1    0    0    0  501 -0.00000000000E+00 -0.00000000000E+00 -0.25061039281E+04  0.25061039281E+04  0.00000000000E+00 0. -1.
    9000010    2    1    2  502    0 -0.10031114257E+04  0.61353266032E+03 -0.68378788831E+03  0.16975857258E+04  0.10156655761E+04 0.  0.
   -9000010    2    1    2    0  501  0.10031114257E+04 -0.61353266032E+03 -0.86331985064E+03  0.17675143915E+04  0.99806367626E+03 0.  0.
        -13    1    3    3    0    0  0.12382328871E+03 -0.14440804238E+03 -0.13264731052E+03  0.23190776115E+03  0.10566000000E+00 0.  1.
         13    1    4    4    0    0  0.10832646694E+03 -0.57863326954E+03 -0.11340049724E+03  0.59950877225E+03  0.10566000000E+00 0. -1.
          4    1    3    3  502    0 -0.11269347145E+04  0.75794070271E+03 -0.55114057780E+03  0.14656779646E+04  0.00000000000E+00 0.  1.
         -4    1    4    4    0  501  0.89478495881E+03 -0.34899390777E+02 -0.74991935339E+03  0.11680056192E+04  0.00000000000E+00 0. -1.
</event>
<event>
 8    1  0.7096247E-006  0.1943413E+04  0.7818608E-02  0.8191828E-01
         -2   -1    0    0    0  501 -0.00000000000E+00  0.00000000000E+00  0.19142093051E+04  0.19142093051E+04  0.00000000000E+00 0. -1.
          2   -1    0    0  502    0  0.00000000000E+00 -0.00000000000E+00 -0.20753477801E+04  0.20753477801E+04  0.00000000000E+00 0.  1.
    9000010    2    1    2  502    0  0.11860004229E+04 -0.11636195022E+04  0.36250304984E+03  0.19697876685E+04  0.99400585943E+03 0.  0.
   -9000010    2    1    2    0  501 -0.11860004229E+04  0.11636195022E+04 -0.52364152479E+03  0.20197694167E+04  0.10220864450E+04 0.  0.
        -13    1    3    3    0    0  0.44021806372E+03  0.53944013252E+02  0.30980809937E+03  0.54100182050E+03  0.10566000000E+00 0.  1.
         13    1    4    4    0    0 -0.20542207337E+03  0.86495995098E+03 -0.49568377907E+02  0.89039933753E+03  0.10566000000E+00 0. -1.
          4    1    3    3  502    0  0.74578235921E+03 -0.12175635155E+04  0.52694950467E+02  0.14287858480E+04  0.00000000000E+00 0.  1.
         -4    1    4    4    0  501 -0.98057834956E+03  0.29865955127E+03 -0.47407314688E+03  0.11293700792E+04  0.00000000000E+00 0. -1.
</event>
<event>
 8    1  0.7096247E-006  0.1993803E+04  0.7818608E-02  0.8170920E-01
         -1   -1    0    0    0  501 -0.00000000000E+00  0.00000000000E+00  0.29366975619E+04  0.29366975619E+04  0.00000000000E+00 0.  1.
          1   -1    0    0  502    0  0.00000000000E+00 -0.00000000000E+00 -0.14394893218E+04  0.14394893218E+04  0.00000000000E+00 0. -1.
    9000010    2    1    2  502    0 -0.14334395296E+04  0.95596477338E+03  0.12821707049E+04  0.23686723984E+04  0.99901435490E+03 0.  0.
   -9000010    2    1    2    0  501  0.14334395296E+04 -0.95596477338E+03  0.21503753517E+03  0.20075144853E+04  0.10075989948E+04 0.  0.
        -13    1    3    3    0    0 -0.53622648536E+03  0.53065772169E+03  0.94690197794E+01  0.75447076464E+03  0.10566000000E+00 0.  1.
         13    1    4    4    0    0  0.11780013557E+04 -0.87519262207E+03 -0.23258206583E+03  0.14858478213E+04  0.10566000000E+00 0. -1.
          4    1    3    3  502    0 -0.89721304419E+03  0.42530705169E+03  0.12727016852E+04  0.16142016337E+04  0.00000000000E+00 0.  1.
         -4    1    4    4    0  501  0.25543817389E+03 -0.80772151313E+02  0.44761960100E+03  0.52166666398E+03  0.00000000000E+00 0. -1.
</event>
<event>
 8    1  0.7096247E-006  0.1293078E+04  0.7818608E-02  0.8539586E-01
          4   -1    0    0  502    0  0.00000000000E+00  0.00000000000E+00  0.20021825046E+04  0.20021825046E+04  0.00000000000E+00 0.  1.
         -4   -1    0    0    0  501 -0.00000000000E+00 -0.00000000000E+00 -0.11184536373E+04  0.11184536373E+04  0.00000000000E+00 0. -1.
    9000010    2    1    2  502    0  0.45896036731E+03  0.68532645279E+03  0.12267251533E+04  0.17810339740E+04  0.99343366621E+03 0.  0.
   -9000010    2    1    2    0  501 -0.45896036731E+03 -0.68532645279E+03 -0.34299628605E+03  0.13396021679E+04  0.99828380248E+03 0.  0.
        -13    1    3    3    0    0  0.76113675687E+03  0.58496208437E+03  0.80632044175E+03  0.12536596303E+04  0.10566000000E+00 0.  1.
         13    1    4    4    0    0 -0.38966805878E+03 -0.13807911513E+03  0.28622386673E+03  0.50282318077E+03  0.10566000000E+00 0. -1.
          4    1    3    3  502    0 -0.30217638956E+03  0.10036436842E+03  0.42040471156E+03  0.52737434366E+03  0.00000000000E+00 0.  1.
         -4    1    4    4    0  501 -0.69292308529E+02 -0.54724733765E+03 -0.62922015278E+03  0.83677898710E+03  0.00000000000E+00 0. -1.
</event>
<event>
 8    1  0.7096247E-006  0.1220704E+04  0.7818608E-02  0.8591132E-01
         -2   -1    0    0    0  501 -0.00000000000E+00  0.00000000000E+00  0.31727857418E+03  0.31727857418E+03  0.00000000000E+00 0.  1.
          2   -1    0    0  502    0  0.00000000000E+00 -0.00000000000E+00 -0.49737224419E+04  0.49737224419E+04  0.00000000000E+00 0. -1.
    9000010    2    1    2  502    0  0.11839840247E+03  0.70883012310E+03 -0.29149724292E+04  0.31525991663E+04  0.96195577591E+03 0.  0.
   -9000010    2    1    2    0  501 -0.11839840247E+03 -0.70883012310E+03 -0.17414714385E+04  0.21384018498E+04  0.10117219851E+04 0.  0.
        -13    1    3    3    0    0  0.40976158939E+03  0.54608422378E+03 -0.10131339555E+04  0.12217008482E+04  0.10566000000E+00 0.  1.
         13    1    4    4    0    0 -0.46141811918E+03 -0.50638525521E+03 -0.15537466424E+04  0.16980757779E+04  0.10566000000E+00 0. -1.
          4    1    3    3  502    0 -0.29136318693E+03  0.16274589932E+03 -0.19018384737E+04  0.19308983180E+04  0.00000000000E+00 0.  1.
         -4    1    4    4    0  501  0.34301971671E+03 -0.20244486789E+03 -0.18772479608E+03  0.44032607196E+03  0.00000000000E+00 0. -1.
</event>
<event>
 8    1  0.7096247E-006  0.1148336E+04  0.7818608E-02  0.8646516E-01
          2   -1    0    0  502    0  0.00000000000E+00  0.00000000000E+00  0.10798420153E+04  0.10798420153E+04  0.00000000000E+00 0. -1.
         -2   -1    0    0    0  501 -0.00000000000E+00 -0.00000000000E+00 -0.12441722963E+04  0.12441722963E+04  0.00000000000E+00 0.  1.
    9000010    2    1    2  502    0 -0.54135106058E+03  0.14143130678E+03  0.75233571885E+02  0.11572484647E+04  0.10101980664E+04 0.  0.
   -9000010    2    1    2    0  501  0.54135106058E+03 -0.14143130678E+03 -0.23956385286E+03  0.11667658469E+04  0.99543353193E+03 0.  0.
        -13    1    3    3    0    0 -0.98594393933E+02 -0.34851103148E+03 -0.23074231262E+03  0.42944478059E+03  0.10566000000E+00 0.  1.
         13    1    4    4    0    0  0.24096086601E+03 -0.13949452438E+03 -0.62140271547E+03  0.68092746107E+03  0.10566000000E+00 0. -1.
          4    1    3    3  502    0 -0.44275666665E+03  0.48994233827E+03  0.30597588450E+03  0.72780368410E+03  0.00000000000E+00 0.  1.
         -4    1    4    4    0  501  0.30039019457E+03 -0.19367824008E+01  0.38183886261E+03  0.48583838580E+03  0.00000000000E+00 0. -1.
</event>
<event>
 8    1  0.7096247E-006  0.9997590E+03  0.7818608E-02  0.8774818E-01
          2   -1    0    0  502    0  0.00000000000E+00  0.00000000000E+00  0.69069535244E+03  0.69069535244E+03  0.00000000000E+00 0. -1.
         -2   -1    0    0    0  501 -0.00000000000E+00 -0.00000000000E+00 -0.15008726690E+04  0.15008726690E+04  0.00000000000E+00 0.  1.
    9000010    2    1    2  502    0 -0.33664675806E+03  0.14553587600E+03 -0.18683161862E+03  0.97906487259E+03  0.88834128583E+03 0.  0.
   -9000010    2    1    2    0  501  0.33664675806E+03 -0.14553587600E+03 -0.62334569797E+03  0.12125031489E+04  0.97318667066E+03 0.  0.
        -13    1    3    3    0    0 -0.27124604614E+03 -0.25666954513E+03  0.19443681064E+03  0.42102180162E+03  0.10566000000E+00 0.  1.
         13    1    4    4    0    0 -0.19586173559E+03  0.28909274818E+03 -0.16403714428E+03  0.38580387813E+03  0.10566000000E+00 0. -1.
          4    1    3    3  502    0 -0.65400711915E+02  0.40220542113E+03 -0.38126842926E+03  0.55804307097E+03  0.00000000000E+00 0.  1.
         -4    1    4    4    0  501  0.53250849365E+03 -0.43462862418E+03 -0.45930855369E+03  0.82669927075E+03  0.00000000000E+00 0. -1.
</event>
<event>
 8    1  0.7096247E-006  0.1206906E+04  0.7818608E-02  0.8601380E-01
         -2   -1    0    0    0  501 -0.00000000000E+00  0.00000000000E+00  0.52988930944E+03  0.52988930944E+03  0.00000000000E+00 0.  1.
          2   -1    0    0  502    0  0.00000000000E+00 -0.00000000000E+00 -0.28575537323E+04  0.28575537323E+04  0.00000000000E+00 0. -1.
    9000010    2    1    2  502    0  0.40745118474E+03  0.31694952959E+03 -0.76685651844E+03  0.13184708546E+04  0.94011861072E+03 0.  0.
   -9000010    2    1    2    0  501 -0.40745118474E+03 -0.31694952959E+03 -0.15608079044E+04  0.20689721871E+04  0.12562050487E+04 0.  0.
        -13    1    3    3    0    0  0.53793491993E+03  0.56558365323E+03 -0.47624855054E+03  0.91436947670E+03  0.10566000000E+00 0.  1.
         13    1    4    4    0    0 -0.85406372515E+03 -0.14215610913E+03 -0.86483130032E+03  0.12237509531E+04  0.10566000000E+00 0. -1.
          4    1    3    3  502    0 -0.13048373518E+03 -0.24863412364E+03 -0.29060796790E+03  0.40410137787E+03  0.00000000000E+00 0.  1.
         -4    1    4    4    0  501  0.44661254041E+03 -0.17479342046E+03 -0.69597660408E+03  0.84522123407E+03  0.00000000000E+00 0. -1.
</event>
<event>
 8    1  0.7096247E-006  0.1338275E+04  0.7818608E-02  0.8509130E-01
          2   -1    0    0  502    0  0.00000000000E+00  0.00000000000E+00  0.23678198636E+04  0.23678198636E+04  0.00000000000E+00 0. -1.
         -2   -1    0    0    0  501 -0.00000000000E+00 -0.00000000000E+00 -0.82997595929E+03  0.82997595929E+03  0.00000000000E+00 0.  1.
    9000010    2    1    2  502    0 -0.27563510446E+03 -0.84571464138E+03  0.29245278884E+03  0.13691777341E+04  0.99895498814E+03 0.  0.
   -9000010    2    1    2    0  501  0.27563510446E+03  0.84571464138E+03  0.12453911155E+04  0.18286180889E+04  0.10008182247E+04 0.  0.
        -13    1    3    3    0    0 -0.54053966663E+03 -0.91021047014E+03  0.28553457420E+03  0.10964470965E+04  0.10566000000E+00 0.  1.
         13    1    4    4    0    0 -0.21057462148E+03 -0.69886447177E+02  0.18874421887E+02  0.22267025324E+03  0.10566000000E+00 0. -1.
          4    1    3    3  502    0  0.26490456217E+03  0.64495828764E+02  0.69182146399E+01  0.27273063759E+03  0.00000000000E+00 0.  1.
         -4    1    4    4    0  501  0.48620972594E+03  0.91560108856E+03  0.12265166936E+04  0.16059478356E+04  0.00000000000E+00 0. -1.
</event>
<event>
 8    1  0.7096247E-006  0.1286408E+04  0.7818608E-02  0.8544189E-01
          2   -1    0    0  502    0  0.00000000000E+00  0.00000000000E+00  0.12116963672E+04  0.12116963672E+04  0.00000000000E+00 0.  1.
         -2   -1    0    0    0  501 -0.00000000000E+00 -0.00000000000E+00 -0.14803559084E+04  0.14803559084E+04  0.00000000000E+00 0. -1.
    9000010    2    1    2  502    0 -0.58619876728E+03 -0.54888247702E+03 -0.50887202590E+03  0.13832371850E+04  0.10047354890E+04 0.  0.
   -9000010    2    1    2    0  501  0.58619876728E+03  0.54888247702E+03  0.24021248470E+03  0.13088150906E+04  0.10051835331E+04 0.  0.
        -13    1    3    3    0    0 -0.64815785825E+03 -0.19294469816E+02 -0.54746068842E+03  0.84864250560E+03  0.10566000000E+00 0.  1.
         13    1    4    4    0    0  0.62387478194E+02  0.41016174734E+03 -0.32410045812E+03  0.52646554924E+03  0.10566000000E+00 0. -1.
          4    1    3    3  502    0  0.61959090973E+02 -0.52958800721E+03  0.38588662519E+02  0.53459467937E+03  0.00000000000E+00 0.  1.
         -4    1    4    4    0  501  0.52381128908E+03  0.13872072968E+03  0.56431294282E+03  0.78234954135E+03  0.00000000000E+00 0. -1.
</event>
<event>
 8    1  0.7096247E-006  0.1168480E+04  0.7818608E-02  0.8630683E-01
          2   -1    0    0  502    0  0.00000000000E+00  0.00000000000E+00  0.26996264123E+04  0.26996264123E+04  0.00000000000E+00 0.  1.
         -2   -1    0    0    0  501 -0.00000000000E+00 -0.00000000000E+00 -0.57364605452E+03  0.57364605452E+03  0.00000000000E+00 0. -1.
    9000010    2    1    2  502    0 -0.58058180226E+03 -0.16351308144E+03  0.16253339368E+04  0.20012566303E+04  0.99975293811E+03 0.  0.
   -9000010    2    1    2    0  501  0.58058180226E+03  0.16351308144E+03  0.50064642093E+03  0.12720158365E+04  0.10017812598E+04 0.  0.
        -13    1    3    3    0    0 -0.61555740486E+03 -0.48565630961E+03  0.82669662177E+03  0.11393859247E+04  0.10566000000E+00 0.  1.
         13    1    4    4    0    0  0.34840461034E+03  0.52778407540E+03  0.54884880033E+03  0.83736301539E+03  0.10566000000E+00 0. -1.
          4    1    3    3  502    0  0.34975602592E+02  0.32214322818E+03  0.79863731505E+03  0.86187070563E+03  0.00000000000E+00 0.  1.
         -4    1    4    4    0  501  0.23217719193E+03 -0.36427099397E+03 -0.48202379405E+02  0.43465282108E+03  0.00000000000E+00 0. -1.
</event>
<event>
 8    1  0.7096247E-006  0.1234175E+04  0.7818608E-02  0.8581262E-01
          2   -1    0    0  502    0  0.00000000000E+00  0.00000000000E+00  0.31265578881E+04  0.31265578881E+04  0.00000000000E+00 0.  1.
         -2   -1    0    0    0  501 -0.00000000000E+00 -0.00000000000E+00 -0.49161783982E+03  0.49161783982E+03  0.00000000000E+00 0. -1.
    9000010    2    1    2  502    0  0.64362469743E+03 -0.43036590038E+03  0.14527067761E+04  0.18874643752E+04  0.92341606614E+03 0.  0.
   -9000010    2    1    2    0  501 -0.64362469743E+03  0.43036590038E+03  0.11822332722E+04  0.17307113527E+04  0.99910896155E+03 0.  0.
        -13    1    3    3    0    0  0.21544084082E+03 -0.58003348207E+02 -0.92373526156E+02  0.24147882681E+03  0.10566000000E+00 0.  1.
         13    1    4    4    0    0 -0.83593270335E+03  0.36857080562E+03  0.54855369407E+03  0.10656167649E+04  0.10566000000E+00 0. -1.
          4    1    3    3  502    0  0.42818385661E+03 -0.37236255218E+03  0.15450803022E+04  0.16459855484E+04  0.00000000000E+00 0.  1.
         -4    1    4    4    0  501  0.19230800592E+03  0.61795094761E+02  0.63367957818E+03  0.66509458777E+03  0.00000000000E+00 0. -1.
</event>
<event>
 8    1  0.7096247E-006  0.1110307E+04  0.7818608E-02  0.8677348E-01
         -4   -1    0    0    0  501 -0.00000000000E+00  0.00000000000E+00  0.68311546318E+03  0.68311546318E+03  0.00000000000E+00 0.  1.
          4   -1    0    0  502    0  0.00000000000E+00 -0.00000000000E+00 -0.19160292181E+04  0.19160292181E+04  0.00000000000E+00 0. -1.
    9000010    2    1    2  502    0  0.87658192646E+02  0.50220840072E+03 -0.29840183698E+03  0.11406758141E+04  0.97580757322E+03 0.  0.
   -9000010    2    1    2    0  501 -0.87658192646E+02 -0.50220840072E+03 -0.93451191792E+03  0.14584688672E+04  0.99695620536E+03 0.  0.
        -13    1    3    3    0    0  0.53289039596E+03  0.24572665488E+03 -0.17265719281E+03  0.61168969292E+03  0.10566000000E+00 0.  1.
         13    1    4    4    0    0  0.33497707789E+03 -0.59747992620E+03 -0.53509564540E+03  0.86920611239E+03  0.10566000000E+00 0. -1.
          4    1    3    3  502    0 -0.44523220332E+03  0.25648174584E+03 -0.12574464418E+03  0.52898612114E+03  0.00000000000E+00 0.  1.
         -4    1    4    4    0  501 -0.42263527054E+03  0.95271525483E+02 -0.39941627253E+03  0.58926275483E+03  0.00000000000E+00 0. -1.
</event>
<event>
 8    1  0.7096247E-006  0.1236502E+04  0.7818608E-02  0.8579571E-01
          1   -1    0    0  502    0  0.00000000000E+00  0.00000000000E+00  0.49129732400E+03  0.49129732400E+03  0.00000000000E+00 0. -1.
         -1   -1    0    0    0  501 -0.00000000000E+00 -0.00000000000E+00 -0.31185759036E+04  0.31185759036E+04  0.00000000000E+00 0.  1.
    9000010    2    1    2  502    0  0.18728998625E+03 -0.69384359572E+03 -0.13122680990E+04  0.18350305924E+04  0.10624468162E+04 0.  0.
   -9000010    2    1    2    0  501 -0.18728998625E+03  0.69384359572E+03 -0.13150104806E+04  0.17748426351E+04  0.95095601435E+03 0.  0.
        -13    1    3    3    0    0  0.18245388002E+03  0.25714633079E+03 -0.46208247611E+03  0.55940493354E+03  0.10566000000E+00 0.  1.
         13    1    4    4    0    0  0.41326067598E+02  0.80254693290E+03 -0.12908434397E+04  0.15205480000E+04  0.10566000000E+00 0. -1.
          4    1    3    3  502    0  0.48361062291E+01 -0.95098992651E+03 -0.85018562289E+03  0.12756256589E+04  0.00000000000E+00 0.  1.
         -4    1    4    4    0  501 -0.22861605385E+03 -0.10870333718E+03 -0.24167040873E+02  0.25429463513E+03  0.00000000000E+00 0. -1.
</event>
<event>
 8    1  0.7096247E-006  0.1286475E+04  0.7818608E-02  0.8544142E-01
          2   -1    0    0  502    0  0.00000000000E+00  0.00000000000E+00  0.14629313453E+04  0.14629313453E+04  0.00000000000E+00 0. -1.
         -2   -1    0    0    0  501 -0.00000000000E+00 -0.00000000000E+00 -0.11836925079E+04  0.11836925079E+04  0.00000000000E+00 0.  1.
    9000010    2    1    2  502    0 -0.34852593077E+03 -0.73042231613E+03 -0.13974271216E+03  0.12823015162E+04  0.98477513608E+03 0.  0.
   -9000010    2    1    2    0  501  0.34852593077E+03  0.73042231613E+03  0.41898154954E+03  0.13643223369E+04  0.10153042971E+04 0.  0.
        -13    1    3    3    0    0  0.10435620357E+03 -0.29940940154E+03  0.36159195658E+03  0.48092095107E+03  0.10566000000E+00 0.  1.
         13    1    4    4    0    0 -0.16830949379E+03  0.69998890891E+03  0.44425386413E+03  0.84597521551E+03  0.10566000000E+00 0. -1.
          4    1    3    3  502    0 -0.45288213434E+03 -0.43101291459E+03 -0.50133466874E+03  0.80138056517E+03  0.00000000000E+00 0.  1.
         -4    1    4    4    0  501  0.51683542457E+03  0.30433407222E+02 -0.25272314596E+02  0.51834712138E+03  0.00000000000E+00 0. -1.
</event>
<event>
 8    1  0.7096247E-006  0.1361441E+04  0.7818608E-02  0.8493996E-01
          1   -1    0    0  502    0  0.00000000000E+00  0.00000000000E+00  0.18508663057E+04  0.18508663057E+04  0.00000000000E+00 0.  1.
         -1   -1    0    0    0  501 -0.00000000000E+00 -0.00000000000E+00 -0.10051544269E+04  0.10051544269E+04  0.00000000000E+00 0. -1.
    9000010    2    1    2  502    0  0.89010509274E+03 -0.58409149043E+02  0.34063129042E+03  0.14151438719E+04  0.10444634016E+04 0.  0.
   -9000010    2    1    2    0  501 -0.89010509274E+03  0.58409149043E+02  0.50508058844E+03  0.14408768607E+04  0.10125813657E+04 0.  0.
        -13    1    3    3    0    0  0.25558489591E+03  0.36113712830E+03  0.46783072202E+03  0.64390159192E+03  0.10566000000E+00 0.  1.
         13    1    4    4    0    0 -0.29747615432E+03  0.12127724049E+03  0.73497733244E+03  0.80211714968E+03  0.10566000000E+00 0. -1.
          4    1    3    3  502    0  0.63452019683E+03 -0.41954627734E+03 -0.12719943159E+03  0.77124227997E+03  0.00000000000E+00 0.  1.
         -4    1    4    4    0  501 -0.59262893841E+03 -0.62868091448E+02 -0.22989674400E+03  0.63875971106E+03  0.00000000000E+00 0. -1.
</event>
<event>
 8    1  0.7096247E-006  0.1083297E+04  0.7818608E-02  0.8700039E-01
          1   -1    0    0  502    0  0.00000000000E+00  0.00000000000E+00  0.89379436378E+03  0.89379436378E+03  0.00000000000E+00 0. -1.
         -1   -1    0    0    0  501 -0.00000000000E+00 -0.00000000000E+00 -0.15637180029E+04  0.15637180029E+04  0.00000000000E+00 0.  1.
    9000010    2    1    2  502    0  0.46378015612E+03 -0.15902365366E+03 -0.83581906784E+03  0.14032593755E+04  0.10149693617E+04 0.  0.
   -9000010    2    1    2    0  501 -0.46378015612E+03  0.15902365366E+03  0.16589542870E+03  0.10542529912E+04  0.91844843107E+03 0.  0.
        -13    1    3    3    0    0  0.63658908234E+03 -0.32304926614E+03 -0.22637988109E+03  0.74890209629E+03  0.10566000000E+00 0.  1.
         13    1    4    4    0    0 -0.29768581681E+02 -0.36186879088E+03  0.60924563581E+02  0.36816708691E+03  0.10566000000E+00 0. -1.
          4    1    3    3  502    0 -0.17280892622E+03  0.16402561248E+03 -0.60943918675E+03  0.65435727923E+03  0.00000000000E+00 0.  1.
         -4    1    4    4    0  501 -0.43401157444E+03  0.52089244455E+03  0.10497086512E+03  0.68608590428E+03  0.00000000000E+00 0. -1.
</event>
<event>
 8    1  0.7096247E-006  0.1034255E+04  0.7818608E-02  0.8743055E-01
         -2   -1    0    0    0  501 -0.00000000000E+00  0.00000000000E+00  0.76827383346E+03  0.76827383346E+03  0.00000000000E+00 0.  1.
          2   -1    0    0  502    0  0.00000000000E+00 -0.00000000000E+00 -0.16382425843E+04  0.16382425843E+04  0.00000000000E+00 0. -1.
    9000010    2    1    2  502    0  0.37882807150E+03 -0.58971428318E+02 -0.88896467839E+03  0.13411718222E+04  0.92816772193E+03 0.  0.
   -9000010    2    1    2    0  501 -0.37882807150E+03  0.58971428318E+02  0.18995927519E+02  0.10653445956E+04  0.99378565348E+03 0.  0.
        -13    1    3    3    0    0  0.39370418681E+03  0.23224949454E+03 -0.93989837161E+03  0.10451563398E+04  0.10566000000E+00 0.  1.
         13    1    4    4    0    0 -0.58566521660E+03  0.33892481407E+03  0.15060349326E+03  0.69322088751E+03  0.10566000000E+00 0. -1.
          4    1    3    3  502    0 -0.14876115311E+02 -0.29122092286E+03  0.50933693223E+02  0.29601548240E+03  0.00000000000E+00 0.  1.
         -4    1    4    4    0  501  0.20683714511E+03 -0.27995338575E+03 -0.13160756574E+03  0.37212370813E+03  0.00000000000E+00 0. -1.
</event>
<event>
 8    1  0.7096247E-006  0.1478382E+04  0.7818608E-02  0.8422050E-01
         -2   -1    0    0    0  501 -0.00000000000E+00  0.00000000000E+00  0.10325710048E+04  0.10325710048E+04  0.00000000000E+00 0. -1.
          2   -1    0    0  502    0  0.00000000000E+00 -0.00000000000E+00 -0.21186581989E+04  0.21186581989E+04  0.00000000000E+00 0.  1.
    9000010    2    1    2  502    0 -0.34968479775E+03 -0.10130629500E+04 -0.59162820718E+03  0.15932201320E+04  0.10196815459E+04 0.  0.
   -9000010    2    1    2    0  501  0.34968479775E+03  0.10130629500E+04 -0.49445898687E+03  0.15580090717E+04  0.10170184755E+04 0.  0.
        -13    1    3    3    0    0 -0.38981861490E+03 -0.69394668988E+03 -0.86183636022E+03  0.11731506655E+04  0.10566000000E+00 0.  1.
         13    1    4    4    0    0 -0.19950500319E+03  0.87713528893E+03 -0.39980551146E+03  0.98438458925E+03  0.10566000000E+00 0. -1.
          4    1    3    3  502    0  0.40133817154E+02 -0.31911626008E+03  0.27020815304E+03  0.42006946651E+03  0.00000000000E+00 0.  1.
         -4    1    4    4    0  501  0.54918980094E+03  0.13592766102E+03 -0.94653475409E+02  0.57362448247E+03  0.00000000000E+00 0. -1.
</event>
<event>
 8    1  0.7096247E-006  0.1308523E+04  0.7818608E-02  0.8529036E-01
         -2   -1    0    0    0  501 -0.00000000000E+00  0.00000000000E+00  0.10157038924E+04  0.10157038924E+04  0.00000000000E+00 0.  1.
          2   -1    0    0  502    0  0.00000000000E+00 -0.00000000000E+00 -0.16877628522E+04  0.16877628522E+04  0.00000000000E+00 0. -1.
    9000010    2    1    2  502    0 -0.65815938422E+03 -0.56811462632E+03 -0.37613098655E+03  0.13472230086E+04  0.95791821784E+03 0.  0.
   -9000010    2    1    2    0  501  0.65815938422E+03  0.56811462632E+03 -0.29592797320E+03  0.13562437360E+04  0.99794574130E+03 0.  0.
        -13    1    3    3    0    0 -0.89476119544E+03 -0.47210876950E+03 -0.18542064871E+03  0.10285256998E+04  0.10566000000E+00 0.  1.
         13    1    4    4    0    0  0.61385765833E+03  0.56466203024E+03 -0.61361438245E+03  0.10354646564E+04  0.10566000000E+00 0. -1.
          4    1    3    3  502    0  0.23660181122E+03 -0.96005856817E+02 -0.19071033784E+03  0.31869730871E+03  0.00000000000E+00 0.  1.
         -4    1    4    4    0  501  0.44301725888E+02  0.34525960763E+01  0.31768640925E+03  0.32077907968E+03  0.00000000000E+00 0. -1.
</event>
<event>
 8    1  0.7096247E-006  0.1209083E+04  0.7818608E-02  0.8599754E-01
          2   -1    0    0  502    0  0.00000000000E+00  0.00000000000E+00  0.11333917680E+04  0.11333917680E+04  0.00000000000E+00 0.  1.
         -2   -1    0    0    0  501 -0.00000000000E+00 -0.00000000000E+00 -0.15638240793E+04  0.15638240793E+04  0.00000000000E+00 0. -1.
    9000010    2    1    2  502    0  0.62563381699E+03 -0.23845736479E+03 -0.77842998702E+03  0.14310874711E+04  0.99688440523E+03 0.  0.
   -9000010    2    1    2    0  501 -0.62563381699E+03  0.23845736479E+03  0.34799767573E+03  0.12661283763E+04  0.10167099366E+04 0.  0.
        -13    1    3    3    0    0  0.22370674624E+03 -0.54798891746E+03 -0.70172955141E+03  0.91802011768E+03  0.10566000000E+00 0.  1.
         13    1    4    4    0    0 -0.20798601849E+03  0.14409368613E+03  0.67920486065E+03  0.72480371699E+03  0.10566000000E+00 0. -1.
          4    1    3    3  502    0  0.40192707075E+03  0.30953155267E+03 -0.76700435605E+02  0.51306735340E+03  0.00000000000E+00 0.  1.
         -4    1    4    4    0  501 -0.41764779850E+03  0.94363678661E+02 -0.33120718491E+03  0.54132465931E+03  0.00000000000E+00 0. -1.
</event>
<event>
 8    1  0.7096247E-006  0.1606772E+04  0.7818608E-02  0.8350570E-01
          2   -1    0    0  502    0  0.00000000000E+00  0.00000000000E+00  0.32899232644E+04  0.32899232644E+04  0.00000000000E+00 0.  1.
         -2   -1    0    0    0  501 -0.00000000000E+00 -0.00000000000E+00 -0.87231372650E+03  0.87231372650E+03  0.00000000000E+00 0. -1.
    9000010    2    1    2  502    0 -0.12606504435E+04 -0.94491247948E+02  0.18807515148E+04  0.24862380341E+04  0.10227341615E+04 0.  0.
   -9000010    2    1    2    0  501  0.12606504435E+04  0.94491247948E+02  0.53685802304E+03  0.16759989567E+04  0.96051435675E+03 0.  0.
        -13    1    3    3    0    0 -0.12325834512E+04 -0.29578632873E+03  0.18978991233E+04  0.22822735615E+04  0.10566000000E+00 0.  1.
         13    1    4    4    0    0  0.14006723963E+04  0.57371633415E+02  0.35989565025E+03  0.14473076923E+04  0.10566000000E+00 0. -1.
          4    1    3    3  502    0 -0.28066992302E+02  0.20129508079E+03 -0.17147608428E+02  0.20396447259E+03  0.00000000000E+00 0.  1.
         -4    1    4    4    0  501 -0.14002195279E+03  0.37119614532E+02  0.17696237278E+03  0.22869126443E+03  0.00000000000E+00 0. -1.
</event>
<event>
 8    1  0.7096247E-006  0.1264374E+04  0.7818608E-02  0.8559602E-01
          2   -1    0    0  502    0  0.00000000000E+00  0.00000000000E+00  0.21807692397E+04  0.21807692397E+04  0.00000000000E+00 0.  1.
         -2   -1    0    0    0  501 -0.00000000000E+00 -0.00000000000E+00 -0.10392496341E+04  0.10392496341E+04  0.00000000000E+00 0. -1.
    9000010    2    1    2  502    0 -0.74808619380E+03  0.16046151340E+03 -0.30091333087E+03  0.13063892384E+04  0.10152453688E+04 0.  0.
   -9000010    2    1    2    0  501  0.74808619380E+03 -0.16046151340E+03  0.14424329365E+04  0.19136296353E+04  0.99799035783E+03 0.  0.
        -13    1    3    3    0    0 -0.87758130648E+03  0.32464663521E+03 -0.46093809507E+03  0.10430763759E+04  0.10566000000E+00 0.  1.
         13    1    4    4    0    0  0.35994136676E+03 -0.10792520251E+03  0.14735524784E+04  0.15207112003E+04  0.10566000000E+00 0. -1.
          4    1    3    3  502    0  0.12949511268E+03 -0.16418512182E+03  0.16002476421E+03  0.26331286256E+03  0.00000000000E+00 0.  1.
         -4    1    4    4    0  501  0.38814482704E+03 -0.52536310885E+02 -0.31119541920E+02  0.39291843506E+03  0.00000000000E+00 0. -1.
</event>
<event>
 8    1  0.7096247E-006  0.1257393E+04  0.7818608E-02  0.8564553E-01
          1   -1    0    0  502    0  0.00000000000E+00  0.00000000000E+00  0.10328858893E+04  0.10328858893E+04  0.00000000000E+00 0. -1.
         -1   -1    0    0    0  501 -0.00000000000E+00 -0.00000000000E+00 -0.17031101018E+04  0.17031101018E+04  0.00000000000E+00 0.  1.
    9000010    2    1    2  502    0  0.50444139078E+02  0.76935374598E+03  0.10088222317E+03  0.12583211427E+04  0.98931545903E+03 0.  0.
   -9000010    2    1    2    0  501 -0.50444139078E+02 -0.76935374598E+03 -0.77110643571E+03  0.14776748485E+04  0.99723017656E+03 0.  0.
        -13    1    3    3    0    0  0.30830293490E+03  0.74607232512E+03  0.36723487988E+03  0.88686869498E+03  0.10566000000E+00 0.  1.
         13    1    4    4    0    0  0.86367808639E+02 -0.74285671022E+03 -0.56924184737E+02  0.75002390913E+03  0.10566000000E+00 0. -1.
          4    1    3    3  502    0 -0.25785879583E+03  0.23281420861E+02 -0.26635265671E+03  0.37145244767E+03  0.00000000000E+00 0.  1.
         -4    1    4    4    0  501 -0.13681194772E+03 -0.26497035753E+02 -0.71418225097E+03  0.72765093936E+03  0.00000000000E+00 0. -1.
</event>
<event>
 8    1  0.7096247E-006  0.1565667E+04  0.7818608E-02  0.8372679E-01
         -2   -1    0    0    0  501 -0.00000000000E+00  0.00000000000E+00  0.78425243850E+03  0.78425243850E+03  0.00000000000E+00 0. -1.
          2   -1    0    0  502    0  0.00000000000E+00 -0.00000000000E+00 -0.31426400278E+04  0.31426400278E+04  0.00000000000E+00 0.  1.
    9000010    2    1    2  502    0  0.11998826428E+04 -0.75810311133E+02 -0.10370349195E+04  0.18802969731E+04  0.10072783740E+04 0.  0.
   -9000010    2    1    2    0  501 -0.11998826428E+04  0.75810311133E+02 -0.13213526698E+04  0.20465954933E+04  0.99855629551E+03 0.  0.
        -13    1    3    3    0    0  0.65099868586E+03 -0.30447864991E+02 -0.11464865962E+04  0.13187713554E+04  0.10566000000E+00 0.  1.
         13    1    4    4    0    0 -0.13173037347E+03  0.94483966990E+02  0.15497976579E+03  0.22427405173E+03  0.10566000000E+00 0. -1.
          4    1    3    3  502    0  0.54888395695E+03 -0.45362446142E+02  0.10945167668E+03  0.56152561762E+03  0.00000000000E+00 0.  1.
         -4    1    4    4    0  501 -0.10681522693E+04 -0.18673655857E+02 -0.14763324356E+04  0.18223214415E+04  0.00000000000E+00 0. -1.
</event>
<event>
 8    1  0.7096247E-006  0.1258628E+04  0.7818608E-02  0.8563675E-01
          1   -1    0    0  502    0  0.00000000000E+00  0.00000000000E+00  0.18459949762E+04  0.18459949762E+04  0.00000000000E+00 0.  1.
         -1   -1    0    0    0  501 -0.00000000000E+00 -0.00000000000E+00 -0.11943256193E+04  0.11943256193E+04  0.00000000000E+00 0. -1.
    9000010    2    1    2  502    0  0.40107162020E+03  0.65022696039E+03  0.11331643954E+04  0.16969296262E+04  0.10059100680E+04 0.  0.
   -9000010    2    1    2    0  501 -0.40107162020E+03 -0.65022696039E+03 -0.48149503849E+03  0.13433909692E+04  0.99458950301E+03 0.  0.
        -13    1    3    3    0    0 -0.18584176592E+03 -0.81795129648E+00  0.69026817690E+03  0.71484823439E+03  0.10566000000E+00 0.  1.
         13    1    4    4    0    0  0.50913101325E+02 -0.70765615628E+03 -0.52944265077E+03  0.88525640976E+03  0.10566000000E+00 0. -1.
          4    1    3    3  502    0  0.58691338612E+03  0.65104491169E+03  0.44289621849E+03  0.98208139184E+03  0.00000000000E+00 0.  1.
         -4    1    4    4    0  501 -0.45198472152E+03  0.57429195891E+02  0.47947612274E+02  0.45813455944E+03  0.00000000000E+00 0. -1.
</event>
<event>
 8    1  0.7096247E-006  0.1590861E+04  0.7818608E-02  0.8359046E-01
          2   -1    0    0  502    0  0.00000000000E+00  0.00000000000E+00  0.22046261084E+04  0.22046261084E+04  0.00000000000E+00 0. -1.
         -2   -1    0    0    0  501 -0.00000000000E+00 -0.00000000000E+00 -0.12429177167E+04  0.12429177167E+04  0.00000000000E+00 0.  1.
    9000010    2    1    2  502    0 -0.16399001570E+03 -0.12342739787E+04  0.83088235099E+01  0.16041154192E+04  0.10113319247E+04 0.  0.
   -9000010    2    1    2    0  501  0.16399001570E+03  0.12342739787E+04  0.95339956813E+03  0.18434284059E+04  0.96898533075E+03 0.  0.
        -13    1    3    3    0    0 -0.12340796619E+03  0.11642379347E+03 -0.17109468180E+03  0.24095108862E+03  0.10566000000E+00 0.  1.
         13    1    4    4    0    0 -0.11401438078E+03  0.64140373772E+03 -0.41051163574E+02  0.65275052124E+03  0.10566000000E+00 0. -1.
          4    1    3    3  502    0 -0.40582049514E+02 -0.13506977722E+04  0.17940350531E+03  0.13631643306E+04  0.00000000000E+00 0.  1.
         -4    1    4    4    0  501  0.27800439648E+03  0.59287024100E+03  0.99445073171E+03  0.11906778846E+04  0.00000000000E+00 0. -1.
</event>
<event>
 8    1  0.7096247E-006  0.1185716E+04  0.7818608E-02  0.8617397E-01
         -2   -1    0    0    0  501 -0.00000000000E+00  0.00000000000E+00  0.60853315219E+03  0.60853315219E+03  0.00000000000E+00 0.  1.
          2   -1    0    0  502    0  0.00000000000E+00 -0.00000000000E+00 -0.24944392592E+04  0.24944392592E+04  0.00000000000E+00 0. -1.
    9000010    2    1    2  502    0  0.54680751705E+03 -0.22402425464E+03 -0.53588904635E+03  0.13183149896E+04  0.10495675368E+04 0.  0.
   -9000010    2    1    2    0  501 -0.54680751705E+03  0.22402425464E+03 -0.13500170607E+04  0.17846574218E+04  0.10066134918E+04 0.  0.
        -13    1    3    3    0    0  0.57609678012E+03 -0.16566163012E+03  0.15915442295E+03  0.62021078454E+03  0.10566000000E+00 0.  1.
         13    1    4    4    0    0 -0.30173123304E+03  0.38107825015E+03 -0.93645228069E+02  0.49500687837E+03  0.10566000000E+00 0. -1.
          4    1    3    3  502    0 -0.29289263072E+02 -0.58362624520E+02 -0.69504346930E+03  0.69810420504E+03  0.00000000000E+00 0.  1.
         -4    1    4    4    0  501 -0.24507628401E+03 -0.15705399552E+03 -0.12563718326E+04  0.12896505434E+04  0.00000000000E+00 0. -1.
</event>
<event>
 8    1  0.7096247E-006  0.1223854E+04  0.7818608E-02  0.8588813E-01
         -2   -1    0    0    0  501 -0.00000000000E+00  0.00000000000E+00  0.11046629098E+04  0.11046629098E+04  0.00000000000E+00 0. -1.
          2   -1    0    0  502    0  0.00000000000E+00 -0.00000000000E+00 -0.13997577783E+04  0.13997577783E+04  0.00000000000E+00 0.  1.
    9000010    2    1    2  502    0 -0.49250131223E+02  0.69614550624E+03  0.71954039780E+02  0.12402440777E+04  0.10227335172E+04 0.  0.
   -9000010    2    1    2    0  501  0.49250131223E+02 -0.69614550624E+03 -0.36704890828E+03  0.12641766104E+04  0.98811611663E+03 0.  0.
        -13    1    3    3    0    0  0.34142343146E+03  0.55421474858E+03 -0.26732914583E+03  0.70369654715E+03  0.10566000000E+00 0.  1.
         13    1    4    4    0    0  0.15649698482E+03  0.15045221750E+03 -0.34853274838E+03  0.41061206006E+03  0.10566000000E+00 0. -1.
          4    1    3    3  502    0 -0.39067356268E+03  0.14193075765E+03  0.33928318561E+03  0.53654753059E+03  0.00000000000E+00 0.  1.
         -4    1    4    4    0  501 -0.10724685360E+03 -0.84659772373E+03 -0.18516159906E+02  0.85356455035E+03  0.00000000000E+00 0. -1.
</event>
<event>
 8    1  0.7096247E-006  0.1213358E+04  0.7818608E-02  0.8596571E-01
          2   -1    0    0  502    0  0.00000000000E+00  0.00000000000E+00  0.12327580374E+04  0.12327580374E+04  0.00000000000E+00 0. -1.
         -2   -1    0    0    0  501 -0.00000000000E+00 -0.00000000000E+00 -0.12492504208E+04  0.12492504208E+04  0.00000000000E+00 0.  1.
    9000010    2    1    2  502    0 -0.67211561929E+03 -0.14071663297E+03  0.25169288629E+03  0.12519695286E+04  0.10161386791E+04 0.  0.
   -9000010    2    1    2    0  501  0.67211561929E+03  0.14071663297E+03 -0.26818526967E+03  0.12300389295E+04  0.98464808578E+03 0.  0.
        -13    1    3    3    0    0 -0.32113038923E+01  0.30144114232E+03  0.32923004632E+03  0.44639613497E+03  0.10566000000E+00 0.  1.
         13    1    4    4    0    0  0.46396348686E+03  0.28118723963E+03  0.29202410549E+03  0.61612212281E+03  0.10566000000E+00 0. -1.
          4    1    3    3  502    0 -0.66890431540E+03 -0.44215777529E+03 -0.77537160026E+02  0.80557339368E+03  0.00000000000E+00 0.  1.
         -4    1    4    4    0  501  0.20815213244E+03 -0.14047060666E+03 -0.56020937516E+03  0.61391680673E+03  0.00000000000E+00 0. -1.
</event>
<event>
 8    1  0.7096247E-006  0.1253093E+04  0.7818608E-02  0.8567620E-01
          2   -1    0    0  502    0  0.00000000000E+00  0.00000000000E+00  0.10463751280E+04  0.10463751280E+04  0.00000000000E+00 0. -1.
         -2   -1    0    0    0  501 -0.00000000000E+00 -0.00000000000E+00 -0.15012986045E+04  0.15012986045E+04  0.00000000000E+00 0.  1.
    9000010    2    1    2  502    0  0.34123727617E+03 -0.67233903507E+03 -0.20245667189E+03  0.12745666013E+04  0.10074962334E+04 0.  0.
   -9000010    2    1    2    0  501 -0.34123727617E+03  0.67233903507E+03 -0.25246680463E+03  0.12731071311E+04  0.99427341470E+03 0.  0.
        -13    1    3    3    0    0 -0.18079115645E+03 -0.62332660360E+03 -0.33975039533E+03  0.73256524576E+03  0.10566000000E+00 0.  1.
         13    1    4    4    0    0 -0.79416345105E+02  0.42745459766E+03 -0.62158888176E+03  0.75854936426E+03  0.10566000000E+00 0. -1.
          4    1    3    3  502    0  0.52202843262E+03 -0.49012431480E+02  0.13729372345E+03  0.54200135553E+03  0.00000000000E+00 0.  1.
         -4    1    4    4    0  501 -0.26182093107E+03  0.24488443741E+03  0.36912207712E+03  0.51455776688E+03  0.00000000000E+00 0. -1.
</event>
<event>
 8    1  0.7096247E-006  0.9944272E+03  0.7818608E-02  0.8779845E-01
          2   -1    0    0  502    0  0.00000000000E+00  0.00000000000E+00  0.76785041424E+03  0.76785041424E+03  0.00000000000E+00 0. -1.
         -2   -1    0    0    0  501 -0.00000000000E+00 -0.00000000000E+00 -0.13029306692E+04  0.13029306692E+04  0.00000000000E+00 0.  1.
    9000010    2    1    2  502    0  0.12653372307E+02 -0.16544270377E+03 -0.37674856814E+03  0.10567756116E+04  0.97329533734E+03 0.  0.
   -9000010    2    1    2    0  501 -0.12653372307E+02  0.16544270377E+03 -0.15833168683E+03  0.10140054718E+04  0.98772808898E+03 0.  0.
        -13    1    3    3    0    0  0.31115362725E+03 -0.43707568663E+03 -0.52529195815E+02  0.53908354007E+03  0.10566000000E+00 0.  1.
         13    1    4    4    0    0 -0.11794937108E+03  0.42015229356E+03 -0.44014951173E+03  0.61981578535E+03  0.10566000000E+00 0. -1.
          4    1    3    3  502    0 -0.29850025494E+03  0.27163298286E+03 -0.32421937233E+03  0.51769207157E+03  0.00000000000E+00 0.  1.
         -4    1    4    4    0  501  0.10529599877E+03 -0.25470958979E+03  0.28181782490E+03  0.39418968647E+03  0.00000000000E+00 0. -1.
</event>
<event>
 8    1  0.7096247E-006  0.1521887E+04  0.7818608E-02  0.8397013E-01
          2   -1    0    0  502    0  0.00000000000E+00  0.00000000000E+00  0.22530256286E+04  0.22530256286E+04  0.00000000000E+00 0.  1.
         -2   -1    0    0    0  501 -0.00000000000E+00 -0.00000000000E+00 -0.10325042360E+04  0.10325042360E+04  0.00000000000E+00 0. -1.
    9000010    2    1    2  502    0  0.88368315423E+03  0.67660035420E+03  0.49696149353E+03  0.15860765871E+04  0.10148814008E+04 0.  0.
   -9000010    2    1    2    0  501 -0.88368315423E+03 -0.67660035420E+03  0.72355989910E+03  0.16994532775E+04  0.10610930960E+04 0.  0.
        -13    1    3    3    0    0  0.52570411057E+03  0.65193183905E+03 -0.14566326687E+03  0.85005748812E+03  0.10566000000E+00 0.  1.
         13    1    4    4    0    0 -0.47747457562E+03 -0.34249619625E+02 -0.18652517978E+03  0.51375739475E+03  0.10566000000E+00 0. -1.
          4    1    3    3  502    0  0.35797904366E+03  0.24668515145E+02  0.64262476041E+03  0.73601909896E+03  0.00000000000E+00 0.  1.
         -4    1    4    4    0  501 -0.40620857861E+03 -0.64235073457E+03  0.91008507887E+03  0.11856958827E+04  0.00000000000E+00 0. -1.
</event>
<event>
 8    1  0.7096247E-006  0.1382555E+04  0.7818608E-02  0.8480470E-01
          2   -1    0    0  502    0  0.00000000000E+00  0.00000000000E+00  0.85020046690E+03  0.85020046690E+03  0.00000000000E+00 0.  1.
         -2   -1    0    0    0  501 -0.00000000000E+00 -0.00000000000E+00 -0.22782760392E+04  0.22782760392E+04  0.00000000000E+00 0. -1.
    9000010    2    1    2  502    0 -0.95009496216E+03  0.90078780481E+02 -0.89430105923E+03  0.16477020497E+04  0.10021741547E+04 0.  0.
   -9000010    2    1    2    0  501  0.95009496216E+03 -0.90078780481E+02 -0.53377451306E+03  0.14807744563E+04  0.99849042857E+03 0.  0.
        -13    1    3    3    0    0 -0.58931019776E+03  0.20712681895E+03  0.53387936223E+02  0.62692767622E+03  0.10566000000E+00 0.  1.
         13    1    4    4    0    0  0.58281199476E+03  0.32795905057E+03 -0.62681844041E+03  0.91658514525E+03  0.10566000000E+00 0. -1.
          4    1    3    3  502    0 -0.36078476441E+03 -0.11704803847E+03 -0.94768899545E+03  0.10207743735E+04  0.00000000000E+00 0.  1.
         -4    1    4    4    0  501  0.36728296740E+03 -0.41803783105E+03  0.93043927356E+02  0.56418931109E+03  0.00000000000E+00 0. -1.
</event>
<event>
 8    1  0.7096247E-006  0.1132491E+04  0.7818608E-02  0.8659209E-01
         -2   -1    0    0    0  501 -0.00000000000E+00  0.00000000000E+00  0.72975109960E+03  0.72975109960E+03  0.00000000000E+00 0. -1.
          2   -1    0    0  502    0  0.00000000000E+00 -0.00000000000E+00 -0.19993286678E+04  0.19993286678E+04  0.00000000000E+00 0.  1.
    9000010    2    1    2  502    0  0.28628444490E+03  0.51996795863E+03 -0.15585713875E+03  0.11341808370E+04  0.95380776996E+03 0.  0.
   -9000010    2    1    2    0  501 -0.28628444490E+03 -0.51996795863E+03 -0.11137204294E+04  0.15948989304E+04  0.97519430972E+03 0.  0.
        -13    1    3    3    0    0  0.81513665320E+02  0.68241611409E+03 -0.38397267632E+03  0.78725552251E+03  0.10566000000E+00 0.  1.
         13    1    4    4    0    0 -0.19710184901E+02 -0.48345764431E+03 -0.37226635162E+02  0.48528921146E+03  0.10566000000E+00 0. -1.
          4    1    3    3  502    0  0.20477077958E+03 -0.16244815546E+03  0.22811553757E+03  0.34692531453E+03  0.00000000000E+00 0.  1.
         -4    1    4    4    0  501 -0.26657426000E+03 -0.36510314316E+02 -0.10764937943E+04  0.11096097189E+04  0.00000000000E+00 0. -1.
</event>
<event>
 8    1  0.7096247E-006  0.1164108E+04  0.7818608E-02  0.8634092E-01
          2   -1    0    0  502    0  0.00000000000E+00  0.00000000000E+00  0.15652421851E+04  0.15652421851E+04  0.00000000000E+00 0.  1.
         -2   -1    0    0    0  501 -0.00000000000E+00 -0.00000000000E+00 -0.88235618439E+03  0.88235618439E+03  0.00000000000E+00 0. -1.
    9000010    2    1    2  502    0 -0.28558750601E+03 -0.51441700347E+03  0.17219886045E+03  0.11713712324E+04  0.99813478029E+03 0.  0.
   -9000010    2    1    2    0  501  0.28558750601E+03  0.51441700347E+03  0.51068714022E+03  0.12762271370E+04  0.10108260350E+04 0.  0.
        -13    1    3    3    0    0  0.35441716440E+03 -0.12696398166E+03  0.19273760492E+03  0.42294110059E+03  0.10566000000E+00 0.  1.
         13    1    4    4    0    0  0.34575413322E+03  0.70768987087E+02  0.70481870259E+03  0.78824081654E+03  0.10566000000E+00 0. -1.
          4    1    3    3  502    0 -0.64000467040E+03 -0.38745302180E+03 -0.20538744462E+02  0.74843013185E+03  0.00000000000E+00 0.  1.
         -4    1    4    4    0  501 -0.60166627211E+02  0.44364801638E+03 -0.19413156237E+03  0.48798632048E+03  0.00000000000E+00 0. -1.
</event>
<event>
 8    1  0.7096247E-006  0.1161164E+04  0.7818608E-02  0.8636395E-01
         -4   -1    0    0    0  501 -0.00000000000E+00  0.00000000000E+00  0.22744334585E+04  0.22744334585E+04  0.00000000000E+00 0. -1.
          4   -1    0    0  502    0  0.00000000000E+00 -0.00000000000E+00 -0.65695472247E+03  0.65695472247E+03  0.00000000000E+00 0.  1.
    9000010    2    1    2  502    0 -0.54777124891E+03  0.47735609539E+02  0.33902145102E+03  0.11908951884E+04  0.10004817719E+04 0.  0.
   -9000010    2    1    2    0  501  0.54777124891E+03 -0.47735609539E+02  0.12784572850E+04  0.17404929926E+04  0.10452419807E+04 0.  0.
        -13    1    3    3    0    0 -0.70318563256E+03  0.33040935470E+03  0.87516830911E+02  0.78185649730E+03  0.10566000000E+00 0.  1.
         13    1    4    4    0    0  0.20734552107E+03  0.42305208191E+03  0.19259271625E+03  0.50897661501E+03  0.10566000000E+00 0. -1.
          4    1    3    3  502    0  0.15541438366E+03 -0.28267374516E+03  0.25150462011E+03  0.40903869106E+03  0.00000000000E+00 0.  1.
         -4    1    4    4    0  501  0.34042572784E+03 -0.47078769144E+03  0.10858645687E+04  0.12315163776E+04  0.00000000000E+00 0. -1.
</event>
<event>
 8    1  0.7096247E-006  0.1176445E+04  0.7818608E-02  0.8624514E-01
         -2   -1    0    0    0  501 -0.00000000000E+00  0.00000000000E+00  0.87845437891E+03  0.87845437891E+03  0.00000000000E+00 0. -1.
          2   -1    0    0  502    0  0.00000000000E+00 -0.00000000000E+00 -0.21659432670E+04  0.21659432670E+04  0.00000000000E+00 0.  1.
    9000010    2    1    2  502    0 -0.56330955376E+03  0.81497761493E+02  0.13563842262E+03  0.12200426993E+04  0.10705824900E+04 0.  0.
   -9000010    2    1    2    0  501  0.56330955376E+03 -0.81497761493E+02 -0.14231273107E+04  0.18243549467E+04  0.98945444077E+03 0.  0.
        -13    1    3    3    0    0 -0.39667265730E+03  0.56769559054E+03  0.17974186318E+02  0.69278464411E+03  0.10566000000E+00 0.  1.
         13    1    4    4    0    0  0.27631664099E+03  0.42699515488E+03 -0.93042638559E+03  0.10603626825E+04  0.10566000000E+00 0. -1.
          4    1    3    3  502    0 -0.16663689646E+03 -0.48619782905E+03  0.11766423630E+03  0.52725805517E+03  0.00000000000E+00 0.  1.
         -4    1    4    4    0  501  0.28699291277E+03 -0.50849291637E+03 -0.49270092514E+03  0.76399226411E+03  0.00000000000E+00 0. -1.
</event>
<event>
 8    1  0.7096247E-006  0.1028025E+04  0.7818608E-02  0.8748696E-01
          2   -1    0    0  502    0  0.00000000000E+00  0.00000000000E+00  0.16149202281E+04  0.16149202281E+04  0.00000000000E+00 0.  1.
         -2   -1    0    0    0  501 -0.00000000000E+00 -0.00000000000E+00 -0.80778470725E+03  0.80778470725E+03  0.00000000000E+00 0. -1.
    9000010    2    1    2  502    0  0.22137010238E+03 -0.23448571281E+03  0.93317537801E+03  0.13926753008E+04  0.98221175705E+03 0.  0.
   -9000010    2    1    2    0  501 -0.22137010238E+03  0.23448571281E+03 -0.12603985720E+03  0.10300296345E+04  0.97009624810E+03 0.  0.
        -13    1    3    3    0    0  0.54017107465E+03  0.84384425878E+02  0.69011642392E+03  0.88043523950E+03  0.10566000000E+00 0.  1.
         13    1    4    4    0    0  0.33560314870E+03  0.31301336610E+03 -0.77993077824E+02  0.46549948671E+03  0.10566000000E+00 0. -1.
          4    1    3    3  502    0 -0.31880097227E+03 -0.31887013869E+03  0.24305895408E+03  0.51224006133E+03  0.00000000000E+00 0.  1.
         -4    1    4    4    0  501 -0.55697325108E+03 -0.78527653286E+02 -0.48046779375E+02  0.56453014778E+03  0.00000000000E+00 0. -1.
</event>
<event>
 8    1  0.7096247E-006  0.1954209E+04  0.7818608E-02  0.8187294E-01
         -1   -1    0    0    0  501 -0.00000000000E+00  0.00000000000E+00  0.84821051782E+03  0.84821051782E+03  0.00000000000E+00 0. -1.
          1   -1    0    0  502    0  0.00000000000E+00 -0.00000000000E+00 -0.45101675661E+04  0.45101675661E+04  0.00000000000E+00 0.  1.
    9000010    2    1    2  502    0  0.23678773332E+03  0.16610937019E+04 -0.17212991702E+04  0.26057035972E+04  0.10057433500E+04 0.  0.
   -9000010    2    1    2    0  501 -0.23678773332E+03 -0.16610937019E+04 -0.19406578781E+04  0.27526744867E+04  0.99787930767E+03 0.  0.
        -13    1    3    3    0    0  0.44175503613E+03  0.15528016821E+04 -0.11300203093E+04  0.19706056142E+04  0.10566000000E+00 0.  1.
         13    1    4    4    0    0  0.29327902185E+03 -0.11394184480E+03 -0.26728359676E+03  0.41283878320E+03  0.10566000000E+00 0. -1.
          4    1    3    3  502    0 -0.20496730280E+03  0.10829201982E+03 -0.59127886085E+03  0.63509798305E+03  0.00000000000E+00 0.  1.
         -4    1    4    4    0  501 -0.53006675517E+03 -0.15471518571E+04 -0.16733742814E+04  0.23398357035E+04  0.00000000000E+00 0. -1.
</event>
<event>
 8    1  0.7096247E-006  0.1160309E+04  0.7818608E-02  0.8637065E-01
          2   -1    0    0  502    0  0.00000000000E+00  0.00000000000E+00  0.36409484363E+04  0.36409484363E+04  0.00000000000E+00 0. -1.
         -2   -1    0    0    0  501 -0.00000000000E+00 -0.00000000000E+00 -0.40093997337E+03  0.40093997337E+03  0.00000000000E+00 0.  1.
    9000010    2    1    2  502    0  0.21985314820E+03 -0.48812375309E+03  0.22139321071E+04  0.25113618062E+04  0.10577535353E+04 0.  0.
   -9000010    2    1    2    0  501 -0.21985314820E+03  0.48812375309E+03  0.10260763558E+04  0.15305266035E+04  0.10015382124E+04 0.  0.
        -13    1    3    3    0    0  0.58040276267E+03 -0.45007248131E+03  0.97628892346E+03  0.12217089173E+04  0.10566000000E+00 0.  1.
         13    1    4    4    0    0 -0.19230796306E+03  0.42110810294E+03  0.12299350862E+04  0.13141745373E+04  0.10566000000E+00 0. -1.
          4    1    3    3  502    0 -0.36054961446E+03 -0.38051271774E+02  0.12376431836E+04  0.12896528889E+04  0.00000000000E+00 0.  1.
         -4    1    4    4    0  501 -0.27545185143E+02  0.67015650145E+02 -0.20385873039E+03  0.21635206620E+03  0.00000000000E+00 0. -1.
</event>
<event>
 8    1  0.7096247E-006  0.1487773E+04  0.7818608E-02  0.8416570E-01
          2   -1    0    0  502    0  0.00000000000E+00  0.00000000000E+00  0.20551542613E+04  0.20551542613E+04  0.00000000000E+00 0.  1.
         -2   -1    0    0    0  501 -0.00000000000E+00 -0.00000000000E+00 -0.12543133030E+04  0.12543133030E+04  0.00000000000E+00 0. -1.
    9000010    2    1    2  502    0  0.10349369179E+04 -0.34871430621E+03  0.10226710044E+04  0.18059246217E+04  0.10113415174E+04 0.  0.
   -9000010    2    1    2    0  501 -0.10349369179E+04  0.34871430621E+03 -0.22183004601E+03  0.15035429426E+04  0.10093248831E+04 0.  0.
        -13    1    3    3    0    0  0.10598170512E+04 -0.52544153701E+03  0.55753655332E+03  0.13077262750E+04  0.10566000000E+00 0.  1.
         13    1    4    4    0    0 -0.65403583010E+03  0.31795268564E+03  0.35685836344E+03  0.81006461476E+03  0.10566000000E+00 0. -1.
          4    1    3    3  502    0 -0.24880133317E+02  0.17672723080E+03  0.46513445104E+03  0.49819834673E+03  0.00000000000E+00 0.  1.
         -4    1    4    4    0  501 -0.38090108776E+03  0.30761620569E+02 -0.57868840945E+03  0.69347832784E+03  0.00000000000E+00 0. -1.
</event>
<event>
 8    1  0.7096247E-006  0.1005528E+04  0.7818608E-02  0.8769415E-01
          1   -1    0    0  502    0  0.00000000000E+00  0.00000000000E+00  0.10913492750E+04  0.10913492750E+04  0.00000000000E+00 0. -1.
         -1   -1    0    0    0  501 -0.00000000000E+00 -0.00000000000E+00 -0.10779314968E+04  0.10779314968E+04  0.00000000000E+00 0.  1.
    9000010    2    1    2  502    0  0.28601680242E+03  0.47377662597E+02 -0.39985524427E+03  0.10755452815E+04  0.95543873798E+03 0.  0.
   -9000010    2    1    2    0  501 -0.28601680242E+03 -0.47377662597E+02  0.41327302245E+03  0.10937354903E+04  0.97026412771E+03 0.  0.
        -13    1    3    3    0    0  0.20927741119E+03 -0.38311565111E+03  0.60373606058E+02  0.44070355164E+03  0.10566000000E+00 0.  1.
         13    1    4    4    0    0 -0.34209503080E+03  0.18088393276E+03  0.65233385333E+03  0.75847707585E+03  0.10566000000E+00 0. -1.
          4    1    3    3  502    0  0.76739391229E+02  0.43049331370E+03 -0.46022885033E+03  0.63484172987E+03  0.00000000000E+00 0.  1.
         -4    1    4    4    0  501  0.56078228380E+02 -0.22826159535E+03 -0.23906083088E+03  0.33525841447E+03  0.00000000000E+00 0. -1.
</event>
<event>
 8    1  0.7096247E-006  0.1472517E+04  0.7818608E-02  0.8425494E-01
          2   -1    0    0  502    0  0.00000000000E+00  0.00000000000E+00  0.77385133329E+03  0.77385133329E+03  0.00000000000E+00 0.  1.
         -2   -1    0    0    0  501 -0.00000000000E+00 -0.00000000000E+00 -0.37305265343E+04  0.37305265343E+04  0.00000000000E+00 0. -1.
    9000010    2    1    2  502    0  0.84185122649E+03 -0.67755578169E+03 -0.26002576289E+04  0.29871363207E+04  0.99691942330E+03 0.  0.
   -9000010    2    1    2    0  501 -0.84185122649E+03  0.67755578169E+03 -0.35641757205E+03  0.15172415469E+04  0.10035901061E+04 0.  0.
        -13    1    3    3    0    0 -0.10534045376E+03 -0.48860732187E+03 -0.10008579583E+04  0.11187271294E+04  0.10566000000E+00 0.  1.
         13    1    4    4    0    0 -0.32857037886E+03 -0.17133850466E+03  0.15439887609E+03  0.40144040796E+03  0.10566000000E+00 0. -1.
          4    1    3    3  502    0  0.94719168025E+03 -0.18894845982E+03 -0.15993996707E+04  0.18684091913E+04  0.00000000000E+00 0.  1.
         -4    1    4    4    0  501 -0.51328084763E+03  0.84889428635E+03 -0.51081644814E+03  0.11158011389E+04  0.00000000000E+00 0. -1.
</event>
<event>
 8    1  0.7096247E-006  0.1336491E+04  0.7818608E-02  0.8510309E-01
         -1   -1    0    0    0  501 -0.00000000000E+00  0.00000000000E+00  0.23382418720E+04  0.23382418720E+04  0.00000000000E+00 0. -1.
          1   -1    0    0  502    0  0.00000000000E+00 -0.00000000000E+00 -0.13849221596E+04  0.13849221596E+04  0.00000000000E+00 0.  1.
    9000010    2    1    2  502    0  0.13690662266E+03 -0.87391250850E+03 -0.76974900372E+03  0.15430513257E+04  0.10030091571E+04 0.  0.
   -9000010    2    1    2    0  501 -0.13690662266E+03  0.87391250850E+03  0.17230687161E+04  0.21801127060E+04  0.10007292913E+04 0.  0.
        -13    1    3    3    0    0  0.51297361998E+03 -0.45215028282E+03 -0.69164873691E+03  0.97260464706E+03  0.10566000000E+00 0.  1.
         13    1    4    4    0    0  0.41397042217E+03  0.48087096771E+03  0.62748702114E+03  0.89238353351E+03  0.10566000000E+00 0. -1.
          4    1    3    3  502    0 -0.37606699732E+03 -0.42176222568E+03 -0.78100266806E+02  0.57044667863E+03  0.00000000000E+00 0.  1.
         -4    1    4    4    0  501 -0.55087704483E+03  0.39304154079E+03  0.10955816949E+04  0.12877291725E+04  0.00000000000E+00 0. -1.
</event>
<event>
 8    1  0.7096247E-006  0.1375770E+04  0.7818608E-02  0.8484789E-01
          2   -1    0    0  502    0  0.00000000000E+00  0.00000000000E+00  0.25063106179E+04  0.25063106179E+04  0.00000000000E+00 0. -1.
         -2   -1    0    0    0  501 -0.00000000000E+00 -0.00000000000E+00 -0.82406996243E+03  0.82406996243E+03  0.00000000000E+00 0.  1.
    9000010    2    1    2  502    0  0.87457743745E+03  0.33154808481E+03  0.36033543094E+03  0.14232736151E+04  0.10104733217E+04 0.  0.
   -9000010    2    1    2    0  501 -0.87457743745E+03 -0.33154808481E+03  0.13219052245E+04  0.19071069653E+04  0.10073796344E+04 0.  0.
        -13    1    3    3    0    0  0.21753174505E+03  0.60070084811E+03  0.28470649120E+02  0.63950931038E+03  0.10566000000E+00 0.  1.
         13    1    4    4    0    0 -0.36428744450E+03 -0.34895592817E+03  0.13018018644E+04  0.13961245243E+04  0.10566000000E+00 0. -1.
          4    1    3    3  502    0  0.65704569240E+03 -0.26915276330E+03  0.33186478182E+03  0.78376430469E+03  0.00000000000E+00 0.  1.
         -4    1    4    4    0  501 -0.51028999295E+03  0.17407843351E+02  0.20103360147E+02  0.51098244100E+03  0.00000000000E+00 0. -1.
</event>
<event>
 8    1  0.7096247E-006  0.1130728E+04  0.7818608E-02  0.8660635E-01
         -2   -1    0    0    0  501 -0.00000000000E+00  0.00000000000E+00  0.73665764910E+03  0.73665764910E+03  0.00000000000E+00 0.  1.
          2   -1    0    0  502    0  0.00000000000E+00 -0.00000000000E+00 -0.17396693152E+04  0.17396693152E+04  0.00000000000E+00 0. -1.
    9000010    2    1    2  502    0 -0.44763764183E+03  0.29122102785E+03 -0.43917996151E+03  0.12069496007E+04  0.98927203263E+03 0.  0.
   -9000010    2    1    2    0  501  0.44763764183E+03 -0.29122102785E+03 -0.56383170456E+03  0.12693773636E+04  0.10041033586E+04 0.  0.
        -13    1    3    3    0    0 -0.17993404450E+03 -0.36800309040E+03 -0.20369308719E+03  0.45748597776E+03  0.10566000000E+00 0.  1.
         13    1    4    4    0    0 -0.30268598849E+03  0.60215709099E+02 -0.16112928984E+03  0.34814852931E+03  0.10566000000E+00 0. -1.
          4    1    3    3  502    0 -0.26770359734E+03  0.65922411825E+03 -0.23548687432E+03  0.74946362293E+03  0.00000000000E+00 0.  1.
         -4    1    4    4    0  501  0.75032363033E+03 -0.35143673695E+03 -0.40270241472E+03  0.92122883429E+03  0.00000000000E+00 0. -1.
</event>
<event>
 8    1  0.7096247E-006  0.1357684E+04  0.7818608E-02  0.8496429E-01
         -4   -1    0    0    0  501 -0.00000000000E+00  0.00000000000E+00  0.16414224700E+04  0.16414224700E+04  0.00000000000E+00 0. -1.
          4   -1    0    0  502    0  0.00000000000E+00 -0.00000000000E+00 -0.11494275668E+04  0.11494275668E+04  0.00000000000E+00 0.  1.
    9000010    2    1    2  502    0 -0.11275553925E+03 -0.90752720430E+03  0.34462640574E+02  0.13585752876E+04  0.10041014393E+04 0.  0.
   -9000010    2    1    2    0  501  0.11275553925E+03  0.90752720430E+03  0.45753226267E+03  0.14322747492E+04  0.10028737446E+04 0.  0.
        -13    1    3    3    0    0 -0.26402128561E+03  0.75169355362E+02 -0.19679342503E+03  0.33776520623E+03  0.10566000000E+00 0.  1.
         13    1    4    4    0    0  0.52902070144E+03  0.56797217678E+03  0.44550935560E+03  0.89494910092E+03  0.10566000000E+00 0. -1.
          4    1    3    3  502    0  0.15126574636E+03 -0.98269655966E+03  0.23125606560E+03  0.10208100814E+04  0.00000000000E+00 0.  1.
         -4    1    4    4    0  501 -0.41626516219E+03  0.33955502752E+03  0.12022907075E+02  0.53732564825E+03  0.00000000000E+00 0. -1.
</event>
<event>
 8    1  0.7096247E-006  0.1297594E+04  0.7818608E-02  0.8536485E-01
          2   -1    0    0  502    0  0.00000000000E+00  0.00000000000E+00  0.94925978970E+03  0.94925978970E+03  0.00000000000E+00 0.  1.
         -2   -1    0    0    0  501 -0.00000000000E+00 -0.00000000000E+00 -0.18086441710E+04  0.18086441710E+04  0.00000000000E+00 0. -1.
    9000010    2    1    2  502    0 -0.75596844981E+03  0.24975882246E+03 -0.62354071006E+03  0.14465740003E+04  0.10343623905E+04 0.  0.
   -9000010    2    1    2    0  501  0.75596844981E+03 -0.24975882246E+03 -0.23584367126E+03  0.13113299604E+04  0.10149365799E+04 0.  0.
        -13    1    3    3    0    0  0.93801528745E+02  0.42036217153E+03 -0.13355070249E+03  0.45093112927E+03  0.10566000000E+00 0.  1.
         13    1    4    4    0    0  0.25778456685E+03 -0.61576985964E+03 -0.69519101565E+02  0.67116191757E+03  0.10566000000E+00 0. -1.
          4    1    3    3  502    0 -0.84976997855E+03 -0.17060334907E+03 -0.48999000757E+03  0.99564287105E+03  0.00000000000E+00 0.  1.
         -4    1    4    4    0  501  0.49818388295E+03  0.36601103718E+03 -0.16632456969E+03  0.64016804282E+03  0.00000000000E+00 0. -1.
</event>
<event>
 8    1  0.7096247E-006  0.1616155E+04  0.7818608E-02  0.8345619E-01
          2   -1    0    0  502    0  0.00000000000E+00  0.00000000000E+00  0.17141737935E+04  0.17141737935E+04  0.00000000000E+00 0.  1.
         -2   -1    0    0    0  501 -0.00000000000E+00 -0.00000000000E+00 -0.15307949015E+04  0.15307949015E+04  0.00000000000E+00 0. -1.
    9000010    2    1    2  502    0 -0.11871247960E+04  0.43423014742E+03  0.20133877434E+03  0.16229009789E+04  0.99772199693E+03 0.  0.
   -9000010    2    1    2    0  501  0.11871247960E+04 -0.43423014742E+03 -0.17959882300E+02  0.16220677161E+04  0.10163464056E+04 0.  0.
        -13    1    3    3    0    0 -0.13300282074E+04  0.48217194183E+03  0.29538162020E+03  0.14452387784E+04  0.10566000000E+00 0.  1.
         13    1    4    4    0    0  0.10098391959E+04 -0.65131877907E+03 -0.28493831612E+03  0.12349822706E+04  0.10566000000E+00 0. -1.
          4    1    3    3  502    0  0.14290341138E+03 -0.47941794414E+02 -0.94042845858E+02  0.17766220052E+03  0.00000000000E+00 0.  1.
         -4    1    4    4    0  501  0.17728560003E+03  0.21708863166E+03  0.26697843382E+03  0.38708544547E+03  0.00000000000E+00 0. -1.
</event>
<event>
 8    1  0.7096247E-006  0.1081700E+04  0.7818608E-02  0.8701401E-01
          2   -1    0    0  502    0  0.00000000000E+00  0.00000000000E+00  0.32387253574E+04  0.32387253574E+04  0.00000000000E+00 0.  1.
         -2   -1    0    0    0  501 -0.00000000000E+00 -0.00000000000E+00 -0.39114785337E+03  0.39114785337E+03  0.00000000000E+00 0. -1.
    9000010    2    1    2  502    0 -0.18829224521E+03  0.33764958635E+03  0.19319837414E+04  0.22169049434E+04  0.10161914871E+04 0.  0.
   -9000010    2    1    2    0  501  0.18829224521E+03 -0.33764958635E+03  0.91559376267E+03  0.14129682674E+04  0.10043436531E+04 0.  0.
        -13    1    3    3    0    0  0.20882273000E+03  0.21888070778E+03  0.71557001809E+02  0.31086349493E+03  0.10566000000E+00 0.  1.
         13    1    4    4    0    0  0.99847729202E+02 -0.39848346966E+03  0.11140292540E+04  0.11873583430E+04  0.10566000000E+00 0. -1.
          4    1    3    3  502    0 -0.39711497521E+03  0.11876887857E+03  0.18604267396E+04  0.19060414485E+04  0.00000000000E+00 0.  1.
         -4    1    4    4    0  501  0.88444516004E+02  0.60833883311E+02 -0.19843549134E+03  0.22560992442E+03  0.00000000000E+00 0. -1.
</event>
<event>
 8    1  0.7096247E-006  0.1118426E+04  0.7818608E-02  0.8670659E-01
          2   -1    0    0  502    0  0.00000000000E+00  0.00000000000E+00  0.16199113230E+04  0.16199113230E+04  0.00000000000E+00 0.  1.
         -2   -1    0    0    0  501 -0.00000000000E+00 -0.00000000000E+00 -0.87664162584E+03  0.87664162584E+03  0.00000000000E+00 0. -1.
    9000010    2    1    2  502    0  0.44879883347E+03  0.30990665802E+03  0.80633022943E+03  0.13902129044E+04  0.99250236829E+03 0.  0.
   -9000010    2    1    2    0  501 -0.44879883347E+03 -0.30990665802E+03 -0.63060532297E+02  0.11063400444E+04  0.96049421316E+03 0.  0.
        -13    1    3    3    0    0 -0.69519522508E+02 -0.39792784549E+02 -0.19437429764E+03  0.21023274831E+03  0.10566000000E+00 0.  1.
         13    1    4    4    0    0 -0.68789373368E+03 -0.36161715004E+03 -0.22965854769E+03  0.81037510557E+03  0.10566000000E+00 0. -1.
          4    1    3    3  502    0  0.51831835598E+03  0.34969944256E+03  0.10007045271E+04  0.11799801561E+04  0.00000000000E+00 0.  1.
         -4    1    4    4    0  501  0.23909490021E+03  0.51710492022E+02  0.16659801539E+03  0.29596493884E+03  0.00000000000E+00 0. -1.
</event>
<event>
 8    1  0.7096247E-006  0.1054367E+04  0.7818608E-02  0.8725120E-01
         -2   -1    0    0    0  501 -0.00000000000E+00  0.00000000000E+00  0.47888099297E+03  0.47888099297E+03  0.00000000000E+00 0. -1.
          2   -1    0    0  502    0  0.00000000000E+00 -0.00000000000E+00 -0.23299425511E+04  0.23299425511E+04  0.00000000000E+00 0.  1.
    9000010    2    1    2  502    0 -0.15299137574E+03  0.23815090506E+03 -0.10087781339E+04  0.14579031480E+04  0.10137682433E+04 0.  0.
   -9000010    2    1    2    0  501  0.15299137574E+03 -0.23815090506E+03 -0.84228342425E+03  0.13509203960E+04  0.10175570426E+04 0.  0.
        -13    1    3    3    0    0 -0.52483128000E+03  0.15774103710E+03 -0.23624321925E+03  0.59677548295E+03  0.10566000000E+00 0.  1.
         13    1    4    4    0    0  0.34348610122E+03 -0.89149233492E+02 -0.10007338091E+04  0.10617902125E+04  0.10566000000E+00 0. -1.
          4    1    3    3  502    0  0.37183990425E+03  0.80409867965E+02 -0.77253491460E+03  0.86112766507E+03  0.00000000000E+00 0.  1.
         -4    1    4    4    0  501 -0.19049472547E+03 -0.14900167157E+03  0.15845038483E+03  0.28913018351E+03  0.00000000000E+00 0. -1.
</event>
<event>
 8    1  0.7096247E-006  0.1826625E+04  0.7818608E-02  0.8242884E-01
          2   -1    0    0  502    0  0.00000000000E+00  0.00000000000E+00  0.12006967064E+04  0.12006967064E+04  0.00000000000E+00 0. -1.
         -2   -1    0    0    0  501 -0.00000000000E+00 -0.00000000000E+00 -0.33792425194E+04  0.33792425194E+04  0.00000000000E+00 0.  1.
    9000010    2    1    2  502    0 -0.62155598772E+02 -0.15236113727E+04 -0.20606013074E+04  0.27621054722E+04  0.10285397211E+04 0.  0.
   -9000010    2    1    2    0  501  0.62155598772E+02  0.15236113727E+04 -0.11794450557E+03  0.18178337536E+04  0.98252415540E+03 0.  0.
        -13    1    3    3    0    0  0.47600218116E+03 -0.57319366497E+03 -0.90025579414E+03  0.11685844257E+04  0.10566000000E+00 0.  1.
         13    1    4    4    0    0 -0.24705555354E+03  0.13776220149E+02  0.88724788068E+02  0.26286561198E+03  0.10566000000E+00 0. -1.
          4    1    3    3  502    0 -0.53815777993E+03 -0.95041770773E+03 -0.11603455133E+04  0.15935210465E+04  0.00000000000E+00 0.  1.
         -4    1    4    4    0  501  0.30921115232E+03  0.15098351526E+04 -0.20666929363E+03  0.15549681417E+04  0.00000000000E+00 0. -1.
</event>
<event>
 8    1  0.7096247E-006  0.1288194E+04  0.7818608E-02  0.8542953E-01
         -2   -1    0    0    0  501 -0.00000000000E+00  0.00000000000E+00  0.13833180407E+04  0.13833180407E+04  0.00000000000E+00 0. -1.
          2   -1    0    0  502    0  0.00000000000E+00 -0.00000000000E+00 -0.11998756478E+04  0.11998756478E+04  0.00000000000E+00 0.  1.
    9000010    2    1    2  502    0 -0.42673950557E+03 -0.66581872125E+03  0.77472897338E+02  0.12767971956E+04  0.99939374304E+03 0.  0.
   -9000010    2    1    2    0  501  0.42673950557E+03  0.66581872125E+03  0.10596949557E+03  0.13063964929E+04  0.10344182363E+04 0.  0.
        -13    1    3    3    0    0 -0.43268192641E+02 -0.83585378394E+03  0.15224466632E+03  0.85070684387E+03  0.10566000000E+00 0.  1.
         13    1    4    4    0    0  0.37785522941E+03 -0.18122896599E+03 -0.10516771300E+03  0.43206338832E+03  0.10566000000E+00 0. -1.
          4    1    3    3  502    0 -0.38347131293E+03  0.17003506269E+03 -0.74771768980E+02  0.42609035171E+03  0.00000000000E+00 0.  1.
         -4    1    4    4    0  501  0.48884276162E+02  0.84704768724E+03  0.21113720858E+03  0.87433310458E+03  0.00000000000E+00 0. -1.
</event>
<event>
 8    1  0.7096247E-006  0.1254803E+04  0.7818608E-02  0.8566399E-01
         -1   -1    0    0    0  501 -0.00000000000E+00  0.00000000000E+00  0.14261365451E+04  0.14261365451E+04  0.00000000000E+00 0.  1.
          1   -1    0    0  502    0  0.00000000000E+00 -0.00000000000E+00 -0.23702628368E+04  0.23702628368E+04  0.00000000000E+00 0. -1.
    9000010    2    1    2  502    0 -0.11225667627E+03 -0.79404213945E+03  0.91078593631E+03  0.15701286989E+04  0.99632757105E+03 0.  0.
   -9000010    2    1    2    0  501  0.11225667627E+03  0.79404213945E+03 -0.18549122280E+04  0.22262706830E+04  0.93406493344E+03 0.  0.
        -13    1    3    3    0    0 -0.77304836911E+01  0.10076256100E+03 -0.14845763774E+03  0.17958990909E+03  0.10566000000E+00 0.  1.
         13    1    4    4    0    0 -0.33858439219E+03  0.61846760505E+02 -0.33682039271E+03  0.48157284032E+03  0.10566000000E+00 0. -1.
          4    1    3    3  502    0 -0.10452619258E+03 -0.89480470045E+03  0.10592435740E+04  0.13905387898E+04  0.00000000000E+00 0.  1.
         -4    1    4    4    0  501  0.45084106846E+03  0.73219537894E+03 -0.15180918352E+04  0.17446978427E+04  0.00000000000E+00 0. -1.
</event>
<event>
 8    1  0.7096247E-006  0.1040201E+04  0.7818608E-02  0.8737709E-01
         -1   -1    0    0    0  501 -0.00000000000E+00  0.00000000000E+00  0.77871420725E+03  0.77871420725E+03  0.00000000000E+00 0.  1.
          1   -1    0    0  502    0  0.00000000000E+00 -0.00000000000E+00 -0.14197788918E+04  0.14197788918E+04  0.00000000000E+00 0. -1.
    9000010    2    1    2  502    0  0.23148773777E+03 -0.12069679257E+03 -0.16075729371E+03  0.10550072220E+04  0.10094766182E+04 0.  0.
   -9000010    2    1    2    0  501 -0.23148773777E+03  0.12069679257E+03 -0.48030739087E+03  0.11434858770E+04  0.10043457934E+04 0.  0.
        -13    1    3    3    0    0  0.55991935920E+03 -0.19294431673E+03 -0.33060931934E+03  0.67826228803E+03  0.10566000000E+00 0.  1.
         13    1    4    4    0    0 -0.45147561468E+03 -0.99387995292E+02  0.11088524758E+03  0.47539852077E+03  0.10566000000E+00 0. -1.
          4    1    3    3  502    0 -0.32843162142E+03  0.72247524152E+02  0.16985202563E+03  0.37674493402E+03  0.00000000000E+00 0.  1.
         -4    1    4    4    0  501  0.21998787690E+03  0.22008478787E+03 -0.59119263845E+03  0.66808735626E+03  0.00000000000E+00 0. -1.
</event>
<event>
 8    1  0.7096247E-006  0.1218040E+04  0.7818608E-02  0.8593100E-01
          2   -1    0    0  502    0  0.00000000000E+00  0.00000000000E+00  0.20362244052E+04  0.20362244052E+04  0.00000000000E+00 0.  1.
         -2   -1    0    0    0  501 -0.00000000000E+00 -0.00000000000E+00 -0.74026887384E+03  0.74026887384E+03  0.00000000000E+00 0. -1.
    9000010    2    1    2  502    0 -0.68546621316E+03 -0.21524592828E+03  0.82557562107E+03  0.14771400488E+04  0.99205487687E+03 0.  0.
   -9000010    2    1    2    0  501  0.68546621316E+03  0.21524592828E+03  0.47037991027E+03  0.12993532302E+04  0.97512400124E+03 0.  0.
        -13    1    3    3    0    0 -0.83293511445E+03 -0.27016658131E+03  0.93840942949E+03  0.12835042482E+04  0.10566000000E+00 0.  1.
         13    1    4    4    0    0  0.41807316681E+03  0.41991248726E+03  0.68059110668E+03  0.90239455640E+03  0.10566000000E+00 0. -1.
          4    1    3    3  502    0  0.14746890129E+03  0.54920653030E+02 -0.11283380842E+03  0.19363580066E+03  0.00000000000E+00 0.  1.
         -4    1    4    4    0  501  0.26739304635E+03 -0.20466655898E+03 -0.21021119641E+03  0.39695867379E+03  0.00000000000E+00 0. -1.
</event>
<event>
 8    1  0.7096247E-006  0.1228308E+04  0.7818608E-02  0.8585545E-01
         -2   -1    0    0    0  501 -0.00000000000E+00  0.00000000000E+00  0.64587580976E+03  0.64587580976E+03  0.00000000000E+00 0.  1.
          2   -1    0    0  502    0  0.00000000000E+00 -0.00000000000E+00 -0.25650028692E+04  0.25650028692E+04  0.00000000000E+00 0. -1.
    9000010    2    1    2  502    0  0.27459491727E+03  0.65457514309E+03 -0.48998618093E+03  0.13353443118E+04  0.10194052124E+04 0.  0.
   -9000010    2    1    2    0  501 -0.27459491727E+03 -0.65457514309E+03 -0.14291408785E+04  0.18755343671E+04  0.98555290326E+03 0.  0.
        -13    1    3    3    0    0 -0.17818958183E+03  0.86495348127E+02  0.23614383738E+03  0.30821566381E+03  0.10566000000E+00 0.  1.
         13    1    4    4    0    0  0.10861478602E+03 -0.77796930911E+03 -0.11197354984E+04  0.13677869042E+04  0.10566000000E+00 0. -1.
          4    1    3    3  502    0  0.45278449910E+03  0.56807979496E+03 -0.72613001832E+03  0.10271286480E+04  0.00000000000E+00 0.  1.
         -4    1    4    4    0  501 -0.38320970329E+03  0.12339416602E+03 -0.30940538007E+03  0.50774746294E+03  0.00000000000E+00 0. -1.
</event>
<event>
 8    1  0.7096247E-006  0.1084953E+04  0.7818608E-02  0.8698627E-01
         -1   -1    0    0    0  501 -0.00000000000E+00  0.00000000000E+00  0.46146686992E+03  0.46146686992E+03  0.00000000000E+00 0. -1.
          1   -1    0    0  502    0  0.00000000000E+00 -0.00000000000E+00 -0.26192709290E+04  0.26192709290E+04  0.00000000000E+00 0.  1.
    9000010    2    1    2  502    0 -0.41880303315E+03  0.76581429681E+02 -0.82628143129E+03  0.13607497305E+04  0.99379984369E+03 0.  0.
   -9000010    2    1    2    0  501  0.41880303315E+03 -0.76581429681E+02 -0.13315226278E+04  0.17199880684E+04  0.10020707317E+04 0.  0.
        -13    1    3    3    0    0 -0.61191454798E+03  0.38036300539E+03 -0.52784440363E+03  0.89316020708E+03  0.10566000000E+00 0.  1.
         13    1    4    4    0    0  0.67688794890E+03  0.16384360856E+03 -0.65019417622E+03  0.95277200913E+03  0.10566000000E+00 0. -1.
          4    1    3    3  502    0  0.19311151483E+03 -0.30378157571E+03 -0.29843702766E+03  0.46758952339E+03  0.00000000000E+00 0.  1.
         -4    1    4    4    0  501 -0.25808491574E+03 -0.24042503824E+03 -0.68132845154E+03  0.76721605928E+03  0.00000000000E+00 0. -1.
</event>
<event>
 8    1  0.7096247E-006  0.1793668E+04  0.7818608E-02  0.8258002E-01
         -2   -1    0    0    0  501 -0.00000000000E+00  0.00000000000E+00  0.15994976900E+04  0.15994976900E+04  0.00000000000E+00 0. -1.
          2   -1    0    0  502    0  0.00000000000E+00 -0.00000000000E+00 -0.26226352227E+04  0.26226352227E+04  0.00000000000E+00 0.  1.
    9000010    2    1    2  502    0 -0.11622173334E+04  0.91446165673E+03  0.50229380823E+03  0.18846007934E+04  0.10547188389E+04 0.  0.
   -9000010    2    1    2    0  501  0.11622173334E+04 -0.91446165673E+03 -0.15254313409E+04  0.23375321192E+04  0.97474426444E+03 0.  0.
        -13    1    3    3    0    0 -0.13325074377E+04  0.86349504599E+03  0.58021610682E+03  0.16905178224E+04  0.10566000000E+00 0.  1.
         13    1    4    4    0    0  0.12844198660E+04 -0.99507963403E+03 -0.14013762359E+04  0.21456405188E+04  0.10566000000E+00 0. -1.
          4    1    3    3  502    0  0.17029010431E+03  0.50966610742E+02 -0.77922298595E+02  0.19408297106E+03  0.00000000000E+00 0.  1.
         -4    1    4    4    0  501 -0.12220253261E+03  0.80617977304E+02 -0.12405510499E+03  0.19189160043E+03  0.00000000000E+00 0. -1.
</event>
<event>
 8    1  0.7096247E-006  0.1057829E+04  0.7818608E-02  0.8722075E-01
         -2   -1    0    0    0  501 -0.00000000000E+00  0.00000000000E+00  0.36988790792E+03  0.36988790792E+03  0.00000000000E+00 0. -1.
          2   -1    0    0  502    0  0.00000000000E+00 -0.00000000000E+00 -0.31349007554E+04  0.31349007554E+04  0.00000000000E+00 0.  1.
    9000010    2    1    2  502    0 -0.11210136267E+03  0.35051069252E+03 -0.10607259148E+04  0.15013448892E+04  0.99673093109E+03 0.  0.
   -9000010    2    1    2    0  501  0.11210136267E+03 -0.35051069252E+03 -0.17042869327E+04  0.20034437741E+04  0.98679711493E+03 0.  0.
        -13    1    3    3    0    0  0.11911299086E+03  0.66287694699E+03 -0.69165947550E+03  0.96539452694E+03  0.10566000000E+00 0.  1.
         13    1    4    4    0    0  0.32012260296E+03 -0.60881249397E+03 -0.89461377184E+03  0.11284790409E+04  0.10566000000E+00 0. -1.
          4    1    3    3  502    0 -0.23121435353E+03 -0.31236625447E+03 -0.36906643933E+03  0.53595036230E+03  0.00000000000E+00 0.  1.
         -4    1    4    4    0  501 -0.20802124029E+03  0.25830180145E+03 -0.80967316082E+03  0.87496473323E+03  0.00000000000E+00 0. -1.
</event>
<event>
 8    1  0.7096247E-006  0.1322298E+04  0.7818608E-02  0.8519753E-01
         -4   -1    0    0    0  501 -0.00000000000E+00  0.00000000000E+00  0.17370565099E+04  0.17370565099E+04  0.00000000000E+00 0. -1.
          4   -1    0    0  502    0  0.00000000000E+00 -0.00000000000E+00 -0.10358182766E+04  0.10358182766E+04  0.00000000000E+00 0.  1.
    9000010    2    1    2  502    0 -0.27603680920E+03  0.84286957651E+03  0.11674029212E+03  0.13238138805E+04  0.97582244870E+03 0.  0.
   -9000010    2    1    2    0  501  0.27603680920E+03 -0.84286957651E+03  0.58449794122E+03  0.14490609060E+04  0.98565421066E+03 0.  0.
        -13    1    3    3    0    0  0.11682783030E+03  0.44087473932E+02  0.37638188674E+03  0.39655489294E+03  0.10566000000E+00 0.  1.
         13    1    4    4    0    0  0.63797792046E+03 -0.45349076599E+03  0.25321962105E+03  0.82267240715E+03  0.10566000000E+00 0. -1.
          4    1    3    3  502    0 -0.39286463950E+03  0.79878210257E+03 -0.25964159462E+03  0.92725898756E+03  0.00000000000E+00 0.  1.
         -4    1    4    4    0  501 -0.36194111125E+03 -0.38937881051E+03  0.33127832017E+03  0.62638849886E+03  0.00000000000E+00 0. -1.
</event>
<event>
 8    1  0.7096247E-006  0.1269185E+04  0.7818608E-02  0.8556209E-01
         -2   -1    0    0    0  501 -0.00000000000E+00  0.00000000000E+00  0.72405161831E+03  0.72405161831E+03  0.00000000000E+00 0.  1.
          2   -1    0    0  502    0  0.00000000000E+00 -0.00000000000E+00 -0.22332970310E+04  0.22332970310E+04  0.00000000000E+00 0. -1.
    9000010    2    1    2  502    0  0.35772898613E+03 -0.69614796947E+03 -0.66137611758E+03  0.14284652592E+04  0.99523997354E+03 0.  0.
   -9000010    2    1    2    0  501 -0.35772898613E+03  0.69614796947E+03 -0.84786929514E+03  0.15288833901E+04  0.10030005265E+04 0.  0.
        -13    1    3    3    0    0  0.61211665530E+03 -0.74834311018E+03 -0.36248955172E+03  0.10325225889E+04  0.10566000000E+00 0.  1.
         13    1    4    4    0    0 -0.31746959031E+03  0.61962920706E+03 -0.19999623679E+02  0.69651079757E+03  0.10566000000E+00 0. -1.
          4    1    3    3  502    0 -0.25438766917E+03  0.52195140716E+02 -0.29888656586E+03  0.39594267033E+03  0.00000000000E+00 0.  1.
         -4    1    4    4    0  501 -0.40259395825E+02  0.76518762401E+02 -0.82786967146E+03  0.83237259258E+03  0.00000000000E+00 0. -1.
</event>
<event>
 8    1  0.7096247E-006  0.1087007E+04  0.7818608E-02  0.8696881E-01
         -2   -1    0    0    0  501 -0.00000000000E+00  0.00000000000E+00  0.73893359137E+03  0.73893359137E+03  0.00000000000E+00 0.  1.
          2   -1    0    0  502    0  0.00000000000E+00 -0.00000000000E+00 -0.18222857913E+04  0.18222857913E+04  0.00000000000E+00 0. -1.
    9000010    2    1    2  502    0 -0.90336890754E+02  0.41458691468E+03 -0.92959839139E+02  0.10898598804E+04  0.99955488266E+03 0.  0.
   -9000010    2    1    2    0  501  0.90336890754E+02 -0.41458691468E+03 -0.99039236082E+03  0.14713595024E+04  0.10019873717E+04 0.  0.
        -13    1    3    3    0    0  0.27414872063E+03  0.49105500759E+03  0.21950792800E+03  0.60371871192E+03  0.10566000000E+00 0.  1.
         13    1    4    4    0    0  0.28724070613E+03 -0.64825418008E+03 -0.41953081130E+03  0.82386092154E+03  0.10566000000E+00 0. -1.
          4    1    3    3  502    0 -0.36448561139E+03 -0.76468092911E+02 -0.31246776714E+03  0.48614116843E+03  0.00000000000E+00 0.  1.
         -4    1    4    4    0  501 -0.19690381537E+03  0.23366726540E+03 -0.57086154952E+03  0.64749858081E+03  0.00000000000E+00 0. -1.
</event>
<event>
 8    1  0.7096247E-006  0.1175746E+04  0.7818608E-02  0.8625054E-01
          1   -1    0    0  502    0  0.00000000000E+00  0.00000000000E+00  0.15249487190E+04  0.15249487190E+04  0.00000000000E+00 0.  1.
         -1   -1    0    0    0  501 -0.00000000000E+00 -0.00000000000E+00 -0.10390225520E+04  0.10390225520E+04  0.00000000000E+00 0. -1.
    9000010    2    1    2  502    0  0.61862083116E+03 -0.86786966283E+02 -0.21516632870E+03  0.11936133230E+04  0.99407872208E+03 0.  0.
   -9000010    2    1    2    0  501 -0.61862083116E+03  0.86786966283E+02  0.70109249564E+03  0.13703579480E+04  0.99806137481E+03 0.  0.
        -13    1    3    3    0    0  0.62995972596E+03  0.33966984335E+03  0.25929699750E+00  0.71569891520E+03  0.10566000000E+00 0.  1.
         13    1    4    4    0    0  0.10223913618E+03 -0.32051913176E+03  0.11344756013E+03  0.35504325772E+03  0.10566000000E+00 0. -1.
          4    1    3    3  502    0 -0.11338894802E+02 -0.42645680964E+03 -0.21542562570E+03  0.47791440785E+03  0.00000000000E+00 0.  1.
         -4    1    4    4    0  501 -0.72085996734E+03  0.40730609804E+03  0.58764493551E+03  0.10153146903E+04  0.00000000000E+00 0. -1.
</event>
<event>
 8    1  0.7096247E-006  0.1195975E+04  0.7818608E-02  0.8609599E-01
         -4   -1    0    0    0  501 -0.00000000000E+00  0.00000000000E+00  0.67842751267E+03  0.67842751267E+03  0.00000000000E+00 0. -1.
          4   -1    0    0  502    0  0.00000000000E+00 -0.00000000000E+00 -0.21133965093E+04  0.21133965093E+04  0.00000000000E+00 0.  1.
    9000010    2    1    2  502    0 -0.64806821942E+03  0.86836248936E+02 -0.78984790800E+03  0.14398627906E+04  0.10108472619E+04 0.  0.
   -9000010    2    1    2    0  501  0.64806821942E+03 -0.86836248936E+02 -0.64512108864E+03  0.13519612313E+04  0.99201058505E+03 0.  0.
        -13    1    3    3    0    0 -0.15476890362E+03  0.95876369405E+02 -0.91330075149E+03  0.93127008197E+03  0.10566000000E+00 0.  1.
         13    1    4    4    0    0  0.87778116772E+02 -0.47908529708E+03 -0.15715857607E+03  0.51178760132E+03  0.10566000000E+00 0. -1.
          4    1    3    3  502    0 -0.49329931580E+03 -0.90401204688E+01  0.12345284349E+03  0.50859270867E+03  0.00000000000E+00 0.  1.
         -4    1    4    4    0  501  0.56029010265E+03  0.39224904815E+03 -0.48796251256E+03  0.84017363001E+03  0.00000000000E+00 0. -1.
</event>
<event>
 8    1  0.7096247E-006  0.1345451E+04  0.7818608E-02  0.8504409E-01
          2   -1    0    0  502    0  0.00000000000E+00  0.00000000000E+00  0.14374262850E+04  0.14374262850E+04  0.00000000000E+00 0. -1.
         -2   -1    0    0    0  501 -0.00000000000E+00 -0.00000000000E+00 -0.12611842005E+04  0.12611842005E+04  0.00000000000E+00 0.  1.
    9000010    2    1    2  502    0  0.71088734652E+03 -0.49090992134E+03  0.49118106363E+02  0.13774171242E+04  0.10716865098E+04 0.  0.
   -9000010    2    1    2    0  501 -0.71088734652E+03  0.49090992134E+03  0.12712397814E+03  0.13211933613E+04  0.99148273905E+03 0.  0.
        -13    1    3    3    0    0  0.89722832591E+03 -0.14250170786E+03  0.23850948638E+03  0.93926151407E+03  0.10566000000E+00 0.  1.
         13    1    4    4    0    0 -0.38410655847E+03  0.72217293953E+03  0.31809404393E+03  0.87764197415E+03  0.10566000000E+00 0. -1.
          4    1    3    3  502    0 -0.18634097939E+03 -0.34840821348E+03 -0.18939138002E+03  0.43815561008E+03  0.00000000000E+00 0.  1.
         -4    1    4    4    0  501 -0.32678078805E+03 -0.23126301819E+03 -0.19097006579E+03  0.44355138715E+03  0.00000000000E+00 0. -1.
</event>
<event>
 8    1  0.7096247E-006  0.1133092E+04  0.7818608E-02  0.8658724E-01
          2   -1    0    0  502    0  0.00000000000E+00  0.00000000000E+00  0.13810532052E+04  0.13810532052E+04  0.00000000000E+00 0. -1.
         -2   -1    0    0    0  501 -0.00000000000E+00 -0.00000000000E+00 -0.93490686885E+03  0.93490686885E+03  0.00000000000E+00 0.  1.
    9000010    2    1    2  502    0  0.53365567648E+03  0.28199745370E+03  0.13707254382E+03  0.11072322595E+04  0.91807594960E+03 0.  0.
   -9000010    2    1    2    0  501 -0.53365567648E+03 -0.28199745370E+03  0.30907379250E+03  0.12087278145E+04  0.10005925122E+04 0.  0.
        -13    1    3    3    0    0 -0.20026375323E+03  0.21344518526E+03  0.21904380438E+03  0.36557436640E+03  0.10566000000E+00 0.  1.
         13    1    4    4    0    0  0.14278365469E+03  0.20937316042E+03 -0.10671170013E+03  0.27497579977E+03  0.10566000000E+00 0. -1.
          4    1    3    3  502    0  0.73391942971E+03  0.68552268433E+02 -0.81971260560E+02  0.74165789308E+03  0.00000000000E+00 0.  1.
         -4    1    4    4    0  501 -0.67643933117E+03 -0.49137061412E+03  0.41578549263E+03  0.93375201475E+03  0.00000000000E+00 0. -1.
</event>
<event>
 8    1  0.7096247E-006  0.1718376E+04  0.7818608E-02  0.8293831E-01
          2   -1    0    0  502    0  0.00000000000E+00  0.00000000000E+00  0.15372709009E+04  0.15372709009E+04  0.00000000000E+00 0. -1.
         -2   -1    0    0    0  501 -0.00000000000E+00 -0.00000000000E+00 -0.19787099961E+04  0.19787099961E+04  0.00000000000E+00 0.  1.
    9000010    2    1    2  502    0 -0.72267453926E+03 -0.11895875010E+04 -0.52167263234E+03  0.17977766037E+04  0.10111782578E+04 0.  0.
   -9000010    2    1    2    0  501  0.72267453926E+03  0.11895875010E+04  0.80233537142E+02  0.17182042933E+04  0.10041970229E+04 0.  0.
        -13    1    3    3    0    0 -0.46175133241E+03 -0.12794712057E+04 -0.20150709477E+03  0.13750876262E+04  0.10566000000E+00 0.  1.
         13    1    4    4    0    0  0.95446772747E+03  0.89117514292E+03 -0.78871605023E+02  0.13082134839E+04  0.10566000000E+00 0. -1.
          4    1    3    3  502    0 -0.26092320684E+03  0.89883704712E+02 -0.32016553757E+03  0.42268897749E+03  0.00000000000E+00 0.  1.
         -4    1    4    4    0  501 -0.23179318821E+03  0.29841235808E+03  0.15910514217E+03  0.40999080943E+03  0.00000000000E+00 0. -1.
</event>
<event>
 8    1  0.7096247E-006  0.1320947E+04  0.7818608E-02  0.8520658E-01
         -4   -1    0    0    0  501 -0.00000000000E+00  0.00000000000E+00  0.16222701060E+04  0.16222701060E+04  0.00000000000E+00 0. -1.
          4   -1    0    0  502    0  0.00000000000E+00 -0.00000000000E+00 -0.10920206229E+04  0.10920206229E+04  0.00000000000E+00 0.  1.
    9000010    2    1    2  502    0 -0.80398693913E+03 -0.34476906399E+03  0.10082036960E+03  0.13342635854E+04  0.10024140176E+04 0.  0.
   -9000010    2    1    2    0  501  0.80398693913E+03  0.34476906399E+03  0.42942911347E+03  0.13800271434E+04  0.97714116042E+03 0.  0.
        -13    1    3    3    0    0 -0.96367731220E+03 -0.45017343734E+03  0.24883064319E+03  0.10923583596E+04  0.10566000000E+00 0.  1.
         13    1    4    4    0    0  0.13130403625E+03 -0.26989028778E+03 -0.11170214655E+03  0.32024818201E+03  0.10566000000E+00 0. -1.
          4    1    3    3  502    0  0.15969037307E+03  0.10540437335E+03 -0.14801027359E+03  0.24190522579E+03  0.00000000000E+00 0.  1.
         -4    1    4    4    0  501  0.67268290288E+03  0.61465935177E+03  0.54113126002E+03  0.10597789614E+04  0.00000000000E+00 0. -1.
</event>
<event>
 8    1  0.7096247E-006  0.1656474E+04  0.7818608E-02  0.8324733E-01
          1   -1    0    0  502    0  0.00000000000E+00  0.00000000000E+00  0.25681406375E+04  0.25681406375E+04  0.00000000000E+00 0.  1.
         -1   -1    0    0    0  501 -0.00000000000E+00 -0.00000000000E+00 -0.11332177837E+04  0.11332177837E+04  0.00000000000E+00 0. -1.
    9000010    2    1    2  502    0  0.44785828420E+03 -0.11216068874E+04  0.11858272180E+04  0.21165848459E+04  0.12708918783E+04 0.  0.
   -9000010    2    1    2    0  501 -0.44785828420E+03  0.11216068874E+04  0.24909563573E+03  0.15847735753E+04  0.99542935302E+03 0.  0.
        -13    1    3    3    0    0  0.35231915436E+03 -0.11332589956E+04  0.29806514635E+03  0.12236206848E+04  0.10566000000E+00 0.  1.
         13    1    4    4    0    0 -0.70757766585E+03  0.67025163663E+03 -0.64726516557E+02  0.97677681315E+03  0.10566000000E+00 0. -1.
          4    1    3    3  502    0  0.95539129838E+02  0.11652108270E+02  0.88776207170E+03  0.89296416104E+03  0.00000000000E+00 0.  1.
         -4    1    4    4    0  501  0.25971938165E+03  0.45135525073E+03  0.31382215228E+03  0.60799676219E+03  0.00000000000E+00 0. -1.
</event>
<event>
 8    1  0.7096247E-006  0.1107931E+04  0.7818608E-02  0.8679317E-01
          2   -1    0    0  502    0  0.00000000000E+00  0.00000000000E+00  0.27377046551E+04  0.27377046551E+04  0.00000000000E+00 0.  1.
         -2   -1    0    0    0  501 -0.00000000000E+00 -0.00000000000E+00 -0.49507750187E+03  0.49507750187E+03  0.00000000000E+00 0. -1.
    9000010    2    1    2  502    0 -0.36538875250E+03  0.30916961411E+03  0.16199571244E+04  0.19639416399E+04  0.10018537266E+04 0.  0.
   -9000010    2    1    2    0  501  0.36538875250E+03 -0.30916961411E+03  0.62267002882E+03  0.12688405170E+04  0.99656585435E+03 0.  0.
        -13    1    3    3    0    0 -0.44830635861E+03 -0.25652343409E+03  0.96506415551E+03  0.10945920239E+04  0.10566000000E+00 0.  1.
         13    1    4    4    0    0 -0.12026903194E+03 -0.35845929283E+03  0.67927821361E+03  0.77741662402E+03  0.10566000000E+00 0. -1.
          4    1    3    3  502    0  0.82917606112E+02  0.56569304820E+03  0.65489296886E+03  0.86934961601E+03  0.00000000000E+00 0.  1.
         -4    1    4    4    0  501  0.48565778443E+03  0.49289678717E+02 -0.56608184789E+02  0.49142389298E+03  0.00000000000E+00 0. -1.
</event>
<event>
 8    1  0.7096247E-006  0.1081677E+04  0.7818608E-02  0.8701421E-01
         -2   -1    0    0    0  501 -0.00000000000E+00  0.00000000000E+00  0.35391796841E+03  0.35391796841E+03  0.00000000000E+00 0. -1.
          2   -1    0    0  502    0  0.00000000000E+00 -0.00000000000E+00 -0.33143041572E+04  0.33143041572E+04  0.00000000000E+00 0.  1.
    9000010    2    1    2  502    0 -0.38619293177E+03 -0.16154295460E+03 -0.13807703403E+04  0.17505529918E+04  0.99129608968E+03 0.  0.
   -9000010    2    1    2    0  501  0.38619293177E+03  0.16154295460E+03 -0.15796158484E+04  0.19176691339E+04  0.10035076340E+04 0.  0.
        -13    1    3    3    0    0 -0.12644843373E+03 -0.40159810539E+03 -0.11522935170E+03  0.43651810879E+03  0.10566000000E+00 0.  1.
         13    1    4    4    0    0  0.35304518808E+03  0.10219275179E+02 -0.23621118125E+02  0.35398207129E+03  0.10566000000E+00 0. -1.
          4    1    3    3  502    0 -0.25974449803E+03  0.24005515078E+03 -0.12655409887E+04  0.13140348830E+04  0.00000000000E+00 0.  1.
         -4    1    4    4    0  501  0.33147743688E+02  0.15132367943E+03 -0.15559947303E+04  0.15636870626E+04  0.00000000000E+00 0. -1.
</event>
<event>
 8    1  0.7096247E-006  0.1093595E+04  0.7818608E-02  0.8691307E-01
          2   -1    0    0  502    0  0.00000000000E+00  0.00000000000E+00  0.18739691323E+04  0.18739691323E+04  0.00000000000E+00 0. -1.
         -2   -1    0    0    0  501 -0.00000000000E+00 -0.00000000000E+00 -0.66901010720E+03  0.66901010720E+03  0.00000000000E+00 0.  1.
    9000010    2    1    2  502    0  0.47472299584E+03 -0.44914429130E+02  0.88174803800E+03  0.14149138147E+04  0.99856009918E+03 0.  0.
   -9000010    2    1    2    0  501 -0.47472299584E+03  0.44914429130E+02  0.32321098713E+03  0.11280654249E+04  0.96989021639E+03 0.  0.
        -13    1    3    3    0    0  0.12137618512E+03  0.41794640604E+03  0.66254968338E+03  0.79270642154E+03  0.10566000000E+00 0.  1.
         13    1    4    4    0    0 -0.33393706037E+03 -0.41751516663E+03 -0.20358521045E+02  0.53502089230E+03  0.10566000000E+00 0. -1.
          4    1    3    3  502    0  0.35334681071E+03 -0.46286083517E+03  0.21919835461E+03  0.62220739311E+03  0.00000000000E+00 0.  1.
         -4    1    4    4    0  501 -0.14078593547E+03  0.46242959576E+03  0.34356950818E+03  0.59304453257E+03  0.00000000000E+00 0. -1.
</event>
<event>
 8    1  0.7096247E-006  0.1496227E+04  0.7818608E-02  0.8411674E-01
          2   -1    0    0  502    0  0.00000000000E+00  0.00000000000E+00  0.34429560958E+04  0.34429560958E+04  0.00000000000E+00 0. -1.
         -2   -1    0    0    0  501 -0.00000000000E+00 -0.00000000000E+00 -0.65129493975E+03  0.65129493975E+03  0.00000000000E+00 0.  1.
    9000010    2    1    2  502    0  0.11063991867E+04 -0.77440646608E+02  0.14817277336E+04  0.21080635166E+04  0.10091077740E+04 0.  0.
   -9000010    2    1    2    0  501 -0.11063991867E+04  0.77440646608E+02  0.13099334224E+04  0.19861875189E+04  0.99944938595E+03 0.  0.
        -13    1    3    3    0    0  0.12794069768E+04  0.56524610260E+02  0.12635476524E+04  0.17990636245E+04  0.10566000000E+00 0.  1.
         13    1    4    4    0    0 -0.75128320173E+03  0.49482526725E+03  0.10406655585E+04  0.13755956201E+04  0.10566000000E+00 0. -1.
          4    1    3    3  502    0 -0.17300779016E+03 -0.13396525687E+03  0.21818008124E+03  0.30899989215E+03  0.00000000000E+00 0.  1.
         -4    1    4    4    0  501 -0.35511598493E+03 -0.41738462065E+03  0.26926786393E+03  0.61059189878E+03  0.00000000000E+00 0. -1.
</event>
<event>
 8    1  0.7096247E-006  0.1162993E+04  0.7818608E-02  0.8634963E-01
          2   -1    0    0  502    0  0.00000000000E+00  0.00000000000E+00  0.11072648500E+04  0.11072648500E+04  0.00000000000E+00 0. -1.
         -2   -1    0    0    0  501 -0.00000000000E+00 -0.00000000000E+00 -0.15977406286E+04  0.15977406286E+04  0.00000000000E+00 0.  1.
    9000010    2    1    2  502    0  0.45606080536E+03 -0.24008998740E+03 -0.90602905177E+03  0.15027789652E+04  0.10825069585E+04 0.  0.
   -9000010    2    1    2    0  501 -0.45606080536E+03  0.24008998740E+03  0.41555327322E+03  0.12022265135E+04  0.10035085483E+04 0.  0.
        -13    1    3    3    0    0  0.37745278256E+03  0.30885316402E+03 -0.60255245895E+02  0.49141793395E+03  0.10566000000E+00 0.  1.
         13    1    4    4    0    0 -0.50875370800E+03 -0.46917652001E+02 -0.17782907299E+03  0.54097577749E+03  0.10566000000E+00 0. -1.
          4    1    3    3  502    0  0.78608022806E+02 -0.54894315142E+03 -0.84577380587E+03  0.10113610312E+04  0.00000000000E+00 0.  1.
         -4    1    4    4    0  501  0.52692902631E+02  0.28700763940E+03  0.59338234621E+03  0.66125073599E+03  0.00000000000E+00 0. -1.
</event>
<event>
 8    1  0.7096247E-006  0.1198307E+04  0.7818608E-02  0.8607838E-01
          2   -1    0    0  502    0  0.00000000000E+00  0.00000000000E+00  0.27290867524E+04  0.27290867524E+04  0.00000000000E+00 0.  1.
         -2   -1    0    0    0  501 -0.00000000000E+00 -0.00000000000E+00 -0.64201049055E+03  0.64201049055E+03  0.00000000000E+00 0. -1.
    9000010    2    1    2  502    0  0.40987177248E+03 -0.51045174584E+03  0.32086783432E+03  0.12313772642E+04  0.99235978603E+03 0.  0.
   -9000010    2    1    2    0  501 -0.40987177248E+03  0.51045174584E+03  0.17662084275E+04  0.21397199788E+04  0.10150633101E+04 0.  0.
        -13    1    3    3    0    0  0.16055710585E+03 -0.69768422472E+03  0.49864780631E+03  0.87246289753E+03  0.10566000000E+00 0.  1.
         13    1    4    4    0    0 -0.70961010379E+03  0.43641867500E+03  0.15598149444E+04  0.17683411523E+04  0.10566000000E+00 0. -1.
          4    1    3    3  502    0  0.24931466663E+03  0.18723247888E+03 -0.17777997199E+03  0.35891436665E+03  0.00000000000E+00 0.  1.
         -4    1    4    4    0  501  0.29973833130E+03  0.74033070837E+02  0.20639348319E+03  0.37137882645E+03  0.00000000000E+00 0. -1.
</event>
<event>
 8    1  0.7096247E-006  0.1355113E+04  0.7818608E-02  0.8498099E-01
          2   -1    0    0  502    0  0.00000000000E+00  0.00000000000E+00  0.10470310070E+04  0.10470310070E+04  0.00000000000E+00 0. -1.
         -2   -1    0    0    0  501 -0.00000000000E+00 -0.00000000000E+00 -0.17600724600E+04  0.17600724600E+04  0.00000000000E+00 0.  1.
    9000010    2    1    2  502    0  0.56285032858E+03  0.72805414288E+03 -0.43946248456E+03  0.14227587556E+04  0.99209469003E+03 0.  0.
   -9000010    2    1    2    0  501 -0.56285032858E+03 -0.72805414288E+03 -0.27357896841E+03  0.13843447114E+04  0.99734723173E+03 0.  0.
        -13    1    3    3    0    0  0.70493206955E+03  0.10338725187E+03 -0.23969265587E+03  0.75171186433E+03  0.10566000000E+00 0.  1.
         13    1    4    4    0    0  0.22137381948E+03 -0.48918406771E+03 -0.93969228916E+02  0.54510333626E+03  0.10566000000E+00 0. -1.
          4    1    3    3  502    0 -0.14208174097E+03  0.62466689101E+03 -0.19976982869E+03  0.67104689128E+03  0.00000000000E+00 0.  1.
         -4    1    4    4    0  501 -0.78422414805E+03 -0.23887007517E+03 -0.17960973949E+03  0.83924137512E+03  0.00000000000E+00 0. -1.
</event>
<event>
 8    1  0.7096247E-006  0.1088090E+04  0.7818608E-02  0.8695962E-01
         -2   -1    0    0    0  501 -0.00000000000E+00  0.00000000000E+00  0.10782509049E+04  0.10782509049E+04  0.00000000000E+00 0.  1.
          2   -1    0    0  502    0  0.00000000000E+00 -0.00000000000E+00 -0.11077861819E+04  0.11077861819E+04  0.00000000000E+00 0. -1.
    9000010    2    1    2  502    0  0.49755887806E+03 -0.39141202239E+03 -0.79923508338E+02  0.10157763082E+04  0.79034519850E+03 0.  0.
   -9000010    2    1    2    0  501 -0.49755887806E+03  0.39141202239E+03  0.50388231435E+02  0.11702607786E+04  0.98295631010E+03 0.  0.
        -13    1    3    3    0    0 -0.26425047307E+02 -0.38970729515E+03  0.18090541088E+03  0.43046119205E+03  0.10566000000E+00 0.  1.
         13    1    4    4    0    0 -0.76677354431E+02  0.38061968892E+03 -0.39742880987E+03  0.55560816621E+03  0.10566000000E+00 0. -1.
          4    1    3    3  502    0  0.52398392537E+03 -0.17047272486E+01 -0.26082891922E+03  0.58531511619E+03  0.00000000000E+00 0.  1.
         -4    1    4    4    0  501 -0.42088152363E+03  0.10792333477E+02  0.44781704131E+03  0.61465261236E+03  0.00000000000E+00 0. -1.
</event>
<event>
 8    1  0.7096247E-006  0.1955407E+04  0.7818608E-02  0.8186793E-01
         -2   -1    0    0    0  501 -0.00000000000E+00  0.00000000000E+00  0.28226141784E+04  0.28226141784E+04  0.00000000000E+00 0.  1.
          2   -1    0    0  502    0  0.00000000000E+00 -0.00000000000E+00 -0.15604721467E+04  0.15604721467E+04  0.00000000000E+00 0. -1.
    9000010    2    1    2  502    0 -0.16764349674E+04 -0.12704900363E+03 -0.16496549467E+03  0.19620186406E+04  0.99786165495E+03 0.  0.
   -9000010    2    1    2    0  501  0.16764349674E+04  0.12704900363E+03  0.14271075264E+04  0.24210676845E+04  0.99917825837E+03 0.  0.
        -13    1    3    3    0    0  0.56826848277E+02 -0.52222056550E+01  0.18151287992E+03  0.19027217048E+03  0.10566000000E+00 0.  1.
         13    1    4    4    0    0  0.10616026612E+04  0.38874286880E+03  0.13304336230E+04  0.17459023067E+04  0.10566000000E+00 0. -1.
          4    1    3    3  502    0 -0.17332618156E+04 -0.12182679798E+03 -0.34647837459E+03  0.17717464701E+04  0.00000000000E+00 0.  1.
         -4    1    4    4    0  501  0.61483230615E+03 -0.26169386517E+03  0.96673903417E+02  0.67516537778E+03  0.00000000000E+00 0. -1.
</event>
<event>
 8    1  0.7096247E-006  0.1086062E+04  0.7818608E-02  0.8697684E-01
          1   -1    0    0  502    0  0.00000000000E+00  0.00000000000E+00  0.13616834458E+04  0.13616834458E+04  0.00000000000E+00 0. -1.
         -1   -1    0    0    0  501 -0.00000000000E+00 -0.00000000000E+00 -0.96858784980E+03  0.96858784980E+03  0.00000000000E+00 0.  1.
    9000010    2    1    2  502    0  0.42158708174E+03  0.49357408014E+02 -0.18214609455E+03  0.11016448501E+04  0.10001361681E+04 0.  0.
   -9000010    2    1    2    0  501 -0.42158708174E+03 -0.49357408014E+02  0.57524169056E+03  0.12286264455E+04  0.99922375812E+03 0.  0.
        -13    1    3    3    0    0  0.10238441334E+02 -0.44396931101E+03 -0.80693059312E+02  0.45135900986E+03  0.10566000000E+00 0.  1.
         13    1    4    4    0    0 -0.53705585103E+03  0.24803971269E+03  0.24401719769E+02  0.59207106102E+03  0.10566000000E+00 0. -1.
          4    1    3    3  502    0  0.41134864041E+03  0.49332671902E+03 -0.10145303524E+03  0.65028584025E+03  0.00000000000E+00 0.  1.
         -4    1    4    4    0  501  0.11546876929E+03 -0.29739712071E+03  0.55083997079E+03  0.63655538447E+03  0.00000000000E+00 0. -1.
</event>
<event>
 8    1  0.7096247E-006  0.1153878E+04  0.7818608E-02  0.8642127E-01
         -1   -1    0    0    0  501 -0.00000000000E+00  0.00000000000E+00  0.11962048180E+04  0.11962048180E+04  0.00000000000E+00 0.  1.
          1   -1    0    0  502    0  0.00000000000E+00 -0.00000000000E+00 -0.11938770070E+04  0.11938770070E+04  0.00000000000E+00 0. -1.
    9000010    2    1    2  502    0 -0.31713766736E+03 -0.51110720666E+03 -0.30966696274E+03  0.12024150702E+04  0.99403294533E+03 0.  0.
   -9000010    2    1    2    0  501  0.31713766736E+03  0.51110720666E+03  0.31199477371E+03  0.11876667549E+04  0.97539976677E+03 0.  0.
        -13    1    3    3    0    0 -0.32625025291E+03 -0.66668431400E+03 -0.54452700940E+03  0.92055248475E+03  0.10566000000E+00 0.  1.
         13    1    4    4    0    0 -0.35024195244E+03  0.24450883034E+03  0.12559391793E+03  0.44522784813E+03  0.10566000000E+00 0. -1.
          4    1    3    3  502    0  0.91125855521E+01  0.15557710734E+03  0.23486004666E+03  0.28186258542E+03  0.00000000000E+00 0.  1.
         -4    1    4    4    0  501  0.66737961980E+03  0.26659837632E+03  0.18640085578E+03  0.74243890673E+03  0.00000000000E+00 0. -1.
</event>
<event>
 8    1  0.7096247E-006  0.1319087E+04  0.7818608E-02  0.8521906E-01
          2   -1    0    0  502    0  0.00000000000E+00  0.00000000000E+00  0.15458245926E+04  0.15458245926E+04  0.00000000000E+00 0.  1.
         -2   -1    0    0    0  501 -0.00000000000E+00 -0.00000000000E+00 -0.13876252292E+04  0.13876252292E+04  0.00000000000E+00 0. -1.
    9000010    2    1    2  502    0 -0.77873834256E+03 -0.36236611879E+03  0.71646111088E+03  0.15012916481E+04  0.10014077487E+04 0.  0.
   -9000010    2    1    2    0  501  0.77873834256E+03  0.36236611879E+03 -0.55826174741E+03  0.14321581736E+04  0.10008387710E+04 0.  0.
        -13    1    3    3    0    0 -0.83944364476E+03 -0.55133951499E+03  0.80192017045E+03  0.12851913727E+04  0.10566000000E+00 0.  1.
         13    1    4    4    0    0  0.79967690297E+02 -0.25530250458E+03  0.10535037243E+03  0.28752897675E+03  0.10566000000E+00 0. -1.
          4    1    3    3  502    0  0.60705302197E+02  0.18897339620E+03 -0.85459059564E+02  0.21610027545E+03  0.00000000000E+00 0.  1.
         -4    1    4    4    0  501  0.69877065227E+03  0.61766862337E+03 -0.66361211984E+03  0.11446291969E+04  0.00000000000E+00 0. -1.
</event>
<event>
 8    1  0.7096247E-006  0.1413816E+04  0.7818608E-02  0.8460892E-01
          2   -1    0    0  502    0  0.00000000000E+00  0.00000000000E+00  0.18663160547E+04  0.18663160547E+04  0.00000000000E+00 0. -1.
         -2   -1    0    0    0  501 -0.00000000000E+00 -0.00000000000E+00 -0.12018330723E+04  0.12018330723E+04  0.00000000000E+00 0.  1.
    9000010    2    1    2  502    0  0.54868787035E+03 -0.79407568058E+03  0.84234808035E+03  0.16645618929E+04  0.10628270984E+04 0.  0.
   -9000010    2    1    2    0  501 -0.54868787035E+03  0.79407568058E+03 -0.17786509786E+03  0.14035872341E+04  0.10033975111E+04 0.  0.
        -13    1    3    3    0    0 -0.19992607256E+03  0.23590755214E+02 -0.85688644585E+02  0.21879102631E+03  0.10566000000E+00 0.  1.
         13    1    4    4    0    0 -0.61213335622E+03  0.99915516592E+03 -0.10316140972E+03  0.11762910265E+04  0.10566000000E+00 0. -1.
          4    1    3    3  502    0  0.74861394291E+03 -0.81766643579E+03  0.92803672494E+03  0.14457708666E+04  0.00000000000E+00 0.  1.
         -4    1    4    4    0  501  0.63445485861E+02 -0.20507948535E+03 -0.74703688149E+02  0.22729620764E+03  0.00000000000E+00 0. -1.
</event>
<event>
 8    1  0.7096247E-006  0.1195356E+04  0.7818608E-02  0.8610068E-01
          2   -1    0    0  502    0  0.00000000000E+00  0.00000000000E+00  0.24072830280E+04  0.24072830280E+04  0.00000000000E+00 0. -1.
         -2   -1    0    0    0  501 -0.00000000000E+00 -0.00000000000E+00 -0.66482489286E+03  0.66482489286E+03  0.00000000000E+00 0.  1.
    9000010    2    1    2  502    0 -0.11506693530E+03 -0.56382094018E+03  0.34225768634E+03  0.12008870589E+04  0.99692274128E+03 0.  0.
   -9000010    2    1    2    0  501  0.11506693530E+03  0.56382094018E+03  0.14002004488E+04  0.18712208620E+04  0.10998962521E+04 0.  0.
        -13    1    3    3    0    0  0.14980956000E+03 -0.77002534001E+03  0.36339332837E+03  0.86454418672E+03  0.10566000000E+00 0.  1.
         13    1    4    4    0    0  0.21718703344E+03  0.67840646044E+03  0.15186059511E+04  0.16773698397E+04  0.10566000000E+00 0. -1.
          4    1    3    3  502    0 -0.26487649530E+03  0.20620439983E+03 -0.21135642036E+02  0.33634287213E+03  0.00000000000E+00 0.  1.
         -4    1    4    4    0  501 -0.10212009813E+03 -0.11458552025E+03 -0.11840550230E+03  0.19385102236E+03  0.00000000000E+00 0. -1.
</event>
<event>
 7    1  0.7096247E-006  0.8976246E+03  0.7818608E-02  0.8877228E-01
         -1   -1    0    0    0  501 -0.00000000000E+00  0.00000000000E+00  0.84721427265E+03  0.84721427265E+03  0.00000000000E+00 0. -1.
          1   -1    0    0  502    0  0.00000000000E+00 -0.00000000000E+00 -0.14580214371E+04  0.14580214371E+04  0.00000000000E+00 0.  1.
    9000010    2    1    2  502    0  0.40954616979E+01 -0.43567251781E+03 -0.99518380099E+03  0.14496072768E+04  0.95976202452E+03 0.  0.
        -13    1    3    3    0    0  0.45459887137E+03 -0.13130462343E+03 -0.65581186354E+03  0.80869663627E+03  0.10566000000E+00 0.  1.
         13    1    1    2    0    0 -0.18066384075E+03  0.25090508664E+03 -0.85465705262E+02  0.32077590901E+03  0.10566000000E+00 0. -1.
          4    1    3    3  502    0 -0.45050340968E+03 -0.30436789438E+03 -0.33937193746E+03  0.64091064057E+03  0.00000000000E+00 0.  1.
         -4    1    1    2    0  501  0.17656837905E+03  0.18476743117E+03  0.46984234184E+03  0.53485252387E+03  0.00000000000E+00 0. -1.
</event>
<event>
 8    1  0.7096247E-006  0.1141480E+04  0.7818608E-02  0.8651982E-01
          2   -1    0    0  502    0  0.00000000000E+00  0.00000000000E+00  0.75043137379E+03  0.75043137379E+03  0.00000000000E+00 0. -1.
         -2   -1    0    0    0  501 -0.00000000000E+00 -0.00000000000E+00 -0.18461140463E+04  0.18461140463E+04  0.00000000000E+00 0.  1.
    9000010    2    1    2  502    0 -0.48118689864E+03 -0.24297162509E+03 -0.86498535889E+03  0.14330948319E+04  0.10074646813E+04 0.  0.
   -9000010    2    1    2    0  501  0.48118689864E+03  0.24297162509E+03 -0.23069731359E+03  0.11634505882E+04  0.10048979941E+04 0.  0.
        -13    1    3    3    0    0 -0.32775194103E+03 -0.11238860637E+03 -0.10825025554E+04  0.11366020971E+04  0.10566000000E+00 0.  1.
         13    1    4    4    0    0  0.79732209084E+03  0.19178486302E+03 -0.16190366418E+03  0.83589279090E+03  0.10566000000E+00 0. -1.
          4    1    3    3  502    0 -0.15343495760E+03 -0.13058301872E+03  0.21751719648E+03  0.29649273474E+03  0.00000000000E+00 0.  1.
         -4    1    4    4    0  501 -0.31613519221E+03  0.51186762061E+02 -0.68793649410E+02  0.32755779729E+03  0.00000000000E+00 0. -1.
</event>
<event>
 8    1  0.7096247E-006  0.1449843E+04  0.7818608E-02  0.8438963E-01
          2   -1    0    0  502    0  0.00000000000E+00  0.00000000000E+00  0.24207463833E+04  0.24207463833E+04  0.00000000000E+00 0.  1.
         -2   -1    0    0    0  501 -0.00000000000E+00 -0.00000000000E+00 -0.87024236155E+03  0.87024236155E+03  0.00000000000E+00 0. -1.
    9000010    2    1    2  502    0  0.71054667588E+03 -0.74943268024E+03  0.84986229746E+03  0.16772247406E+04  0.10120726185E+04 0.  0.
   -9000010    2    1    2    0  501 -0.71054667588E+03  0.74943268024E+03  0.70064172431E+03  0.16137640043E+04  0.10231370948E+04 0.  0.
        -13    1    3    3    0    0  0.18745688224E+02  0.23378021882E+03  0.21266979372E+03  0.31659602630E+03  0.10566000000E+00 0.  1.
         13    1    4    4    0    0 -0.51727821992E+03  0.92450005623E+03  0.24276353206E+03  0.10868354312E+04  0.10566000000E+00 0. -1.
          4    1    3    3  502    0  0.69180098765E+03 -0.98321289906E+03  0.63719250374E+03  0.13606287143E+04  0.00000000000E+00 0.  1.
         -4    1    4    4    0  501 -0.19326845595E+03 -0.17506737600E+03  0.45787819225E+03  0.52692857309E+03  0.00000000000E+00 0. -1.
</event>
<event>
 8    1  0.7096247E-006  0.1344788E+04  0.7818608E-02  0.8504844E-01
          1   -1    0    0  502    0  0.00000000000E+00  0.00000000000E+00  0.32460965905E+04  0.32460965905E+04  0.00000000000E+00 0.  1.
         -1   -1    0    0    0  501 -0.00000000000E+00 -0.00000000000E+00 -0.56101804828E+03  0.56101804828E+03  0.00000000000E+00 0. -1.
    9000010    2    1    2  502    0  0.83375829001E+03  0.30875571331E+03  0.15173436872E+04  0.20398107296E+04  0.10334471302E+04 0.  0.
   -9000010    2    1    2    0  501 -0.83375829001E+03 -0.30875571331E+03  0.11677348550E+04  0.17673039092E+04  0.98451787140E+03 0.  0.
        -13    1    3    3    0    0  0.59883738506E+03 -0.23499246923E+03  0.12149797829E+04  0.13747740026E+04  0.10566000000E+00 0.  1.
         13    1    4    4    0    0 -0.16807413894E+03  0.31392896345E+03  0.11371093756E+03  0.37380542901E+03  0.10566000000E+00 0. -1.
          4    1    3    3  502    0  0.23492090495E+03  0.54374818254E+03  0.30236390432E+03  0.66503672699E+03  0.00000000000E+00 0.  1.
         -4    1    4    4    0  501 -0.66568415107E+03 -0.62268467676E+03  0.10540239175E+04  0.13934984802E+04  0.00000000000E+00 0. -1.
</event>
<event>
 8    1  0.7096247E-006  0.1406625E+04  0.7818608E-02  0.8465349E-01
         -2   -1    0    0    0  501 -0.00000000000E+00  0.00000000000E+00  0.61941355298E+03  0.61941355298E+03  0.00000000000E+00 0. -1.
          2   -1    0    0  502    0  0.00000000000E+00 -0.00000000000E+00 -0.32457347962E+04  0.32457347962E+04  0.00000000000E+00 0.  1.
    9000010    2    1    2  502    0  0.95209592053E+03  0.18795576916E+03 -0.15591866219E+04  0.21019560623E+04  0.10224198515E+04 0.  0.
   -9000010    2    1    2    0  501 -0.95209592053E+03 -0.18795576916E+03 -0.10671346213E+04  0.17631922869E+04  0.10140299441E+04 0.  0.
        -13    1    3    3    0    0  0.47909608601E+03  0.36826100252E+03 -0.17650377544E+03  0.62952586882E+03  0.10566000000E+00 0.  1.
         13    1    4    4    0    0 -0.83996515969E+03  0.28750539938E+03 -0.84823300667E+03  0.12278843874E+04  0.10566000000E+00 0. -1.
          4    1    3    3  502    0  0.47299983452E+03 -0.18030523336E+03 -0.13826828465E+04  0.14724301934E+04  0.00000000000E+00 0.  1.
         -4    1    4    4    0  501 -0.11213076084E+03 -0.47546116854E+03 -0.21890161461E+03  0.53530789943E+03  0.00000000000E+00 0. -1.
</event>
<event>
 8    1  0.7096247E-006  0.1131228E+04  0.7818608E-02  0.8660231E-01
          4   -1    0    0  502    0  0.00000000000E+00  0.00000000000E+00  0.27441779525E+04  0.27441779525E+04  0.00000000000E+00 0.  1.
         -4   -1    0    0    0  501 -0.00000000000E+00 -0.00000000000E+00 -0.74643591601E+03  0.74643591601E+03  0.00000000000E+00 0. -1.
    9000010    2    1    2  502    0 -0.30085969904E+03 -0.42134674485E+03  0.20630357525E+04  0.23485716125E+04  0.99580242277E+03 0.  0.
   -9000010    2    1    2    0  501  0.30085969904E+03  0.42134674485E+03 -0.65293715971E+02  0.11420422560E+04  0.10158482206E+04 0.  0.
        -13    1    3    3    0    0 -0.23123983926E+02 -0.18314058122E+03 -0.60104578849E+02  0.19413336314E+03  0.10566000000E+00 0.  1.
         13    1    4    4    0    0  0.12047068181E+03 -0.26402048125E+03 -0.27823055804E+03  0.40203514061E+03  0.10566000000E+00 0. -1.
          4    1    3    3  502    0 -0.27773571512E+03 -0.23820616363E+03  0.21231403313E+04  0.21544382494E+04  0.00000000000E+00 0.  1.
         -4    1    4    4    0  501  0.18038901723E+03  0.68536722610E+03  0.21293684207E+03  0.74000711541E+03  0.00000000000E+00 0. -1.
</event>
<event>
 8    1  0.7096247E-006  0.1436594E+04  0.7818608E-02  0.8446951E-01
          1   -1    0    0  502    0  0.00000000000E+00  0.00000000000E+00  0.59206616170E+03  0.59206616170E+03  0.00000000000E+00 0.  1.
         -1   -1    0    0    0  501 -0.00000000000E+00 -0.00000000000E+00 -0.38985747078E+04  0.38985747078E+04  0.00000000000E+00 0. -1.
    9000010    2    1    2  502    0  0.71655838693E+03 -0.72963246779E+03 -0.91603181152E+03  0.16983583821E+04  0.99974369440E+03 0.  0.
   -9000010    2    1    2    0  501 -0.71655838693E+03  0.72963246779E+03 -0.23904767346E+04  0.27922824874E+04  0.10181566730E+04 0.  0.
        -13    1    3    3    0    0  0.14495666816E+03 -0.91435019779E+02 -0.81829422449E+03  0.83604918963E+03  0.10566000000E+00 0.  1.
         13    1    4    4    0    0  0.63274887135E+02  0.64755216995E+03 -0.93644336914E+03  0.11402866828E+04  0.10566000000E+00 0. -1.
          4    1    3    3  502    0  0.57160171877E+03 -0.63819744801E+03 -0.97737587034E+02  0.86230919249E+03  0.00000000000E+00 0.  1.
         -4    1    4    4    0  501 -0.77983327407E+03  0.82080297841E+02 -0.14540333655E+04  0.16519958046E+04  0.00000000000E+00 0. -1.
</event>
<event>
 8    1  0.7096247E-006  0.1200124E+04  0.7818608E-02  0.8606469E-01
         -1   -1    0    0    0  501 -0.00000000000E+00  0.00000000000E+00  0.71840900235E+03  0.71840900235E+03  0.00000000000E+00 0. -1.
          1   -1    0    0  502    0  0.00000000000E+00 -0.00000000000E+00 -0.20432941720E+04  0.20432941720E+04  0.00000000000E+00 0.  1.
    9000010    2    1    2  502    0 -0.81214774794E+02 -0.76089327389E+03 -0.45331301657E+03  0.12267016173E+04  0.84483711626E+03 0.  0.
   -9000010    2    1    2    0  501  0.81214774794E+02  0.76089327389E+03 -0.87157215306E+03  0.15350015570E+04  0.10055035297E+04 0.  0.
        -13    1    3    3    0    0 -0.43461444953E+03 -0.27661867307E+03 -0.82396536742E+02  0.52172484172E+03  0.10566000000E+00 0.  1.
         13    1    4    4    0    0 -0.21097596165E+03  0.89761850125E+03 -0.52307201742E+03  0.10601104550E+04  0.10566000000E+00 0. -1.
          4    1    3    3  502    0  0.35339967474E+03 -0.48427460082E+03 -0.37091647983E+03  0.70497677559E+03  0.00000000000E+00 0.  1.
         -4    1    4    4    0  501  0.29219073644E+03 -0.13672522736E+03 -0.34850013564E+03  0.47489110204E+03  0.00000000000E+00 0. -1.
</event>
<event>
 8    1  0.7096247E-006  0.1978463E+04  0.7818608E-02  0.8177217E-01
         -2   -1    0    0    0  501 -0.00000000000E+00  0.00000000000E+00  0.15720107158E+04  0.15720107158E+04  0.00000000000E+00 0.  1.
          2   -1    0    0  502    0  0.00000000000E+00 -0.00000000000E+00 -0.24900765734E+04  0.24900765734E+04  0.00000000000E+00 0. -1.
    9000010    2    1    2  502    0 -0.98265782500E+03  0.14010456124E+04 -0.46909421973E+03  0.20311423692E+04  0.98840514361E+03 0.  0.
   -9000010    2    1    2    0  501  0.98265782500E+03 -0.14010456124E+04 -0.44897163794E+03  0.20309449200E+04  0.99730463123E+03 0.  0.
        -13    1    3    3    0    0 -0.49450503644E+03  0.10421703973E+04  0.15195996852E+03  0.11635059997E+04  0.10566000000E+00 0.  1.
         13    1    4    4    0    0  0.20182653766E+03 -0.20955739724E+03  0.30303158437E+03  0.42009095008E+03  0.10566000000E+00 0. -1.
          4    1    3    3  502    0 -0.48815278856E+03  0.35887521509E+03 -0.62105418824E+03  0.86763636952E+03  0.00000000000E+00 0.  1.
         -4    1    4    4    0  501  0.78083128734E+03 -0.11914882151E+04 -0.75200322232E+03  0.16108539699E+04  0.00000000000E+00 0. -1.
</event>
<event>
 8    1  0.7096247E-006  0.1363936E+04  0.7818608E-02  0.8492385E-01
          2   -1    0    0  502    0  0.00000000000E+00  0.00000000000E+00  0.21214566669E+04  0.21214566669E+04  0.00000000000E+00 0. -1.
         -2   -1    0    0    0  501 -0.00000000000E+00 -0.00000000000E+00 -0.92258887935E+03  0.92258887935E+03  0.00000000000E+00 0.  1.
    9000010    2    1    2  502    0  0.71562210763E+03  0.65219440004E+03  0.91482399890E+03  0.16047400556E+04  0.89488276373E+03 0.  0.
   -9000010    2    1    2    0  501 -0.71562210763E+03 -0.65219440004E+03  0.28404378860E+03  0.14393054906E+04  0.10263756062E+04 0.  0.
        -13    1    3    3    0    0  0.26135959068E+03  0.79426720198E+03  0.65724366437E+03  0.10635499374E+04  0.10566000000E+00 0.  1.
         13    1    4    4    0    0 -0.73662650084E+03 -0.27106700680E+03 -0.21233747544E+03  0.81313168586E+03  0.10566000000E+00 0. -1.
          4    1    3    3  502    0  0.45426251695E+03 -0.14207280194E+03  0.25758033454E+03  0.54119011826E+03  0.00000000000E+00 0.  1.
         -4    1    4    4    0  501  0.21004393207E+02 -0.38112739324E+03  0.49638126405E+03  0.62617380471E+03  0.00000000000E+00 0. -1.
</event>
<event>
 8    1  0.7096247E-006  0.1378144E+04  0.7818608E-02  0.8483275E-01
          1   -1    0    0  502    0  0.00000000000E+00  0.00000000000E+00  0.62654810372E+03  0.62654810372E+03  0.00000000000E+00 0. -1.
         -1   -1    0    0    0  501 -0.00000000000E+00 -0.00000000000E+00 -0.31342175777E+04  0.31342175777E+04  0.00000000000E+00 0.  1.
    9000010    2    1    2  502    0  0.75577494372E+03 -0.19013189805E+03 -0.14623589550E+04  0.19383282344E+04  0.10056225568E+04 0.  0.
   -9000010    2    1    2    0  501 -0.75577494372E+03  0.19013189805E+03 -0.10453105190E+04  0.18224374471E+04  0.12732864026E+04 0.  0.
        -13    1    3    3    0    0  0.15409012773E+03  0.39158310031E+03 -0.63280393187E+03  0.75994862936E+03  0.10566000000E+00 0.  1.
         13    1    4    4    0    0 -0.90765464291E+03  0.85444003852E+02 -0.16934783566E+03  0.92726281560E+03  0.10566000000E+00 0. -1.
          4    1    3    3  502    0  0.60168481599E+03 -0.58171499836E+03 -0.82955502314E+03  0.11783796050E+04  0.00000000000E+00 0.  1.
         -4    1    4    4    0  501  0.15187969919E+03  0.10468789420E+03 -0.87596268336E+03  0.89517463148E+03  0.00000000000E+00 0. -1.
</event>
<event>
 8    1  0.7096247E-006  0.1450561E+04  0.7818608E-02  0.8438533E-01
          2   -1    0    0  502    0  0.00000000000E+00  0.00000000000E+00  0.17057758268E+04  0.17057758268E+04  0.00000000000E+00 0. -1.
         -2   -1    0    0    0  501 -0.00000000000E+00 -0.00000000000E+00 -0.12348362998E+04  0.12348362998E+04  0.00000000000E+00 0.  1.
    9000010    2    1    2  502    0 -0.27032870991E+03 -0.10084303733E+04  0.28352335714E+03  0.14796609156E+04  0.10094560426E+04 0.  0.
   -9000010    2    1    2    0  501  0.27032870991E+03  0.10084303733E+04  0.18741616986E+03  0.14609512110E+04  0.10046114627E+04 0.  0.
        -13    1    3    3    0    0 -0.31579221698E+03 -0.11172556476E+04  0.47527635348E+03  0.12545407645E+04  0.10566000000E+00 0.  1.
         13    1    4    4    0    0  0.43395738242E+03  0.44538483632E+02  0.20747919065E+03  0.48306346581E+03  0.10566000000E+00 0. -1.
          4    1    3    3  502    0  0.45463507074E+02  0.10882527434E+03 -0.19175299634E+03  0.22512015107E+03  0.00000000000E+00 0.  1.
         -4    1    4    4    0  501 -0.16362867251E+03  0.96389188965E+03 -0.20063020791E+02  0.97788774520E+03  0.00000000000E+00 0. -1.
</event>
<event>
 8    1  0.7096247E-006  0.1245074E+04  0.7818608E-02  0.8573372E-01
          1   -1    0    0  502    0  0.00000000000E+00  0.00000000000E+00  0.47531937471E+03  0.47531937471E+03  0.00000000000E+00 0.  1.
         -1   -1    0    0    0  501 -0.00000000000E+00 -0.00000000000E+00 -0.42167334916E+04  0.42167334916E+04  0.00000000000E+00 0. -1.
    9000010    2    1    2  502    0 -0.17787786344E+03 -0.75401070199E+03 -0.29454724938E+04  0.31847248925E+04  0.93085538954E+03 0.  0.
   -9000010    2    1    2    0  501  0.17787786344E+03  0.75401070199E+03 -0.79594162306E+03  0.15073279738E+04  0.10189906183E+04 0.  0.
        -13    1    3    3    0    0 -0.26061989613E+03  0.41692602641E+02 -0.21791690060E+03  0.34227005435E+03  0.10566000000E+00 0.  1.
         13    1    4    4    0    0  0.25558012864E+03  0.17864051607E+03 -0.86797102167E+03  0.92228376423E+03  0.10566000000E+00 0. -1.
          4    1    3    3  502    0  0.82742032693E+02 -0.79570330463E+03 -0.27275555932E+04  0.28424548381E+04  0.00000000000E+00 0.  1.
         -4    1    4    4    0  501 -0.77702265198E+02  0.57537018591E+03  0.72029398611E+02  0.58504420954E+03  0.00000000000E+00 0. -1.
</event>
<event>
 8    1  0.7096247E-006  0.1124025E+04  0.7818608E-02  0.8666080E-01
          2   -1    0    0  502    0  0.00000000000E+00  0.00000000000E+00  0.17114466428E+04  0.17114466428E+04  0.00000000000E+00 0.  1.
         -2   -1    0    0    0  501 -0.00000000000E+00 -0.00000000000E+00 -0.74887683161E+03  0.74887683161E+03  0.00000000000E+00 0. -1.
    9000010    2    1    2  502    0  0.39057279819E+03  0.35517658207E+03  0.62931710300E+03  0.12910157590E+04  0.99598401525E+03 0.  0.
   -9000010    2    1    2    0  501 -0.39057279819E+03 -0.35517658207E+03  0.33325270814E+03  0.11693077154E+04  0.98869896867E+03 0.  0.
        -13    1    3    3    0    0  0.52856703435E+03  0.37364842078E+03  0.83744232728E+00  0.64729974867E+03  0.10566000000E+00 0.  1.
         13    1    4    4    0    0  0.23408875248E+03 -0.18524422504E+02  0.39234579976E+03  0.45724822145E+03  0.10566000000E+00 0. -1.
          4    1    3    3  502    0 -0.13799423616E+03 -0.18471838711E+02  0.62847966067E+03  0.64371601030E+03  0.00000000000E+00 0.  1.
         -4    1    4    4    0  501 -0.62466155068E+03 -0.33665215957E+03 -0.59093091620E+02  0.71205949394E+03  0.00000000000E+00 0. -1.
</event>
<event>
 8    1  0.7096247E-006  0.1189295E+04  0.7818608E-02  0.8614667E-01
         -2   -1    0    0    0  501 -0.00000000000E+00  0.00000000000E+00  0.10114141094E+04  0.10114141094E+04  0.00000000000E+00 0. -1.
          2   -1    0    0  502    0  0.00000000000E+00 -0.00000000000E+00 -0.15506729734E+04  0.15506729734E+04  0.00000000000E+00 0.  1.
    9000010    2    1    2  502    0 -0.54075130987E+03  0.66082004970E+03  0.13207295622E+03  0.11948944370E+04  0.82536920994E+03 0.  0.
   -9000010    2    1    2    0  501  0.54075130987E+03 -0.66082004970E+03 -0.67133182024E+03  0.13671926457E+04  0.83032174514E+03 0.  0.
        -13    1    3    3    0    0 -0.65308171684E+03  0.78432303553E+03  0.11339173013E+03  0.10269060563E+04  0.10566000000E+00 0.  1.
         13    1    4    4    0    0  0.36574361948E+03 -0.12597717373E+03  0.11196002433E+03  0.40270796081E+03  0.10566000000E+00 0. -1.
          4    1    3    3  502    0  0.11233040698E+03 -0.12350298583E+03  0.18681226081E+02  0.16798838070E+03  0.00000000000E+00 0.  1.
         -4    1    4    4    0  501  0.17500769038E+03 -0.53484287597E+03 -0.78329184457E+03  0.96448468492E+03  0.00000000000E+00 0. -1.
</event>
<event>
 8    1  0.7096247E-006  0.1035448E+04  0.7818608E-02  0.8741980E-01
         -2   -1    0    0    0  501 -0.00000000000E+00  0.00000000000E+00  0.20062850607E+04  0.20062850607E+04  0.00000000000E+00 0. -1.
          2   -1    0    0  502    0  0.00000000000E+00 -0.00000000000E+00 -0.55501061000E+03  0.55501061000E+03  0.00000000000E+00 0.  1.
    9000010    2    1    2  502    0 -0.29862930182E+03  0.15218078475E+03  0.98785293026E+03  0.14501897996E+04  0.10074019019E+04 0.  0.
   -9000010    2    1    2    0  501  0.29862930182E+03 -0.15218078475E+03  0.46342152044E+03  0.11111058711E+04  0.95260605708E+03 0.  0.
        -13    1    3    3    0    0 -0.23487641687E+03  0.65376638471E+02 -0.16366593519E+03  0.29364533976E+03  0.10566000000E+00 0.  1.
         13    1    4    4    0    0  0.71810418529E+02  0.36067114754E+03  0.40538996827E+03  0.54734034240E+03  0.10566000000E+00 0. -1.
          4    1    3    3  502    0 -0.63752884957E+02  0.86804146277E+02  0.11515188655E+04  0.11565444599E+04  0.00000000000E+00 0.  1.
         -4    1    4    4    0  501  0.22681888329E+03 -0.51285193229E+03  0.58031552169E+02  0.56376552867E+03  0.00000000000E+00 0. -1.
</event>
<event>
 8    1  0.7096247E-006  0.1160401E+04  0.7818608E-02  0.8636993E-01
         -1   -1    0    0    0  501 -0.00000000000E+00  0.00000000000E+00  0.10746369897E+04  0.10746369897E+04  0.00000000000E+00 0.  1.
          1   -1    0    0  502    0  0.00000000000E+00 -0.00000000000E+00 -0.14314947191E+04  0.14314947191E+04  0.00000000000E+00 0. -1.
    9000010    2    1    2  502    0 -0.36367549153E+03  0.56796741898E+03 -0.61150146554E+03  0.12704867549E+04  0.88620296763E+03 0.  0.
   -9000010    2    1    2    0  501  0.36367549153E+03 -0.56796741898E+03  0.25464373619E+03  0.12356449540E+04  0.10035577550E+04 0.  0.
        -13    1    3    3    0    0 -0.43694578113E+03  0.26904730680E+03 -0.76921437140E+03  0.92466146739E+03  0.10566000000E+00 0.  1.
         13    1    4    4    0    0  0.16559966891E+03  0.68693074079E+02  0.49532644595E+03  0.52677346933E+03  0.10566000000E+00 0. -1.
          4    1    3    3  502    0  0.73270289599E+02  0.29892011218E+03  0.15771290586E+03  0.34582528750E+03  0.00000000000E+00 0.  1.
         -4    1    4    4    0  501  0.19807582262E+03 -0.63666049306E+03 -0.24068270976E+03  0.70887148462E+03  0.00000000000E+00 0. -1.
</event>
<event>
 8    1  0.7096247E-006  0.1209896E+04  0.7818608E-02  0.8599147E-01
         -1   -1    0    0    0  501 -0.00000000000E+00  0.00000000000E+00  0.21776455419E+04  0.21776455419E+04  0.00000000000E+00 0.  1.
          1   -1    0    0  502    0  0.00000000000E+00 -0.00000000000E+00 -0.86606593806E+03  0.86606593806E+03  0.00000000000E+00 0. -1.
    9000010    2    1    2  502    0  0.53105840364E+03  0.43117077000E+03 -0.65660934302E+02  0.12082010713E+04  0.99373397319E+03 0.  0.
   -9000010    2    1    2    0  501 -0.53105840364E+03 -0.43117077000E+03  0.13772405382E+04  0.18355104087E+04  0.10021854616E+04 0.  0.
        -13    1    3    3    0    0 -0.79490993480E+02  0.52472845815E+03 -0.21519128921E+03  0.57268322391E+03  0.10566000000E+00 0.  1.
         13    1    4    4    0    0 -0.65229071301E+03 -0.41236318340E+03  0.14841443533E+04  0.16727854142E+04  0.10566000000E+00 0. -1.
          4    1    3    3  502    0  0.61054939712E+03 -0.93557688154E+02  0.14953035491E+03  0.63551784741E+03  0.00000000000E+00 0.  1.
         -4    1    4    4    0  501  0.12123230938E+03 -0.18807586594E+02 -0.10690381511E+03  0.16272499450E+03  0.00000000000E+00 0. -1.
</event>
<event>
 8    1  0.7096247E-006  0.1146406E+04  0.7818608E-02  0.8648051E-01
          2   -1    0    0  502    0  0.00000000000E+00  0.00000000000E+00  0.10202603016E+04  0.10202603016E+04  0.00000000000E+00 0. -1.
         -2   -1    0    0    0  501 -0.00000000000E+00 -0.00000000000E+00 -0.13468273952E+04  0.13468273952E+04  0.00000000000E+00 0.  1.
    9000010    2    1    2  502    0  0.57284555897E+03  0.28055369815E+02  0.83821722000E+02  0.11489938801E+04  0.99207949141E+03 0.  0.
   -9000010    2    1    2    0  501 -0.57284555897E+03 -0.28055369815E+02 -0.41038881561E+03  0.12180938167E+04  0.99317391640E+03 0.  0.
        -13    1    3    3    0    0  0.70690657870E+02 -0.38634839494E+03 -0.19764571088E+03  0.43968862798E+03  0.10566000000E+00 0.  1.
         13    1    4    4    0    0 -0.17772082030E+03 -0.36391579322E+03 -0.54814395070E+03  0.68152857341E+03  0.10566000000E+00 0. -1.
          4    1    3    3  502    0  0.50215490110E+03  0.41440376476E+03  0.28146743288E+03  0.70930525214E+03  0.00000000000E+00 0.  1.
         -4    1    4    4    0  501 -0.39512473867E+03  0.33586042340E+03  0.13775513509E+03  0.53656524334E+03  0.00000000000E+00 0. -1.
</event>
<event>
 8    1  0.7096247E-006  0.1326117E+04  0.7818608E-02  0.8517199E-01
         -1   -1    0    0    0  501 -0.00000000000E+00  0.00000000000E+00  0.10127088739E+04  0.10127088739E+04  0.00000000000E+00 0. -1.
          1   -1    0    0  502    0  0.00000000000E+00 -0.00000000000E+00 -0.17507045588E+04  0.17507045588E+04  0.00000000000E+00 0.  1.
    9000010    2    1    2  502    0 -0.30280116852E+03 -0.81754401202E+03 -0.49397470635E+03  0.14172296136E+04  0.10022285208E+04 0.  0.
   -9000010    2    1    2    0  501  0.30280116852E+03  0.81754401202E+03 -0.24402097856E+03  0.13461838190E+04  0.99629206429E+03 0.  0.
        -13    1    3    3    0    0 -0.58629074596E+03 -0.83485307286E+03 -0.26932962548E+03  0.10551089756E+04  0.10566000000E+00 0.  1.
         13    1    4    4    0    0  0.24611110079E+03  0.79568312007E+03  0.23336110190E+03  0.86495070179E+03  0.10566000000E+00 0. -1.
          4    1    3    3  502    0  0.28348957744E+03  0.17309060832E+02 -0.22464508087E+03  0.36212063800E+03  0.00000000000E+00 0.  1.
         -4    1    4    4    0  501  0.56690067730E+02  0.21860891957E+02 -0.47738208046E+03  0.48123311723E+03  0.00000000000E+00 0. -1.
</event>
<event>
 8    1  0.7096247E-006  0.1288829E+04  0.7818608E-02  0.8542514E-01
         -2   -1    0    0    0  501 -0.00000000000E+00  0.00000000000E+00  0.70271578358E+03  0.70271578358E+03  0.00000000000E+00 0. -1.
          2   -1    0    0  502    0  0.00000000000E+00 -0.00000000000E+00 -0.23672859365E+04  0.23672859365E+04  0.00000000000E+00 0.  1.
    9000010    2    1    2  502    0  0.49237668331E+03 -0.63628040300E+03 -0.88509924703E+03  0.15567871102E+04  0.99644261238E+03 0.  0.
   -9000010    2    1    2    0  501 -0.49237668331E+03  0.63628040300E+03 -0.77947090586E+03  0.15132146099E+04  0.10173278788E+04 0.  0.
        -13    1    3    3    0    0  0.58597510732E+03 -0.61354977792E+02 -0.75893151440E+03  0.96078525926E+03  0.10566000000E+00 0.  1.
         13    1    4    4    0    0  0.20871992001E+03  0.51619262058E+03 -0.50207416948E+03  0.74973149152E+03  0.10566000000E+00 0. -1.
          4    1    3    3  502    0 -0.93598424007E+02 -0.57492542520E+03 -0.12616773263E+03  0.59600185090E+03  0.00000000000E+00 0.  1.
         -4    1    4    4    0  501 -0.70109660332E+03  0.12008778241E+03 -0.27739673639E+03  0.76348311837E+03  0.00000000000E+00 0. -1.
</event>
<event>
 8    1  0.7096247E-006  0.1330833E+04  0.7818608E-02  0.8514059E-01
          2   -1    0    0  502    0  0.00000000000E+00  0.00000000000E+00  0.15496864849E+04  0.15496864849E+04  0.00000000000E+00 0.  1.
         -2   -1    0    0    0  501 -0.00000000000E+00 -0.00000000000E+00 -0.12947944924E+04  0.12947944924E+04  0.00000000000E+00 0. -1.
    9000010    2    1    2  502    0 -0.46707787501E+02 -0.88770298715E+03 -0.36005581794E+03  0.13743902760E+04  0.98443396326E+03 0.  0.
   -9000010    2    1    2    0  501  0.46707787501E+02  0.88770298715E+03  0.61494781049E+03  0.14700907013E+04  0.99639733516E+03 0.  0.
        -13    1    3    3    0    0  0.82095840156E+02 -0.74648941298E+03  0.20451813771E+03  0.77834044638E+03  0.10566000000E+00 0.  1.
         13    1    4    4    0    0  0.18585482817E+03  0.59968508013E+03  0.86166462061E+03  0.10661285767E+04  0.10566000000E+00 0. -1.
          4    1    3    3  502    0 -0.12880362766E+03 -0.14121357417E+03 -0.56457395565E+03  0.59604982965E+03  0.00000000000E+00 0.  1.
         -4    1    4    4    0  501 -0.13914704066E+03  0.28801790702E+03 -0.24671681012E+03  0.40396212457E+03  0.00000000000E+00 0. -1.
</event>
<event>
 8    1  0.7096247E-006  0.1125613E+04  0.7818608E-02  0.8664786E-01
         -1   -1    0    0    0  501 -0.00000000000E+00  0.00000000000E+00  0.12668877087E+04  0.12668877087E+04  0.00000000000E+00 0. -1.
          1   -1    0    0  502    0  0.00000000000E+00 -0.00000000000E+00 -0.10603840942E+04  0.10603840942E+04  0.00000000000E+00 0.  1.
    9000010    2    1    2  502    0 -0.23536458228E+03  0.50384460018E+03 -0.17516869856E+03  0.11203342015E+04  0.95666544951E+03 0.  0.
   -9000010    2    1    2    0  501  0.23536458228E+03 -0.50384460018E+03  0.38167231308E+03  0.12069376014E+04  0.10008839849E+04 0.  0.
        -13    1    3    3    0    0  0.78904046795E+02  0.13217722140E+02 -0.46342458925E+03  0.47027961668E+03  0.10566000000E+00 0.  1.
         13    1    4    4    0    0  0.35898406344E+02 -0.53115535373E+03 -0.21732075032E+03  0.57501567375E+03  0.10566000000E+00 0. -1.
          4    1    3    3  502    0 -0.31426862907E+03  0.49062687804E+03  0.28825589069E+03  0.65005458478E+03  0.00000000000E+00 0.  1.
         -4    1    4    4    0  501  0.19946617594E+03  0.27310753547E+02  0.59899306340E+03  0.63192192761E+03  0.00000000000E+00 0. -1.
</event>
<event>
 8    1  0.7096247E-006  0.1070543E+04  0.7818608E-02  0.8710994E-01
         -2   -1    0    0    0  501 -0.00000000000E+00  0.00000000000E+00  0.13431699324E+04  0.13431699324E+04  0.00000000000E+00 0. -1.
          2   -1    0    0  502    0  0.00000000000E+00 -0.00000000000E+00 -0.87115616739E+03  0.87115616739E+03  0.00000000000E+00 0.  1.
    9000010    2    1    2  502    0 -0.40186562893E+03 -0.15823779379E+03  0.81371814525E+02  0.10889726571E+04  0.99634576956E+03 0.  0.
   -9000010    2    1    2    0  501  0.40186562893E+03  0.15823779379E+03  0.39064195045E+03  0.11253534427E+04  0.96295589433E+03 0.  0.
        -13    1    3    3    0    0  0.12464668694E+03 -0.40196453149E+03  0.24394566292E+03  0.48643784677E+03  0.10566000000E+00 0.  1.
         13    1    4    4    0    0  0.85534442445E+02 -0.20410115191E+03  0.57043323664E+03  0.61185579157E+03  0.10566000000E+00 0. -1.
          4    1    3    3  502    0 -0.52651231587E+03  0.24372673770E+03 -0.16257384840E+03  0.60253481029E+03  0.00000000000E+00 0.  1.
         -4    1    4    4    0  501  0.31633118649E+03  0.36233894570E+03 -0.17979128618E+03  0.51349765112E+03  0.00000000000E+00 0. -1.
</event>
<event>
 8    1  0.7096247E-006  0.1485188E+04  0.7818608E-02  0.8418075E-01
         -2   -1    0    0    0  501 -0.00000000000E+00  0.00000000000E+00  0.90615572187E+03  0.90615572187E+03  0.00000000000E+00 0.  1.
          2   -1    0    0  502    0  0.00000000000E+00 -0.00000000000E+00 -0.26452232682E+04  0.26452232682E+04  0.00000000000E+00 0. -1.
    9000010    2    1    2  502    0 -0.11010447756E+04  0.14174908524E+03 -0.37242954787E+03  0.15389596475E+04  0.99864940174E+03 0.  0.
   -9000010    2    1    2    0  501  0.11010447756E+04 -0.14174908524E+03 -0.13666379984E+04  0.20124193425E+04  0.97454594065E+03 0.  0.
        -13    1    3    3    0    0 -0.48573879689E+03  0.14435528758E+03 -0.68240908335E+03  0.84997811505E+03  0.10566000000E+00 0.  1.
         13    1    4    4    0    0  0.10189999977E+03  0.32579354679E+02  0.15222021641E+03  0.18605383563E+03  0.10566000000E+00 0. -1.
          4    1    3    3  502    0 -0.61530597867E+03 -0.26062023342E+01  0.30997953547E+03  0.68898153247E+03  0.00000000000E+00 0.  1.
         -4    1    4    4    0  501  0.99914477580E+03 -0.17432843992E+03 -0.15188582149E+04  0.18263655069E+04  0.00000000000E+00 0. -1.
</event>
<event>
 8    1  0.7096247E-006  0.1367069E+04  0.7818608E-02  0.8490366E-01
         -2   -1    0    0    0  501 -0.00000000000E+00  0.00000000000E+00  0.68091371056E+03  0.68091371056E+03  0.00000000000E+00 0.  1.
          2   -1    0    0  502    0  0.00000000000E+00 -0.00000000000E+00 -0.33630459811E+04  0.33630459811E+04  0.00000000000E+00 0. -1.
    9000010    2    1    2  502    0  0.91070085604E+03  0.13810139532E+03 -0.47897828345E+03  0.14543502313E+04  0.10184627410E+04 0.  0.
   -9000010    2    1    2    0  501 -0.91070085604E+03 -0.13810139532E+03 -0.22031539871E+04  0.25896094603E+04  0.10018690641E+04 0.  0.
        -13    1    3    3    0    0  0.71264066509E+03  0.15801880607E+03  0.19174321217E+03  0.75471327747E+03  0.10566000000E+00 0.  1.
         13    1    4    4    0    0 -0.56840871006E+03  0.68074262659E+02 -0.21004032074E+04  0.21770200302E+04  0.10566000000E+00 0. -1.
          4    1    3    3  502    0  0.19806019095E+03 -0.19917410756E+02 -0.67072149562E+03  0.69963695384E+03  0.00000000000E+00 0.  1.
         -4    1    4    4    0  501 -0.34229214597E+03 -0.20617565798E+03 -0.10275077964E+03  0.41258943013E+03  0.00000000000E+00 0. -1.
</event>
<event>
 8    1  0.7096247E-006  0.1292911E+04  0.7818608E-02  0.8539700E-01
         -2   -1    0    0    0  501 -0.00000000000E+00  0.00000000000E+00  0.77962058727E+03  0.77962058727E+03  0.00000000000E+00 0. -1.
          2   -1    0    0  502    0  0.00000000000E+00 -0.00000000000E+00 -0.21914102370E+04  0.21914102370E+04  0.00000000000E+00 0.  1.
    9000010    2    1    2  502    0  0.79294392221E+03 -0.10484788471E+03 -0.93620447733E+03  0.16182996790E+04  0.10500770852E+04 0.  0.
   -9000010    2    1    2    0  501 -0.79294392221E+03  0.10484788471E+03 -0.47558517237E+03  0.13527311452E+04  0.98180810367E+03 0.  0.
        -13    1    3    3    0    0  0.30580969122E+03 -0.43577539440E+03 -0.24501143894E+02  0.53293534207E+03  0.10566000000E+00 0.  1.
         13    1    4    4    0    0 -0.20804823963E+03 -0.24734734398E+03 -0.57811230045E+03  0.66232818276E+03  0.10566000000E+00 0. -1.
          4    1    3    3  502    0  0.48713423098E+03  0.33092750969E+03 -0.91170333343E+03  0.10853643369E+04  0.00000000000E+00 0.  1.
         -4    1    4    4    0  501 -0.58489568257E+03  0.35219522869E+03  0.10252712807E+03  0.69040296248E+03  0.00000000000E+00 0. -1.
</event>
<event>
 8    1  0.7096247E-006  0.1440453E+04  0.7818608E-02  0.8444615E-01
         -1   -1    0    0    0  501 -0.00000000000E+00  0.00000000000E+00  0.12731078144E+04  0.12731078144E+04  0.00000000000E+00 0.  1.
          1   -1    0    0  502    0  0.00000000000E+00 -0.00000000000E+00 -0.16348026547E+04  0.16348026547E+04  0.00000000000E+00 0. -1.
    9000010    2    1    2  502    0 -0.99112596912E+03  0.31975510898E+03 -0.26184844197E+03  0.14703026809E+04  0.10043163598E+04 0.  0.
   -9000010    2    1    2    0  501  0.99112596912E+03 -0.31975510898E+03 -0.99846398328E+02  0.14376077883E+04  0.98598825212E+03 0.  0.
        -13    1    3    3    0    0 -0.10022207692E+04  0.58978687868E+03 -0.29024223969E+03  0.11985556313E+04  0.10566000000E+00 0.  1.
         13    1    4    4    0    0 -0.10094324116E+03 -0.32492642058E+03 -0.54525347289E+02  0.34458633372E+03  0.10566000000E+00 0. -1.
          4    1    3    3  502    0  0.11094800035E+02 -0.27003176970E+03  0.28393797725E+02  0.27174704963E+03  0.00000000000E+00 0.  1.
         -4    1    4    4    0  501  0.10920692103E+04  0.51713115982E+01 -0.45321051039E+02  0.10930214546E+04  0.00000000000E+00 0. -1.
</event>
<event>
 8    1  0.7096247E-006  0.1296693E+04  0.7818608E-02  0.8537103E-01
         -2   -1    0    0    0  501 -0.00000000000E+00  0.00000000000E+00  0.93515002632E+03  0.93515002632E+03  0.00000000000E+00 0. -1.
          2   -1    0    0  502    0  0.00000000000E+00 -0.00000000000E+00 -0.18012766706E+04  0.18012766706E+04  0.00000000000E+00 0.  1.
    9000010    2    1    2  502    0 -0.91813027963E+03  0.46593438575E+01 -0.45951137945E+03  0.14284624523E+04  0.99316129101E+03 0.  0.
   -9000010    2    1    2    0  501  0.91813027963E+03 -0.46593438575E+01 -0.40661526487E+03  0.13079642446E+04  0.83812264722E+03 0.  0.
        -13    1    3    3    0    0  0.85810350971E+02  0.22373412638E+03  0.98593342113E+02  0.25911586967E+03  0.10566000000E+00 0.  1.
         13    1    4    4    0    0  0.31248083683E+03 -0.37337796523E+03  0.72923410604E+01  0.48693795057E+03  0.10566000000E+00 0. -1.
          4    1    3    3  502    0 -0.10039406306E+04 -0.21907478252E+03 -0.55810472156E+03  0.11693465826E+04  0.00000000000E+00 0.  1.
         -4    1    4    4    0  501  0.60564944280E+03  0.36871862137E+03 -0.41390760593E+03  0.82102629407E+03  0.00000000000E+00 0. -1.
</event>
<event>
 8    1  0.7096247E-006  0.1402792E+04  0.7818608E-02  0.8467736E-01
         -2   -1    0    0    0  501 -0.00000000000E+00  0.00000000000E+00  0.11294533116E+04  0.11294533116E+04  0.00000000000E+00 0. -1.
          2   -1    0    0  502    0  0.00000000000E+00 -0.00000000000E+00 -0.29394935590E+04  0.29394935590E+04  0.00000000000E+00 0.  1.
    9000010    2    1    2  502    0 -0.83396270134E+03 -0.51968735253E+03  0.39182497019E+03  0.14603282819E+04  0.10067090703E+04 0.  0.
   -9000010    2    1    2    0  501  0.83396270134E+03  0.51968735253E+03 -0.22018652176E+04  0.26086185887E+04  0.99554596737E+03 0.  0.
        -13    1    3    3    0    0 -0.10020784489E+04 -0.52717104757E+03  0.11732025248E+03  0.11383473037E+04  0.10566000000E+00 0.  1.
         13    1    4    4    0    0  0.89897274275E+03  0.55897462090E+02 -0.11793969874E+04  0.14839992532E+04  0.10566000000E+00 0. -1.
          4    1    3    3  502    0  0.16811574755E+03  0.74836950428E+01  0.27450471771E+03  0.32198097818E+03  0.00000000000E+00 0.  1.
         -4    1    4    4    0  501 -0.65010041408E+02  0.46378989044E+03 -0.10224682302E+04  0.11246193355E+04  0.00000000000E+00 0. -1.
</event>
<event>
 8    1  0.7096247E-006  0.1531219E+04  0.7818608E-02  0.8391756E-01
         -1   -1    0    0    0  501 -0.00000000000E+00  0.00000000000E+00  0.33454443619E+04  0.33454443619E+04  0.00000000000E+00 0.  1.
          1   -1    0    0  502    0  0.00000000000E+00 -0.00000000000E+00 -0.83747298981E+03  0.83747298981E+03  0.00000000000E+00 0. -1.
    9000010    2    1    2  502    0  0.83865681907E+03 -0.84456044944E+03  0.41181605782E+03  0.15892720580E+04  0.96931191875E+03 0.  0.
   -9000010    2    1    2    0  501 -0.83865681907E+03  0.84456044944E+03  0.20961553142E+04  0.25936452937E+04  0.95734068922E+03 0.  0.
        -13    1    3    3    0    0  0.64453171738E+03 -0.88866577795E+03 -0.36864904460E+02  0.10984111398E+04  0.10566000000E+00 0.  1.
         13    1    4    4    0    0 -0.92760786482E+02  0.35327661358E+03  0.14394049239E+04  0.14850237289E+04  0.10566000000E+00 0. -1.
          4    1    3    3  502    0  0.19412510169E+03  0.44105328511E+02  0.44868096228E+03  0.49086091821E+03  0.00000000000E+00 0.  1.
         -4    1    4    4    0  501 -0.74589603258E+03  0.49128383586E+03  0.65675039033E+03  0.11086215648E+04  0.00000000000E+00 0. -1.
</event>
<event>
 8    1  0.7096247E-006  0.1397100E+04  0.7818608E-02  0.8471295E-01
          1   -1    0    0  502    0  0.00000000000E+00  0.00000000000E+00  0.18214061186E+04  0.18214061186E+04  0.00000000000E+00 0. -1.
         -1   -1    0    0    0  501 -0.00000000000E+00 -0.00000000000E+00 -0.11946386092E+04  0.11946386092E+04  0.00000000000E+00 0.  1.
    9000010    2    1    2  502    0  0.94367650482E+03  0.27451911035E+03 -0.16924209358E+03  0.14133245110E+04  0.10014775082E+04 0.  0.
   -9000010    2    1    2    0  501 -0.94367650482E+03 -0.27451911035E+03  0.79600960301E+03  0.16027202168E+04  0.98447687502E+03 0.  0.
        -13    1    3    3    0    0  0.46256613143E+03 -0.37406957220E+03 -0.94101440362E+02  0.60228777426E+03  0.10566000000E+00 0.  1.
         13    1    4    4    0    0 -0.57928488274E+01  0.28506568881E+03  0.26115026303E+03  0.38664644713E+03  0.10566000000E+00 0. -1.
          4    1    3    3  502    0  0.48111037340E+03  0.64858868255E+03 -0.75140653218E+02  0.81103673671E+03  0.00000000000E+00 0.  1.
         -4    1    4    4    0  501 -0.93788365600E+03 -0.55958479916E+03  0.53485933997E+03  0.12160737696E+04  0.00000000000E+00 0. -1.
</event>
<event>
 8    1  0.7096247E-006  0.1062729E+04  0.7818608E-02  0.8717785E-01
         -2   -1    0    0    0  501 -0.00000000000E+00  0.00000000000E+00  0.83002633375E+03  0.83002633375E+03  0.00000000000E+00 0.  1.
          2   -1    0    0  502    0  0.00000000000E+00 -0.00000000000E+00 -0.13989406903E+04  0.13989406903E+04  0.00000000000E+00 0. -1.
    9000010    2    1    2  502    0 -0.32881663081E+03 -0.14986280755E+03 -0.98424420152E+02  0.10602177465E+04  0.99186443913E+03 0.  0.
   -9000010    2    1    2    0  501  0.32881663081E+03  0.14986280755E+03 -0.47048993645E+03  0.11687492776E+04  0.10069929771E+04 0.  0.
        -13    1    3    3    0    0 -0.21329005968E+03  0.28524894277E+03 -0.38662747451E+03  0.52568091474E+03  0.10566000000E+00 0.  1.
         13    1    4    4    0    0  0.91749557749E+02  0.40321310311E+03  0.16458766635E+03  0.44507066737E+03  0.10566000000E+00 0. -1.
          4    1    3    3  502    0 -0.11552657113E+03 -0.43511175033E+03  0.28820305436E+03  0.53453683171E+03  0.00000000000E+00 0.  1.
         -4    1    4    4    0  501  0.23706707306E+03 -0.25335029556E+03 -0.63507760280E+03  0.72367861028E+03  0.00000000000E+00 0. -1.
</event>
<event>
 8    1  0.7096247E-006  0.1103577E+04  0.7818608E-02  0.8682938E-01
          2   -1    0    0  502    0  0.00000000000E+00  0.00000000000E+00  0.98188115567E+03  0.98188115567E+03  0.00000000000E+00 0. -1.
         -2   -1    0    0    0  501 -0.00000000000E+00 -0.00000000000E+00 -0.12405799918E+04  0.12405799918E+04  0.00000000000E+00 0.  1.
    9000010    2    1    2  502    0 -0.40744686191E+02  0.47563663548E+03 -0.13033796407E+03  0.11260554472E+04  0.10114952035E+04 0.  0.
   -9000010    2    1    2    0  501  0.40744686191E+02 -0.47563663548E+03 -0.12836087206E+03  0.10964057003E+04  0.97864120477E+03 0.  0.
        -13    1    3    3    0    0 -0.41555756498E+03  0.37162422534E+01 -0.28494970930E+03  0.50388316926E+03  0.10566000000E+00 0.  1.
         13    1    4    4    0    0 -0.23132237966E+03 -0.34987496357E+03 -0.47796706315E+03  0.63590491277E+03  0.10566000000E+00 0. -1.
          4    1    3    3  502    0  0.37481287879E+03  0.47192039323E+03  0.15461174523E+03  0.62217227792E+03  0.00000000000E+00 0.  1.
         -4    1    4    4    0  501  0.27206706585E+03 -0.12576167191E+03  0.34960619110E+03  0.46050078751E+03  0.00000000000E+00 0. -1.
</event>
<event>
 8    1  0.7096247E-006  0.1121434E+04  0.7818608E-02  0.8668195E-01
         -2   -1    0    0    0  501 -0.00000000000E+00  0.00000000000E+00  0.53389005736E+03  0.53389005736E+03  0.00000000000E+00 0.  1.
          2   -1    0    0  502    0  0.00000000000E+00 -0.00000000000E+00 -0.23782771399E+04  0.23782771399E+04  0.00000000000E+00 0. -1.
    9000010    2    1    2  502    0  0.92078025770E+02  0.47459216659E+03 -0.10688185814E+04  0.15532263874E+04  0.10180486054E+04 0.  0.
   -9000010    2    1    2    0  501 -0.92078025770E+02 -0.47459216659E+03 -0.77556850116E+03  0.13589408099E+04  0.10057323389E+04 0.  0.
        -13    1    3    3    0    0 -0.14643005526E+03 -0.11432767684E+03 -0.86682278677E+03  0.88650681531E+03  0.10566000000E+00 0.  1.
         13    1    4    4    0    0  0.30652396662E+03 -0.18177650342E+03  0.85000187639E+02  0.36636686856E+03  0.10566000000E+00 0. -1.
          4    1    3    3  502    0  0.23850808103E+03  0.58891984343E+03 -0.20199579461E+03  0.66671957204E+03  0.00000000000E+00 0.  1.
         -4    1    4    4    0  501 -0.39860199239E+03 -0.29281566316E+03 -0.86056868880E+03  0.99257394136E+03  0.00000000000E+00 0. -1.
</event>
<event>
 8    1  0.7096247E-006  0.1794658E+04  0.7818608E-02  0.8257543E-01
         -2   -1    0    0    0  501 -0.00000000000E+00  0.00000000000E+00  0.35577333408E+04  0.35577333408E+04  0.00000000000E+00 0.  1.
          2   -1    0    0  502    0  0.00000000000E+00 -0.00000000000E+00 -0.11122920460E+04  0.11122920460E+04  0.00000000000E+00 0. -1.
    9000010    2    1    2  502    0 -0.49277263841E+03  0.14195361934E+04  0.21156889272E+03  0.18001449125E+04  0.96842781468E+03 0.  0.
   -9000010    2    1    2    0  501  0.49277263841E+03 -0.14195361934E+04  0.22338724021E+04  0.28698804743E+04  0.99404232827E+03 0.  0.
        -13    1    3    3    0    0 -0.81378404089E+02 -0.11403718862E+03 -0.11242858646E+03  0.17963051873E+03  0.10566000000E+00 0.  1.
         13    1    4    4    0    0  0.11455036564E+03 -0.60147635106E+03  0.19811322209E+03  0.64354055590E+03  0.10566000000E+00 0. -1.
          4    1    3    3  502    0 -0.41139423432E+03  0.15335733820E+04  0.32399747919E+03  0.16205143938E+04  0.00000000000E+00 0.  1.
         -4    1    4    4    0  501  0.37822227278E+03 -0.81805984230E+03  0.20357591800E+04  0.22263399184E+04  0.00000000000E+00 0. -1.
</event>
<event>
 8    1  0.7096247E-006  0.1063352E+04  0.7818608E-02  0.8717242E-01
          2   -1    0    0  502    0  0.00000000000E+00  0.00000000000E+00  0.23618052731E+04  0.23618052731E+04  0.00000000000E+00 0. -1.
         -2   -1    0    0    0  501 -0.00000000000E+00 -0.00000000000E+00 -0.66998155617E+03  0.66998155617E+03  0.00000000000E+00 0.  1.
    9000010    2    1    2  502    0 -0.81807969787E+02  0.36401642157E+03  0.34121779375E+02  0.10605063598E+04  0.99212345209E+03 0.  0.
   -9000010    2    1    2    0  501  0.81807969787E+02 -0.36401642157E+03  0.16577019375E+04  0.19712804695E+04  0.99938504922E+03 0.  0.
        -13    1    3    3    0    0 -0.16895414375E+03 -0.57586783700E+02  0.43627541316E+03  0.47137881543E+03  0.10566000000E+00 0.  1.
         13    1    4    4    0    0  0.22276940925E+03 -0.49540873854E+03  0.16906621423E+04  0.17757799747E+04  0.10566000000E+00 0. -1.
          4    1    3    3  502    0  0.87146173959E+02  0.42160320527E+03 -0.40215363378E+03  0.58912754434E+03  0.00000000000E+00 0.  1.
         -4    1    4    4    0  501 -0.14096143946E+03  0.13139231696E+03 -0.32960204764E+02  0.19550049481E+03  0.00000000000E+00 0. -1.
</event>
<event>
 8    1  0.7096247E-006  0.1379212E+04  0.7818608E-02  0.8482595E-01
          2   -1    0    0  502    0  0.00000000000E+00  0.00000000000E+00  0.23812481241E+04  0.23812481241E+04  0.00000000000E+00 0. -1.
         -2   -1    0    0    0  501 -0.00000000000E+00 -0.00000000000E+00 -0.80708009178E+03  0.80708009178E+03  0.00000000000E+00 0.  1.
    9000010    2    1    2  502    0 -0.68467132567E+03 -0.66150757859E+03  0.62038795955E+03  0.15026040376E+04  0.98314321068E+03 0.  0.
   -9000010    2    1    2    0  501  0.68467132567E+03  0.66150757859E+03  0.95378007282E+03  0.16857241783E+04  0.10127203352E+04 0.  0.
        -13    1    3    3    0    0  0.91794053613E+02 -0.41516310882E+03 -0.74756628502E+02  0.43171184820E+03  0.10566000000E+00 0.  1.
         13    1    4    4    0    0  0.62378613372E+03  0.40844972760E+03  0.11424661599E+04  0.13642467732E+04  0.10566000000E+00 0. -1.
          4    1    3    3  502    0 -0.77646537928E+03 -0.24634446977E+03  0.69514458806E+03  0.10708921894E+04  0.00000000000E+00 0.  1.
         -4    1    4    4    0  501  0.60885191947E+02  0.25305785099E+03 -0.18868608706E+03  0.32147740511E+03  0.00000000000E+00 0. -1.
</event>
<event>
 8    1  0.7096247E-006  0.1156899E+04  0.7818608E-02  0.8639745E-01
         -2   -1    0    0    0  501 -0.00000000000E+00  0.00000000000E+00  0.50220651343E+03  0.50220651343E+03  0.00000000000E+00 0.  1.
          2   -1    0    0  502    0  0.00000000000E+00 -0.00000000000E+00 -0.31823773049E+04  0.31823773049E+04  0.00000000000E+00 0. -1.
    9000010    2    1    2  502    0 -0.17722837014E+03 -0.55100828857E+03 -0.20896035297E+04  0.23919105698E+04  0.10098382214E+04 0.  0.
   -9000010    2    1    2    0  501  0.17722837014E+03  0.55100828857E+03 -0.59056726180E+03  0.12926732485E+04  0.99358663816E+03 0.  0.
        -13    1    3    3    0    0 -0.81580096692E+02 -0.36576950606E+03 -0.95225402364E+02  0.38666591802E+03  0.10566000000E+00 0.  1.
         13    1    4    4    0    0  0.46106827743E+03  0.11915766125E+03 -0.61199758607E+03  0.77545055368E+03  0.10566000000E+00 0. -1.
          4    1    3    3  502    0 -0.95648273443E+02 -0.18523878251E+03 -0.19943781273E+04  0.20052446518E+04  0.00000000000E+00 0.  1.
         -4    1    4    4    0  501 -0.28383990729E+03  0.43185062731E+03  0.21430324264E+02  0.51722269486E+03  0.00000000000E+00 0. -1.
</event>
<event>
 8    1  0.7096247E-006  0.1164909E+04  0.7818608E-02  0.8633466E-01
          2   -1    0    0  502    0  0.00000000000E+00  0.00000000000E+00  0.21931198197E+04  0.21931198197E+04  0.00000000000E+00 0. -1.
         -2   -1    0    0    0  501 -0.00000000000E+00 -0.00000000000E+00 -0.62131926491E+03  0.62131926491E+03  0.00000000000E+00 0.  1.
    9000010    2    1    2  502    0  0.43619765459E+03 -0.40381280776E+03  0.87163357366E+03  0.14498362830E+04  0.99445813551E+03 0.  0.
   -9000010    2    1    2    0  501 -0.43619765459E+03  0.40381280776E+03  0.70016698116E+03  0.13646028016E+04  0.10092441860E+04 0.  0.
        -13    1    3    3    0    0  0.42186986768E+03 -0.58993293341E+03  0.19940179134E+03  0.75216762542E+03  0.10566000000E+00 0.  1.
         13    1    4    4    0    0  0.28200310787E+03  0.33626722991E+02  0.42477290112E+03  0.51096823584E+03  0.10566000000E+00 0. -1.
          4    1    3    3  502    0  0.14327786907E+02  0.18612012565E+03  0.67223178232E+03  0.69766865761E+03  0.00000000000E+00 0.  1.
         -4    1    4    4    0  501 -0.71820076246E+03  0.37018608477E+03  0.27539408005E+03  0.85363456577E+03  0.00000000000E+00 0. -1.
</event>
<event>
 8    1  0.7096247E-006  0.1274496E+04  0.7818608E-02  0.8552481E-01
          2   -1    0    0  502    0  0.00000000000E+00  0.00000000000E+00  0.23896073859E+04  0.23896073859E+04  0.00000000000E+00 0. -1.
         -2   -1    0    0    0  501 -0.00000000000E+00 -0.00000000000E+00 -0.82168602418E+03  0.82168602418E+03  0.00000000000E+00 0.  1.
    9000010    2    1    2  502    0 -0.57211674807E+03  0.52712274876E+03  0.14572556383E+04  0.19439514345E+04  0.10247815467E+04 0.  0.
   -9000010    2    1    2    0  501  0.57211674807E+03 -0.52712274876E+03  0.11066572342E+03  0.12673419756E+04  0.99435044887E+03 0.  0.
        -13    1    3    3    0    0  0.36373659621E+02  0.66160346558E+03  0.71607576946E+03  0.97560581566E+03  0.10566000000E+00 0.  1.
         13    1    4    4    0    0  0.23515157029E+03  0.25253847621E+03 -0.15375277862E+03  0.37777224762E+03  0.10566000000E+00 0. -1.
          4    1    3    3  502    0 -0.60849040769E+03 -0.13448071682E+03  0.74117986885E+03  0.96834561880E+03  0.00000000000E+00 0.  1.
         -4    1    4    4    0  501  0.33696517778E+03 -0.77966122497E+03  0.26441850204E+03  0.88956972801E+03  0.00000000000E+00 0. -1.
</event>
<event>
 8    1  0.7096247E-006  0.1320369E+04  0.7818608E-02  0.8521045E-01
         -1   -1    0    0    0  501 -0.00000000000E+00  0.00000000000E+00  0.28740030497E+04  0.28740030497E+04  0.00000000000E+00 0.  1.
          1   -1    0    0  502    0  0.00000000000E+00 -0.00000000000E+00 -0.67983010244E+03  0.67983010244E+03  0.00000000000E+00 0. -1.
    9000010    2    1    2  502    0 -0.86559717040E+03  0.13457715106E+02  0.16822936420E+04  0.21402670670E+04  0.10005956469E+04 0.  0.
   -9000010    2    1    2    0  501  0.86559717040E+03 -0.13457715106E+02  0.51187930526E+03  0.14135660852E+04  0.99333231220E+03 0.  0.
        -13    1    3    3    0    0 -0.38539386964E+03 -0.22485249364E+03  0.15140100891E+04  0.15783895716E+04  0.10566000000E+00 0.  1.
         13    1    4    4    0    0  0.20184305151E+02 -0.29089274949E+03  0.43066689181E+03  0.52009612645E+03  0.10566000000E+00 0. -1.
          4    1    3    3  502    0 -0.48020330076E+03  0.23831020875E+03  0.16828355292E+03  0.56187749540E+03  0.00000000000E+00 0.  1.
         -4    1    4    4    0  501  0.84541286525E+03  0.27743503438E+03  0.81212413453E+02  0.89346995872E+03  0.00000000000E+00 0. -1.
</event>
<event>
 8    1  0.7096247E-006  0.1174431E+04  0.7818608E-02  0.8626069E-01
          2   -1    0    0  502    0  0.00000000000E+00  0.00000000000E+00  0.25042391678E+04  0.25042391678E+04  0.00000000000E+00 0.  1.
         -2   -1    0    0    0  501 -0.00000000000E+00 -0.00000000000E+00 -0.55165250345E+03  0.55165250345E+03  0.00000000000E+00 0. -1.
    9000010    2    1    2  502    0 -0.52644554412E+03 -0.29439133873E+03  0.92189674945E+03  0.14984398981E+04  0.10156856504E+04 0.  0.
   -9000010    2    1    2    0  501  0.52644554412E+03  0.29439133873E+03  0.10306899149E+04  0.15574517731E+04  0.99976154842E+03 0.  0.
        -13    1    3    3    0    0 -0.75038656778E+03 -0.46113608221E+03  0.56946817178E+03  0.10488186198E+04  0.10566000000E+00 0.  1.
         13    1    4    4    0    0  0.59299889981E+03  0.99133452751E+02  0.10658598134E+03  0.61060275074E+03  0.10566000000E+00 0. -1.
          4    1    3    3  502    0  0.22394102365E+03  0.16674474348E+03  0.35242857767E+03  0.44962127831E+03  0.00000000000E+00 0.  1.
         -4    1    4    4    0  501 -0.66553355687E+02  0.19525788598E+03  0.92410393352E+03  0.94684902236E+03  0.00000000000E+00 0. -1.
</event>
<event>
 8    1  0.7096247E-006  0.1334269E+04  0.7818608E-02  0.8511779E-01
         -2   -1    0    0    0  501 -0.00000000000E+00  0.00000000000E+00  0.12595765301E+04  0.12595765301E+04  0.00000000000E+00 0.  1.
          2   -1    0    0  502    0  0.00000000000E+00 -0.00000000000E+00 -0.14612408735E+04  0.14612408735E+04  0.00000000000E+00 0. -1.
    9000010    2    1    2  502    0  0.55920453016E+03 -0.66729016421E+03  0.14422895494E+03  0.13535180660E+04  0.10262666777E+04 0.  0.
   -9000010    2    1    2    0  501 -0.55920453016E+03  0.66729016421E+03 -0.34589329832E+03  0.13672993376E+04  0.99593144088E+03 0.  0.
        -13    1    3    3    0    0 -0.13647026499E+03  0.35225646061E+02 -0.25172448970E+03  0.28849646315E+03  0.10566000000E+00 0.  1.
         13    1    4    4    0    0 -0.35231675006E+03 -0.16496874330E+03  0.98651243634E+02  0.40134007733E+03  0.10566000000E+00 0. -1.
          4    1    3    3  502    0  0.69567479515E+03 -0.70251581027E+03  0.39595344465E+03  0.10650216029E+04  0.00000000000E+00 0.  1.
         -4    1    4    4    0  501 -0.20688778010E+03  0.83225890751E+03 -0.44454454195E+03  0.96595926025E+03  0.00000000000E+00 0. -1.
</event>
<event>
 8    1  0.7096247E-006  0.1209694E+04  0.7818608E-02  0.8599298E-01
         -2   -1    0    0    0  501 -0.00000000000E+00  0.00000000000E+00  0.58808237722E+03  0.58808237722E+03  0.00000000000E+00 0. -1.
          2   -1    0    0  502    0  0.00000000000E+00 -0.00000000000E+00 -0.25700295265E+04  0.25700295265E+04  0.00000000000E+00 0.  1.
    9000010    2    1    2  502    0  0.21456694786E+03  0.65090922326E+03 -0.12766879845E+04  0.17625255010E+04  0.10034152381E+04 0.  0.
   -9000010    2    1    2    0  501 -0.21456694786E+03 -0.65090922326E+03 -0.70525916480E+03  0.13955864027E+04  0.99022680526E+03 0.  0.
        -13    1    3    3    0    0  0.44590348865E+02 -0.25713004347E+03 -0.13476236588E+03  0.29370915016E+03  0.10566000000E+00 0.  1.
         13    1    4    4    0    0  0.16366087479E+03  0.17154941165E+03 -0.35079350162E+03  0.42340308752E+03  0.10566000000E+00 0. -1.
          4    1    3    3  502    0  0.16997659899E+03  0.90803926673E+03 -0.11419256186E+04  0.14688163509E+04  0.00000000000E+00 0.  1.
         -4    1    4    4    0  501 -0.37822782265E+03 -0.82245863492E+03 -0.35446566318E+03  0.97218331519E+03  0.00000000000E+00 0. -1.
</event>
<event>
 8    1  0.7096247E-006  0.1549208E+04  0.7818608E-02  0.8381730E-01
         -1   -1    0    0    0  501 -0.00000000000E+00  0.00000000000E+00  0.79348862676E+03  0.79348862676E+03  0.00000000000E+00 0. -1.
          1   -1    0    0  502    0  0.00000000000E+00 -0.00000000000E+00 -0.32394778156E+04  0.32394778156E+04  0.00000000000E+00 0.  1.
    9000010    2    1    2  502    0 -0.64895235478E+03 -0.99958522415E+03 -0.69330025893E+03  0.16839749431E+04  0.96684878896E+03 0.  0.
   -9000010    2    1    2    0  501  0.64895235478E+03  0.99958522415E+03 -0.17526889299E+04  0.23489914993E+04  0.10126859333E+04 0.  0.
        -13    1    3    3    0    0 -0.68215490507E+03 -0.28004252873E+03 -0.87097599634E+02  0.74252618502E+03  0.10566000000E+00 0.  1.
         13    1    4    4    0    0 -0.70222654374E+02  0.53274583171E+03 -0.19635656457E+03  0.57210598145E+03  0.10566000000E+00 0. -1.
          4    1    3    3  502    0  0.33202550295E+02 -0.71954269543E+03 -0.60620265930E+03  0.94144875805E+03  0.00000000000E+00 0.  1.
         -4    1    4    4    0  501  0.71917500915E+03  0.46683939244E+03 -0.15563323653E+04  0.17768855178E+04  0.00000000000E+00 0. -1.
</event>
<event>
 8    1  0.7096247E-006  0.1253244E+04  0.7818608E-02  0.8567512E-01
          2   -1    0    0  502    0  0.00000000000E+00  0.00000000000E+00  0.34984230231E+04  0.34984230231E+04  0.00000000000E+00 0. -1.
         -2   -1    0    0    0  501 -0.00000000000E+00 -0.00000000000E+00 -0.47374317571E+03  0.47374317571E+03  0.00000000000E+00 0.  1.
    9000010    2    1    2  502    0  0.48507493479E+03  0.46948493400E+03  0.19562668872E+04  0.23184919835E+04  0.10453282490E+04 0.  0.
   -9000010    2    1    2    0  501 -0.48507493479E+03 -0.46948493400E+03  0.10684129602E+04  0.16536742153E+04  0.10664981768E+04 0.  0.
        -13    1    3    3    0    0  0.62707650781E+03  0.39132815026E+03  0.20148385904E+04  0.21461447352E+04  0.10566000000E+00 0.  1.
         13    1    4    4    0    0 -0.32002839521E+03  0.29907961064E+03  0.19758477337E+03  0.48052735725E+03  0.10566000000E+00 0. -1.
          4    1    3    3  502    0 -0.14200157303E+03  0.78156783746E+02 -0.58571703234E+02  0.17234724833E+03  0.00000000000E+00 0.  1.
         -4    1    4    4    0  501 -0.16504653958E+03 -0.76856454464E+03  0.87082818688E+03  0.11731468581E+04  0.00000000000E+00 0. -1.
</event>
<event>
 8    1  0.7096247E-006  0.1202515E+04  0.7818608E-02  0.8604671E-01
          2   -1    0    0  502    0  0.00000000000E+00  0.00000000000E+00  0.13291207455E+04  0.13291207455E+04  0.00000000000E+00 0. -1.
         -2   -1    0    0    0  501 -0.00000000000E+00 -0.00000000000E+00 -0.13809283684E+04  0.13809283684E+04  0.00000000000E+00 0.  1.
    9000010    2    1    2  502    0 -0.35589364072E+03  0.57661979889E+03 -0.64994012525E+03  0.13858446427E+04  0.10193098309E+04 0.  0.
   -9000010    2    1    2    0  501  0.35589364072E+03 -0.57661979889E+03  0.59813250240E+03  0.13242044712E+04  0.96778319636E+03 0.  0.
        -13    1    3    3    0    0 -0.12147355905E+03 -0.78466024869E+02 -0.67431948097E+03  0.68965173543E+03  0.10566000000E+00 0.  1.
         13    1    4    4    0    0  0.44767913153E+03  0.12909199397E+03  0.28927141302E+03  0.54841527082E+03  0.10566000000E+00 0. -1.
          4    1    3    3  502    0 -0.23442008167E+03  0.65508582376E+03  0.24379355720E+02  0.69619290730E+03  0.00000000000E+00 0.  1.
         -4    1    4    4    0  501 -0.91785490807E+02 -0.70571179286E+03  0.30886108938E+03  0.77578920039E+03  0.00000000000E+00 0. -1.
</event>
<event>
 8    1  0.7096247E-006  0.1259163E+04  0.7818608E-02  0.8563295E-01
          2   -1    0    0  502    0  0.00000000000E+00  0.00000000000E+00  0.32173549297E+04  0.32173549297E+04  0.00000000000E+00 0. -1.
         -2   -1    0    0    0  501 -0.00000000000E+00 -0.00000000000E+00 -0.49330335153E+03  0.49330335153E+03  0.00000000000E+00 0.  1.
    9000010    2    1    2  502    0  0.50660107552E+03  0.65077392566E+03  0.13565813773E+04  0.18280259615E+04  0.90620887795E+03 0.  0.
   -9000010    2    1    2    0  501 -0.50660107552E+03 -0.65077392566E+03  0.13674702009E+04  0.18826323198E+04  0.99708492575E+03 0.  0.
        -13    1    3    3    0    0 -0.98214011572E+02  0.52839278321E+03  0.33123759233E+03  0.63131868272E+03  0.10566000000E+00 0.  1.
         13    1    4    4    0    0 -0.55384372123E+03  0.77422086835E+02  0.51201567966E+03  0.75821970065E+03  0.10566000000E+00 0. -1.
          4    1    3    3  502    0  0.60481508710E+03  0.12238114246E+03  0.10253437850E+04  0.11967072787E+04  0.00000000000E+00 0.  1.
         -4    1    4    4    0  501  0.47242645704E+02 -0.72819601250E+03  0.85545452126E+03  0.11244126192E+04  0.00000000000E+00 0. -1.
</event>
<event>
 8    1  0.7096247E-006  0.1064529E+04  0.7818608E-02  0.8716215E-01
         -2   -1    0    0    0  501 -0.00000000000E+00  0.00000000000E+00  0.13145834674E+04  0.13145834674E+04  0.00000000000E+00 0. -1.
          2   -1    0    0  502    0  0.00000000000E+00 -0.00000000000E+00 -0.11814356813E+04  0.11814356813E+04  0.00000000000E+00 0.  1.
    9000010    2    1    2  502    0  0.37654676637E+03  0.38292215827E+02 -0.58261586007E+03  0.12069264745E+04  0.98690248422E+03 0.  0.
   -9000010    2    1    2    0  501 -0.37654676637E+03 -0.38292215827E+02  0.71576364618E+03  0.12890926742E+04  0.10030895097E+04 0.  0.
        -13    1    3    3    0    0  0.54565541632E+03 -0.29408067538E+03 -0.15383055442E+03  0.63866041652E+03  0.10566000000E+00 0.  1.
         13    1    4    4    0    0  0.21522063635E+03 -0.82756474384E+02  0.65279935013E+03  0.69232619411E+03  0.10566000000E+00 0. -1.
          4    1    3    3  502    0 -0.16910864995E+03  0.33237289120E+03 -0.42878530566E+03  0.56826605797E+03  0.00000000000E+00 0.  1.
         -4    1    4    4    0  501 -0.59176740272E+03  0.44464258557E+02  0.62964296055E+02  0.59676648011E+03  0.00000000000E+00 0. -1.
</event>
<event>
 8    1  0.7096247E-006  0.1238274E+04  0.7818608E-02  0.8578285E-01
         -2   -1    0    0    0  501 -0.00000000000E+00  0.00000000000E+00  0.20536106352E+04  0.20536106352E+04  0.00000000000E+00 0.  1.
          2   -1    0    0  502    0  0.00000000000E+00 -0.00000000000E+00 -0.92519289727E+03  0.92519289727E+03  0.00000000000E+00 0. -1.
    9000010    2    1    2  502    0 -0.44358103689E+03 -0.57712964522E+03 -0.97750896834E+02  0.12201054595E+04  0.97429940513E+03 0.  0.
   -9000010    2    1    2    0  501  0.44358103689E+03  0.57712964522E+03  0.12261686347E+04  0.17586980729E+04  0.10294108156E+04 0.  0.
        -13    1    3    3    0    0 -0.39419236610E+01 -0.25314144496E+03  0.40512136278E+03  0.47772320403E+03  0.10566000000E+00 0.  1.
         13    1    4    4    0    0  0.32928775741E+03 -0.22875748084E+03  0.64161167406E+03  0.75658837136E+03  0.10566000000E+00 0. -1.
          4    1    3    3  502    0 -0.43963911322E+03 -0.32398820026E+03 -0.50287225961E+03  0.74238225549E+03  0.00000000000E+00 0.  1.
         -4    1    4    4    0  501  0.11429327948E+03  0.80588712606E+03  0.58455696069E+03  0.10021097016E+04  0.00000000000E+00 0. -1.
</event>
<event>
 8    1  0.7096247E-006  0.1272342E+04  0.7818608E-02  0.8553991E-01
         -2   -1    0    0    0  501 -0.00000000000E+00  0.00000000000E+00  0.95507972627E+03  0.95507972627E+03  0.00000000000E+00 0.  1.
          2   -1    0    0  502    0  0.00000000000E+00 -0.00000000000E+00 -0.17182924105E+04  0.17182924105E+04  0.00000000000E+00 0. -1.
    9000010    2    1    2  502    0  0.31711003876E+03 -0.73670157528E+03 -0.22622039456E+03  0.12931710227E+04  0.98885167713E+03 0.  0.
   -9000010    2    1    2    0  501 -0.31711003876E+03  0.73670157528E+03 -0.53699228968E+03  0.13802011141E+04  0.98656292674E+03 0.  0.
        -13    1    3    3    0    0  0.29078126069E+03 -0.29491309233E+03 -0.58960538650E+03  0.72052896995E+03  0.10566000000E+00 0.  1.
         13    1    4    4    0    0 -0.15411329886E+03  0.54143636610E+03  0.20244648350E+03  0.59823811085E+03  0.10566000000E+00 0. -1.
          4    1    3    3  502    0  0.26328778079E+02 -0.44178848295E+03  0.36338499194E+03  0.57264205276E+03  0.00000000000E+00 0.  1.
         -4    1    4    4    0  501 -0.16299673990E+03  0.19526520918E+03 -0.73943877318E+03  0.78196300323E+03  0.00000000000E+00 0. -1.
</event>
<event>
 8    1  0.7096247E-006  0.1186385E+04  0.7818608E-02  0.8616886E-01
         -2   -1    0    0    0  501 -0.00000000000E+00  0.00000000000E+00  0.12031578115E+04  0.12031578115E+04  0.00000000000E+00 0.  1.
          2   -1    0    0  502    0  0.00000000000E+00 -0.00000000000E+00 -0.14076703065E+04  0.14076703065E+04  0.00000000000E+00 0. -1.
    9000010    2    1    2  502    0 -0.38570121216E+03  0.10938295106E+03 -0.63361904543E+03  0.14462102895E+04  0.12366572086E+04 0.  0.
   -9000010    2    1    2    0  501  0.38570121216E+03 -0.10938295106E+03  0.42910655046E+03  0.11646178285E+04  0.10057197421E+04 0.  0.
        -13    1    3    3    0    0 -0.24746735445E+03 -0.54894702728E+03 -0.15851810418E+03  0.62266438054E+03  0.10566000000E+00 0.  1.
         13    1    4    4    0    0  0.95007759632E+02  0.28676509402E+03  0.57715624119E+03  0.65143689751E+03  0.10566000000E+00 0. -1.
          4    1    3    3  502    0 -0.13823385771E+03  0.65832997833E+03 -0.47510094125E+03  0.82354590896E+03  0.00000000000E+00 0.  1.
         -4    1    4    4    0  501  0.29069345253E+03 -0.39614804507E+03 -0.14804969073E+03  0.51318093094E+03  0.00000000000E+00 0. -1.
</event>
<event>
 8    1  0.7096247E-006  0.1130520E+04  0.7818608E-02  0.8660803E-01
         -2   -1    0    0    0  501 -0.00000000000E+00  0.00000000000E+00  0.47891768090E+03  0.47891768090E+03  0.00000000000E+00 0.  1.
          2   -1    0    0  502    0  0.00000000000E+00 -0.00000000000E+00 -0.26815074400E+04  0.26815074400E+04  0.00000000000E+00 0. -1.
    9000010    2    1    2  502    0 -0.28672887570E+01 -0.58819758411E+03 -0.11804873768E+04  0.16174420491E+04  0.93626049590E+03 0.  0.
   -9000010    2    1    2    0  501  0.28672887570E+01  0.58819758411E+03 -0.10221023823E+04  0.15429830718E+04  0.99504716503E+03 0.  0.
        -13    1    3    3    0    0  0.20829614296E+03  0.18775910915E+03 -0.45444535666E+03  0.53400501832E+03  0.10566000000E+00 0.  1.
         13    1    4    4    0    0  0.47602664791E+03  0.12850855543E+03 -0.38135375771E+03  0.62333499663E+03  0.10566000000E+00 0. -1.
          4    1    3    3  502    0 -0.21116343171E+03 -0.77595669325E+03 -0.72604202016E+03  0.10834370308E+04  0.00000000000E+00 0.  1.
         -4    1    4    4    0  501 -0.47315935915E+03  0.45968902868E+03 -0.64074862457E+03  0.91964807515E+03  0.00000000000E+00 0. -1.
</event>
<event>
 8    1  0.7096247E-006  0.1195622E+04  0.7818608E-02  0.8609866E-01
         -1   -1    0    0    0  501 -0.00000000000E+00  0.00000000000E+00  0.21664455323E+04  0.21664455323E+04  0.00000000000E+00 0. -1.
          1   -1    0    0  502    0  0.00000000000E+00 -0.00000000000E+00 -0.66939272533E+03  0.66939272533E+03  0.00000000000E+00 0.  1.
    9000010    2    1    2  502    0 -0.49046664756E+03 -0.45322307946E+03  0.58265090971E+03  0.13349533403E+04  0.99832341754E+03 0.  0.
   -9000010    2    1    2    0  501  0.49046664756E+03  0.45322307946E+03  0.91440189728E+03  0.15008849174E+04  0.98516801273E+03 0.  0.
        -13    1    3    3    0    0 -0.54087472835E+03 -0.50417460177E+02 -0.88698290580E+02  0.55041329015E+03  0.10566000000E+00 0.  1.
         13    1    4    4    0    0  0.34880126042E+03  0.64129565851E+03  0.21215940672E+03  0.76021974844E+03  0.10566000000E+00 0. -1.
          4    1    3    3  502    0  0.50408080787E+02 -0.40280561928E+03  0.67134920029E+03  0.78454005013E+03  0.00000000000E+00 0.  1.
         -4    1    4    4    0  501  0.14166538714E+03 -0.18807257905E+03  0.70224249056E+03  0.74066516892E+03  0.00000000000E+00 0. -1.
</event>
<event>
 8    1  0.7096247E-006  0.9880854E+03  0.7818608E-02  0.8785867E-01
         -2   -1    0    0    0  501 -0.00000000000E+00  0.00000000000E+00  0.59266115414E+03  0.59266115414E+03  0.00000000000E+00 0. -1.
          2   -1    0    0  502    0  0.00000000000E+00 -0.00000000000E+00 -0.16907834866E+04  0.16907834866E+04  0.00000000000E+00 0.  1.
    9000010    2    1    2  502    0  0.22683371084E+03 -0.40884985599E+02 -0.35069552276E+03  0.10130991304E+04  0.92209402114E+03 0.  0.
   -9000010    2    1    2    0  501 -0.22683371084E+03  0.40884985599E+02 -0.74742680969E+03  0.12703455104E+04  0.10010023804E+04 0.  0.
        -13    1    3    3    0    0 -0.18884891278E+03  0.28522619206E+03  0.55646146395E+02  0.34657524041E+03  0.10566000000E+00 0.  1.
         13    1    4    4    0    0 -0.46110678530E+02  0.47085533653E+03 -0.63271812002E+03  0.79003998201E+03  0.10566000000E+00 0. -1.
          4    1    3    3  502    0  0.41568262362E+03 -0.32611117766E+03 -0.40634166915E+03  0.66652388994E+03  0.00000000000E+00 0.  1.
         -4    1    4    4    0  501 -0.18072303231E+03 -0.42997035094E+03 -0.11470868967E+03  0.48030552836E+03  0.00000000000E+00 0. -1.
</event>
<event>
 8    1  0.7096247E-006  0.2121464E+04  0.7818608E-02  0.8120653E-01
          2   -1    0    0  502    0  0.00000000000E+00  0.00000000000E+00  0.45732754659E+04  0.45732754659E+04  0.00000000000E+00 0. -1.
         -2   -1    0    0    0  501 -0.00000000000E+00 -0.00000000000E+00 -0.12841920174E+04  0.12841920174E+04  0.00000000000E+00 0.  1.
    9000010    2    1    2  502    0  0.14782270377E+04  0.10384155937E+04  0.30941744159E+04  0.37869448640E+04  0.12262030690E+04 0.  0.
   -9000010    2    1    2    0  501 -0.14782270377E+04 -0.10384155937E+04  0.19490903251E+03  0.20705226193E+04  0.99278006924E+03 0.  0.
        -13    1    3    3    0    0  0.57280395380E+03  0.87200826722E+03  0.24513430564E+04  0.26641294224E+04  0.10566000000E+00 0.  1.
         13    1    4    4    0    0 -0.32282771252E+02 -0.44132131559E+03  0.24411818645E+03  0.50537152772E+03  0.10566000000E+00 0. -1.
          4    1    3    3  502    0  0.90542308394E+03  0.16640732648E+03  0.64283135950E+03  0.11228154416E+04  0.00000000000E+00 0.  1.
         -4    1    4    4    0  501 -0.14459442665E+04 -0.59709427811E+03 -0.49209153934E+02  0.15651510916E+04  0.00000000000E+00 0. -1.
</event>
<event>
 8    1  0.7096247E-006  0.1114520E+04  0.7818608E-02  0.8673869E-01
         -1   -1    0    0    0  501 -0.00000000000E+00  0.00000000000E+00  0.91449327992E+03  0.91449327992E+03  0.00000000000E+00 0. -1.
          1   -1    0    0  502    0  0.00000000000E+00 -0.00000000000E+00 -0.13642660112E+04  0.13642660112E+04  0.00000000000E+00 0.  1.
    9000010    2    1    2  502    0  0.48512144697E+03  0.19644419942E+03 -0.30048641579E+03  0.11555845120E+04  0.98546960205E+03 0.  0.
   -9000010    2    1    2    0  501 -0.48512144697E+03 -0.19644419942E+03 -0.14928631554E+03  0.11231747791E+04  0.98249785683E+03 0.  0.
        -13    1    3    3    0    0  0.24166982255E+03  0.32933367963E+03 -0.61369862276E+03  0.73721841161E+03  0.10566000000E+00 0.  1.
         13    1    4    4    0    0 -0.40206025447E+03 -0.78379356924E+02  0.38958253495E+03  0.56530552316E+03  0.10566000000E+00 0. -1.
          4    1    3    3  502    0  0.24345162442E+03 -0.13288948021E+03  0.31321220697E+03  0.41836610042E+03  0.00000000000E+00 0.  1.
         -4    1    4    4    0  501 -0.83061192502E+02 -0.11806484249E+03 -0.53886885049E+03  0.55786925597E+03  0.00000000000E+00 0. -1.
</event>
<event>
 8    1  0.7096247E-006  0.1031524E+04  0.7818608E-02  0.8745523E-01
         -1   -1    0    0    0  501 -0.00000000000E+00  0.00000000000E+00  0.51325671092E+03  0.51325671092E+03  0.00000000000E+00 0. -1.
          1   -1    0    0  502    0  0.00000000000E+00 -0.00000000000E+00 -0.21983750282E+04  0.21983750282E+04  0.00000000000E+00 0.  1.
    9000010    2    1    2  502    0 -0.20865614376E+03 -0.50713024457E+02 -0.11637177500E+04  0.15529827730E+04  0.10056874735E+04 0.  0.
   -9000010    2    1    2    0  501  0.20865614376E+03  0.50713024457E+02 -0.52140056734E+03  0.11586489662E+04  0.10121757150E+04 0.  0.
        -13    1    3    3    0    0 -0.52007426597E+03  0.14154016125E+02 -0.11160102261E+04  0.12313230341E+04  0.10566000000E+00 0.  1.
         13    1    4    4    0    0  0.37840804234E+03  0.45648146034E+03 -0.33413734293E+03  0.68059954838E+03  0.10566000000E+00 0. -1.
          4    1    3    3  502    0  0.31141812221E+03 -0.64867040582E+02 -0.47707523853E+02  0.32165973889E+03  0.00000000000E+00 0.  1.
         -4    1    4    4    0  501 -0.16975189858E+03 -0.40576843589E+03 -0.18726322441E+03  0.47804941779E+03  0.00000000000E+00 0. -1.
</event>
<event>
 8    1  0.7096247E-006  0.1111802E+04  0.7818608E-02  0.8676112E-01
         -1   -1    0    0    0  501 -0.00000000000E+00  0.00000000000E+00  0.69659335892E+03  0.69659335892E+03  0.00000000000E+00 0.  1.
          1   -1    0    0  502    0  0.00000000000E+00 -0.00000000000E+00 -0.19040577810E+04  0.19040577810E+04  0.00000000000E+00 0. -1.
    9000010    2    1    2  502    0  0.26813654250E+03  0.44863353845E+03 -0.25959546327E+03  0.11318378702E+04  0.96979271120E+03 0.  0.
   -9000010    2    1    2    0  501 -0.26813654250E+03 -0.44863353845E+03 -0.94786895878E+03  0.14688132696E+04  0.99286837035E+03 0.  0.
        -13    1    3    3    0    0 -0.18337784270E+03 -0.75892787782E+02 -0.38060955825E+03  0.42924444717E+03  0.10566000000E+00 0.  1.
         13    1    4    4    0    0  0.14296398583E+03 -0.45992811563E+03 -0.94146161163E+03  0.10575077069E+04  0.10566000000E+00 0. -1.
          4    1    3    3  502    0  0.45151438520E+03  0.52452632623E+03  0.12101409498E+03  0.70259342306E+03  0.00000000000E+00 0.  1.
         -4    1    4    4    0  501 -0.41110052832E+03  0.11294577177E+02 -0.64073471447E+01  0.41130556276E+03  0.00000000000E+00 0. -1.
</event>
<event>
 8    1  0.7096247E-006  0.1112070E+04  0.7818608E-02  0.8675891E-01
          2   -1    0    0  502    0  0.00000000000E+00  0.00000000000E+00  0.16479049373E+04  0.16479049373E+04  0.00000000000E+00 0.  1.
         -2   -1    0    0    0  501 -0.00000000000E+00 -0.00000000000E+00 -0.79837638762E+03  0.79837638762E+03  0.00000000000E+00 0. -1.
    9000010    2    1    2  502    0  0.49219283181E+03  0.50376903041E+02  0.12506460514E+03  0.11188780685E+04  0.99571851476E+03 0.  0.
   -9000010    2    1    2    0  501 -0.49219283181E+03 -0.50376903041E+02  0.72446394456E+03  0.13274032564E+04  0.99617256648E+03 0.  0.
        -13    1    3    3    0    0  0.31374708415E+03 -0.46294833118E+03  0.13507323131E+03  0.57532875744E+03  0.10566000000E+00 0.  1.
         13    1    4    4    0    0 -0.26283338873E+03 -0.97396342271E+02 -0.21875676579E+03  0.35555867513E+03  0.10566000000E+00 0. -1.
          4    1    3    3  502    0  0.17844574766E+03  0.51332523422E+03 -0.10008626166E+02  0.54354931105E+03  0.00000000000E+00 0.  1.
         -4    1    4    4    0  501 -0.22935944308E+03  0.47019439230E+02  0.94322071035E+03  0.97184458131E+03  0.00000000000E+00 0. -1.
</event>
<event>
 8    1  0.7096247E-006  0.1296910E+04  0.7818608E-02  0.8536954E-01
          1   -1    0    0  502    0  0.00000000000E+00  0.00000000000E+00  0.22257414411E+04  0.22257414411E+04  0.00000000000E+00 0.  1.
         -1   -1    0    0    0  501 -0.00000000000E+00 -0.00000000000E+00 -0.10087489431E+04  0.10087489431E+04  0.00000000000E+00 0. -1.
    9000010    2    1    2  502    0 -0.69803611366E+03  0.42862278767E+03  0.14166878619E+04  0.19172235047E+04  0.99888415699E+03 0.  0.
   -9000010    2    1    2    0  501  0.69803611366E+03 -0.42862278767E+03 -0.19969536387E+03  0.13172668795E+04  0.10120977638E+04 0.  0.
        -13    1    3    3    0    0  0.25372321186E+03  0.16624726654E+02  0.29877709483E+03  0.39232590194E+03  0.10566000000E+00 0.  1.
         13    1    4    4    0    0 -0.78797378920E+01  0.11027131612E+03 -0.39310049037E+03  0.40835016851E+03  0.10566000000E+00 0. -1.
          4    1    3    3  502    0 -0.95175932551E+03  0.41199806101E+03  0.11179107670E+04  0.15248976028E+04  0.00000000000E+00 0.  1.
         -4    1    4    4    0  501  0.70591585155E+03 -0.53889410379E+03  0.19340512650E+03  0.90891671099E+03  0.00000000000E+00 0. -1.
</event>
<event>
 8    1  0.7096247E-006  0.1550893E+04  0.7818608E-02  0.8380798E-01
         -2   -1    0    0    0  501 -0.00000000000E+00  0.00000000000E+00  0.88493568487E+03  0.88493568487E+03  0.00000000000E+00 0. -1.
          2   -1    0    0  502    0  0.00000000000E+00 -0.00000000000E+00 -0.27211196135E+04  0.27211196135E+04  0.00000000000E+00 0.  1.
    9000010    2    1    2  502    0  0.54457072977E+03  0.99141644968E+03 -0.91645183676E+03  0.18418736431E+04  0.11283397943E+04 0.  0.
   -9000010    2    1    2    0  501 -0.54457072977E+03 -0.99141644968E+03 -0.91973209190E+03  0.17641816553E+04  0.99346159249E+03 0.  0.
        -13    1    3    3    0    0  0.77121845117E+03  0.44588934652E+03 -0.87657768741E+03  0.12497934477E+04  0.10566000000E+00 0.  1.
         13    1    4    4    0    0 -0.32297686643E+03 -0.63793598807E+03 -0.10981600362E+04  0.13104319354E+04  0.10566000000E+00 0. -1.
          4    1    3    3  502    0 -0.22664772140E+03  0.54552710317E+03 -0.39874149348E+02  0.59208019532E+03  0.00000000000E+00 0.  1.
         -4    1    4    4    0  501 -0.22159386335E+03 -0.35348046162E+03  0.17842794430E+03  0.45374971992E+03  0.00000000000E+00 0. -1.
</event>
<event>
 8    1  0.7096247E-006  0.1308114E+04  0.7818608E-02  0.8529313E-01
         -2   -1    0    0    0  501 -0.00000000000E+00  0.00000000000E+00  0.91527080096E+03  0.91527080096E+03  0.00000000000E+00 0.  1.
          2   -1    0    0  502    0  0.00000000000E+00 -0.00000000000E+00 -0.25065198530E+04  0.25065198530E+04  0.00000000000E+00 0. -1.
    9000010    2    1    2  502    0 -0.85563721136E+02 -0.84000613475E+03  0.65546491591E+02  0.13125856455E+04  0.10028226550E+04 0.  0.
   -9000010    2    1    2    0  501  0.85563721136E+02  0.84000613475E+03 -0.16567955436E+04  0.21092050084E+04  0.99541088877E+03 0.  0.
        -13    1    3    3    0    0  0.10349291525E+03  0.18638922881E+03 -0.13149687908E+03  0.25048586486E+03  0.10566000000E+00 0.  1.
         13    1    4    4    0    0 -0.17337002385E+03  0.47854621310E+03 -0.13899886401E+03  0.52762139703E+03  0.10566000000E+00 0. -1.
          4    1    3    3  502    0 -0.18905663638E+03 -0.10263953636E+04  0.19704337068E+03  0.10620997806E+04  0.00000000000E+00 0.  1.
         -4    1    4    4    0  501  0.25893374499E+03  0.36145992165E+03 -0.15177966796E+04  0.15815836114E+04  0.00000000000E+00 0. -1.
</event>
<event>
 8    1  0.7096247E-006  0.1603396E+04  0.7818608E-02  0.8352360E-01
          2   -1    0    0  502    0  0.00000000000E+00  0.00000000000E+00  0.26924650692E+04  0.26924650692E+04  0.00000000000E+00 0.  1.
         -2   -1    0    0    0  501 -0.00000000000E+00 -0.00000000000E+00 -0.10097515200E+04  0.10097515200E+04  0.00000000000E+00 0. -1.
    9000010    2    1    2  502    0 -0.69263440032E+03 -0.10346629455E+04  0.40659538441E+03  0.16479953981E+04  0.10001495899E+04 0.  0.
   -9000010    2    1    2    0  501  0.69263440032E+03  0.10346629455E+04  0.12761181649E+04  0.20542211911E+04  0.10203319597E+04 0.  0.
        -13    1    3    3    0    0 -0.56786843424E+03 -0.69635943057E+03 -0.21997182230E+03  0.92508303893E+03  0.10566000000E+00 0.  1.
         13    1    4    4    0    0  0.54563291001E+03  0.12204771178E+04  0.90672464833E+03  0.16153727949E+04  0.10566000000E+00 0. -1.
          4    1    3    3  502    0 -0.12476596609E+03 -0.33830351498E+03  0.62656720671E+03  0.72291235919E+03  0.00000000000E+00 0.  1.
         -4    1    4    4    0  501  0.14700149031E+03 -0.18581417225E+03  0.36939351653E+03  0.43884839617E+03  0.00000000000E+00 0. -1.
</event>
<event>
 8    1  0.7096247E-006  0.1743361E+04  0.7818608E-02  0.8281735E-01
         -2   -1    0    0    0  501 -0.00000000000E+00  0.00000000000E+00  0.35162208431E+04  0.35162208431E+04  0.00000000000E+00 0. -1.
          2   -1    0    0  502    0  0.00000000000E+00 -0.00000000000E+00 -0.10078541004E+04  0.10078541004E+04  0.00000000000E+00 0.  1.
    9000010    2    1    2  502    0 -0.74100730619E+03 -0.12742980910E+04  0.20852198688E+04  0.26961786389E+04  0.86504907318E+03 0.  0.
   -9000010    2    1    2    0  501  0.74100730619E+03  0.12742980910E+04  0.42314687397E+03  0.18278963046E+04  0.99459749179E+03 0.  0.
        -13    1    3    3    0    0 -0.49758325938E+03 -0.10766007820E+03  0.74986702633E+03  0.90635553775E+03  0.10566000000E+00 0.  1.
         13    1    4    4    0    0 -0.70551142219E+02  0.84313457366E+03  0.91987914819E+02  0.85106707174E+03  0.10566000000E+00 0. -1.
          4    1    3    3  502    0 -0.24342404681E+03 -0.11666380128E+04  0.13353528424E+04  0.17898231011E+04  0.00000000000E+00 0.  1.
         -4    1    4    4    0  501  0.81155844841E+03  0.43116351739E+03  0.33115895915E+03  0.97682923284E+03  0.00000000000E+00 0. -1.
</event>
<event>
 8    1  0.7096247E-006  0.1363606E+04  0.7818608E-02  0.8492597E-01
          1   -1    0    0  502    0  0.00000000000E+00  0.00000000000E+00  0.26336953322E+04  0.26336953322E+04  0.00000000000E+00 0. -1.
         -1   -1    0    0    0  501 -0.00000000000E+00 -0.00000000000E+00 -0.73253267778E+03  0.73253267778E+03  0.00000000000E+00 0.  1.
    9000010    2    1    2  502    0  0.73330339568E+03 -0.52078960498E+03  0.12807726318E+04  0.18822895422E+04  0.10457914246E+04 0.  0.
   -9000010    2    1    2    0  501 -0.73330339568E+03  0.52078960498E+03  0.62039002263E+03  0.14839384678E+04  0.10041085166E+04 0.  0.
        -13    1    3    3    0    0  0.64678710391E+03  0.16500720691E+03  0.79165228476E+03  0.10355067780E+04  0.10566000000E+00 0.  1.
         13    1    4    4    0    0 -0.65067181777E+03  0.47568541129E+03  0.88859709104E+03  0.11996896375E+04  0.10566000000E+00 0. -1.
          4    1    3    3  502    0  0.86516291763E+02 -0.68579681189E+03  0.48912034702E+03  0.84678276424E+03  0.00000000000E+00 0.  1.
         -4    1    4    4    0  501 -0.82631577903E+02  0.45104193693E+02 -0.26820706841E+03  0.28424883026E+03  0.00000000000E+00 0. -1.
</event>
<event>
 8    1  0.7096247E-006  0.1130812E+04  0.7818608E-02  0.8660567E-01
          2   -1    0    0  502    0  0.00000000000E+00  0.00000000000E+00  0.15000856138E+04  0.15000856138E+04  0.00000000000E+00 0.  1.
         -2   -1    0    0    0  501 -0.00000000000E+00 -0.00000000000E+00 -0.87240924130E+03  0.87240924130E+03  0.00000000000E+00 0. -1.
    9000010    2    1    2  502    0  0.47484491257E+03 -0.20863716491E+03  0.13236996041E+03  0.11304769831E+04  0.99571544400E+03 0.  0.
   -9000010    2    1    2    0  501 -0.47484491257E+03  0.20863716491E+03  0.49530641213E+03  0.12420178720E+04  0.10140378666E+04 0.  0.
        -13    1    3    3    0    0  0.55592693070E+03  0.25948452667E+03  0.21130285204E+03  0.64887277513E+03  0.10566000000E+00 0.  1.
         13    1    4    4    0    0 -0.44376210482E+03 -0.26432239177E+03  0.56207241081E+03  0.76335872211E+03  0.10566000000E+00 0. -1.
          4    1    3    3  502    0 -0.81082018125E+02 -0.46812169159E+03 -0.78932891636E+02  0.48160420802E+03  0.00000000000E+00 0.  1.
         -4    1    4    4    0  501 -0.31082807751E+02  0.47295955668E+03 -0.66765998671E+02  0.47865914989E+03  0.00000000000E+00 0. -1.
</event>
<event>
 8    1  0.7096247E-006  0.1215599E+04  0.7818608E-02  0.8594907E-01
         -2   -1    0    0    0  501 -0.00000000000E+00  0.00000000000E+00  0.68149466366E+03  0.68149466366E+03  0.00000000000E+00 0.  1.
          2   -1    0    0  502    0  0.00000000000E+00 -0.00000000000E+00 -0.29325904931E+04  0.29325904931E+04  0.00000000000E+00 0. -1.
    9000010    2    1    2  502    0 -0.18598010174E+02  0.74183627016E+03 -0.20486332954E+03  0.12353683335E+04  0.96617751886E+03 0.  0.
   -9000010    2    1    2    0  501  0.18598010174E+02 -0.74183627016E+03 -0.20462324999E+04  0.23787168232E+04  0.95945783846E+03 0.  0.
        -13    1    3    3    0    0 -0.33266619274E+03  0.20587707732E+03 -0.42375244054E+03  0.57673070734E+03  0.10566000000E+00 0.  1.
         13    1    4    4    0    0  0.20289988440E+03  0.14057491900E+03 -0.17785332168E+03  0.30423919231E+03  0.10566000000E+00 0. -1.
          4    1    3    3  502    0  0.31406818257E+03  0.53595919285E+03  0.21888911101E+03  0.65863762618E+03  0.00000000000E+00 0.  1.
         -4    1    4    4    0  501 -0.18430187423E+03 -0.88241118916E+03 -0.18683791782E+04  0.20744776309E+04  0.00000000000E+00 0. -1.
</event>
<event>
 8    1  0.7096247E-006  0.1062798E+04  0.7818608E-02  0.8717725E-01
         -1   -1    0    0    0  501 -0.00000000000E+00  0.00000000000E+00  0.11996726032E+04  0.11996726032E+04  0.00000000000E+00 0.  1.
          1   -1    0    0  502    0  0.00000000000E+00 -0.00000000000E+00 -0.10231816704E+04  0.10231816704E+04  0.00000000000E+00 0. -1.
    9000010    2    1    2  502    0  0.13776430104E+03 -0.35891412698E+03  0.40179506454E+03  0.11318010056E+04  0.98576665044E+03 0.  0.
   -9000010    2    1    2    0  501 -0.13776430104E+03  0.35891412698E+03 -0.22530413177E+03  0.10910532681E+04  0.99591010075E+03 0.  0.
        -13    1    3    3    0    0  0.52443219835E+03 -0.21202120039E+02  0.31209666595E+03  0.61064146651E+03  0.10566000000E+00 0.  1.
         13    1    4    4    0    0 -0.27831446636E+02 -0.33755967152E+03 -0.18229561534E+03  0.38464636199E+03  0.10566000000E+00 0. -1.
          4    1    3    3  502    0 -0.38666789730E+03 -0.33771200694E+03  0.89698398591E+02  0.52115953906E+03  0.00000000000E+00 0.  1.
         -4    1    4    4    0  501 -0.10993285441E+03  0.69647379850E+03 -0.43008516430E+02  0.70640690608E+03  0.00000000000E+00 0. -1.
</event>
<event>
 8    1  0.7096247E-006  0.1447101E+04  0.7818608E-02  0.8440609E-01
          2   -1    0    0  502    0  0.00000000000E+00  0.00000000000E+00  0.17735019566E+04  0.17735019566E+04  0.00000000000E+00 0.  1.
         -2   -1    0    0    0  501 -0.00000000000E+00 -0.00000000000E+00 -0.13867857083E+04  0.13867857083E+04  0.00000000000E+00 0. -1.
    9000010    2    1    2  502    0  0.83135973546E+03 -0.61897052534E+03 -0.41463331419E+03  0.15135681702E+04  0.10220979893E+04 0.  0.
   -9000010    2    1    2    0  501 -0.83135973546E+03  0.61897052534E+03  0.80134956243E+03  0.16467194947E+04  0.99761738754E+03 0.  0.
        -13    1    3    3    0    0  0.53616618286E+03 -0.62028672973E+03  0.18919768340E+03  0.84144255733E+03  0.10566000000E+00 0.  1.
         13    1    4    4    0    0 -0.78959956831E+02  0.63815565981E+03  0.17201979118E+03  0.66563363846E+03  0.10566000000E+00 0. -1.
          4    1    3    3  502    0  0.29519355261E+03  0.13162043865E+01 -0.60383099759E+03  0.67212561292E+03  0.00000000000E+00 0.  1.
         -4    1    4    4    0  501 -0.75239977863E+03 -0.19185134466E+02  0.62932977126E+03  0.98108585621E+03  0.00000000000E+00 0. -1.
</event>
<event>
 8    1  0.7096247E-006  0.1058707E+04  0.7818608E-02  0.8721305E-01
         -4   -1    0    0    0  501 -0.00000000000E+00  0.00000000000E+00  0.13884516158E+04  0.13884516158E+04  0.00000000000E+00 0. -1.
          4   -1    0    0  502    0  0.00000000000E+00 -0.00000000000E+00 -0.83912745733E+03  0.83912745733E+03  0.00000000000E+00 0.  1.
    9000010    2    1    2  502    0  0.15413485560E+03 -0.34286454084E+03  0.53732441988E+02  0.10406113929E+04  0.96885047800E+03 0.  0.
   -9000010    2    1    2    0  501 -0.15413485560E+03  0.34286454084E+03  0.49559171652E+03  0.11869676802E+04  0.10109240710E+04 0.  0.
        -13    1    3    3    0    0 -0.23531000965E+03  0.20609851149E+03  0.17238304080E+03  0.35716007756E+03  0.10566000000E+00 0.  1.
         13    1    4    4    0    0 -0.82818695932E+02 -0.35208307985E+03  0.27502150123E+03  0.45437679168E+03  0.10566000000E+00 0. -1.
          4    1    3    3  502    0  0.38944486525E+03 -0.54896305233E+03 -0.11865059881E+03  0.68345131538E+03  0.00000000000E+00 0.  1.
         -4    1    4    4    0  501 -0.71316159668E+02  0.69494762069E+03  0.22057021529E+03  0.73259088856E+03  0.00000000000E+00 0. -1.
</event>
<event>
 8    1  0.7096247E-006  0.1395325E+04  0.7818608E-02  0.8472409E-01
          2   -1    0    0  502    0  0.00000000000E+00  0.00000000000E+00  0.30967106899E+04  0.30967106899E+04  0.00000000000E+00 0. -1.
         -2   -1    0    0    0  501 -0.00000000000E+00 -0.00000000000E+00 -0.78500293990E+03  0.78500293990E+03  0.00000000000E+00 0.  1.
    9000010    2    1    2  502    0  0.74330032652E+03  0.62100761367E+03  0.29471164241E+03  0.14332393419E+04  0.10144822459E+04 0.  0.
   -9000010    2    1    2    0  501 -0.74330032652E+03 -0.62100761367E+03  0.20169961076E+04  0.24484742879E+04  0.99428728697E+03 0.  0.
        -13    1    3    3    0    0  0.49775371085E+03  0.65498873629E+03 -0.22890306722E+03  0.85391195488E+03  0.10566000000E+00 0.  1.
         13    1    4    4    0    0 -0.54308447368E+03 -0.27448540816E+03  0.28700549080E+03  0.67279651289E+03  0.10566000000E+00 0. -1.
          4    1    3    3  502    0  0.24554661567E+03 -0.33981122623E+02  0.52361470963E+03  0.57932738698E+03  0.00000000000E+00 0.  1.
         -4    1    4    4    0  501 -0.20021585285E+03 -0.34652220551E+03  0.17299906168E+04  0.17756777750E+04  0.00000000000E+00 0. -1.
</event>
<event>
 8    1  0.7096247E-006  0.1371814E+04  0.7818608E-02  0.8487320E-01
          1   -1    0    0  502    0  0.00000000000E+00  0.00000000000E+00  0.25126383687E+04  0.25126383687E+04  0.00000000000E+00 0.  1.
         -1   -1    0    0    0  501 -0.00000000000E+00 -0.00000000000E+00 -0.84867032496E+03  0.84867032496E+03  0.00000000000E+00 0. -1.
    9000010    2    1    2  502    0  0.76698454305E+03 -0.51789327224E+03  0.25419123219E+03  0.13919722308E+04  0.10082136570E+04 0.  0.
   -9000010    2    1    2    0  501 -0.76698454305E+03  0.51789327224E+03  0.14097768115E+04  0.19693364628E+04  0.10170234583E+04 0.  0.
        -13    1    3    3    0    0  0.51489515075E+03 -0.23927090610E+03 -0.35976928737E+03  0.67216183621E+03  0.10566000000E+00 0.  1.
         13    1    4    4    0    0 -0.93952820680E+03  0.13765696968E+03  0.10735630428E+04  0.14332481679E+04  0.10566000000E+00 0. -1.
          4    1    3    3  502    0  0.25208939231E+03 -0.27862236614E+03  0.61396051956E+03  0.71981039462E+03  0.00000000000E+00 0.  1.
         -4    1    4    4    0  501  0.17254366374E+03  0.38023630256E+03  0.33621376873E+03  0.53608829493E+03  0.00000000000E+00 0. -1.
</event>
<event>
 8    1  0.7096247E-006  0.1107621E+04  0.7818608E-02  0.8679574E-01
          1   -1    0    0  502    0  0.00000000000E+00  0.00000000000E+00  0.11389485550E+04  0.11389485550E+04  0.00000000000E+00 0.  1.
         -1   -1    0    0    0  501 -0.00000000000E+00 -0.00000000000E+00 -0.11311325803E+04  0.11311325803E+04  0.00000000000E+00 0. -1.
    9000010    2    1    2  502    0  0.42531032748E+02  0.41734540923E+03 -0.24203751247E+03  0.11634305463E+04  0.10578290973E+04 0.  0.
   -9000010    2    1    2    0  501 -0.42531032748E+02 -0.41734540923E+03  0.24985348718E+03  0.11066505890E+04  0.99310758822E+03 0.  0.
        -13    1    3    3    0    0 -0.24800990991E+03  0.50475958695E+03 -0.50957325000E+03  0.75891769271E+03  0.10566000000E+00 0.  1.
         13    1    4    4    0    0  0.41886672480E+03 -0.43776135866E+03  0.65644726827E+02  0.60942069345E+03  0.10566000000E+00 0. -1.
          4    1    3    3  502    0  0.29054094266E+03 -0.87414177727E+02  0.26753573753E+03  0.40451285355E+03  0.00000000000E+00 0.  1.
         -4    1    4    4    0  501 -0.46139775755E+03  0.20415949435E+02  0.18420876035E+03  0.49722989557E+03  0.00000000000E+00 0. -1.
</event>
<event>
 8    1  0.7096247E-006  0.1286874E+04  0.7818608E-02  0.8543866E-01
          2   -1    0    0  502    0  0.00000000000E+00  0.00000000000E+00  0.22764206646E+04  0.22764206646E+04  0.00000000000E+00 0. -1.
         -2   -1    0    0    0  501 -0.00000000000E+00 -0.00000000000E+00 -0.84869529036E+03  0.84869529036E+03  0.00000000000E+00 0.  1.
    9000010    2    1    2  502    0 -0.80322777066E+03  0.90436014282E+02  0.12999013539E+04  0.18226891479E+04  0.98949415146E+03 0.  0.
   -9000010    2    1    2    0  501  0.80322777066E+03 -0.90436014282E+02  0.12782402027E+03  0.13024268070E+04  0.10132241031E+04 0.  0.
        -13    1    3    3    0    0 -0.80629220082E+03 -0.31832550889E+03  0.83447448016E+03  0.12032397566E+04  0.10566000000E+00 0.  1.
         13    1    4    4    0    0  0.99248074069E+02  0.31269920756E+03 -0.24515972286E+03  0.40955375166E+03  0.10566000000E+00 0. -1.
          4    1    3    3  502    0  0.30644301628E+01  0.40876152317E+03  0.46542687377E+03  0.61944939130E+03  0.00000000000E+00 0.  1.
         -4    1    4    4    0  501  0.70397969659E+03 -0.40313522185E+03  0.37298374313E+03  0.89287305534E+03  0.00000000000E+00 0. -1.
</event>
<event>
 8    1  0.7096247E-006  0.1030443E+04  0.7818608E-02  0.8746502E-01
         -2   -1    0    0    0  501 -0.00000000000E+00  0.00000000000E+00  0.40411458308E+03  0.40411458308E+03  0.00000000000E+00 0.  1.
          2   -1    0    0  502    0  0.00000000000E+00 -0.00000000000E+00 -0.27169522598E+04  0.27169522598E+04  0.00000000000E+00 0. -1.
    9000010    2    1    2  502    0 -0.16712075535E+03  0.16468186110E+03 -0.87653993296E+03  0.13551012518E+04  0.10064430864E+04 0.  0.
   -9000010    2    1    2    0  501  0.16712075535E+03 -0.16468186110E+03 -0.14362977437E+04  0.17659655911E+04  0.10003168488E+04 0.  0.
        -13    1    3    3    0    0  0.42590528355E+03  0.43243853623E+02 -0.36161624630E+03  0.56038528013E+03  0.10566000000E+00 0.  1.
         13    1    4    4    0    0  0.32525045005E+03 -0.53412247011E+03 -0.89314561961E+03  0.10903136142E+04  0.10566000000E+00 0. -1.
          4    1    3    3  502    0 -0.59302603890E+03  0.12143800748E+03 -0.51492368666E+03  0.79471597163E+03  0.00000000000E+00 0.  1.
         -4    1    4    4    0  501 -0.15812969470E+03  0.36944060902E+03 -0.54315212410E+03  0.67565197687E+03  0.00000000000E+00 0. -1.
</event>
<event>
 8    1  0.7096247E-006  0.1286153E+04  0.7818608E-02  0.8544365E-01
          1   -1    0    0  502    0  0.00000000000E+00  0.00000000000E+00  0.19495739262E+04  0.19495739262E+04  0.00000000000E+00 0. -1.
         -1   -1    0    0    0  501 -0.00000000000E+00 -0.00000000000E+00 -0.85269317294E+03  0.85269317294E+03  0.00000000000E+00 0.  1.
    9000010    2    1    2  502    0 -0.27980717727E+03  0.73456065985E+03  0.64844166560E+03  0.14439634159E+04  0.10230749402E+04 0.  0.
   -9000010    2    1    2    0  501  0.27980717727E+03 -0.73456065985E+03  0.44843908768E+03  0.13583036833E+04  0.10129263849E+04 0.  0.
        -13    1    3    3    0    0 -0.11714421740E+03 -0.88004566378E+02  0.58500350716E+03  0.60307270368E+03  0.10566000000E+00 0.  1.
         13    1    4    4    0    0  0.41216261761E+03 -0.78582431938E+03 -0.61221120952E+00  0.88735464739E+03  0.10566000000E+00 0. -1.
          4    1    3    3  502    0 -0.16266295987E+03  0.82256522623E+03  0.63438158445E+02  0.84089071220E+03  0.00000000000E+00 0.  1.
         -4    1    4    4    0  501 -0.13235544034E+03  0.51263659526E+02  0.44905129889E+03  0.47094903590E+03  0.00000000000E+00 0. -1.
</event>
<event>
 8    1  0.7096247E-006  0.1120822E+04  0.7818608E-02  0.8668696E-01
          2   -1    0    0  502    0  0.00000000000E+00  0.00000000000E+00  0.11576438875E+04  0.11576438875E+04  0.00000000000E+00 0.  1.
         -2   -1    0    0    0  501 -0.00000000000E+00 -0.00000000000E+00 -0.14187170038E+04  0.14187170038E+04  0.00000000000E+00 0. -1.
    9000010    2    1    2  502    0 -0.21613160749E+03  0.49313287144E+03  0.49417166743E+03  0.12238682280E+04  0.98171019245E+03 0.  0.
   -9000010    2    1    2    0  501  0.21613160749E+03 -0.49313287144E+03 -0.75524478373E+03  0.13524926632E+04  0.98435197976E+03 0.  0.
        -13    1    3    3    0    0 -0.40647835765E+03  0.71162769864E+03  0.43604181811E+03  0.92831627962E+03  0.10566000000E+00 0.  1.
         13    1    4    4    0    0  0.47811878098E+03 -0.63348198401E+03 -0.68189247974E+03  0.10463624410E+04  0.10566000000E+00 0. -1.
          4    1    3    3  502    0  0.19034675015E+03 -0.21849482720E+03  0.58129849319E+02  0.29555194838E+03  0.00000000000E+00 0.  1.
         -4    1    4    4    0  501 -0.26198717349E+03  0.14034911257E+03 -0.73352303984E+02  0.30613022224E+03  0.00000000000E+00 0. -1.
</event>
<event>
 8    1  0.7096247E-006  0.2069752E+04  0.7818608E-02  0.8140569E-01
          2   -1    0    0  502    0  0.00000000000E+00  0.00000000000E+00  0.28174760211E+04  0.28174760211E+04  0.00000000000E+00 0. -1.
         -2   -1    0    0    0  501 -0.00000000000E+00 -0.00000000000E+00 -0.15299639149E+04  0.15299639149E+04  0.00000000000E+00 0.  1.
    9000010    2    1    2  502    0 -0.51436574279E+03  0.17370790873E+04  0.47245382250E+03  0.21229059193E+04  0.10007502459E+04 0.  0.
   -9000010    2    1    2    0  501  0.51436574279E+03 -0.17370790873E+04  0.81505828373E+03  0.22245340167E+04  0.10011072434E+04 0.  0.
        -13    1    3    3    0    0 -0.43568265766E+03  0.52717867219E+03 -0.23013157962E+03  0.72159357376E+03  0.10566000000E+00 0.  1.
         13    1    4    4    0    0  0.77147879626E+03 -0.97699412697E+03  0.33365456552E+03  0.12888065943E+04  0.10566000000E+00 0. -1.
          4    1    3    3  502    0 -0.78683085130E+02  0.12099004151E+04  0.70258540212E+03  0.14013123455E+04  0.00000000000E+00 0.  1.
         -4    1    4    4    0  501 -0.25711305347E+03 -0.76008496033E+03  0.48140371822E+03  0.93572742244E+03  0.00000000000E+00 0. -1.
</event>
<event>
 8    1  0.7096247E-006  0.2270865E+04  0.7818608E-02  0.8066249E-01
          2   -1    0    0  502    0  0.00000000000E+00  0.00000000000E+00  0.27043522463E+04  0.27043522463E+04  0.00000000000E+00 0. -1.
         -2   -1    0    0    0  501 -0.00000000000E+00 -0.00000000000E+00 -0.19204705326E+04  0.19204705326E+04  0.00000000000E+00 0.  1.
    9000010    2    1    2  502    0 -0.42699890596E+03  0.19968269606E+04  0.19778272911E+03  0.22822459499E+04  0.99994129414E+03 0.  0.
   -9000010    2    1    2    0  501  0.42699890596E+03 -0.19968269606E+04  0.58609898453E+03  0.23425768290E+04  0.98717182068E+03 0.  0.
        -13    1    3    3    0    0 -0.11005603836E+01  0.15256089681E+03 -0.28992744356E+03  0.32761863830E+03  0.10566000000E+00 0.  1.
         13    1    4    4    0    0  0.28503731686E+03 -0.93384187706E+02  0.27834228162E+03  0.40919593769E+03  0.10566000000E+00 0. -1.
          4    1    3    3  502    0 -0.42589834558E+03  0.18442660638E+04  0.48771017267E+03  0.19546273116E+04  0.00000000000E+00 0.  1.
         -4    1    4    4    0  501  0.14196158910E+03 -0.19034427729E+04  0.30775670291E+03  0.19333808913E+04  0.00000000000E+00 0. -1.
</event>
<event>
 8    1  0.7096247E-006  0.1519956E+04  0.7818608E-02  0.8398106E-01
          1   -1    0    0  502    0  0.00000000000E+00  0.00000000000E+00  0.82781822983E+03  0.82781822983E+03  0.00000000000E+00 0.  1.
         -1   -1    0    0    0  501 -0.00000000000E+00 -0.00000000000E+00 -0.29686662227E+04  0.29686662227E+04  0.00000000000E+00 0. -1.
    9000010    2    1    2  502    0  0.11387913036E+04  0.64072104772E+02 -0.60443601644E+03  0.16338508628E+04  0.10015861800E+04 0.  0.
   -9000010    2    1    2    0  501 -0.11387913036E+04 -0.64072104772E+02 -0.15364119764E+04  0.21626335898E+04  0.10077060159E+04 0.  0.
        -13    1    3    3    0    0  0.40045512217E+03 -0.44989105097E+03 -0.35974291523E+03  0.70155629770E+03  0.10566000000E+00 0.  1.
         13    1    4    4    0    0 -0.10098827889E+04 -0.42875197719E+03 -0.13302994123E+04  0.17243514847E+04  0.10566000000E+00 0. -1.
          4    1    3    3  502    0  0.73833618145E+03  0.51396315575E+03 -0.24469310121E+03  0.93229456508E+03  0.00000000000E+00 0.  1.
         -4    1    4    4    0  501 -0.12890851467E+03  0.36467987242E+03 -0.20611256417E+03  0.43828210506E+03  0.00000000000E+00 0. -1.
</event>
<event>
 8    1  0.7096247E-006  0.1133334E+04  0.7818608E-02  0.8658528E-01
          1   -1    0    0  502    0  0.00000000000E+00  0.00000000000E+00  0.94186697402E+03  0.94186697402E+03  0.00000000000E+00 0. -1.
         -1   -1    0    0    0  501 -0.00000000000E+00 -0.00000000000E+00 -0.13644271349E+04  0.13644271349E+04  0.00000000000E+00 0.  1.
    9000010    2    1    2  502    0 -0.22526432098E+03  0.48336555453E+03 -0.23722709737E+03  0.11568000984E+04  0.99876098159E+03 0.  0.
   -9000010    2    1    2    0  501  0.22526432098E+03 -0.48336555453E+03 -0.18533306352E+03  0.11494940105E+04  0.10013000860E+04 0.  0.
        -13    1    3    3    0    0 -0.26294525095E+03  0.17768923131E+03 -0.60131195609E+03  0.67991892725E+03  0.10566000000E+00 0.  1.
         13    1    4    4    0    0  0.66673728900E+02 -0.67895054733E+03 -0.42343624180E+03  0.80294302032E+03  0.10566000000E+00 0. -1.
          4    1    3    3  502    0  0.37680929975E+02  0.30567632321E+03  0.36408485872E+03  0.47688117116E+03  0.00000000000E+00 0.  1.
         -4    1    4    4    0  501  0.15859059208E+03  0.19558499280E+03  0.23810317828E+03  0.34655099020E+03  0.00000000000E+00 0. -1.
</event>
<event>
 8    1  0.7096247E-006  0.1060810E+04  0.7818608E-02  0.8719462E-01
          2   -1    0    0  502    0  0.00000000000E+00  0.00000000000E+00  0.22695362824E+04  0.22695362824E+04  0.00000000000E+00 0.  1.
         -2   -1    0    0    0  501 -0.00000000000E+00 -0.00000000000E+00 -0.50559931257E+03  0.50559931257E+03  0.00000000000E+00 0. -1.
    9000010    2    1    2  502    0  0.15660359941E+03 -0.29673610102E+03  0.67556231029E+03  0.12421947089E+04  0.98695808355E+03 0.  0.
   -9000010    2    1    2    0  501 -0.15660359941E+03  0.29673610102E+03  0.10883746595E+04  0.15329408861E+04  0.10260464705E+04 0.  0.
        -13    1    3    3    0    0 -0.13287075513E+03  0.30061839960E+03  0.41428444570E+03  0.52882669455E+03  0.10566000000E+00 0.  1.
         13    1    4    4    0    0 -0.19776592008E+03  0.31042349541E+03  0.12823743198E+04  0.13341506710E+04  0.10566000000E+00 0. -1.
          4    1    3    3  502    0  0.28947435454E+03 -0.59735450063E+03  0.26127786459E+03  0.71336801434E+03  0.00000000000E+00 0.  1.
         -4    1    4    4    0  501  0.41162320671E+02 -0.13687394382E+02 -0.19399966030E+03  0.19879021506E+03  0.00000000000E+00 0. -1.
</event>
<event>
 8    1  0.7096247E-006  0.1453099E+04  0.7818608E-02  0.8437013E-01
          4   -1    0    0  502    0  0.00000000000E+00  0.00000000000E+00  0.15677121791E+04  0.15677121791E+04  0.00000000000E+00 0.  1.
         -4   -1    0    0    0  501 -0.00000000000E+00 -0.00000000000E+00 -0.15112529515E+04  0.15112529515E+04  0.00000000000E+00 0. -1.
    9000010    2    1    2  502    0  0.85172308942E+03 -0.61546594450E+03  0.53601322914E+03  0.15518999562E+04  0.10083911653E+04 0.  0.
   -9000010    2    1    2    0  501 -0.85172308942E+03  0.61546594450E+03 -0.47955400159E+03  0.15270651744E+04  0.99886208079E+03 0.  0.
        -13    1    3    3    0    0  0.92129933881E+03 -0.23164006421E+03  0.64334791752E+03  0.11473212912E+04  0.10566000000E+00 0.  1.
         13    1    4    4    0    0 -0.39924197366E+03  0.83004044201E+03 -0.45078140191E+03  0.10254585181E+04  0.10566000000E+00 0. -1.
          4    1    3    3  502    0 -0.69576249388E+02 -0.38382588029E+03 -0.10733468838E+03  0.40457866502E+03  0.00000000000E+00 0.  1.
         -4    1    4    4    0  501 -0.45248111576E+03 -0.21457449751E+03 -0.28772599678E+02  0.50160665625E+03  0.00000000000E+00 0. -1.
</event>
<event>
 8    1  0.7096247E-006  0.1256879E+04  0.7818608E-02  0.8564919E-01
         -2   -1    0    0    0  501 -0.00000000000E+00  0.00000000000E+00  0.98821142919E+03  0.98821142919E+03  0.00000000000E+00 0. -1.
          2   -1    0    0  502    0  0.00000000000E+00 -0.00000000000E+00 -0.16849898631E+04  0.16849898631E+04  0.00000000000E+00 0.  1.
    9000010    2    1    2  502    0  0.37985727726E+03  0.67648737712E+03 -0.65366541045E+03  0.14262790166E+04  0.10025301202E+04 0.  0.
   -9000010    2    1    2    0  501 -0.37985727726E+03 -0.67648737712E+03 -0.43113023469E+02  0.12469222757E+04  0.97520751965E+03 0.  0.
        -13    1    3    3    0    0  0.58695406538E+03  0.83465387352E+02 -0.50971794651E+03  0.78185289020E+03  0.10566000000E+00 0.  1.
         13    1    4    4    0    0  0.28011334946E+03 -0.92140373550E+02 -0.19349912357E+03  0.35269712072E+03  0.10566000000E+00 0. -1.
          4    1    3    3  502    0 -0.20709678812E+03  0.59302198977E+03 -0.14394746394E+03  0.64442612639E+03  0.00000000000E+00 0.  1.
         -4    1    4    4    0  501 -0.65997062672E+03 -0.58434700357E+03  0.15038610010E+03  0.89422515499E+03  0.00000000000E+00 0. -1.
</event>
<event>
 8    1  0.7096247E-006  0.1103593E+04  0.7818608E-02  0.8682925E-01
          1   -1    0    0  502    0  0.00000000000E+00  0.00000000000E+00  0.19977227715E+04  0.19977227715E+04  0.00000000000E+00 0.  1.
         -1   -1    0    0    0  501 -0.00000000000E+00 -0.00000000000E+00 -0.63864136148E+03  0.63864136148E+03  0.00000000000E+00 0. -1.
    9000010    2    1    2  502    0  0.10527907328E+03 -0.40585669669E+03  0.96556404543E+03  0.14733155720E+04  0.10307965402E+04 0.  0.
   -9000010    2    1    2    0  501 -0.10527907328E+03  0.40585669669E+03  0.39351736454E+03  0.11630485610E+04  0.10109513823E+04 0.  0.
        -13    1    3    3    0    0 -0.76854851557E+02 -0.59298674430E+03  0.10418692363E+04  0.12012624458E+04  0.10566000000E+00 0.  1.
         13    1    4    4    0    0  0.22145301051E+03  0.28480644537E+02 -0.25870502889E+03  0.34173218478E+03  0.10566000000E+00 0. -1.
          4    1    3    3  502    0  0.18213392484E+03  0.18713004761E+03 -0.76305190830E+02  0.27205312614E+03  0.00000000000E+00 0.  1.
         -4    1    4    4    0  501 -0.32673208379E+03  0.37737605215E+03  0.65222239343E+03  0.82131637619E+03  0.00000000000E+00 0. -1.
</event>
<event>
 8    1  0.7096247E-006  0.1181758E+04  0.7818608E-02  0.8620427E-01
         -2   -1    0    0    0  501 -0.00000000000E+00  0.00000000000E+00  0.12175696233E+04  0.12175696233E+04  0.00000000000E+00 0.  1.
          2   -1    0    0  502    0  0.00000000000E+00 -0.00000000000E+00 -0.11478740422E+04  0.11478740422E+04  0.00000000000E+00 0. -1.
    9000010    2    1    2  502    0  0.64526680679E+03 -0.63102414951E+01  0.52387683288E+01  0.11947460935E+04  0.10054758636E+04 0.  0.
   -9000010    2    1    2    0  501 -0.64526680679E+03  0.63102414951E+01  0.64456812754E+02  0.11706975720E+04  0.97466355903E+03 0.  0.
        -13    1    3    3    0    0  0.55318658571E+03 -0.45588434940E+03 -0.10042695574E+03  0.72383114277E+03  0.10566000000E+00 0.  1.
         13    1    4    4    0    0 -0.88785001594E+03  0.70516851515E+02 -0.55883684494E+02  0.89239748684E+03  0.10566000000E+00 0. -1.
          4    1    3    3  502    0  0.92080221083E+02  0.44957410790E+03  0.10566572407E+03  0.47091495076E+03  0.00000000000E+00 0.  1.
         -4    1    4    4    0  501  0.24258320915E+03 -0.64206610020E+02  0.12034049725E+03  0.27830008518E+03  0.00000000000E+00 0. -1.
</event>
<event>
 8    1  0.7096247E-006  0.1276378E+04  0.7818608E-02  0.8551165E-01
         -2   -1    0    0    0  501 -0.00000000000E+00  0.00000000000E+00  0.68872103925E+03  0.68872103925E+03  0.00000000000E+00 0. -1.
          2   -1    0    0  502    0  0.00000000000E+00 -0.00000000000E+00 -0.27801963015E+04  0.27801963015E+04  0.00000000000E+00 0.  1.
    9000010    2    1    2  502    0  0.17121953154E+03  0.78308881294E+03 -0.17165835231E+04  0.21399187183E+04  0.99501201619E+03 0.  0.
   -9000010    2    1    2    0  501 -0.17121953154E+03 -0.78308881294E+03 -0.37489173917E+03  0.13289986224E+04  0.99153885724E+03 0.  0.
        -13    1    3    3    0    0  0.56178881124E+03  0.42058321206E+03 -0.69487036318E+03  0.98759391426E+03  0.10566000000E+00 0.  1.
         13    1    4    4    0    0  0.24398120403E+03  0.95630445372E+02  0.52566476576E+02  0.26727374661E+03  0.10566000000E+00 0. -1.
          4    1    3    3  502    0 -0.39056927970E+03  0.36250560088E+03 -0.10217131599E+04  0.11523248041E+04  0.00000000000E+00 0.  1.
         -4    1    4    4    0  501 -0.41520073557E+03 -0.87871925831E+03 -0.42745821574E+03  0.10617248758E+04  0.00000000000E+00 0. -1.
</event>
<event>
 7    1  0.7096247E-006  0.1891512E+04  0.7818608E-02  0.8214051E-01
          2   -1    0    0  502    0  0.00000000000E+00  0.00000000000E+00  0.27877497174E+04  0.27877497174E+04  0.00000000000E+00 0. -1.
         -2   -1    0    0    0  501 -0.00000000000E+00 -0.00000000000E+00 -0.13211021263E+04  0.13211021263E+04  0.00000000000E+00 0.  1.
    9000010    2    1    2  502    0 -0.22150301081E+03  0.14235064727E+04  0.37469055604E+03  0.17693668468E+04  0.95646838105E+03 0.  0.
        -13    1    3    3    0    0 -0.43004744450E+03  0.13270629884E+04  0.82202530039E+02  0.13974241471E+04  0.10566000000E+00 0.  1.
         13    1    1    2    0    0 -0.49944197021E+03 -0.54715267584E+03  0.93650369327E+03  0.11940927564E+04  0.10566000000E+00 0. -1.
          4    1    3    3  502    0  0.20854443368E+03  0.96443484303E+02  0.29248802600E+03  0.37194269967E+03  0.00000000000E+00 0.  1.
         -4    1    1    2    0  501  0.72094498102E+03 -0.87635379690E+03  0.15545334178E+03  0.11453922404E+04  0.00000000000E+00 0. -1.
</event>
<event>
 8    1  0.7096247E-006  0.1924912E+04  0.7818608E-02  0.8199668E-01
         -1   -1    0    0    0  501 -0.00000000000E+00  0.00000000000E+00  0.77055777422E+03  0.77055777422E+03  0.00000000000E+00 0. -1.
          1   -1    0    0  502    0  0.00000000000E+00 -0.00000000000E+00 -0.48429072275E+04  0.48429072275E+04  0.00000000000E+00 0.  1.
    9000010    2    1    2  502    0  0.14421295400E+04  0.78620180570E+03 -0.22768484077E+04  0.29842262501E+04  0.10117888863E+04 0.  0.
   -9000010    2    1    2    0  501 -0.14421295400E+04 -0.78620180570E+03 -0.17955010456E+04  0.26292387517E+04  0.99560108438E+03 0.  0.
        -13    1    3    3    0    0  0.93798621077E+03  0.68777602594E+03 -0.77679876622E+03  0.13986673399E+04  0.10566000000E+00 0.  1.
         13    1    4    4    0    0 -0.20000790340E+03 -0.16563432460E+03  0.10111631141E+03  0.27867976336E+03  0.10566000000E+00 0. -1.
          4    1    3    3  502    0  0.50414332922E+03  0.98425779757E+02 -0.15000496415E+04  0.15855589101E+04  0.00000000000E+00 0.  1.
         -4    1    4    4    0  501 -0.12421216366E+04 -0.62056748110E+03 -0.18966173570E+04  0.23505589883E+04  0.00000000000E+00 0. -1.
</event>
<event>
 8    1  0.7096247E-006  0.1189579E+04  0.7818608E-02  0.8614452E-01
         -1   -1    0    0    0  501 -0.00000000000E+00  0.00000000000E+00  0.83612557717E+03  0.83612557717E+03  0.00000000000E+00 0. -1.
          1   -1    0    0  502    0  0.00000000000E+00 -0.00000000000E+00 -0.16988241275E+04  0.16988241275E+04  0.00000000000E+00 0.  1.
    9000010    2    1    2  502    0  0.63812323558E+03 -0.10065497578E+02 -0.35460328666E+03  0.12436322870E+04  0.10067647175E+04 0.  0.
   -9000010    2    1    2    0  501 -0.63812323558E+03  0.10065497578E+02 -0.50809526362E+03  0.12913174176E+04  0.10010181307E+04 0.  0.
        -13    1    3    3    0    0  0.45478255001E+03  0.21364921865E+03 -0.65571961485E+03  0.82610010344E+03  0.10566000000E+00 0.  1.
         13    1    4    4    0    0 -0.89275037323E+03  0.13017857486E+03 -0.34467809083E+03  0.96579122367E+03  0.10566000000E+00 0. -1.
          4    1    3    3  502    0  0.18334068557E+03 -0.22371471623E+03  0.30111632819E+03  0.41753218361E+03  0.00000000000E+00 0.  1.
         -4    1    4    4    0  501  0.25462713764E+03 -0.12011307728E+03 -0.16341717279E+03  0.32552619391E+03  0.00000000000E+00 0. -1.
</event>
<event>
 8    1  0.7096247E-006  0.1109938E+04  0.7818608E-02  0.8677653E-01
         -2   -1    0    0    0  501 -0.00000000000E+00  0.00000000000E+00  0.88305278633E+03  0.88305278633E+03  0.00000000000E+00 0. -1.
          2   -1    0    0  502    0  0.00000000000E+00 -0.00000000000E+00 -0.13978258834E+04  0.13978258834E+04  0.00000000000E+00 0.  1.
    9000010    2    1    2  502    0  0.10934088685E+03 -0.44964081330E+03 -0.20617403557E+03  0.11140073893E+04  0.99215545147E+03 0.  0.
   -9000010    2    1    2    0  501 -0.10934088685E+03  0.44964081330E+03 -0.30859906154E+03  0.11668712805E+04  0.10257791741E+04 0.  0.
        -13    1    3    3    0    0 -0.36591374304E+03 -0.23986992719E+03  0.17338363153E+03  0.47062973149E+03  0.10566000000E+00 0.  1.
         13    1    4    4    0    0 -0.64935089747E+01  0.91089818544E+02  0.37617147140E+03  0.38709754295E+03  0.10566000000E+00 0. -1.
          4    1    3    3  502    0  0.47525462988E+03 -0.20977088611E+03 -0.37955766709E+03  0.64337765779E+03  0.00000000000E+00 0.  1.
         -4    1    4    4    0  501 -0.10284737787E+03  0.35855099475E+03 -0.68477053294E+03  0.77977373754E+03  0.00000000000E+00 0. -1.
</event>
<event>
 8    1  0.7096247E-006  0.1310833E+04  0.7818608E-02  0.8527471E-01
          2   -1    0    0  502    0  0.00000000000E+00  0.00000000000E+00  0.14415538250E+04  0.14415538250E+04  0.00000000000E+00 0.  1.
         -2   -1    0    0    0  501 -0.00000000000E+00 -0.00000000000E+00 -0.14317475341E+04  0.14317475341E+04  0.00000000000E+00 0. -1.
    9000010    2    1    2  502    0 -0.74744799142E+03 -0.33978807673E+03  0.59168835887E+03  0.14711187504E+04  0.10676894805E+04 0.  0.
   -9000010    2    1    2    0  501  0.74744799142E+03  0.33978807673E+03 -0.58188206797E+03  0.14021826086E+04  0.97641942317E+03 0.  0.
        -13    1    3    3    0    0 -0.68701463366E+03 -0.69970156600E+03  0.40182560796E+03  0.10597335602E+04  0.10566000000E+00 0.  1.
         13    1    4    4    0    0  0.44658021870E+03  0.54155202394E+03 -0.72825808237E+03  0.10114703812E+04  0.10566000000E+00 0. -1.
          4    1    3    3  502    0 -0.60433357764E+02  0.35991348928E+03  0.18986275091E+03  0.41138519015E+03  0.00000000000E+00 0.  1.
         -4    1    4    4    0  501  0.30086777272E+03 -0.20176394722E+03  0.14637601440E+03  0.39071222741E+03  0.00000000000E+00 0. -1.
</event>
<event>
 8    1  0.7096247E-006  0.1349502E+04  0.7818608E-02  0.8501757E-01
         -2   -1    0    0    0  501 -0.00000000000E+00  0.00000000000E+00  0.14120479996E+04  0.14120479996E+04  0.00000000000E+00 0.  1.
          2   -1    0    0  502    0  0.00000000000E+00 -0.00000000000E+00 -0.14427566800E+04  0.14427566800E+04  0.00000000000E+00 0. -1.
    9000010    2    1    2  502    0 -0.52607287510E+03  0.73218621001E+03 -0.48005058806E+03  0.14240967822E+04  0.99234760129E+03 0.  0.
   -9000010    2    1    2    0  501  0.52607287510E+03 -0.73218621001E+03  0.44934190772E+03  0.14307078975E+04  0.10159565059E+04 0.  0.
        -13    1    3    3    0    0 -0.26054379562E+03  0.73316751234E+03 -0.72451042128E+03  0.10631712149E+04  0.10566000000E+00 0.  1.
         13    1    4    4    0    0 -0.19101453237E+03 -0.45758560342E+03  0.43978167298E+03  0.66278131166E+03  0.10566000000E+00 0. -1.
          4    1    3    3  502    0 -0.26552907949E+03 -0.98130233049E+00  0.24445983321E+03  0.36092556720E+03  0.00000000000E+00 0.  1.
         -4    1    4    4    0  501  0.71708740748E+03 -0.27460060659E+03  0.95602347400E+01  0.76792658581E+03  0.00000000000E+00 0. -1.
</event>
<event>
 8    1  0.7096247E-006  0.1516788E+04  0.7818608E-02  0.8399902E-01
         -1   -1    0    0    0  501 -0.00000000000E+00  0.00000000000E+00  0.10884721599E+04  0.10884721599E+04  0.00000000000E+00 0. -1.
          1   -1    0    0  502    0  0.00000000000E+00 -0.00000000000E+00 -0.22885837307E+04  0.22885837307E+04  0.00000000000E+00 0.  1.
    9000010    2    1    2  502    0 -0.11167484348E+04  0.25150319258E+03 -0.13586911966E+03  0.15299219750E+04  0.10058925933E+04 0.  0.
   -9000010    2    1    2    0  501  0.11167484348E+04 -0.25150319258E+03 -0.10642424511E+04  0.18471339156E+04  0.98433265972E+03 0.  0.
        -13    1    3    3    0    0 -0.58099648657E+03 -0.43495827622E+02 -0.54200908512E+03  0.79575289126E+03  0.10566000000E+00 0.  1.
         13    1    4    4    0    0 -0.17840456515E+03 -0.94714096013E+02 -0.18493930053E+03  0.27386402629E+03  0.10566000000E+00 0. -1.
          4    1    3    3  502    0 -0.53575194824E+03  0.29499902020E+03  0.40613996546E+03  0.73416908373E+03  0.00000000000E+00 0.  1.
         -4    1    4    4    0  501  0.12951530000E+04 -0.15678909657E+03 -0.87930315055E+03  0.15732698893E+04  0.00000000000E+00 0. -1.
</event>
<event>
 8    1  0.7096247E-006  0.1295866E+04  0.7818608E-02  0.8537670E-01
          2   -1    0    0  502    0  0.00000000000E+00  0.00000000000E+00  0.40707889074E+03  0.40707889074E+03  0.00000000000E+00 0.  1.
         -2   -1    0    0    0  501 -0.00000000000E+00 -0.00000000000E+00 -0.41440556199E+04  0.41440556199E+04  0.00000000000E+00 0. -1.
    9000010    2    1    2  502    0  0.79263260309E+03 -0.54313019215E+03 -0.20352530937E+04  0.24601708540E+04  0.99344281480E+03 0.  0.
   -9000010    2    1    2    0  501 -0.79263260309E+03  0.54313019215E+03 -0.17017236355E+04  0.20909636567E+04  0.74364563663E+03 0.  0.
        -13    1    3    3    0    0  0.14978918916E+03  0.25386936795E+03 -0.81819498862E+03  0.86967206908E+03  0.10566000000E+00 0.  1.
         13    1    4    4    0    0 -0.38372483289E+03  0.17999299382E+03 -0.14075653331E+04  0.14699940148E+04  0.10566000000E+00 0. -1.
          4    1    3    3  502    0  0.64284341392E+03 -0.79699956010E+03 -0.12170581051E+04  0.15904987849E+04  0.00000000000E+00 0.  1.
         -4    1    4    4    0  501 -0.40890777020E+03  0.36313719833E+03 -0.29415830232E+03  0.62096964190E+03  0.00000000000E+00 0. -1.
</event>
<event>
 8    1  0.7096247E-006  0.1363905E+04  0.7818608E-02  0.8492405E-01
          2   -1    0    0  502    0  0.00000000000E+00  0.00000000000E+00  0.23017782327E+04  0.23017782327E+04  0.00000000000E+00 0.  1.
         -2   -1    0    0    0  501 -0.00000000000E+00 -0.00000000000E+00 -0.81063732428E+03  0.81063732428E+03  0.00000000000E+00 0. -1.
    9000010    2    1    2  502    0 -0.74451373342E+03 -0.54953393026E+03  0.65733315200E+03  0.15097189066E+04  0.99542757871E+03 0.  0.
   -9000010    2    1    2    0  501  0.74451373342E+03  0.54953393026E+03  0.83380775644E+03  0.16026966504E+04  0.10085201727E+04 0.  0.
        -13    1    3    3    0    0 -0.81077117811E+03 -0.62294849861E+03  0.20002119081E+03  0.10418364666E+04  0.10566000000E+00 0.  1.
         13    1    4    4    0    0  0.29318161331E+03 -0.27799525141E+03  0.12367841186E+03  0.42253186734E+03  0.10566000000E+00 0. -1.
          4    1    3    3  502    0  0.66257444690E+02  0.73414568347E+02  0.45731196119E+03  0.46788244001E+03  0.00000000000E+00 0.  1.
         -4    1    4    4    0  501  0.45133212011E+03  0.82752918167E+03  0.71012934458E+03  0.11801647831E+04  0.00000000000E+00 0. -1.
</event>
<event>
 8    1  0.7096247E-006  0.1099033E+04  0.7818608E-02  0.8686736E-01
         -2   -1    0    0    0  501 -0.00000000000E+00  0.00000000000E+00  0.47199046231E+03  0.47199046231E+03  0.00000000000E+00 0.  1.
          2   -1    0    0  502    0  0.00000000000E+00 -0.00000000000E+00 -0.25917248347E+04  0.25917248347E+04  0.00000000000E+00 0. -1.
    9000010    2    1    2  502    0 -0.36117489085E+03 -0.24830705658E+03 -0.12164163864E+04  0.16295723011E+04  0.99183333444E+03 0.  0.
   -9000010    2    1    2    0  501  0.36117489085E+03  0.24830705658E+03 -0.90331798589E+03  0.14341429958E+04  0.10240503175E+04 0.  0.
        -13    1    3    3    0    0 -0.56502680842E+02 -0.88541463592E+02  0.17070319244E+03  0.20042887713E+03  0.10566000000E+00 0.  1.
         13    1    4    4    0    0 -0.27168407964E+03 -0.13949940942E+03 -0.50920262651E+03  0.59376733690E+03  0.10566000000E+00 0. -1.
          4    1    3    3  502    0 -0.30467221001E+03 -0.15976559298E+03 -0.13871195789E+04  0.14291434240E+04  0.00000000000E+00 0.  1.
         -4    1    4    4    0  501  0.63285897050E+03  0.38780646600E+03 -0.39411535938E+03  0.84037565892E+03  0.00000000000E+00 0. -1.
</event>
<event>
 8    1  0.7096247E-006  0.1050669E+04  0.7818608E-02  0.8728387E-01
         -1   -1    0    0    0  501 -0.00000000000E+00  0.00000000000E+00  0.37736817815E+03  0.37736817815E+03  0.00000000000E+00 0. -1.
          1   -1    0    0  502    0  0.00000000000E+00 -0.00000000000E+00 -0.29350214580E+04  0.29350214580E+04  0.00000000000E+00 0.  1.
    9000010    2    1    2  502    0  0.10592334819E+02  0.33315294998E+03 -0.11768627711E+04  0.15738368642E+04  0.99038043567E+03 0.  0.
   -9000010    2    1    2    0  501 -0.10592334819E+02 -0.33315294998E+03 -0.13807905088E+04  0.17385527720E+04  0.10024371433E+04 0.  0.
        -13    1    3    3    0    0 -0.13708583165E+03  0.16823263843E+03 -0.13017147520E+04  0.13196802842E+04  0.10566000000E+00 0.  1.
         13    1    4    4    0    0 -0.46164209904E+03 -0.52623125170E+02 -0.93900867813E+03  0.10476735797E+04  0.10566000000E+00 0. -1.
          4    1    3    3  502    0  0.14767816647E+03  0.16492031155E+03  0.12485198086E+03  0.25415657996E+03  0.00000000000E+00 0.  1.
         -4    1    4    4    0  501  0.45104976423E+03 -0.28052982481E+03 -0.44178183063E+03  0.69087919226E+03  0.00000000000E+00 0. -1.
</event>
<event>
 8    1  0.7096247E-006  0.1151244E+04  0.7818608E-02  0.8644210E-01
         -2   -1    0    0    0  501 -0.00000000000E+00  0.00000000000E+00  0.83490070594E+03  0.83490070594E+03  0.00000000000E+00 0. -1.
          2   -1    0    0  502    0  0.00000000000E+00 -0.00000000000E+00 -0.17761303171E+04  0.17761303171E+04  0.00000000000E+00 0.  1.
    9000010    2    1    2  502    0  0.47445337817E+03  0.25880567826E+03 -0.89808319960E+03  0.14644498019E+04  0.10227284106E+04 0.  0.
   -9000010    2    1    2    0  501 -0.47445337817E+03 -0.25880567826E+03 -0.43146411519E+02  0.11465812211E+04  0.10102972318E+04 0.  0.
        -13    1    3    3    0    0  0.31475477293E+03 -0.10611727650E+03  0.13399363515E+03  0.35816999997E+03  0.10566000000E+00 0.  1.
         13    1    4    4    0    0 -0.42492864189E+03  0.80110308497E+02  0.39826002663E+03  0.58787164603E+03  0.10566000000E+00 0. -1.
          4    1    3    3  502    0  0.15969860524E+03  0.36492295476E+03 -0.10320768347E+04  0.11062798020E+04  0.00000000000E+00 0.  1.
         -4    1    4    4    0  501 -0.49524736280E+02 -0.33891598676E+03 -0.44140643815E+03  0.55870957503E+03  0.00000000000E+00 0. -1.
</event>
<event>
 8    1  0.7096247E-006  0.1450857E+04  0.7818608E-02  0.8438356E-01
          2   -1    0    0  502    0  0.00000000000E+00  0.00000000000E+00  0.19839427861E+04  0.19839427861E+04  0.00000000000E+00 0. -1.
         -2   -1    0    0    0  501 -0.00000000000E+00 -0.00000000000E+00 -0.14211963684E+04  0.14211963684E+04  0.00000000000E+00 0.  1.
    9000010    2    1    2  502    0 -0.89691101248E+02  0.10611572103E+04  0.11410447987E+04  0.18613731405E+04  0.10142128065E+04 0.  0.
   -9000010    2    1    2    0  501  0.89691101248E+02 -0.10611572103E+04 -0.57829838099E+03  0.15437660139E+04  0.95639184941E+03 0.  0.
        -13    1    3    3    0    0  0.16751500119E+03  0.10440395123E+04  0.11974619844E+04  0.15974964770E+04  0.10566000000E+00 0.  1.
         13    1    4    4    0    0 -0.25641834523E+03 -0.98864948079E+03 -0.22900423415E+03  0.10467192145E+04  0.10566000000E+00 0. -1.
          4    1    3    3  502    0 -0.25720610244E+03  0.17117698066E+02 -0.56417185667E+02  0.26387666353E+03  0.00000000000E+00 0.  1.
         -4    1    4    4    0  501  0.34610944647E+03 -0.72507729542E+02 -0.34929414684E+03  0.49704679940E+03  0.00000000000E+00 0. -1.
</event>
<event>
 8    1  0.7096247E-006  0.1164784E+04  0.7818608E-02  0.8633564E-01
          1   -1    0    0  502    0  0.00000000000E+00  0.00000000000E+00  0.15910877303E+04  0.15910877303E+04  0.00000000000E+00 0.  1.
         -1   -1    0    0    0  501 -0.00000000000E+00 -0.00000000000E+00 -0.86608898233E+03  0.86608898233E+03  0.00000000000E+00 0. -1.
    9000010    2    1    2  502    0  0.56854360091E+03 -0.10957143816E+03  0.51377018209E+03  0.12688669595E+04  0.10053933731E+04 0.  0.
   -9000010    2    1    2    0  501 -0.56854360091E+03  0.10957143816E+03  0.21122856584E+03  0.11883097531E+04  0.10159797419E+04 0.  0.
        -13    1    3    3    0    0  0.25274605251E+03 -0.55419605566E+03  0.33380683098E+03  0.69457961872E+03  0.10566000000E+00 0.  1.
         13    1    4    4    0    0  0.66698608197E+02  0.20428001044E+03  0.45352652670E+03  0.50186188198E+03  0.10566000000E+00 0. -1.
          4    1    3    3  502    0  0.31579754840E+03  0.44462461750E+03  0.17996335111E+03  0.57428734080E+03  0.00000000000E+00 0.  1.
         -4    1    4    4    0  501 -0.63524220910E+03 -0.94708572280E+02 -0.24229796086E+03  0.68644787109E+03  0.00000000000E+00 0. -1.
</event>
<event>
 8    1  0.7096247E-006  0.1218869E+04  0.7818608E-02  0.8592487E-01
         -1   -1    0    0    0  501 -0.00000000000E+00  0.00000000000E+00  0.16839415310E+04  0.16839415310E+04  0.00000000000E+00 0. -1.
          1   -1    0    0  502    0  0.00000000000E+00 -0.00000000000E+00 -0.92691838015E+03  0.92691838015E+03  0.00000000000E+00 0.  1.
    9000010    2    1    2  502    0 -0.43091442399E+03  0.53416935486E+03  0.66849023732E+03  0.14011677068E+04  0.10224322005E+04 0.  0.
   -9000010    2    1    2    0  501  0.43091442399E+03 -0.53416935486E+03  0.88532913576E+02  0.12096922044E+04  0.99221621241E+03 0.  0.
        -13    1    3    3    0    0  0.11113409199E+03  0.44314450157E+03  0.71614725637E+03  0.84946732700E+03  0.10566000000E+00 0.  1.
         13    1    4    4    0    0 -0.41191937512E+02 -0.70154875734E+03  0.11112478157E+02  0.70284488543E+03  0.10566000000E+00 0. -1.
          4    1    3    3  502    0 -0.54204851597E+03  0.91024853289E+02 -0.47657019053E+02  0.55170037978E+03  0.00000000000E+00 0.  1.
         -4    1    4    4    0  501  0.47210636150E+03  0.16737940248E+03  0.77420435419E+02  0.50684731899E+03  0.00000000000E+00 0. -1.
</event>
<event>
 8    1  0.7096247E-006  0.1453465E+04  0.7818608E-02  0.8436795E-01
          2   -1    0    0  502    0  0.00000000000E+00  0.00000000000E+00  0.20394747361E+04  0.20394747361E+04  0.00000000000E+00 0.  1.
         -2   -1    0    0    0  501 -0.00000000000E+00 -0.00000000000E+00 -0.10412555117E+04  0.10412555117E+04  0.00000000000E+00 0. -1.
    9000010    2    1    2  502    0 -0.10541150734E+04 -0.22257587017E+02  0.38780931008E+03  0.15038452858E+04  0.99975026607E+03 0.  0.
   -9000010    2    1    2    0  501  0.10541150734E+04  0.22257587017E+02  0.61040991437E+03  0.15768849620E+04  0.10011552985E+04 0.  0.
        -13    1    3    3    0    0 -0.68042505337E+02 -0.23683893342E+03 -0.21613754669E+03  0.32777723101E+03  0.10566000000E+00 0.  1.
         13    1    4    4    0    0  0.95391943906E+03  0.30125978868E+03  0.12503917598E+03  0.10081441183E+04  0.10566000000E+00 0. -1.
          4    1    3    3  502    0 -0.98607256806E+03  0.21458134641E+03  0.60394685677E+03  0.11760680548E+04  0.00000000000E+00 0.  1.
         -4    1    4    4    0  501  0.10019563434E+03 -0.27900220166E+03  0.48537073839E+03  0.56874084376E+03  0.00000000000E+00 0. -1.
</event>
<event>
 8    1  0.7096247E-006  0.1053419E+04  0.7818608E-02  0.8725956E-01
         -2   -1    0    0    0  501 -0.00000000000E+00  0.00000000000E+00  0.56682547135E+03  0.56682547135E+03  0.00000000000E+00 0.  1.
          2   -1    0    0  502    0  0.00000000000E+00 -0.00000000000E+00 -0.24516719668E+04  0.24516719668E+04  0.00000000000E+00 0. -1.
    9000010    2    1    2  502    0  0.32710830916E+03 -0.88265827785E+02 -0.26444756791E+03  0.10853692807E+04  0.99664600389E+03 0.  0.
   -9000010    2    1    2    0  501 -0.32710830916E+03  0.88265827785E+02 -0.16203989275E+04  0.19331281574E+04  0.99824901022E+03 0.  0.
        -13    1    3    3    0    0  0.53529730899E+03  0.25900848306E+03 -0.32224765797E+03  0.67636688827E+03  0.10566000000E+00 0.  1.
         13    1    4    4    0    0 -0.25779574567E+03 -0.41893979699E+03 -0.50044206825E+03  0.70172036798E+03  0.10566000000E+00 0. -1.
          4    1    3    3  502    0 -0.20818899983E+03 -0.34727431084E+03  0.57800090059E+02  0.40900239245E+03  0.00000000000E+00 0.  1.
         -4    1    4    4    0  501 -0.69312563499E+02  0.50720562478E+03 -0.11199568593E+04  0.12314077895E+04  0.00000000000E+00 0. -1.
</event>
<event>
 8    1  0.7096247E-006  0.1646337E+04  0.7818608E-02  0.8329925E-01
          1   -1    0    0  502    0  0.00000000000E+00  0.00000000000E+00  0.12547119873E+04  0.12547119873E+04  0.00000000000E+00 0. -1.
         -1   -1    0    0    0  501 -0.00000000000E+00 -0.00000000000E+00 -0.22498416065E+04  0.22498416065E+04  0.00000000000E+00 0.  1.
    9000010    2    1    2  502    0 -0.64809576208E+03  0.11638162100E+04 -0.85142658132E+03  0.18672350137E+04  0.99355074639E+03 0.  0.
   -9000010    2    1    2    0  501  0.64809576208E+03 -0.11638162100E+04 -0.14370303790E+03  0.16373185801E+04  0.94109791321E+03 0.  0.
        -13    1    3    3    0    0 -0.15133207012E+03  0.79775899110E+03 -0.94188709348E+03  0.12435723185E+04  0.10566000000E+00 0.  1.
         13    1    4    4    0    0  0.52140512137E+03 -0.12742557780E+04  0.53959507071E+02  0.13778616505E+04  0.10566000000E+00 0. -1.
          4    1    3    3  502    0 -0.49676369196E+03  0.36605721887E+03  0.90460512158E+02  0.62366269521E+03  0.00000000000E+00 0.  1.
         -4    1    4    4    0  501  0.12669064071E+03  0.11043956804E+03 -0.19766254497E+03  0.25945692960E+03  0.00000000000E+00 0. -1.
</event>
<event>
 8    1  0.7096247E-006  0.1158862E+04  0.7818608E-02  0.8638201E-01
          2   -1    0    0  502    0  0.00000000000E+00  0.00000000000E+00  0.13975056863E+04  0.13975056863E+04  0.00000000000E+00 0.  1.
         -2   -1    0    0    0  501 -0.00000000000E+00 -0.00000000000E+00 -0.99886063469E+03  0.99886063469E+03  0.00000000000E+00 0. -1.
    9000010    2    1    2  502    0 -0.31046883636E+03  0.42864344043E+03 -0.35736861532E+02  0.11471607842E+04  0.10171404250E+04 0.  0.
   -9000010    2    1    2    0  501  0.31046883636E+03 -0.42864344043E+03  0.43438191310E+03  0.12492055367E+04  0.10448448350E+04 0.  0.
        -13    1    3    3    0    0 -0.24191523134E+03  0.16592097660E+03 -0.51709319741E+03  0.59450663209E+03  0.10566000000E+00 0.  1.
         13    1    4    4    0    0  0.54985550864E+03 -0.76561702952E+02  0.57650973939E+03  0.80035383770E+03  0.10566000000E+00 0. -1.
          4    1    3    3  502    0 -0.68553605020E+02  0.26272246382E+03  0.48135633588E+03  0.55265415211E+03  0.00000000000E+00 0.  1.
         -4    1    4    4    0  501 -0.23938667228E+03 -0.35208173747E+03 -0.14212782630E+03  0.44885169905E+03  0.00000000000E+00 0. -1.
</event>
<event>
 8    1  0.7096247E-006  0.1232083E+04  0.7818608E-02  0.8582787E-01
         -2   -1    0    0    0  501 -0.00000000000E+00  0.00000000000E+00  0.99218886749E+03  0.99218886749E+03  0.00000000000E+00 0. -1.
          2   -1    0    0  502    0  0.00000000000E+00 -0.00000000000E+00 -0.18330957551E+04  0.18330957551E+04  0.00000000000E+00 0.  1.
    9000010    2    1    2  502    0  0.17631018919E+03 -0.67788482375E+03  0.15174630930E+03  0.12489945808E+04  0.10229112392E+04 0.  0.
   -9000010    2    1    2    0  501 -0.17631018919E+03  0.67788482375E+03 -0.99265319686E+03  0.15762900418E+04  0.10043489481E+04 0.  0.
        -13    1    3    3    0    0 -0.23211617155E+03 -0.37450197337E+03 -0.32832533761E+03  0.54947901110E+03  0.10566000000E+00 0.  1.
         13    1    4    4    0    0 -0.31636944824E+03  0.26616145584E+03  0.77954466713E+02  0.42072373168E+03  0.10566000000E+00 0. -1.
          4    1    3    3  502    0  0.40842636073E+03 -0.30338285037E+03  0.48007164691E+03  0.69951556967E+03  0.00000000000E+00 0.  1.
         -4    1    4    4    0  501  0.14005925905E+03  0.41172336791E+03 -0.10706076636E+04  0.11555663101E+04  0.00000000000E+00 0. -1.
</event>
<event>
 7    1  0.7096247E-006  0.7723369E+03  0.7818608E-02  0.9024169E-01
          2   -1    0    0  502    0  0.00000000000E+00  0.00000000000E+00  0.14118087113E+04  0.14118087113E+04  0.00000000000E+00 0.  1.
         -2   -1    0    0    0  501 -0.00000000000E+00 -0.00000000000E+00 -0.57422174612E+03  0.57422174612E+03  0.00000000000E+00 0. -1.
   -9000010    2    1    2    0  501  0.39789261830E+03  0.40877982500E+02  0.12003655134E+03  0.10776819639E+04  0.99347878516E+03 0.  0.
        -13    1    1    2    0    0 -0.25894821446E+03  0.14293039057E+03  0.25068354783E+03  0.38771835994E+03  0.10566000000E+00 0.  1.
         13    1    3    3    0    0  0.26874607254E+02  0.13968559541E+03 -0.40384647091E+03  0.42816619823E+03  0.10566000000E+00 0. -1.
          4    1    1    2  502    0 -0.13894440385E+03 -0.18380837307E+03  0.46686686601E+03  0.52063013354E+03  0.00000000000E+00 0.  1.
         -4    1    3    3    0  501  0.37101801105E+03 -0.98807612913E+02  0.52388302225E+03  0.64951576570E+03  0.00000000000E+00 0. -1.
</event>
<event>
 8    1  0.7096247E-006  0.2037276E+04  0.7818608E-02  0.8153382E-01
          4   -1    0    0  502    0  0.00000000000E+00  0.00000000000E+00  0.26350517587E+04  0.26350517587E+04  0.00000000000E+00 0.  1.
         -4   -1    0    0    0  501 -0.00000000000E+00 -0.00000000000E+00 -0.17480312829E+04  0.17480312829E+04  0.00000000000E+00 0. -1.
    9000010    2    1    2  502    0 -0.17365417292E+04  0.29318059277E+03  0.11316693397E+04  0.23255867252E+04  0.10129886895E+04 0.  0.
   -9000010    2    1    2    0  501  0.17365417292E+04 -0.29318059277E+03 -0.24464886387E+03  0.20574963164E+04  0.10353289275E+04 0.  0.
        -13    1    3    3    0    0 -0.15195870020E+04  0.42013915552E+03  0.12825699393E+04  0.20323993768E+04  0.10566000000E+00 0.  1.
         13    1    4    4    0    0  0.18728992972E+04 -0.30609883952E+03 -0.27397775051E+03  0.19174232960E+04  0.10566000000E+00 0. -1.
          4    1    3    3  502    0 -0.21695472719E+03 -0.12695856275E+03 -0.15090059959E+03  0.29318734840E+03  0.00000000000E+00 0.  1.
         -4    1    4    4    0  501 -0.13635756802E+03  0.12918246752E+02  0.29328886639E+02  0.14007302041E+03  0.00000000000E+00 0. -1.
</event>
<event>
 8    1  0.7096247E-006  0.1268745E+04  0.7818608E-02  0.8556519E-01
         -2   -1    0    0    0  501 -0.00000000000E+00  0.00000000000E+00  0.88695685503E+03  0.88695685503E+03  0.00000000000E+00 0.  1.
          2   -1    0    0  502    0  0.00000000000E+00 -0.00000000000E+00 -0.18301469131E+04  0.18301469131E+04  0.00000000000E+00 0. -1.
    9000010    2    1    2  502    0 -0.40218121818E+03 -0.67804722251E+03 -0.34755630336E+03  0.13156828735E+04  0.99434816409E+03 0.  0.
   -9000010    2    1    2    0  501  0.40218121818E+03  0.67804722251E+03 -0.59563375467E+03  0.14014208946E+04  0.99383257435E+03 0.  0.
        -13    1    3    3    0    0 -0.34092653727E+03  0.14803532019E+03 -0.31415245564E+03  0.48665915833E+03  0.10566000000E+00 0.  1.
         13    1    4    4    0    0  0.35153939864E+03  0.74949828843E+03 -0.29308263657E+02  0.82836382021E+03  0.10566000000E+00 0. -1.
          4    1    3    3  502    0 -0.61254680915E+02 -0.82608254270E+03 -0.33403847722E+02  0.82902371518E+03  0.00000000000E+00 0.  1.
         -4    1    4    4    0  501  0.50641819543E+02 -0.71451065923E+02 -0.56632549101E+03  0.57305707436E+03  0.00000000000E+00 0. -1.
</event>
<event>
 8    1  0.7096247E-006  0.1160111E+04  0.7818608E-02  0.8637221E-01
          2   -1    0    0  502    0  0.00000000000E+00  0.00000000000E+00  0.41970230057E+04  0.41970230057E+04  0.00000000000E+00 0.  1.
         -2   -1    0    0    0  501 -0.00000000000E+00 -0.00000000000E+00 -0.35748597311E+03  0.35748597311E+03  0.00000000000E+00 0. -1.
    9000010    2    1    2  502    0 -0.35892026043E+03 -0.41426334652E+03  0.27262633889E+04  0.29859949524E+04  0.10877572874E+04 0.  0.
   -9000010    2    1    2    0  501  0.35892026043E+03  0.41426334652E+03  0.11132736437E+04  0.15685140264E+04  0.95938530930E+03 0.  0.
        -13    1    3    3    0    0 -0.11095469097E+03  0.34682327736E+03  0.48786884430E+03  0.60878021451E+03  0.10566000000E+00 0.  1.
         13    1    4    4    0    0  0.11071595801E+03 -0.24835571934E+03  0.28551859154E+02  0.27341142352E+03  0.10566000000E+00 0. -1.
          4    1    3    3  502    0 -0.24796556946E+03 -0.76108662388E+03  0.22383945446E+04  0.23772147379E+04  0.00000000000E+00 0.  1.
         -4    1    4    4    0  501  0.24820430242E+03  0.66261906586E+03  0.10847217845E+04  0.12951026029E+04  0.00000000000E+00 0. -1.
</event>
<event>
 8    1  0.7096247E-006  0.1363572E+04  0.7818608E-02  0.8492620E-01
          1   -1    0    0  502    0  0.00000000000E+00  0.00000000000E+00  0.77282570491E+03  0.77282570491E+03  0.00000000000E+00 0. -1.
         -1   -1    0    0    0  501 -0.00000000000E+00 -0.00000000000E+00 -0.27524125829E+04  0.27524125829E+04  0.00000000000E+00 0.  1.
    9000010    2    1    2  502    0 -0.77026818480E+03 -0.42655533436E+03 -0.15811299881E+04  0.20569410220E+04  0.97763582121E+03 0.  0.
   -9000010    2    1    2    0  501  0.77026818480E+03  0.42655533436E+03 -0.39845688986E+03  0.14682972658E+04  0.11053806756E+04 0.  0.
        -13    1    3    3    0    0 -0.81990855651E+03 -0.21592335696E+03 -0.16279704069E+04  0.18355273340E+04  0.10566000000E+00 0.  1.
         13    1    4    4    0    0  0.49989515756E+03 -0.28047671671E+03  0.70986453148E+02  0.57758241391E+03  0.10566000000E+00 0. -1.
          4    1    3    3  502    0  0.49640371707E+02 -0.21063197739E+03  0.46840418743E+02  0.22141368800E+03  0.00000000000E+00 0.  1.
         -4    1    4    4    0  501  0.27037302724E+03  0.70703205106E+03 -0.46944334301E+03  0.89071485189E+03  0.00000000000E+00 0. -1.
</event>
<event>
 8    1  0.7096247E-006  0.1208282E+04  0.7818608E-02  0.8600352E-01
          2   -1    0    0  502    0  0.00000000000E+00  0.00000000000E+00  0.11071776302E+04  0.11071776302E+04  0.00000000000E+00 0.  1.
         -2   -1    0    0    0  501 -0.00000000000E+00 -0.00000000000E+00 -0.13536153232E+04  0.13536153232E+04  0.00000000000E+00 0. -1.
    9000010    2    1    2  502    0  0.30741890687E+03  0.59737779972E+03 -0.32090948450E+03  0.12487725128E+04  0.10025384140E+04 0.  0.
   -9000010    2    1    2    0  501 -0.30741890687E+03 -0.59737779972E+03  0.74471791450E+02  0.12120204406E+04  0.10060223063E+04 0.  0.
        -13    1    3    3    0    0  0.65770053501E+03  0.35889095780E+03 -0.61164170085E+02  0.75174050058E+03  0.10566000000E+00 0.  1.
         13    1    4    4    0    0 -0.54797200634E+03 -0.38786533048E+03  0.37904812990E+03  0.77096713955E+03  0.10566000000E+00 0. -1.
          4    1    3    3  502    0 -0.35028162813E+03  0.23848684192E+03 -0.25974531441E+03  0.49703201218E+03  0.00000000000E+00 0.  1.
         -4    1    4    4    0  501  0.24055309947E+03 -0.20951246925E+03 -0.30457633846E+03  0.44105330107E+03  0.00000000000E+00 0. -1.
</event>
<event>
 8    1  0.7096247E-006  0.1062117E+04  0.7818608E-02  0.8718320E-01
          1   -1    0    0  502    0  0.00000000000E+00  0.00000000000E+00  0.65365088660E+03  0.65365088660E+03  0.00000000000E+00 0. -1.
         -1   -1    0    0    0  501 -0.00000000000E+00 -0.00000000000E+00 -0.17375977023E+04  0.17375977023E+04  0.00000000000E+00 0.  1.
    9000010    2    1    2  502    0  0.16467078560E+03 -0.31281551459E+03 -0.63648251283E+03  0.12322372482E+04  0.99414718872E+03 0.  0.
   -9000010    2    1    2    0  501 -0.16467078560E+03  0.31281551459E+03 -0.44746430290E+03  0.11590113408E+04  0.10090158432E+04 0.  0.
        -13    1    3    3    0    0 -0.73980994510E+02 -0.37321344169E+03  0.14935708835E+03  0.40874076334E+03  0.10566000000E+00 0.  1.
         13    1    4    4    0    0 -0.36000621849E+03  0.54714616677E+03 -0.53048838883E+03  0.84284716706E+03  0.10566000000E+00 0. -1.
          4    1    3    3  502    0  0.23865178011E+03  0.60397927095E+02 -0.78583960118E+03  0.82349648483E+03  0.00000000000E+00 0.  1.
         -4    1    4    4    0  501  0.19533543290E+03 -0.23433065217E+03  0.83024085938E+02  0.31616417371E+03  0.00000000000E+00 0. -1.
</event>
<event>
 8    1  0.7096247E-006  0.1240891E+04  0.7818608E-02  0.8576390E-01
          2   -1    0    0  502    0  0.00000000000E+00  0.00000000000E+00  0.18868338804E+04  0.18868338804E+04  0.00000000000E+00 0. -1.
         -2   -1    0    0    0  501 -0.00000000000E+00 -0.00000000000E+00 -0.83268344494E+03  0.83268344494E+03  0.00000000000E+00 0.  1.
    9000010    2    1    2  502    0  0.35436221874E+03  0.61380904262E+03  0.32919150029E+03  0.12683745951E+04  0.99903600880E+03 0.  0.
   -9000010    2    1    2    0  501 -0.35436221874E+03 -0.61380904262E+03  0.72495893516E+03  0.14511427302E+04  0.10382271634E+04 0.  0.
        -13    1    3    3    0    0  0.36339940868E+03  0.74514597688E+02 -0.27252140757E+03  0.46030368698E+03  0.10566000000E+00 0.  1.
         13    1    4    4    0    0 -0.59647959087E+03 -0.90524613637E+02  0.61998843737E+03  0.86508281779E+03  0.10566000000E+00 0. -1.
          4    1    3    3  502    0 -0.90371899399E+01  0.53929444493E+03  0.60171290786E+03  0.80807090817E+03  0.00000000000E+00 0.  1.
         -4    1    4    4    0  501  0.24211737214E+03 -0.52328442898E+03  0.10497049779E+03  0.58605991239E+03  0.00000000000E+00 0. -1.
</event>
<event>
 8    1  0.7096247E-006  0.1419191E+04  0.7818608E-02  0.8457578E-01
         -1   -1    0    0    0  501 -0.00000000000E+00  0.00000000000E+00  0.39962846896E+04  0.39962846896E+04  0.00000000000E+00 0. -1.
          1   -1    0    0  502    0  0.00000000000E+00 -0.00000000000E+00 -0.50555895909E+03  0.50555895909E+03  0.00000000000E+00 0.  1.
    9000010    2    1    2  502    0  0.70763851353E+03 -0.69403617772E+03  0.16317897861E+04  0.21684488607E+04  0.10281021709E+04 0.  0.
   -9000010    2    1    2    0  501 -0.70763851353E+03  0.69403617772E+03  0.18589359445E+04  0.23333947880E+04  0.10033194452E+04 0.  0.
        -13    1    3    3    0    0  0.28490426393E+03 -0.64709299046E+03  0.29585516390E+03  0.76643986527E+03  0.10566000000E+00 0.  1.
         13    1    4    4    0    0 -0.40205958533E+03  0.18257080535E+03  0.16403831496E+04  0.16987762942E+04  0.10566000000E+00 0. -1.
          4    1    3    3  502    0  0.42273424960E+03 -0.46943187258E+02  0.13359346222E+04  0.14020089955E+04  0.00000000000E+00 0.  1.
         -4    1    4    4    0  501 -0.30557892820E+03  0.51146537237E+03  0.21855279486E+03  0.63461849377E+03  0.00000000000E+00 0. -1.
</event>
<event>
 8    1  0.7096247E-006  0.1740515E+04  0.7818608E-02  0.8283102E-01
         -1   -1    0    0    0  501 -0.00000000000E+00  0.00000000000E+00  0.86589220129E+03  0.86589220129E+03  0.00000000000E+00 0. -1.
          1   -1    0    0  502    0  0.00000000000E+00 -0.00000000000E+00 -0.35495546628E+04  0.35495546628E+04  0.00000000000E+00 0.  1.
    9000010    2    1    2  502    0  0.10377367953E+04  0.98046272302E+03 -0.10860502207E+04  0.20609885810E+04  0.10148714409E+04 0.  0.
   -9000010    2    1    2    0  501 -0.10377367953E+04 -0.98046272302E+03 -0.15976122408E+04  0.23544582830E+04  0.97616808348E+03 0.  0.
        -13    1    3    3    0    0  0.95835058042E+03  0.25313189191E+03 -0.80606356378E+03  0.12775954249E+04  0.10566000000E+00 0.  1.
         13    1    4    4    0    0 -0.86803438947E+03 -0.11576168547E+04 -0.15166161542E+04  0.20961118897E+04  0.10566000000E+00 0. -1.
          4    1    3    3  502    0  0.79386214875E+02  0.72733083110E+03 -0.27998665692E+03  0.78339315611E+03  0.00000000000E+00 0.  1.
         -4    1    4    4    0  501 -0.16970240583E+03  0.17715413172E+03 -0.80996086571E+02  0.25834639337E+03  0.00000000000E+00 0. -1.
</event>
<event>
 8    1  0.7096247E-006  0.1128155E+04  0.7818608E-02  0.8662721E-01
          1   -1    0    0  502    0  0.00000000000E+00  0.00000000000E+00  0.18334041735E+04  0.18334041735E+04  0.00000000000E+00 0. -1.
         -1   -1    0    0    0  501 -0.00000000000E+00 -0.00000000000E+00 -0.77755492521E+03  0.77755492521E+03  0.00000000000E+00 0.  1.
    9000010    2    1    2  502    0  0.48734531562E+03 -0.16936898728E+03  0.95708215673E+03  0.14825986578E+04  0.10079192502E+04 0.  0.
   -9000010    2    1    2    0  501 -0.48734531562E+03  0.16936898728E+03  0.98767091550E+02  0.11283604409E+04  0.99862457194E+03 0.  0.
        -13    1    3    3    0    0  0.95691480193E+02 -0.26074516813E+03 -0.14221715306E+03  0.31204267636E+03  0.10566000000E+00 0.  1.
         13    1    4    4    0    0 -0.24971442462E+03  0.85238616933E+02  0.55082754788E+03  0.61076502384E+03  0.10566000000E+00 0. -1.
          4    1    3    3  502    0  0.39165383542E+03  0.91376180850E+02  0.10992993098E+04  0.11705559815E+04  0.00000000000E+00 0.  1.
         -4    1    4    4    0  501 -0.23763089099E+03  0.84130370346E+02 -0.45206045633E+03  0.51759541704E+03  0.00000000000E+00 0. -1.
</event>
<event>
 8    1  0.7096247E-006  0.1504444E+04  0.7818608E-02  0.8406946E-01
          2   -1    0    0  502    0  0.00000000000E+00  0.00000000000E+00  0.25340110651E+04  0.25340110651E+04  0.00000000000E+00 0. -1.
         -2   -1    0    0    0  501 -0.00000000000E+00 -0.00000000000E+00 -0.10461931784E+04  0.10461931784E+04  0.00000000000E+00 0.  1.
    9000010    2    1    2  502    0 -0.70440962320E+03  0.87808034664E+03  0.63305616438E+02  0.15150066315E+04  0.10119384764E+04 0.  0.
   -9000010    2    1    2    0  501  0.70440962320E+03 -0.87808034664E+03  0.14245122702E+04  0.20651976120E+04  0.98416866253E+03 0.  0.
        -13    1    3    3    0    0 -0.23872521326E+03  0.95819986472E+03 -0.14595353786E+03  0.99821798950E+03  0.10566000000E+00 0.  1.
         13    1    4    4    0    0  0.56053259631E+03 -0.99036532957E+01  0.83583871459E+03  0.10064398849E+04  0.10566000000E+00 0. -1.
          4    1    3    3  502    0 -0.46568440993E+03 -0.80119518078E+02  0.20925915430E+03  0.51678864199E+03  0.00000000000E+00 0.  1.
         -4    1    4    4    0  501  0.14387702688E+03 -0.86817669334E+03  0.58867355565E+03  0.10587577272E+04  0.00000000000E+00 0. -1.
</event>
<event>
 8    1  0.7096247E-006  0.1363595E+04  0.7818608E-02  0.8492605E-01
         -1   -1    0    0    0  501 -0.00000000000E+00  0.00000000000E+00  0.85332082144E+03  0.85332082144E+03  0.00000000000E+00 0. -1.
          1   -1    0    0  502    0  0.00000000000E+00 -0.00000000000E+00 -0.32689515970E+04  0.32689515970E+04  0.00000000000E+00 0.  1.
    9000010    2    1    2  502    0 -0.49235763810E+03 -0.79022294755E+03 -0.23964633438E+04  0.27559917503E+04  0.99276664880E+03 0.  0.
   -9000010    2    1    2    0  501  0.49235763810E+03  0.79022294755E+03 -0.19167431759E+02  0.13662806681E+04  0.99974352863E+03 0.  0.
        -13    1    3    3    0    0 -0.38188588433E+03  0.80439722868E+00 -0.15326613477E+04  0.15795215394E+04  0.10566000000E+00 0.  1.
         13    1    4    4    0    0 -0.24246582883E+02  0.83017692230E+03 -0.11775745692E+03  0.83883755813E+03  0.10566000000E+00 0. -1.
          4    1    3    3  502    0 -0.11047175377E+03 -0.79102734478E+03 -0.86380199612E+03  0.11764702109E+04  0.00000000000E+00 0.  1.
         -4    1    4    4    0  501  0.51660422098E+03 -0.39953974742E+02  0.98590025166E+02  0.52744311001E+03  0.00000000000E+00 0. -1.
</event>
<event>
 8    1  0.7096247E-006  0.1153269E+04  0.7818608E-02  0.8642608E-01
          1   -1    0    0  502    0  0.00000000000E+00  0.00000000000E+00  0.24961051724E+04  0.24961051724E+04  0.00000000000E+00 0. -1.
         -1   -1    0    0    0  501 -0.00000000000E+00 -0.00000000000E+00 -0.53927580221E+03  0.53927580221E+03  0.00000000000E+00 0.  1.
    9000010    2    1    2  502    0 -0.45454023272E+03 -0.38348474582E+03  0.11526186203E+04  0.16381937302E+04  0.10007405459E+04 0.  0.
   -9000010    2    1    2    0  501  0.45454023272E+03  0.38348474582E+03  0.80421074989E+03  0.13971872445E+04  0.97555619647E+03 0.  0.
        -13    1    3    3    0    0  0.18875333624E+03 -0.41928172110E+03  0.74600235998E+03  0.87632443527E+03  0.10566000000E+00 0.  1.
         13    1    4    4    0    0 -0.27104997737E+03  0.20422153940E+03  0.64163993325E+02  0.34538609785E+03  0.10566000000E+00 0. -1.
          4    1    3    3  502    0 -0.64329356896E+03  0.35796975274E+02  0.40661626036E+03  0.76186929489E+03  0.00000000000E+00 0.  1.
         -4    1    4    4    0  501  0.72559021009E+03  0.17926320642E+03  0.74004675656E+03  0.10518011466E+04  0.00000000000E+00 0. -1.
</event>
<event>
 8    1  0.7096247E-006  0.1133856E+04  0.7818608E-02  0.8658107E-01
          2   -1    0    0  502    0  0.00000000000E+00  0.00000000000E+00  0.19471003768E+04  0.19471003768E+04  0.00000000000E+00 0. -1.
         -2   -1    0    0    0  501 -0.00000000000E+00 -0.00000000000E+00 -0.15765619438E+04  0.15765619438E+04  0.00000000000E+00 0.  1.
    9000010    2    1    2  502    0 -0.43812811200E+03 -0.28076989025E+03  0.15280091705E+04  0.18993837079E+04  0.10010287063E+04 0.  0.
   -9000010    2    1    2    0  501  0.43812811200E+03  0.28076989025E+03 -0.11574707374E+04  0.16242786127E+04  0.10137822892E+04 0.  0.
        -13    1    3    3    0    0 -0.70977706792E+03 -0.76068560772E+02  0.13200693064E+04  0.15007174607E+04  0.10566000000E+00 0.  1.
         13    1    4    4    0    0 -0.23963133825E+03  0.30590214695E+03 -0.71713157162E+03  0.81564514585E+03  0.10566000000E+00 0. -1.
          4    1    3    3  502    0  0.27164895591E+03 -0.20470132948E+03  0.20793986414E+03  0.39866624718E+03  0.00000000000E+00 0.  1.
         -4    1    4    4    0  501  0.67775945025E+03 -0.25132256695E+02 -0.44033916582E+03  0.80863346684E+03  0.00000000000E+00 0. -1.
</event>
<event>
 8    1  0.7096247E-006  0.1041914E+04  0.7818608E-02  0.8736177E-01
          1   -1    0    0  502    0  0.00000000000E+00  0.00000000000E+00  0.15622719410E+04  0.15622719410E+04  0.00000000000E+00 0. -1.
         -1   -1    0    0    0  501 -0.00000000000E+00 -0.00000000000E+00 -0.74336070226E+03  0.74336070226E+03  0.00000000000E+00 0.  1.
    9000010    2    1    2  502    0  0.41132731380E+02 -0.36606780299E+03  0.10641977798E+03  0.10200358871E+04  0.94522510747E+03 0.  0.
   -9000010    2    1    2    0  501 -0.41132731380E+02  0.36606780299E+03  0.71249146079E+03  0.12855967562E+04  0.10046976659E+04 0.  0.
        -13    1    3    3    0    0  0.31808919876E+03  0.18059153885E+03 -0.89677033636E+02  0.37661123696E+03  0.10566000000E+00 0.  1.
         13    1    4    4    0    0 -0.83448510697E+02  0.67406968946E+03  0.69864813173E+03  0.97439356695E+03  0.10566000000E+00 0. -1.
          4    1    3    3  502    0 -0.27695646738E+03 -0.54665934184E+03  0.19609681162E+03  0.64342465011E+03  0.00000000000E+00 0.  1.
         -4    1    4    4    0  501  0.42315779317E+02 -0.30800188647E+03  0.13843329064E+02  0.31120318927E+03  0.00000000000E+00 0. -1.
</event>
<event>
 8    1  0.7096247E-006  0.1275119E+04  0.7818608E-02  0.8552046E-01
          2   -1    0    0  502    0  0.00000000000E+00  0.00000000000E+00  0.13823619195E+04  0.13823619195E+04  0.00000000000E+00 0.  1.
         -2   -1    0    0    0  501 -0.00000000000E+00 -0.00000000000E+00 -0.11827618933E+04  0.11827618933E+04  0.00000000000E+00 0. -1.
    9000010    2    1    2  502    0 -0.33397291398E+03  0.70047800091E+03  0.47114702536E+01  0.12797907856E+04  0.10176614957E+04 0.  0.
   -9000010    2    1    2    0  501  0.33397291398E+03 -0.70047800091E+03  0.19488855594E+03  0.12853330272E+04  0.10059284788E+04 0.  0.
        -13    1    3    3    0    0  0.33871104465E+03  0.92270097829E+02 -0.10471452049E+03  0.36633875674E+03  0.10566000000E+00 0.  1.
         13    1    4    4    0    0 -0.10010394344E+03 -0.52038790050E+03  0.49710513968E+03  0.72659335087E+03  0.10566000000E+00 0. -1.
          4    1    3    3  502    0 -0.67268395863E+03  0.60820790308E+03  0.10942599075E+03  0.91345202885E+03  0.00000000000E+00 0.  1.
         -4    1    4    4    0  501  0.43407685742E+03 -0.18009010041E+03 -0.30221658374E+03  0.55873967632E+03  0.00000000000E+00 0. -1.
</event>
<event>
 7    1  0.7096247E-006  0.8592565E+03  0.7818608E-02  0.8919423E-01
         -2   -1    0    0    0  501 -0.00000000000E+00  0.00000000000E+00  0.43589692852E+03  0.43589692852E+03  0.00000000000E+00 0.  1.
          2   -1    0    0  502    0  0.00000000000E+00 -0.00000000000E+00 -0.18533665181E+04  0.18533665181E+04  0.00000000000E+00 0. -1.
   -9000010    2    1    2    0  501 -0.82688967824E+02 -0.26500202420E+03 -0.10967720860E+04  0.14919931666E+04  0.97266184385E+03 0.  0.
        -13    1    1    2    0    0 -0.24809791113E+03  0.44298098399E+02 -0.30993619615E+03  0.39946883718E+03  0.10566000000E+00 0.  1.
         13    1    3    3    0    0 -0.38187905955E+03 -0.19428215104E+03 -0.87985077116E+02  0.43739976599E+03  0.10566000000E+00 0. -1.
          4    1    1    2  502    0  0.33078687896E+03  0.22070392580E+03 -0.10761307458E+02  0.39780144280E+03  0.00000000000E+00 0.  1.
         -4    1    3    3    0  501  0.29919009172E+03 -0.70719873161E+02 -0.10087870088E+04  0.10545934006E+04  0.00000000000E+00 0. -1.
</event>
<event>
 8    1  0.7096247E-006  0.1477969E+04  0.7818608E-02  0.8422292E-01
         -2   -1    0    0    0  501 -0.00000000000E+00  0.00000000000E+00  0.77553020952E+03  0.77553020952E+03  0.00000000000E+00 0.  1.
          2   -1    0    0  502    0  0.00000000000E+00 -0.00000000000E+00 -0.28316119326E+04  0.28316119326E+04  0.00000000000E+00 0. -1.
    9000010    2    1    2  502    0  0.10860582793E+04 -0.64966771140E+02 -0.89348558324E+03  0.17226427522E+04  0.99269244823E+03 0.  0.
   -9000010    2    1    2    0  501 -0.10860582793E+04  0.64966771140E+02 -0.11625961399E+04  0.18844993900E+04  0.10079508415E+04 0.  0.
        -13    1    3    3    0    0  0.69125093899E+02 -0.18560243058E+03 -0.63681507934E+03  0.66690328930E+03  0.10566000000E+00 0.  1.
         13    1    4    4    0    0 -0.61528777812E+03 -0.46724342679E+03 -0.60265085643E+03  0.97983852532E+03  0.10566000000E+00 0. -1.
          4    1    3    3  502    0  0.10169331854E+04  0.12063565944E+03 -0.25667050390E+03  0.10557394629E+04  0.00000000000E+00 0.  1.
         -4    1    4    4    0  501 -0.47077050119E+03  0.53221019793E+03 -0.55994528343E+03  0.90466086464E+03  0.00000000000E+00 0. -1.
</event>
<event>
 8    1  0.7096247E-006  0.1047907E+04  0.7818608E-02  0.8730836E-01
          2   -1    0    0  502    0  0.00000000000E+00  0.00000000000E+00  0.94822177356E+03  0.94822177356E+03  0.00000000000E+00 0.  1.
         -2   -1    0    0    0  501 -0.00000000000E+00 -0.00000000000E+00 -0.12301479620E+04  0.12301479620E+04  0.00000000000E+00 0. -1.
    9000010    2    1    2  502    0 -0.48909169606E+02 -0.30576609382E+03 -0.40420701731E+03  0.11203432815E+04  0.99794826753E+03 0.  0.
   -9000010    2    1    2    0  501  0.48909169606E+02  0.30576609382E+03  0.12228082890E+03  0.10580264540E+04  0.10042820148E+04 0.  0.
        -13    1    3    3    0    0  0.18587956725E+03 -0.24008555316E+03  0.26818740074E+03  0.40511329210E+03  0.10566000000E+00 0.  1.
         13    1    4    4    0    0  0.30225188088E+03  0.93675298723E+02  0.47754416234E+03  0.57286970529E+03  0.10566000000E+00 0. -1.
          4    1    3    3  502    0 -0.23478873686E+03 -0.65680540653E+02 -0.67239441805E+03  0.71522998945E+03  0.00000000000E+00 0.  1.
         -4    1    4    4    0  501 -0.25334271128E+03  0.21209079509E+03 -0.35526333344E+03  0.48515674870E+03  0.00000000000E+00 0. -1.
</event>
<event>
 8    1  0.7096247E-006  0.1435924E+04  0.7818608E-02  0.8447357E-01
          2   -1    0    0  502    0  0.00000000000E+00  0.00000000000E+00  0.27454654863E+04  0.27454654863E+04  0.00000000000E+00 0.  1.
         -2   -1    0    0    0  501 -0.00000000000E+00 -0.00000000000E+00 -0.75249657531E+03  0.75249657531E+03  0.00000000000E+00 0. -1.
    9000010    2    1    2  502    0  0.93550352095E+03  0.39694381933E+03  0.10772384753E+04  0.17988714833E+04  0.10211584831E+04 0.  0.
   -9000010    2    1    2    0  501 -0.93550352095E+03 -0.39694381933E+03  0.91573043567E+03  0.16990905782E+04  0.10077774203E+04 0.  0.
        -13    1    3    3    0    0  0.11278452778E+04  0.18429187549E+03  0.76649191104E+03  0.13760480830E+04  0.10566000000E+00 0.  1.
         13    1    4    4    0    0 -0.57612590633E+03 -0.97418723498E+02  0.10592660146E+04  0.12097338420E+04  0.10566000000E+00 0. -1.
          4    1    3    3  502    0 -0.19234175684E+03  0.21265194385E+03  0.31074656425E+03  0.42282340030E+03  0.00000000000E+00 0.  1.
         -4    1    4    4    0  501 -0.35937761462E+03 -0.29952509583E+03 -0.14353557889E+03  0.48935673627E+03  0.00000000000E+00 0. -1.
</event>
<event>
 8    1  0.7096247E-006  0.1057117E+04  0.7818608E-02  0.8722700E-01
          2   -1    0    0  502    0  0.00000000000E+00  0.00000000000E+00  0.11457071830E+04  0.11457071830E+04  0.00000000000E+00 0.  1.
         -2   -1    0    0    0  501 -0.00000000000E+00 -0.00000000000E+00 -0.98627511252E+03  0.98627511252E+03  0.00000000000E+00 0. -1.
    9000010    2    1    2  502    0 -0.36198702773E+03  0.65058374112E+02 -0.32048567467E+02  0.10382103463E+04  0.97035375619E+03 0.  0.
   -9000010    2    1    2    0  501  0.36198702773E+03 -0.65058374112E+02  0.19148063792E+03  0.10937719492E+04  0.10121289651E+04 0.  0.
        -13    1    3    3    0    0 -0.49043936029E+03  0.87808874723E+02  0.36671924417E+03  0.61864705593E+03  0.10566000000E+00 0.  1.
         13    1    4    4    0    0  0.17657947222E+03 -0.11728853802E+03 -0.41034819584E+03  0.46186855722E+03  0.10566000000E+00 0. -1.
          4    1    3    3  502    0  0.12845233256E+03 -0.22750500612E+02 -0.39876781163E+03  0.41956329035E+03  0.00000000000E+00 0.  1.
         -4    1    4    4    0  501  0.18540755552E+03  0.52230163911E+02  0.60182883376E+03  0.63190339199E+03  0.00000000000E+00 0. -1.
</event>
<event>
 8    1  0.7096247E-006  0.1624424E+04  0.7818608E-02  0.8341285E-01
         -2   -1    0    0    0  501 -0.00000000000E+00  0.00000000000E+00  0.34400445339E+04  0.34400445339E+04  0.00000000000E+00 0.  1.
          2   -1    0    0  502    0  0.00000000000E+00 -0.00000000000E+00 -0.92037484942E+03  0.92037484942E+03  0.00000000000E+00 0. -1.
    9000010    2    1    2  502    0 -0.11516557648E+04  0.60776314406E+03  0.38111360064E+03  0.16848999689E+04  0.99897612017E+03 0.  0.
   -9000010    2    1    2    0  501  0.11516557648E+04 -0.60776314406E+03  0.21385560839E+04  0.26755194145E+04  0.94302437590E+03 0.  0.
        -13    1    3    3    0    0 -0.13341386847E+04  0.53779471094E+03  0.28226207136E+03  0.14658857627E+04  0.10566000000E+00 0.  1.
         13    1    4    4    0    0 -0.12400802285E+03 -0.23133974268E+03  0.22851209794E+03  0.34801416112E+03  0.10566000000E+00 0. -1.
          4    1    3    3  502    0  0.18248291989E+03  0.69968433115E+02  0.98851529284E+02  0.21901420622E+03  0.00000000000E+00 0.  1.
         -4    1    4    4    0  501  0.12756637876E+04 -0.37642340138E+03  0.19100439859E+04  0.23275052533E+04  0.00000000000E+00 0. -1.
</event>
<event>
 8    1  0.7096247E-006  0.1081525E+04  0.7818608E-02  0.8701551E-01
         -1   -1    0    0    0  501 -0.00000000000E+00  0.00000000000E+00  0.91454499730E+03  0.91454499730E+03  0.00000000000E+00 0. -1.
          1   -1    0    0  502    0  0.00000000000E+00 -0.00000000000E+00 -0.13361404857E+04  0.13361404857E+04  0.00000000000E+00 0.  1.
    9000010    2    1    2  502    0 -0.71249923450E+02 -0.39900082592E+03  0.23514372283E+02  0.10722009634E+04  0.99236272075E+03 0.  0.
   -9000010    2    1    2    0  501  0.71249923450E+02  0.39900082592E+03 -0.44510986066E+03  0.11784845196E+04  0.10131262331E+04 0.  0.
        -13    1    3    3    0    0  0.64253908169E+02 -0.69389352072E+03  0.16820104771E+03  0.71687403805E+03  0.10566000000E+00 0.  1.
         13    1    4    4    0    0  0.50644422348E+03  0.50509720679E+02 -0.33742651548E+03  0.61065018455E+03  0.10566000000E+00 0. -1.
          4    1    3    3  502    0 -0.13550383162E+03  0.29489269480E+03 -0.14468667543E+03  0.35532692535E+03  0.00000000000E+00 0.  1.
         -4    1    4    4    0  501 -0.43519430003E+03  0.34849110524E+03 -0.10768334518E+03  0.56783433503E+03  0.00000000000E+00 0. -1.
</event>
<event>
 7    1  0.7096247E-006  0.8921799E+03  0.7818608E-02  0.8883081E-01
         -2   -1    0    0    0  501 -0.00000000000E+00  0.00000000000E+00  0.42096481509E+03  0.42096481509E+03  0.00000000000E+00 0. -1.
          2   -1    0    0  502    0  0.00000000000E+00 -0.00000000000E+00 -0.20549416800E+04  0.20549416800E+04  0.00000000000E+00 0.  1.
   -9000010    2    1    2    0  501  0.13934487951E+03 -0.35676543547E+03 -0.71092053191E+03  0.12964749890E+04  0.10142686148E+04 0.  0.
        -13    1    1    2    0    0  0.58562823022E+02 -0.11067246788E+03 -0.50956984165E+03  0.52472796196E+03  0.10566000000E+00 0.  1.
         13    1    3    3    0    0  0.16282991666E+03 -0.96522150527E+02 -0.93394707335E+03  0.95293612288E+03  0.10566000000E+00 0. -1.
          4    1    1    2  502    0 -0.19790770253E+03  0.46743790336E+03 -0.41348649138E+03  0.65470354419E+03  0.00000000000E+00 0.  1.
         -4    1    3    3    0  501 -0.23485037150E+02 -0.26024328495E+03  0.22302654144E+03  0.34353886609E+03  0.00000000000E+00 0. -1.
</event>
<event>
 8    1  0.7096247E-006  0.1131186E+04  0.7818608E-02  0.8660264E-01
          2   -1    0    0  502    0  0.00000000000E+00  0.00000000000E+00  0.31436891906E+04  0.31436891906E+04  0.00000000000E+00 0. -1.
         -2   -1    0    0    0  501 -0.00000000000E+00 -0.00000000000E+00 -0.41170570082E+03  0.41170570082E+03  0.00000000000E+00 0.  1.
    9000010    2    1    2  502    0 -0.24163540221E+03  0.46286611641E+03  0.15607560000E+04  0.19302827887E+04  0.10086623040E+04 0.  0.
   -9000010    2    1    2    0  501  0.24163540221E+03 -0.46286611641E+03  0.11712274898E+04  0.16251121027E+04  0.99828993999E+03 0.  0.
        -13    1    3    3    0    0  0.49560990856E+02  0.32119023187E+03 -0.11331389538E+02  0.32518897339E+03  0.10566000000E+00 0.  1.
         13    1    4    4    0    0  0.52691242224E+03 -0.60690479107E+03  0.78047580943E+03  0.11203180916E+04  0.10566000000E+00 0. -1.
          4    1    3    3  502    0 -0.29119639307E+03  0.14167588454E+03  0.15720873895E+04  0.16050938153E+04  0.00000000000E+00 0.  1.
         -4    1    4    4    0  501 -0.28527702003E+03  0.14403867466E+03  0.39075168037E+03  0.50479401112E+03  0.00000000000E+00 0. -1.
</event>
<event>
 8    1  0.7096247E-006  0.1060645E+04  0.7818608E-02  0.8719607E-01
          2   -1    0    0  502    0  0.00000000000E+00  0.00000000000E+00  0.21471404842E+04  0.21471404842E+04  0.00000000000E+00 0.  1.
         -2   -1    0    0    0  501 -0.00000000000E+00 -0.00000000000E+00 -0.52394017930E+03  0.52394017930E+03  0.00000000000E+00 0. -1.
    9000010    2    1    2  502    0  0.60646318197E+02 -0.35910773937E+03  0.81366729883E+03  0.13387279315E+04  0.99875004735E+03 0.  0.
   -9000010    2    1    2    0  501 -0.60646318197E+02  0.35910773937E+03  0.80953300603E+03  0.13323527319E+04  0.99357122041E+03 0.  0.
        -13    1    3    3    0    0 -0.34614944990E+03  0.62972266172E+02  0.63490894132E+03  0.72587486725E+03  0.10566000000E+00 0.  1.
         13    1    4    4    0    0 -0.13537643089E+03  0.62049297933E+03  0.20146264473E+03  0.66627736254E+03  0.10566000000E+00 0. -1.
          4    1    3    3  502    0  0.40679576809E+03 -0.42208000554E+03  0.17875835751E+03  0.61285306428E+03  0.00000000000E+00 0.  1.
         -4    1    4    4    0  501  0.74730112698E+02 -0.26138523996E+03  0.60807036130E+03  0.66607536939E+03  0.00000000000E+00 0. -1.
</event>
<event>
 8    1  0.7096247E-006  0.1270230E+04  0.7818608E-02  0.8555474E-01
         -2   -1    0    0    0  501 -0.00000000000E+00  0.00000000000E+00  0.61072171194E+03  0.61072171194E+03  0.00000000000E+00 0.  1.
          2   -1    0    0  502    0  0.00000000000E+00 -0.00000000000E+00 -0.26478191036E+04  0.26478191036E+04  0.00000000000E+00 0. -1.
    9000010    2    1    2  502    0  0.37779901151E+03 -0.70077913458E+03 -0.10865956205E+04  0.16642389927E+04  0.97733202837E+03 0.  0.
   -9000010    2    1    2    0  501 -0.37779901151E+03  0.70077913458E+03 -0.95050177113E+03  0.15943018228E+04  0.10022580490E+04 0.  0.
        -13    1    3    3    0    0 -0.24079915298E+03 -0.46547720014E+03 -0.20703603410E+03  0.56348663383E+03  0.10566000000E+00 0.  1.
         13    1    4    4    0    0 -0.33802221355E+03 -0.30861051544E+02  0.61435735894E+02  0.34494315787E+03  0.10566000000E+00 0. -1.
          4    1    3    3  502    0  0.61859816449E+03 -0.23530193444E+03 -0.87955958640E+03  0.11007523588E+04  0.00000000000E+00 0.  1.
         -4    1    4    4    0  501 -0.39776797960E+02  0.73164018612E+03 -0.10119375070E+04  0.12493586650E+04  0.00000000000E+00 0. -1.
</event>
<event>
 8    1  0.7096247E-006  0.1599199E+04  0.7818608E-02  0.8354591E-01
          2   -1    0    0  502    0  0.00000000000E+00  0.00000000000E+00  0.90375996797E+03  0.90375996797E+03  0.00000000000E+00 0.  1.
         -2   -1    0    0    0  501 -0.00000000000E+00 -0.00000000000E+00 -0.36041565588E+04  0.36041565588E+04  0.00000000000E+00 0. -1.
    9000010    2    1    2  502    0  0.63655665122E+03 -0.10606819301E+04 -0.30765620550E+03  0.16318144011E+04  0.10187813170E+04 0.  0.
   -9000010    2    1    2    0  501 -0.63655665122E+03  0.10606819301E+04 -0.23927403854E+04  0.28761021257E+04  0.10082194000E+04 0.  0.
        -13    1    3    3    0    0  0.25898128314E+03 -0.21719606775E+03  0.35841727213E+03  0.49265443161E+03  0.10566000000E+00 0.  1.
         13    1    4    4    0    0  0.77942198842E+02  0.15403478218E+03  0.45400262081E+02  0.17850180795E+03  0.10566000000E+00 0. -1.
          4    1    3    3  502    0  0.37757536808E+03 -0.84348586232E+03 -0.66607347763E+03  0.11391599695E+04  0.00000000000E+00 0.  1.
         -4    1    4    4    0  501 -0.71449885006E+03  0.90664714789E+03 -0.24381406474E+04  0.26976003177E+04  0.00000000000E+00 0. -1.
</event>
<event>
 8    1  0.7096247E-006  0.1921589E+04  0.7818608E-02  0.8201085E-01
          1   -1    0    0  502    0  0.00000000000E+00  0.00000000000E+00  0.10203020835E+04  0.10203020835E+04  0.00000000000E+00 0. -1.
         -1   -1    0    0    0  501 -0.00000000000E+00 -0.00000000000E+00 -0.36455656078E+04  0.36455656078E+04  0.00000000000E+00 0.  1.
    9000010    2    1    2  502    0  0.12758950682E+04 -0.10195121424E+04 -0.11134547764E+04  0.22206917514E+04  0.10121151526E+04 0.  0.
   -9000010    2    1    2    0  501 -0.12758950682E+04  0.10195121424E+04 -0.15118087479E+04  0.24451759399E+04  0.10129197666E+04 0.  0.
        -13    1    3    3    0    0  0.11479723713E+04 -0.94266930943E+03 -0.13054378254E+04  0.19775322802E+04  0.10566000000E+00 0.  1.
         13    1    4    4    0    0 -0.21000744565E+03 -0.12234670601E+03 -0.57376831483E+03  0.62312272785E+03  0.10566000000E+00 0. -1.
          4    1    3    3  502    0  0.12792269691E+03 -0.76842832995E+02  0.19198304893E+03  0.24315947122E+03  0.00000000000E+00 0.  1.
         -4    1    4    4    0  501 -0.10658876225E+04  0.11418588484E+04 -0.93804043303E+03  0.18220532121E+04  0.00000000000E+00 0. -1.
</event>
<event>
 8    1  0.7096247E-006  0.1397559E+04  0.7818608E-02  0.8471008E-01
          1   -1    0    0  502    0  0.00000000000E+00  0.00000000000E+00  0.33673008986E+04  0.33673008986E+04  0.00000000000E+00 0.  1.
         -1   -1    0    0    0  501 -0.00000000000E+00 -0.00000000000E+00 -0.60937235916E+03  0.60937235916E+03  0.00000000000E+00 0. -1.
    9000010    2    1    2  502    0 -0.96462887754E+03  0.13318715345E+03  0.94454418231E+03  0.16884049475E+04  0.10051367396E+04 0.  0.
   -9000010    2    1    2    0  501  0.96462887754E+03 -0.13318715345E+03  0.18133843571E+04  0.22882683102E+04  0.99978064782E+03 0.  0.
        -13    1    3    3    0    0 -0.78688773956E+03  0.23828606893E+03  0.11096319342E+03  0.82962968051E+03  0.10566000000E+00 0.  1.
         13    1    4    4    0    0 -0.10949927540E+03 -0.27509524876E+03  0.25802961572E+03  0.39274263960E+03  0.10566000000E+00 0. -1.
          4    1    3    3  502    0 -0.17774113798E+03 -0.10509891548E+03  0.83358098889E+03  0.85877526700E+03  0.00000000000E+00 0.  1.
         -4    1    4    4    0  501  0.10741281529E+04  0.14190809532E+03  0.15553547414E+04  0.18955256706E+04  0.00000000000E+00 0. -1.
</event>
<event>
 8    1  0.7096247E-006  0.1408021E+04  0.7818608E-02  0.8464482E-01
         -1   -1    0    0    0  501 -0.00000000000E+00  0.00000000000E+00  0.14793761138E+04  0.14793761138E+04  0.00000000000E+00 0.  1.
          1   -1    0    0  502    0  0.00000000000E+00 -0.00000000000E+00 -0.18429009193E+04  0.18429009193E+04  0.00000000000E+00 0. -1.
    9000010    2    1    2  502    0 -0.20065370546E+03 -0.95036559678E+03  0.68687598108E+03  0.15563814858E+04  0.10035277967E+04 0.  0.
   -9000010    2    1    2    0  501  0.20065370546E+03  0.95036559678E+03 -0.10504007865E+04  0.17658955473E+04  0.10351756347E+04 0.  0.
        -13    1    3    3    0    0  0.13550459998E+03 -0.25937636166E+03  0.73028569584E+03  0.78673680626E+03  0.10566000000E+00 0.  1.
         13    1    4    4    0    0 -0.34724805729E+03  0.76667386835E+03 -0.62169522331E+03  0.10463627457E+04  0.10566000000E+00 0. -1.
          4    1    3    3  502    0 -0.33615830544E+03 -0.69098923511E+03 -0.43409714763E+02  0.76964467950E+03  0.00000000000E+00 0.  1.
         -4    1    4    4    0  501  0.54790176275E+03  0.18369172843E+03 -0.42870556320E+03  0.71953280164E+03  0.00000000000E+00 0. -1.
</event>
<event>
 8    1  0.7096247E-006  0.1329699E+04  0.7818608E-02  0.8514813E-01
         -2   -1    0    0    0  501 -0.00000000000E+00  0.00000000000E+00  0.10095001814E+04  0.10095001814E+04  0.00000000000E+00 0. -1.
          2   -1    0    0  502    0  0.00000000000E+00 -0.00000000000E+00 -0.18003352130E+04  0.18003352130E+04  0.00000000000E+00 0.  1.
    9000010    2    1    2  502    0 -0.38516980320E+03 -0.92844202988E+03 -0.20654085031E+03  0.14322706650E+04  0.99918954900E+03 0.  0.
   -9000010    2    1    2    0  501  0.38516980320E+03  0.92844202988E+03 -0.58429418131E+03  0.13775647294E+04  0.73886704702E+03 0.  0.
        -13    1    3    3    0    0  0.68985013703E+02 -0.24586655498E+03  0.35590007591E+03  0.43803443948E+03  0.10566000000E+00 0.  1.
         13    1    4    4    0    0  0.17628942603E+03  0.45416596699E+03 -0.69391867153E+03  0.84786073218E+03  0.10566000000E+00 0. -1.
          4    1    3    3  502    0 -0.45415481690E+03 -0.68257547489E+03 -0.56244092622E+03  0.99423622551E+03  0.00000000000E+00 0.  1.
         -4    1    4    4    0  501  0.20888037717E+03  0.47427606289E+03  0.10962449023E+03  0.52970399720E+03  0.00000000000E+00 0. -1.
</event>
<event>
 8    1  0.7096247E-006  0.1068791E+04  0.7818608E-02  0.8712511E-01
         -1   -1    0    0    0  501 -0.00000000000E+00  0.00000000000E+00  0.14207588468E+04  0.14207588468E+04  0.00000000000E+00 0. -1.
          1   -1    0    0  502    0  0.00000000000E+00 -0.00000000000E+00 -0.10597966966E+04  0.10597966966E+04  0.00000000000E+00 0.  1.
    9000010    2    1    2  502    0 -0.31708506474E+03  0.19225520074E+03  0.79065937032E+03  0.13352456279E+04  0.10100661595E+04 0.  0.
   -9000010    2    1    2    0  501  0.31708506474E+03 -0.19225520074E+03 -0.42969722008E+03  0.11453099155E+04  0.99478143389E+03 0.  0.
        -13    1    3    3    0    0  0.15524907185E+03 -0.22934253492E+03  0.62073753455E+03  0.67971712543E+03  0.10566000000E+00 0.  1.
         13    1    4    4    0    0  0.23492199009E+03  0.39892631118E+03 -0.15450029937E+03  0.48805829247E+03  0.10566000000E+00 0. -1.
          4    1    3    3  502    0 -0.47233413659E+03  0.42159773565E+03  0.16992183577E+03  0.65552850248E+03  0.00000000000E+00 0.  1.
         -4    1    4    4    0  501  0.82163074644E+02 -0.59118151192E+03 -0.27519692071E+03  0.65725162308E+03  0.00000000000E+00 0. -1.
</event>
<event>
 8    1  0.7096247E-006  0.1883460E+04  0.7818608E-02  0.8217564E-01
          1   -1    0    0  502    0  0.00000000000E+00  0.00000000000E+00  0.97014280745E+03  0.97014280745E+03  0.00000000000E+00 0. -1.
         -1   -1    0    0    0  501 -0.00000000000E+00 -0.00000000000E+00 -0.36579800737E+04  0.36579800737E+04  0.00000000000E+00 0.  1.
    9000010    2    1    2  502    0  0.12302194628E+04  0.10154719084E+04 -0.13890712415E+04  0.23404646876E+04  0.10018148116E+04 0.  0.
   -9000010    2    1    2    0  501 -0.12302194628E+04 -0.10154719084E+04 -0.12987660247E+04  0.22876581935E+04  0.10009813684E+04 0.  0.
        -13    1    3    3    0    0  0.69881009757E+03  0.73684461659E+02 -0.93016639140E+03  0.11657506076E+04  0.10566000000E+00 0.  1.
         13    1    4    4    0    0 -0.82837081734E+03 -0.29300709242E+03 -0.11506797985E+04  0.14477967319E+04  0.10566000000E+00 0. -1.
          4    1    3    3  502    0  0.53140936526E+03  0.94178744672E+03 -0.45890485009E+03  0.11747140800E+04  0.00000000000E+00 0.  1.
         -4    1    4    4    0  501 -0.40184864549E+03 -0.72246481596E+03 -0.14808622624E+03  0.83986146155E+03  0.00000000000E+00 0. -1.
</event>
<event>
 8    1  0.7096247E-006  0.1400894E+04  0.7818608E-02  0.8468921E-01
         -2   -1    0    0    0  501 -0.00000000000E+00  0.00000000000E+00  0.77290948654E+03  0.77290948654E+03  0.00000000000E+00 0. -1.
          2   -1    0    0  502    0  0.00000000000E+00 -0.00000000000E+00 -0.37734737034E+04  0.37734737034E+04  0.00000000000E+00 0.  1.
    9000010    2    1    2  502    0  0.85317900239E+03  0.46988748564E+03 -0.20086288228E+03  0.14161945652E+04  0.10082422773E+04 0.  0.
   -9000010    2    1    2    0  501 -0.85317900239E+03 -0.46988748564E+03 -0.27997013346E+04  0.31301886247E+04  0.10055071378E+04 0.  0.
        -13    1    3    3    0    0  0.77691853907E+03  0.58888679149E+03 -0.49242035615E+03  0.10921849147E+04  0.10566000000E+00 0.  1.
         13    1    4    4    0    0  0.20283661083E+03  0.37654760679E+02 -0.64964969827E+03  0.68161962510E+03  0.10566000000E+00 0. -1.
          4    1    3    3  502    0  0.76260463321E+02 -0.11899930585E+03  0.29155747387E+03  0.32400965052E+03  0.00000000000E+00 0.  1.
         -4    1    4    4    0  501 -0.10560156132E+04 -0.50754224632E+03 -0.21500516363E+04  0.24485689996E+04  0.00000000000E+00 0. -1.
</event>
<event>
 8    1  0.7096247E-006  0.1161705E+04  0.7818608E-02  0.8635971E-01
          2   -1    0    0  502    0  0.00000000000E+00  0.00000000000E+00  0.10606073193E+04  0.10606073193E+04  0.00000000000E+00 0.  1.
         -2   -1    0    0    0  501 -0.00000000000E+00 -0.00000000000E+00 -0.12727368488E+04  0.12727368488E+04  0.00000000000E+00 0. -1.
    9000010    2    1    2  502    0  0.30419172495E+03  0.50477114780E+03 -0.88195105494E+02  0.11620996207E+04  0.99768263226E+03 0.  0.
   -9000010    2    1    2    0  501 -0.30419172495E+03 -0.50477114780E+03 -0.12393442400E+03  0.11712445473E+04  0.10045533987E+04 0.  0.
        -13    1    3    3    0    0 -0.19003438444E+03  0.94503082935E+02 -0.39641492405E+03  0.44965398155E+03  0.10566000000E+00 0.  1.
         13    1    4    4    0    0  0.90870178114E+02 -0.71253360575E+03 -0.77572462780E+02  0.72248116013E+03  0.10566000000E+00 0. -1.
          4    1    3    3  502    0  0.49422610940E+03  0.41026806486E+03  0.30821981855E+03  0.71244563919E+03  0.00000000000E+00 0.  1.
         -4    1    4    4    0  501 -0.39506190307E+03  0.20776245796E+03 -0.46361961221E+02  0.44876338714E+03  0.00000000000E+00 0. -1.
</event>
<event>
 8    1  0.7096247E-006  0.1035986E+04  0.7818608E-02  0.8741495E-01
         -1   -1    0    0    0  501 -0.00000000000E+00  0.00000000000E+00  0.42512747057E+03  0.42512747057E+03  0.00000000000E+00 0. -1.
          1   -1    0    0  502    0  0.00000000000E+00 -0.00000000000E+00 -0.27720593236E+04  0.27720593236E+04  0.00000000000E+00 0.  1.
    9000010    2    1    2  502    0  0.28381303317E+03 -0.12647806392E+02 -0.69494551173E+03  0.12467812827E+04  0.99539163037E+03 0.  0.
   -9000010    2    1    2    0  501 -0.28381303317E+03  0.12647806392E+02 -0.16519863413E+04  0.19504055114E+04  0.99715243696E+03 0.  0.
        -13    1    3    3    0    0  0.42418432011E+03 -0.42816725293E+02 -0.90033890522E+03  0.99618058845E+03  0.10566000000E+00 0.  1.
         13    1    4    4    0    0  0.22974151037E+03  0.32520185007E+03 -0.92489343313E+03  0.10069584295E+04  0.10566000000E+00 0. -1.
          4    1    3    3  502    0 -0.14037128694E+03  0.30168918902E+02  0.20539339349E+03  0.25060069424E+03  0.00000000000E+00 0.  1.
         -4    1    4    4    0  501 -0.51355454354E+03 -0.31255404368E+03 -0.72709290814E+03  0.94344708197E+03  0.00000000000E+00 0. -1.
</event>
<event>
 8    1  0.7096247E-006  0.1457584E+04  0.7818608E-02  0.8434337E-01
          1   -1    0    0  502    0  0.00000000000E+00  0.00000000000E+00  0.31289968443E+04  0.31289968443E+04  0.00000000000E+00 0. -1.
         -1   -1    0    0    0  501 -0.00000000000E+00 -0.00000000000E+00 -0.67964154627E+03  0.67964154627E+03  0.00000000000E+00 0.  1.
    9000010    2    1    2  502    0 -0.72473710704E+03  0.77246667544E+03  0.11631488979E+04  0.18623863900E+04  0.99680442811E+03 0.  0.
   -9000010    2    1    2    0  501  0.72473710704E+03 -0.77246667544E+03  0.12862064002E+04  0.19462520006E+04  0.10057938691E+04 0.  0.
        -13    1    3    3    0    0  0.17829379439E+03  0.32802567701E+03  0.60658675802E+03  0.71227594938E+03  0.10566000000E+00 0.  1.
         13    1    4    4    0    0  0.92344791169E+03 -0.42285861662E+03  0.11177066173E+04  0.15102428774E+04  0.10566000000E+00 0. -1.
          4    1    3    3  502    0 -0.90303090142E+03  0.44444099843E+03  0.55656213986E+03  0.11501104406E+04  0.00000000000E+00 0.  1.
         -4    1    4    4    0  501 -0.19871080465E+03 -0.34960805882E+03  0.16849978282E+03  0.43600912317E+03  0.00000000000E+00 0. -1.
</event>
<event>
 8    1  0.7096247E-006  0.2368042E+04  0.7818608E-02  0.8033122E-01
          2   -1    0    0  502    0  0.00000000000E+00  0.00000000000E+00  0.14472971272E+04  0.14472971272E+04  0.00000000000E+00 0.  1.
         -2   -1    0    0    0  501 -0.00000000000E+00 -0.00000000000E+00 -0.41522325965E+04  0.41522325965E+04  0.00000000000E+00 0. -1.
    9000010    2    1    2  502    0 -0.16889692125E+04 -0.13026116502E+04 -0.62087665783E+03  0.24340330892E+04  0.99479402038E+03 0.  0.
   -9000010    2    1    2    0  501  0.16889692125E+04  0.13026116502E+04 -0.20840588115E+04  0.31654966346E+04  0.10619104020E+04 0.  0.
        -13    1    3    3    0    0 -0.95579445874E+03 -0.37779180764E+03  0.12892670936E+03  0.10358049067E+04  0.10566000000E+00 0.  1.
         13    1    4    4    0    0  0.21666832520E+02  0.19315397040E+03 -0.71155894236E+03  0.73762730937E+03  0.10566000000E+00 0. -1.
          4    1    3    3  502    0 -0.73317475378E+03 -0.92481984254E+03 -0.74980336719E+03  0.13982281824E+04  0.00000000000E+00 0.  1.
         -4    1    4    4    0  501  0.16673023800E+04  0.11094576798E+04 -0.13724998691E+04  0.24278693252E+04  0.00000000000E+00 0. -1.
</event>
<event>
 8    1  0.7096247E-006  0.1196598E+04  0.7818608E-02  0.8609128E-01
         -2   -1    0    0    0  501 -0.00000000000E+00  0.00000000000E+00  0.67201566540E+03  0.67201566540E+03  0.00000000000E+00 0. -1.
          2   -1    0    0  502    0  0.00000000000E+00 -0.00000000000E+00 -0.25627159810E+04  0.25627159810E+04  0.00000000000E+00 0.  1.
    9000010    2    1    2  502    0 -0.45010048091E+03  0.47907736244E+03 -0.16102060682E+04  0.20068499987E+04  0.10012880570E+04 0.  0.
   -9000010    2    1    2    0  501  0.45010048091E+03 -0.47907736244E+03 -0.28049424732E+03  0.12278816476E+04  0.99845418308E+03 0.  0.
        -13    1    3    3    0    0  0.26615896356E+03 -0.75030961186E+02 -0.52552088339E+03  0.59383705598E+03  0.10566000000E+00 0.  1.
         13    1    4    4    0    0  0.20488505730E+03  0.15480631717E+03 -0.45830708336E+03  0.52534586356E+03  0.10566000000E+00 0. -1.
          4    1    3    3  502    0 -0.71625944447E+03  0.55410832362E+03 -0.10846851848E+04  0.14130129427E+04  0.00000000000E+00 0.  1.
         -4    1    4    4    0  501  0.24521542361E+03 -0.63388367961E+03  0.17781283603E+03  0.70253578408E+03  0.00000000000E+00 0. -1.
</event>
<event>
 8    1  0.7096247E-006  0.1266182E+04  0.7818608E-02  0.8558325E-01
          2   -1    0    0  502    0  0.00000000000E+00  0.00000000000E+00  0.15235767093E+04  0.15235767093E+04  0.00000000000E+00 0.  1.
         -2   -1    0    0    0  501 -0.00000000000E+00 -0.00000000000E+00 -0.10851330287E+04  0.10851330287E+04  0.00000000000E+00 0. -1.
    9000010    2    1    2  502    0 -0.34339417556E+03 -0.67071790495E+03  0.44844368768E+03  0.13600496910E+04  0.10396400113E+04 0.  0.
   -9000010    2    1    2    0  501  0.34339417556E+03  0.67071790495E+03 -0.10000007067E+02  0.12486600471E+04  0.99562535389E+03 0.  0.
        -13    1    3    3    0    0  0.67144906769E+02 -0.81722340682E+02 -0.30289732787E+03  0.32083295010E+03  0.10566000000E+00 0.  1.
         13    1    4    4    0    0 -0.22941877207E+03  0.84658711294E+02  0.28695289440E+03  0.37701730085E+03  0.10566000000E+00 0. -1.
          4    1    3    3  502    0 -0.41053908232E+03 -0.58899556426E+03  0.75134101555E+03  0.10392167409E+04  0.00000000000E+00 0.  1.
         -4    1    4    4    0  501  0.57281294762E+03  0.58605919365E+03 -0.29695290147E+03  0.87164274627E+03  0.00000000000E+00 0. -1.
</event>
<event>
 8    1  0.7096247E-006  0.1686657E+04  0.7818608E-02  0.8309494E-01
          2   -1    0    0  502    0  0.00000000000E+00  0.00000000000E+00  0.22944504460E+04  0.22944504460E+04  0.00000000000E+00 0. -1.
         -2   -1    0    0    0  501 -0.00000000000E+00 -0.00000000000E+00 -0.12712147071E+04  0.12712147071E+04  0.00000000000E+00 0.  1.
    9000010    2    1    2  502    0 -0.12181086301E+04  0.63270739574E+03  0.78935787100E+03  0.18557449793E+04  0.96777905343E+03 0.  0.
   -9000010    2    1    2    0  501  0.12181086301E+04 -0.63270739574E+03  0.23387786794E+03  0.17099201738E+04  0.99248217131E+03 0.  0.
        -13    1    3    3    0    0 -0.61978966364E+03  0.69621286771E+03  0.94973751564E+02  0.93694802896E+03  0.10566000000E+00 0.  1.
         13    1    4    4    0    0  0.96629912979E+03 -0.33325601262E+03 -0.28399043912E+03  0.10608695296E+04  0.10566000000E+00 0. -1.
          4    1    3    3  502    0 -0.59831896647E+03 -0.63505471970E+02  0.69438411944E+03  0.91879695033E+03  0.00000000000E+00 0.  1.
         -4    1    4    4    0  501  0.25180950032E+03 -0.29945138312E+03  0.51786830706E+03  0.64905064422E+03  0.00000000000E+00 0. -1.
</event>
<event>
 8    1  0.7096247E-006  0.1351170E+04  0.7818608E-02  0.8500668E-01
         -2   -1    0    0    0  501 -0.00000000000E+00  0.00000000000E+00  0.13339028860E+04  0.13339028860E+04  0.00000000000E+00 0. -1.
          2   -1    0    0  502    0  0.00000000000E+00 -0.00000000000E+00 -0.14866377461E+04  0.14866377461E+04  0.00000000000E+00 0.  1.
    9000010    2    1    2  502    0 -0.71965569037E+03  0.60738465752E+03 -0.47066426887E+03  0.14014833267E+04  0.92510011683E+03 0.  0.
   -9000010    2    1    2    0  501  0.71965569037E+03 -0.60738465752E+03  0.31792940878E+03  0.14190573053E+04  0.10128297448E+04 0.  0.
        -13    1    3    3    0    0 -0.17331931542E+03  0.72274928475E+03 -0.15218720640E+03  0.75866136758E+03  0.10566000000E+00 0.  1.
         13    1    4    4    0    0  0.47927798847E+02 -0.11991411155E+03 -0.33758673700E+03  0.36144333472E+03  0.10566000000E+00 0. -1.
          4    1    3    3  502    0 -0.54633637495E+03 -0.11536462723E+03 -0.31847706246E+03  0.64282195912E+03  0.00000000000E+00 0.  1.
         -4    1    4    4    0  501  0.67172789152E+03 -0.48747054597E+03  0.65551614578E+03  0.10576139706E+04  0.00000000000E+00 0. -1.
</event>
<event>
 8    1  0.7096247E-006  0.1554810E+04  0.7818608E-02  0.8378636E-01
          1   -1    0    0  502    0  0.00000000000E+00  0.00000000000E+00  0.92141547918E+03  0.92141547918E+03  0.00000000000E+00 0. -1.
         -1   -1    0    0    0  501 -0.00000000000E+00 -0.00000000000E+00 -0.32707770446E+04  0.32707770446E+04  0.00000000000E+00 0.  1.
    9000010    2    1    2  502    0  0.11002846911E+04  0.43711758126E+03 -0.21116596441E+04  0.26268865385E+04  0.10196706587E+04 0.  0.
   -9000010    2    1    2    0  501 -0.11002846911E+04 -0.43711758126E+03 -0.23770192132E+03  0.15653059853E+04  0.99598315390E+03 0.  0.
        -13    1    3    3    0    0  0.69606282152E+03  0.76715963751E+03 -0.13051102763E+04  0.16662383399E+04  0.10566000000E+00 0.  1.
         13    1    4    4    0    0  0.17626354229E+03 -0.10731509911E+03 -0.12675699196E+03  0.24218322199E+03  0.10566000000E+00 0. -1.
          4    1    3    3  502    0  0.40422186958E+03 -0.33004205626E+03 -0.80654936778E+03  0.96064819857E+03  0.00000000000E+00 0.  1.
         -4    1    4    4    0  501 -0.12765482334E+04 -0.32980248215E+03 -0.11094492936E+03  0.13231227633E+04  0.00000000000E+00 0. -1.
</event>
<event>
 8    1  0.7096247E-006  0.1190629E+04  0.7818608E-02  0.8613653E-01
         -2   -1    0    0    0  501 -0.00000000000E+00  0.00000000000E+00  0.59076510940E+03  0.59076510940E+03  0.00000000000E+00 0.  1.
          2   -1    0    0  502    0  0.00000000000E+00 -0.00000000000E+00 -0.24387653782E+04  0.24387653782E+04  0.00000000000E+00 0. -1.
    9000010    2    1    2  502    0 -0.52745585831E+03  0.35957561088E+03 -0.72982196507E+03  0.13940124767E+04  0.10015619711E+04 0.  0.
   -9000010    2    1    2    0  501  0.52745585831E+03 -0.35957561088E+03 -0.11181783037E+04  0.16355180109E+04  0.10085098625E+04 0.  0.
        -13    1    3    3    0    0 -0.15721890692E+03 -0.33080343810E+03 -0.76999494875E+02  0.37426946539E+03  0.10566000000E+00 0.  1.
         13    1    4    4    0    0  0.26734403733E+03  0.34187858489E+03 -0.52231616172E+03  0.67909350244E+03  0.10566000000E+00 0. -1.
          4    1    3    3  502    0 -0.37023695139E+03  0.69037904898E+03 -0.65282247020E+03  0.10197430113E+04  0.00000000000E+00 0.  1.
         -4    1    4    4    0  501  0.26011182098E+03 -0.70145419577E+03 -0.59586214201E+03  0.95642450850E+03  0.00000000000E+00 0. -1.
</event>
<event>
 8    1  0.7096247E-006  0.1268790E+04  0.7818608E-02  0.8556487E-01
         -2   -1    0    0    0  501 -0.00000000000E+00  0.00000000000E+00  0.18776382412E+04  0.18776382412E+04  0.00000000000E+00 0.  1.
          2   -1    0    0  502    0  0.00000000000E+00 -0.00000000000E+00 -0.14201631998E+04  0.14201631998E+04  0.00000000000E+00 0. -1.
    9000010    2    1    2  502    0  0.24508781719E+03  0.70230974535E+03 -0.81062118221E+03  0.14942671377E+04  0.10111481401E+04 0.  0.
   -9000010    2    1    2    0  501 -0.24508781719E+03 -0.70230974535E+03  0.12680962235E+04  0.18035343033E+04  0.10446822170E+04 0.  0.
        -13    1    3    3    0    0  0.20519951796E+03  0.46433417626E+03 -0.10425515847E+04  0.11595804790E+04  0.10566000000E+00 0.  1.
         13    1    4    4    0    0 -0.33421898068E+03  0.19053654098E+03  0.35892677153E+03  0.52615106098E+03  0.10566000000E+00 0. -1.
          4    1    3    3  502    0  0.39888299238E+02  0.23797556910E+03  0.23193040248E+03  0.33468665868E+03  0.00000000000E+00 0.  1.
         -4    1    4    4    0  501  0.89131163482E+02 -0.89284628633E+03  0.90916945200E+03  0.12773832423E+04  0.00000000000E+00 0. -1.
</event>
<event>
 8    1  0.7096247E-006  0.1084121E+04  0.7818608E-02  0.8699336E-01
         -2   -1    0    0    0  501 -0.00000000000E+00  0.00000000000E+00  0.15670279008E+04  0.15670279008E+04  0.00000000000E+00 0. -1.
          2   -1    0    0  502    0  0.00000000000E+00 -0.00000000000E+00 -0.99742604908E+03  0.99742604908E+03  0.00000000000E+00 0.  1.
    9000010    2    1    2  502    0  0.34697916667E+03 -0.26409564194E+03 -0.35375672358E+03  0.11405209579E+04  0.99272513102E+03 0.  0.
   -9000010    2    1    2    0  501 -0.34697916667E+03  0.26409564194E+03  0.92335857526E+03  0.14239329919E+04  0.99239763039E+03 0.  0.
        -13    1    3    3    0    0  0.48517054752E+03  0.75170174792E+02 -0.53978413368E+03  0.72966289306E+03  0.10566000000E+00 0.  1.
         13    1    4    4    0    0 -0.22135870488E+03 -0.27831110703E+03  0.11813476256E+02  0.35580376320E+03  0.10566000000E+00 0. -1.
          4    1    3    3  502    0 -0.13819138085E+03 -0.33926581674E+03  0.18602741010E+03  0.41085806486E+03  0.00000000000E+00 0.  1.
         -4    1    4    4    0  501 -0.12562046179E+03  0.54240674897E+03  0.91154509901E+03  0.10681292287E+04  0.00000000000E+00 0. -1.
</event>
<event>
 8    1  0.7096247E-006  0.1093433E+04  0.7818608E-02  0.8691443E-01
          1   -1    0    0  502    0  0.00000000000E+00  0.00000000000E+00  0.14010337882E+04  0.14010337882E+04  0.00000000000E+00 0. -1.
         -1   -1    0    0    0  501 -0.00000000000E+00 -0.00000000000E+00 -0.85656421129E+03  0.85656421129E+03  0.00000000000E+00 0.  1.
    9000010    2    1    2  502    0 -0.17482719314E+03 -0.41896352893E+03  0.20179616844E+03  0.11041774638E+04  0.98609897676E+03 0.  0.
   -9000010    2    1    2    0  501  0.17482719314E+03  0.41896352893E+03  0.34267340844E+03  0.11534205356E+04  0.10034235801E+04 0.  0.
        -13    1    3    3    0    0  0.19178958003E+03 -0.34703371658E+03  0.49143701932E+03  0.63144754222E+03  0.10566000000E+00 0.  1.
         13    1    4    4    0    0 -0.10414425383E+03  0.34060431090E+03  0.64365135695E+03  0.73562517811E+03  0.10566000000E+00 0. -1.
          4    1    3    3  502    0 -0.36661677317E+03 -0.71929812354E+02 -0.28964085088E+03  0.47272992160E+03  0.00000000000E+00 0.  1.
         -4    1    4    4    0  501  0.27897144697E+03  0.78359218029E+02 -0.30097794851E+03  0.41779535752E+03  0.00000000000E+00 0. -1.
</event>
<event>
 8    1  0.7096247E-006  0.1260083E+04  0.7818608E-02  0.8562642E-01
         -2   -1    0    0    0  501 -0.00000000000E+00  0.00000000000E+00  0.81819886000E+03  0.81819886000E+03  0.00000000000E+00 0. -1.
          2   -1    0    0  502    0  0.00000000000E+00 -0.00000000000E+00 -0.19421110631E+04  0.19421110631E+04  0.00000000000E+00 0.  1.
    9000010    2    1    2  502    0 -0.29483776973E+03 -0.70340920190E+03 -0.52509933873E+03  0.13678505305E+04  0.10067631015E+04 0.  0.
   -9000010    2    1    2    0  501  0.29483776973E+03  0.70340920190E+03 -0.59881286438E+03  0.13924593926E+04  0.99932602170E+03 0.  0.
        -13    1    3    3    0    0 -0.61042654393E+03 -0.68254693238E+03 -0.51680365322E+03  0.10514641732E+04  0.10566000000E+00 0.  1.
         13    1    4    4    0    0  0.19419294604E+03  0.21551659299E+03  0.26654112275E+03  0.39395746399E+03  0.10566000000E+00 0. -1.
          4    1    3    3  502    0  0.31558877420E+03 -0.20862269517E+02 -0.82956855132E+01  0.31638635731E+03  0.00000000000E+00 0.  1.
         -4    1    4    4    0  501  0.10064482369E+03  0.48789260891E+03 -0.86535398713E+03  0.99850192859E+03  0.00000000000E+00 0. -1.
</event>
<event>
 8    1  0.7096247E-006  0.1152987E+04  0.7818608E-02  0.8642831E-01
         -2   -1    0    0    0  501 -0.00000000000E+00  0.00000000000E+00  0.63233326976E+03  0.63233326976E+03  0.00000000000E+00 0.  1.
          2   -1    0    0  502    0  0.00000000000E+00 -0.00000000000E+00 -0.21234728644E+04  0.21234728644E+04  0.00000000000E+00 0. -1.
    9000010    2    1    2  502    0 -0.43194620717E+03 -0.39304899425E+03 -0.88272324125E+03  0.14517091621E+04  0.99357643536E+03 0.  0.
   -9000010    2    1    2    0  501  0.43194620717E+03  0.39304899425E+03 -0.60841635335E+03  0.13040969720E+04  0.99470267702E+03 0.  0.
        -13    1    3    3    0    0 -0.44324756908E+03  0.19985671572E+03 -0.65664157079E+03  0.81706136732E+03  0.10566000000E+00 0.  1.
         13    1    4    4    0    0 -0.32105920973E+03  0.13899442105E+03 -0.26242088874E+03  0.43733648287E+03  0.10566000000E+00 0. -1.
          4    1    3    3  502    0  0.11301361913E+02 -0.59290570996E+03 -0.22608167045E+03  0.63464779477E+03  0.00000000000E+00 0.  1.
         -4    1    4    4    0  501  0.75300541690E+03  0.25405457319E+03 -0.34599546460E+03  0.86676048916E+03  0.00000000000E+00 0. -1.
</event>
<event>
 8    1  0.7096247E-006  0.1051271E+04  0.7818608E-02  0.8727854E-01
          2   -1    0    0  502    0  0.00000000000E+00  0.00000000000E+00  0.92836505091E+03  0.92836505091E+03  0.00000000000E+00 0. -1.
         -2   -1    0    0    0  501 -0.00000000000E+00 -0.00000000000E+00 -0.12682848905E+04  0.12682848905E+04  0.00000000000E+00 0.  1.
    9000010    2    1    2  502    0  0.22629045388E+03 -0.39596019075E+03  0.94615583431E+02  0.10900564352E+04  0.98553492135E+03 0.  0.
   -9000010    2    1    2    0  501 -0.22629045388E+03  0.39596019075E+03 -0.43453542301E+03  0.11065935062E+04  0.90980014940E+03 0.  0.
        -13    1    3    3    0    0 -0.43370996892E+02  0.14683808787E+03  0.38768779359E+03  0.41682646735E+03  0.10566000000E+00 0.  1.
         13    1    4    4    0    0  0.22453489518E+03  0.64651950594E+02 -0.49151588918E+03  0.54422759426E+03  0.10566000000E+00 0. -1.
          4    1    3    3  502    0  0.26966145077E+03 -0.54279827862E+03 -0.29307221016E+03  0.67322996789E+03  0.00000000000E+00 0.  1.
         -4    1    4    4    0  501 -0.45082534906E+03  0.33130824015E+03  0.56980466167E+02  0.56236591190E+03  0.00000000000E+00 0. -1.
</event>
<event>
 8    1  0.7096247E-006  0.1458745E+04  0.7818608E-02  0.8433645E-01
         -1   -1    0    0    0  501 -0.00000000000E+00  0.00000000000E+00  0.33471103688E+04  0.33471103688E+04  0.00000000000E+00 0.  1.
          1   -1    0    0  502    0  0.00000000000E+00 -0.00000000000E+00 -0.69614413414E+03  0.69614413414E+03  0.00000000000E+00 0. -1.
    9000010    2    1    2  502    0  0.54149990910E+03 -0.92429730003E+03  0.72252644836E+03  0.16196419127E+04  0.97654892679E+03 0.  0.
   -9000010    2    1    2    0  501 -0.54149990910E+03  0.92429730003E+03  0.19284397863E+04  0.24236125903E+04  0.10037282141E+04 0.  0.
        -13    1    3    3    0    0  0.13009825741E+03  0.15363375704E+03 -0.77410872838E+02  0.21568806708E+03  0.10566000000E+00 0.  1.
         13    1    4    4    0    0 -0.43773508148E+03 -0.53131680165E+02  0.34488304000E+03  0.55980291125E+03  0.10566000000E+00 0. -1.
          4    1    3    3  502    0  0.41140165170E+03 -0.10779310571E+04  0.79993732119E+03  0.14039538456E+04  0.00000000000E+00 0.  1.
         -4    1    4    4    0  501 -0.10376482762E+03  0.97742898019E+03  0.15835567463E+04  0.18638096790E+04  0.00000000000E+00 0. -1.
</event>
<event>
 8    1  0.7096247E-006  0.1406986E+04  0.7818608E-02  0.8465125E-01
         -2   -1    0    0    0  501 -0.00000000000E+00  0.00000000000E+00  0.21220927056E+04  0.21220927056E+04  0.00000000000E+00 0. -1.
          2   -1    0    0  502    0  0.00000000000E+00 -0.00000000000E+00 -0.95900846462E+03  0.95900846462E+03  0.00000000000E+00 0.  1.
    9000010    2    1    2  502    0  0.92421506002E+03  0.39007630972E+03  0.84001043896E+03  0.16479874334E+04  0.10019541100E+04 0.  0.
   -9000010    2    1    2    0  501 -0.92421506002E+03 -0.39007630972E+03  0.32307380199E+03  0.14331137367E+04  0.97113608540E+03 0.  0.
        -13    1    3    3    0    0  0.16308105376E+03 -0.25553456972E+02  0.75927999968E+03  0.77701643377E+03  0.10566000000E+00 0.  1.
         13    1    4    4    0    0 -0.69382417900E+03  0.22024142971E+03  0.62420105024E+02  0.73061245500E+03  0.10566000000E+00 0. -1.
          4    1    3    3  502    0  0.76113400626E+03  0.41562976669E+03  0.80730439277E+02  0.87097099967E+03  0.00000000000E+00 0.  1.
         -4    1    4    4    0  501 -0.23039088102E+03 -0.61031773943E+03  0.26065369696E+03  0.70250128175E+03  0.00000000000E+00 0. -1.
</event>
<event>
 8    1  0.7096247E-006  0.1117665E+04  0.7818608E-02  0.8671283E-01
          1   -1    0    0  502    0  0.00000000000E+00  0.00000000000E+00  0.10707651727E+04  0.10707651727E+04  0.00000000000E+00 0.  1.
         -1   -1    0    0    0  501 -0.00000000000E+00 -0.00000000000E+00 -0.11906745026E+04  0.11906745026E+04  0.00000000000E+00 0. -1.
    9000010    2    1    2  502    0  0.44132234695E+03  0.25484044629E+03 -0.22073202268E+03  0.11404481046E+04  0.99608743914E+03 0.  0.
   -9000010    2    1    2    0  501 -0.44132234695E+03 -0.25484044629E+03  0.10082269271E+03  0.11209915707E+04  0.99335181044E+03 0.  0.
        -13    1    3    3    0    0  0.36735160821E+03  0.13960095674E+03 -0.61121538145E+03  0.72664976768E+03  0.10566000000E+00 0.  1.
         13    1    4    4    0    0  0.11675161500E+03 -0.43776555050E+03 -0.15714200881E+03  0.47954482471E+03  0.10566000000E+00 0. -1.
          4    1    3    3  502    0  0.73970738738E+02  0.11523948955E+03  0.39048335877E+03  0.41379833690E+03  0.00000000000E+00 0.  1.
         -4    1    4    4    0  501 -0.55807396195E+03  0.18292510420E+03  0.25796470152E+03  0.64144674603E+03  0.00000000000E+00 0. -1.
</event>
<event>
 8    1  0.7096247E-006  0.1185279E+04  0.7818608E-02  0.8617731E-01
          1   -1    0    0  502    0  0.00000000000E+00  0.00000000000E+00  0.13189240716E+04  0.13189240716E+04  0.00000000000E+00 0. -1.
         -1   -1    0    0    0  501 -0.00000000000E+00 -0.00000000000E+00 -0.11512768101E+04  0.11512768101E+04  0.00000000000E+00 0.  1.
    9000010    2    1    2  502    0  0.55072772054E+03 -0.28702740259E+03  0.42156945828E+03  0.12577050273E+04  0.10091656829E+04 0.  0.
   -9000010    2    1    2    0  501 -0.55072772054E+03  0.28702740259E+03 -0.25392219676E+03  0.12124958545E+04  0.10099425544E+04 0.  0.
        -13    1    3    3    0    0  0.77336230965E+03 -0.46257197940E+03  0.30884396280E+03  0.95259996989E+03  0.10566000000E+00 0.  1.
         13    1    4    4    0    0 -0.30470169567E+03 -0.35636918667E+03  0.24526394106E+02  0.46951429767E+03  0.10566000000E+00 0. -1.
          4    1    3    3  502    0 -0.22263458911E+03  0.17554457681E+03  0.11272549548E+03  0.30510505740E+03  0.00000000000E+00 0.  1.
         -4    1    4    4    0  501 -0.24602602487E+03  0.64339658926E+03 -0.27844859086E+03  0.74298155679E+03  0.00000000000E+00 0. -1.
</event>
<event>
 8    1  0.7096247E-006  0.1129349E+04  0.7818608E-02  0.8661752E-01
          2   -1    0    0  502    0  0.00000000000E+00  0.00000000000E+00  0.22640558646E+04  0.22640558646E+04  0.00000000000E+00 0.  1.
         -2   -1    0    0    0  501 -0.00000000000E+00 -0.00000000000E+00 -0.56453030155E+03  0.56453030155E+03  0.00000000000E+00 0. -1.
    9000010    2    1    2  502    0  0.53317764135E+03 -0.10505389883E+03  0.82093160050E+03  0.14217385684E+04  0.10257178682E+04 0.  0.
   -9000010    2    1    2    0  501 -0.53317764135E+03  0.10505389883E+03  0.87859396253E+03  0.14068475978E+04  0.95497544128E+03 0.  0.
        -13    1    3    3    0    0 -0.59491351322E+02 -0.38447521325E+03  0.62790271869E+03  0.73866247082E+03  0.10566000000E+00 0.  1.
         13    1    4    4    0    0 -0.23836901432E+03  0.37523450906E+03  0.33273741464E+01  0.44455798987E+03  0.10566000000E+00 0. -1.
          4    1    3    3  502    0  0.59266899267E+03  0.27942131442E+03  0.19302888181E+03  0.68307609754E+03  0.00000000000E+00 0.  1.
         -4    1    4    4    0  501 -0.29480862703E+03 -0.27018061023E+03  0.87526658838E+03  0.96228960789E+03  0.00000000000E+00 0. -1.
</event>
<event>
 8    1  0.7096247E-006  0.1119199E+04  0.7818608E-02  0.8670025E-01
          2   -1    0    0  502    0  0.00000000000E+00  0.00000000000E+00  0.28532631055E+04  0.28532631055E+04  0.00000000000E+00 0. -1.
         -2   -1    0    0    0  501 -0.00000000000E+00 -0.00000000000E+00 -0.49009407248E+03  0.49009407248E+03  0.00000000000E+00 0.  1.
    9000010    2    1    2  502    0  0.70338661659E+02 -0.47550913779E+03  0.64675289525E+03  0.12970651304E+04  0.10163819053E+04 0.  0.
   -9000010    2    1    2    0  501 -0.70338661659E+02  0.47550913779E+03  0.17164161378E+04  0.20462920476E+04  0.10050722952E+04 0.  0.
        -13    1    3    3    0    0 -0.41431372527E+03 -0.78685731294E+02  0.37712785715E+02  0.42340237674E+03  0.10566000000E+00 0.  1.
         13    1    4    4    0    0 -0.19744123976E+03 -0.24255278039E+03  0.89406031179E+03  0.94718464236E+03  0.10566000000E+00 0. -1.
          4    1    3    3  502    0  0.48465238693E+03 -0.39682340650E+03  0.60904010954E+03  0.87366275366E+03  0.00000000000E+00 0.  1.
         -4    1    4    4    0  501  0.12710257810E+03  0.71806191819E+03  0.82235582600E+03  0.10991074052E+04  0.00000000000E+00 0. -1.
</event>
<event>
 8    1  0.7096247E-006  0.1032104E+04  0.7818608E-02  0.8744998E-01
         -4   -1    0    0    0  501 -0.00000000000E+00  0.00000000000E+00  0.31260779625E+04  0.31260779625E+04  0.00000000000E+00 0. -1.
          4   -1    0    0  502    0  0.00000000000E+00 -0.00000000000E+00 -0.36345373466E+03  0.36345373466E+03  0.00000000000E+00 0.  1.
    9000010    2    1    2  502    0 -0.21278558465E+03 -0.23316412394E+02  0.95169156305E+03  0.14076035994E+04  0.10147953989E+04 0.  0.
   -9000010    2    1    2    0  501  0.21278558465E+03  0.23316412394E+02  0.18109326648E+04  0.20819280978E+04  0.10045527004E+04 0.  0.
        -13    1    3    3    0    0 -0.19456243980E+03 -0.32486177293E+03 -0.30605009413E+02  0.37990313536E+03  0.10566000000E+00 0.  1.
         13    1    4    4    0    0 -0.97600056058E+02  0.46938183074E+03  0.75478023980E+03  0.89416905311E+03  0.10566000000E+00 0. -1.
          4    1    3    3  502    0 -0.18223144846E+02  0.30154536054E+03  0.98229657246E+03  0.10277004640E+04  0.00000000000E+00 0.  1.
         -4    1    4    4    0  501  0.31038564071E+03 -0.44606541835E+03  0.10561524250E+04  0.11877590447E+04  0.00000000000E+00 0. -1.
</event>
<event>
 8    1  0.7096247E-006  0.1478416E+04  0.7818608E-02  0.8422030E-01
         -2   -1    0    0    0  501 -0.00000000000E+00  0.00000000000E+00  0.92218290813E+03  0.92218290813E+03  0.00000000000E+00 0. -1.
          2   -1    0    0  502    0  0.00000000000E+00 -0.00000000000E+00 -0.25081925728E+04  0.25081925728E+04  0.00000000000E+00 0.  1.
    9000010    2    1    2  502    0  0.55841503488E+02 -0.11029193158E+04 -0.12022949489E+04  0.19167594541E+04  0.10044423179E+04 0.  0.
   -9000010    2    1    2    0  501 -0.55841503488E+02  0.11029193158E+04 -0.38371471571E+03  0.15136160268E+04  0.96137776277E+03 0.  0.
        -13    1    3    3    0    0  0.46565494723E+03 -0.82715767029E+03 -0.54501423233E+03  0.10945614949E+04  0.10566000000E+00 0.  1.
         13    1    4    4    0    0  0.39204061080E+03  0.19966579737E+03 -0.22109090315E+03  0.49238548900E+03  0.10566000000E+00 0. -1.
          4    1    3    3  502    0 -0.40981344374E+03 -0.27576164552E+03 -0.65728071659E+03  0.82219795926E+03  0.00000000000E+00 0.  1.
         -4    1    4    4    0  501 -0.44788211429E+03  0.90325351844E+03 -0.16262381256E+03  0.10212305378E+04  0.00000000000E+00 0. -1.
</event>
<event>
 8    1  0.7096247E-006  0.1286263E+04  0.7818608E-02  0.8544289E-01
          2   -1    0    0  502    0  0.00000000000E+00  0.00000000000E+00  0.10012336343E+04  0.10012336343E+04  0.00000000000E+00 0.  1.
         -2   -1    0    0    0  501 -0.00000000000E+00 -0.00000000000E+00 -0.17507323228E+04  0.17507323228E+04  0.00000000000E+00 0. -1.
    9000010    2    1    2  502    0  0.81510303324E+03  0.13781107389E+03 -0.70369397893E+03  0.14762081375E+04  0.10003101531E+04 0.  0.
   -9000010    2    1    2    0  501 -0.81510303324E+03 -0.13781107389E+03 -0.45804709527E+02  0.12757578196E+04  0.97060553063E+03 0.  0.
        -13    1    3    3    0    0  0.54825926161E+03 -0.40902295447E+03 -0.43815589023E+03  0.81232295950E+03  0.10566000000E+00 0.  1.
         13    1    4    4    0    0  0.13749460844E+03 -0.27733941222E+03  0.23923209276E+02  0.31047423086E+03  0.10566000000E+00 0. -1.
          4    1    3    3  502    0  0.26684377162E+03  0.54683402836E+03 -0.26553808870E+03  0.66388517800E+03  0.00000000000E+00 0.  1.
         -4    1    4    4    0  501 -0.95259764168E+03  0.13952833833E+03 -0.69727918803E+02  0.96528358879E+03  0.00000000000E+00 0. -1.
</event>
<event>
 8    1  0.7096247E-006  0.2081637E+04  0.7818608E-02  0.8135939E-01
          2   -1    0    0  502    0  0.00000000000E+00  0.00000000000E+00  0.35312557456E+04  0.35312557456E+04  0.00000000000E+00 0.  1.
         -2   -1    0    0    0  501 -0.00000000000E+00 -0.00000000000E+00 -0.12774432695E+04  0.12774432695E+04  0.00000000000E+00 0. -1.
    9000010    2    1    2  502    0  0.17433997949E+04 -0.51399581174E+03  0.15931996531E+04  0.26055226739E+04  0.97305124752E+03 0.  0.
   -9000010    2    1    2    0  501 -0.17433997949E+04  0.51399581174E+03  0.66061282296E+03  0.22031763412E+04  0.10554345783E+04 0.  0.
        -13    1    3    3    0    0  0.13565023164E+03 -0.37569965632E+03  0.11136193133E+03  0.41467180760E+03  0.10566000000E+00 0.  1.
         13    1    4    4    0    0 -0.12210607137E+04 -0.12621943784E+03  0.16222687906E+03  0.12382399543E+04  0.10566000000E+00 0. -1.
          4    1    3    3  502    0  0.16077495633E+04 -0.13829615542E+03  0.14818377218E+04  0.21908508663E+04  0.00000000000E+00 0.  1.
         -4    1    4    4    0  501 -0.52233908120E+03  0.64021524958E+03  0.49838594391E+03  0.96493638683E+03  0.00000000000E+00 0. -1.
</event>
<event>
 8    1  0.7096247E-006  0.1563229E+04  0.7818608E-02  0.8374012E-01
          2   -1    0    0  502    0  0.00000000000E+00  0.00000000000E+00  0.29193748275E+04  0.29193748275E+04  0.00000000000E+00 0. -1.
         -2   -1    0    0    0  501 -0.00000000000E+00 -0.00000000000E+00 -0.83983891405E+03  0.83983891405E+03  0.00000000000E+00 0.  1.
    9000010    2    1    2  502    0  0.94712394488E+03  0.72971766704E+03  0.11474246599E+04  0.19385288117E+04  0.10058722399E+04 0.  0.
   -9000010    2    1    2    0  501 -0.94712394488E+03 -0.72971766704E+03  0.93211125353E+03  0.18206849299E+04  0.10082314141E+04 0.  0.
        -13    1    3    3    0    0  0.87305589992E+03  0.29177138076E+03  0.11760176488E+04  0.14934438940E+04  0.10566000000E+00 0.  1.
         13    1    4    4    0    0 -0.53706475895E+03  0.31747329441E+02 -0.14868350739E+02  0.53820769898E+03  0.10566000000E+00 0. -1.
          4    1    3    3  502    0  0.74068044969E+02  0.43794628628E+03 -0.28592988887E+02  0.44508491770E+03  0.00000000000E+00 0.  1.
         -4    1    4    4    0  501 -0.41005918594E+03 -0.76146499648E+03  0.94697960427E+03  0.12824772309E+04  0.00000000000E+00 0. -1.
</event>
<event>
 8    1  0.7096247E-006  0.1090488E+04  0.7818608E-02  0.8693931E-01
         -2   -1    0    0    0  501 -0.00000000000E+00  0.00000000000E+00  0.61218997533E+03  0.61218997533E+03  0.00000000000E+00 0.  1.
          2   -1    0    0  502    0  0.00000000000E+00 -0.00000000000E+00 -0.26724682024E+04  0.26724682024E+04  0.00000000000E+00 0. -1.
    9000010    2    1    2  502    0  0.36445654047E+03  0.23019218608E+03 -0.17353635437E+03  0.11067107654E+04  0.10044286134E+04 0.  0.
   -9000010    2    1    2    0  501 -0.36445654047E+03 -0.23019218608E+03 -0.18867418727E+04  0.21779474124E+04  0.99892093007E+03 0.  0.
        -13    1    3    3    0    0 -0.62622800307E+02 -0.31733673782E+03 -0.24904114780E+03  0.40822264115E+03  0.10566000000E+00 0.  1.
         13    1    4    4    0    0 -0.71217828184E+03 -0.15194287337E+03 -0.13448623836E+04  0.15293591415E+04  0.10566000000E+00 0. -1.
          4    1    3    3  502    0  0.42707934078E+03  0.54752892390E+03  0.75504793422E+02  0.69848812420E+03  0.00000000000E+00 0.  1.
         -4    1    4    4    0  501  0.34772174137E+03 -0.78249312707E+02 -0.54187948918E+03  0.64858827090E+03  0.00000000000E+00 0. -1.
</event>
<event>
 8    1  0.7096247E-006  0.1316646E+04  0.7818608E-02  0.8523548E-01
         -2   -1    0    0    0  501 -0.00000000000E+00  0.00000000000E+00  0.75241689489E+03  0.75241689489E+03  0.00000000000E+00 0.  1.
          2   -1    0    0  502    0  0.00000000000E+00 -0.00000000000E+00 -0.24731624834E+04  0.24731624834E+04  0.00000000000E+00 0. -1.
    9000010    2    1    2  502    0  0.84037590815E+03 -0.66371178613E+02 -0.43451026715E+03  0.13800720696E+04  0.10025781490E+04 0.  0.
   -9000010    2    1    2    0  501 -0.84037590815E+03  0.66371178613E+02 -0.12862353213E+04  0.18455073086E+04  0.10202250360E+04 0.  0.
        -13    1    3    3    0    0 -0.18853158965E+03  0.13994370661E+03 -0.19132105543E+03  0.30287317268E+03  0.10566000000E+00 0.  1.
         13    1    4    4    0    0 -0.50707167298E+03  0.35493212550E+02 -0.14020154581E+04  0.14913178084E+04  0.10566000000E+00 0. -1.
          4    1    3    3  502    0  0.10289074978E+04 -0.20631488522E+03 -0.24318921172E+03  0.10771988970E+04  0.00000000000E+00 0.  1.
         -4    1    4    4    0  501 -0.33330423518E+03  0.30877966063E+02  0.11578013681E+03  0.35418950020E+03  0.00000000000E+00 0. -1.
</event>
<event>
 8    1  0.7096247E-006  0.1259177E+04  0.7818608E-02  0.8563285E-01
          1   -1    0    0  502    0  0.00000000000E+00  0.00000000000E+00  0.20601571273E+04  0.20601571273E+04  0.00000000000E+00 0.  1.
         -1   -1    0    0    0  501 -0.00000000000E+00 -0.00000000000E+00 -0.78136542657E+03  0.78136542657E+03  0.00000000000E+00 0. -1.
    9000010    2    1    2  502    0  0.27783915257E+03 -0.70793916418E+03  0.46615097790E+03  0.13445221929E+04  0.10060172653E+04 0.  0.
   -9000010    2    1    2    0  501 -0.27783915257E+03  0.70793916418E+03  0.81264072284E+03  0.14970003610E+04  0.10011257071E+04 0.  0.
        -13    1    3    3    0    0 -0.26353316183E+02 -0.83870741801E+03  0.54956381697E+03  0.10030678095E+04  0.10566000000E+00 0.  1.
         13    1    4    4    0    0  0.33665598543E+03  0.50862601038E+03  0.42829050712E+03  0.74529889348E+03  0.10566000000E+00 0. -1.
          4    1    3    3  502    0  0.30419246876E+03  0.13076825383E+03 -0.83412839064E+02  0.34145438345E+03  0.00000000000E+00 0.  1.
         -4    1    4    4    0  501 -0.61449513801E+03  0.19931315380E+03  0.38435021572E+03  0.75170146750E+03  0.00000000000E+00 0. -1.
</event>
<event>
 8    1  0.7096247E-006  0.1072247E+04  0.7818608E-02  0.8709521E-01
          2   -1    0    0  502    0  0.00000000000E+00  0.00000000000E+00  0.17108398662E+04  0.17108398662E+04  0.00000000000E+00 0. -1.
         -2   -1    0    0    0  501 -0.00000000000E+00 -0.00000000000E+00 -0.67325965077E+03  0.67325965077E+03  0.00000000000E+00 0.  1.
    9000010    2    1    2  502    0 -0.73595458274E+02  0.50297065351E+03  0.52544490799E+03  0.12347063445E+04  0.99499328446E+03 0.  0.
   -9000010    2    1    2    0  501  0.73595458274E+02 -0.50297065351E+03  0.51213530743E+03  0.11493931724E+04  0.89466548047E+03 0.  0.
        -13    1    3    3    0    0 -0.61221096889E+02 -0.30038323372E+03  0.83486462233E+02  0.31772332358E+03  0.10566000000E+00 0.  1.
         13    1    4    4    0    0 -0.29429692735E+02 -0.21386116509E+03  0.73761266818E+03  0.76855394356E+03  0.10566000000E+00 0. -1.
          4    1    3    3  502    0 -0.12374361386E+02  0.80335388722E+03  0.44195844576E+03  0.91698302095E+03  0.00000000000E+00 0.  1.
         -4    1    4    4    0  501  0.10302515101E+03 -0.28910948842E+03 -0.22547736074E+03  0.38083922887E+03  0.00000000000E+00 0. -1.
</event>
<event>
 8    1  0.7096247E-006  0.1295660E+04  0.7818608E-02  0.8537812E-01
          1   -1    0    0  502    0  0.00000000000E+00  0.00000000000E+00  0.10862764947E+04  0.10862764947E+04  0.00000000000E+00 0. -1.
         -1   -1    0    0    0  501 -0.00000000000E+00 -0.00000000000E+00 -0.15536505166E+04  0.15536505166E+04  0.00000000000E+00 0.  1.
    9000010    2    1    2  502    0 -0.83315253188E+03 -0.21929678846E+03 -0.31688692662E+03  0.13005793004E+04  0.92133325650E+03 0.  0.
   -9000010    2    1    2    0  501  0.83315253188E+03  0.21929678846E+03 -0.15048709537E+03  0.13393477109E+04  0.10143824240E+04 0.  0.
        -13    1    3    3    0    0 -0.10309766772E+04 -0.24169447211E+03 -0.30090392983E+03  0.11008507224E+04  0.10566000000E+00 0.  1.
         13    1    4    4    0    0  0.45917040516E+03  0.60332074688E+03 -0.24134511259E+03  0.79566378523E+03  0.10566000000E+00 0. -1.
          4    1    3    3  502    0  0.19782414530E+03  0.22397683650E+02 -0.15982996783E+02  0.19972857804E+03  0.00000000000E+00 0.  1.
         -4    1    4    4    0  501  0.37398212672E+03 -0.38402395843E+03  0.90858017219E+02  0.54368392568E+03  0.00000000000E+00 0. -1.
</event>
<event>
 8    1  0.7096247E-006  0.1387263E+04  0.7818608E-02  0.8477488E-01
          1   -1    0    0  502    0  0.00000000000E+00  0.00000000000E+00  0.19153880311E+04  0.19153880311E+04  0.00000000000E+00 0. -1.
         -1   -1    0    0    0  501 -0.00000000000E+00 -0.00000000000E+00 -0.11649934055E+04  0.11649934055E+04  0.00000000000E+00 0.  1.
    9000010    2    1    2  502    0  0.90570850689E+03 -0.31572616089E+03 -0.19713370624E+03  0.13963332244E+04  0.99543652101E+03 0.  0.
   -9000010    2    1    2    0  501 -0.90570850689E+03  0.31572616089E+03  0.94752833177E+03  0.16840482122E+04  0.10090676555E+04 0.  0.
        -13    1    3    3    0    0  0.76410586407E+03  0.22774255582E+03  0.10983348348E+02  0.79739895181E+03  0.10566000000E+00 0.  1.
         13    1    4    4    0    0  0.15009324806E+02  0.39990439377E+03  0.54381512164E+03  0.67519160368E+03  0.10566000000E+00 0. -1.
          4    1    3    3  502    0  0.14160264282E+03 -0.54346871671E+03 -0.20811705459E+03  0.59893427262E+03  0.00000000000E+00 0.  1.
         -4    1    4    4    0  501 -0.92071783170E+03 -0.84178232877E+02  0.40371321013E+03  0.10088566085E+04  0.00000000000E+00 0. -1.
</event>
<event>
 8    1  0.7096247E-006  0.1088991E+04  0.7818608E-02  0.8695198E-01
          2   -1    0    0  502    0  0.00000000000E+00  0.00000000000E+00  0.29061099184E+04  0.29061099184E+04  0.00000000000E+00 0. -1.
         -2   -1    0    0    0  501 -0.00000000000E+00 -0.00000000000E+00 -0.42645155945E+03  0.42645155945E+03  0.00000000000E+00 0.  1.
    9000010    2    1    2  502    0 -0.41359366449E+03 -0.15156978791E+03  0.15918018501E+04  0.19318647272E+04  0.10021153001E+04 0.  0.
   -9000010    2    1    2    0  501  0.41359366449E+03  0.15156978791E+03  0.88785650891E+03  0.14006967506E+04  0.98976213652E+03 0.  0.
        -13    1    3    3    0    0 -0.43263944231E+03 -0.48260648454E+03  0.14143426657E+04  0.15557798987E+04  0.10566000000E+00 0.  1.
         13    1    4    4    0    0 -0.13291806551E+03 -0.15325447653E+03 -0.10397269851E+03  0.22795718878E+03  0.10566000000E+00 0. -1.
          4    1    3    3  502    0  0.19045777818E+02  0.33103669663E+03  0.17745918438E+03  0.37608482858E+03  0.00000000000E+00 0.  1.
         -4    1    4    4    0  501  0.54651173001E+03  0.30482426444E+03  0.99182920742E+03  0.11727395618E+04  0.00000000000E+00 0. -1.
</event>
<event>
 8    1  0.7096247E-006  0.1085860E+04  0.7818608E-02  0.8697856E-01
         -2   -1    0    0    0  501 -0.00000000000E+00  0.00000000000E+00  0.69296339191E+03  0.69296339191E+03  0.00000000000E+00 0. -1.
          2   -1    0    0  502    0  0.00000000000E+00 -0.00000000000E+00 -0.17020673420E+04  0.17020673420E+04  0.00000000000E+00 0.  1.
    9000010    2    1    2  502    0 -0.26530541731E+03 -0.33000469532E+03 -0.48570383591E+03  0.11935856194E+04  0.10047130691E+04 0.  0.
   -9000010    2    1    2    0  501  0.26530541731E+03  0.33000469532E+03 -0.52340011419E+03  0.12014451145E+04  0.99510432635E+03 0.  0.
        -13    1    3    3    0    0 -0.57332172291E+03  0.77557560950E+02 -0.23390775989E+03  0.62403992222E+03  0.10566000000E+00 0.  1.
         13    1    4    4    0    0 -0.92679255166E+01  0.19852143894E+03  0.27939396171E+03  0.34286681549E+03  0.10566000000E+00 0. -1.
          4    1    3    3  502    0  0.30801630560E+03 -0.40756225627E+03 -0.25179607602E+03  0.56954569715E+03  0.00000000000E+00 0.  1.
         -4    1    4    4    0  501  0.27457334283E+03  0.13148325638E+03 -0.80279407589E+03  0.85857829904E+03  0.00000000000E+00 0. -1.
</event>
<event>
 8    1  0.7096247E-006  0.1210572E+04  0.7818608E-02  0.8598644E-01
          2   -1    0    0  502    0  0.00000000000E+00  0.00000000000E+00  0.20057313016E+04  0.20057313016E+04  0.00000000000E+00 0. -1.
         -2   -1    0    0    0  501 -0.00000000000E+00 -0.00000000000E+00 -0.78402597928E+03  0.78402597928E+03  0.00000000000E+00 0.  1.
    9000010    2    1    2  502    0  0.38311309858E+02 -0.69617456977E+03  0.23917639272E+03  0.12168296149E+04  0.96816433358E+03 0.  0.
   -9000010    2    1    2    0  501 -0.38311309858E+02  0.69617456977E+03  0.98252892963E+03  0.15729276660E+04  0.10112425806E+04 0.  0.
        -13    1    3    3    0    0 -0.12199899887E+03 -0.90342380130E+03  0.27541904920E+03  0.95232031602E+03  0.10566000000E+00 0.  1.
         13    1    4    4    0    0 -0.38070316355E+03  0.58725878012E+02  0.69440084975E+03  0.79408826889E+03  0.10566000000E+00 0. -1.
          4    1    3    3  502    0  0.16031030873E+03  0.20724923152E+03 -0.36242656475E+02  0.26450929889E+03  0.00000000000E+00 0.  1.
         -4    1    4    4    0  501  0.34239185369E+03  0.63744869176E+03  0.28812807988E+03  0.77883939713E+03  0.00000000000E+00 0. -1.
</event>
<event>
 8    1  0.7096247E-006  0.1151401E+04  0.7818608E-02  0.8644085E-01
          2   -1    0    0  502    0  0.00000000000E+00  0.00000000000E+00  0.84974919860E+03  0.84974919860E+03  0.00000000000E+00 0. -1.
         -2   -1    0    0    0  501 -0.00000000000E+00 -0.00000000000E+00 -0.15812606354E+04  0.15812606354E+04  0.00000000000E+00 0.  1.
    9000010    2    1    2  502    0  0.51307226883E+03  0.12317288325E+03 -0.22230498373E+03  0.11619376071E+04  0.10110711077E+04 0.  0.
   -9000010    2    1    2    0  501 -0.51307226883E+03 -0.12317288325E+03 -0.50920645304E+03  0.12690722269E+04  0.10357791237E+04 0.  0.
        -13    1    3    3    0    0  0.61056702397E+03 -0.31364961452E+03 -0.73797442039E+02  0.69037254078E+03  0.10566000000E+00 0.  1.
         13    1    4    4    0    0 -0.70464059336E+03 -0.39739804424E+02  0.13774797113E+02  0.70589473299E+03  0.10566000000E+00 0. -1.
          4    1    3    3  502    0 -0.97494755139E+02  0.43682249777E+03 -0.14850754169E+03  0.47156506632E+03  0.00000000000E+00 0.  1.
         -4    1    4    4    0  501  0.19156832453E+03 -0.83433078821E+02 -0.52298125015E+03  0.56317749388E+03  0.00000000000E+00 0. -1.
</event>
<event>
 8    1  0.7096247E-006  0.1530331E+04  0.7818608E-02  0.8392254E-01
          2   -1    0    0  502    0  0.00000000000E+00  0.00000000000E+00  0.15954977189E+04  0.15954977189E+04  0.00000000000E+00 0.  1.
         -2   -1    0    0    0  501 -0.00000000000E+00 -0.00000000000E+00 -0.15017781228E+04  0.15017781228E+04  0.00000000000E+00 0. -1.
    9000010    2    1    2  502    0 -0.10451268014E+04  0.48784793081E+03 -0.18591799805E+03  0.15437612959E+04  0.10091322024E+04 0.  0.
   -9000010    2    1    2    0  501  0.10451268014E+04 -0.48784793081E+03  0.27963759415E+03  0.15535145458E+04  0.10024592887E+04 0.  0.
        -13    1    3    3    0    0 -0.54077431522E+03 -0.27569651645E+03 -0.16254017069E+03  0.62838264412E+03  0.10566000000E+00 0.  1.
         13    1    4    4    0    0  0.51365888039E+03 -0.74102159098E+03 -0.33127673014E+00  0.90164214886E+03  0.10566000000E+00 0. -1.
          4    1    3    3  502    0 -0.50435248620E+03  0.76354444726E+03 -0.23377827363E+02  0.91537865175E+03  0.00000000000E+00 0.  1.
         -4    1    4    4    0  501  0.53146792103E+03  0.25317366017E+03  0.27996887088E+03  0.65187239698E+03  0.00000000000E+00 0. -1.
</event>
<event>
 8    1  0.7096247E-006  0.1621714E+04  0.7818608E-02  0.8342702E-01
         -1   -1    0    0    0  501 -0.00000000000E+00  0.00000000000E+00  0.11704387155E+04  0.11704387155E+04  0.00000000000E+00 0. -1.
          1   -1    0    0  502    0  0.00000000000E+00 -0.00000000000E+00 -0.23670814357E+04  0.23670814357E+04  0.00000000000E+00 0.  1.
    9000010    2    1    2  502    0  0.44631499519E+03  0.12007879375E+04 -0.99850806833E+03  0.19088920994E+04  0.10028768315E+04 0.  0.
   -9000010    2    1    2    0  501 -0.44631499519E+03 -0.12007879375E+04 -0.19813465191E+03  0.16286280517E+04  0.98594282021E+03 0.  0.
        -13    1    3    3    0    0 -0.10009535573E+02  0.98175206710E+03 -0.26366624486E+03  0.10165909757E+04  0.10566000000E+00 0.  1.
         13    1    4    4    0    0 -0.46351381826E+03 -0.13394565080E+04 -0.30849473312E+03  0.14505715453E+04  0.10566000000E+00 0. -1.
          4    1    3    3  502    0  0.45632453076E+03  0.21903587039E+03 -0.73484182347E+03  0.89230112373E+03  0.00000000000E+00 0.  1.
         -4    1    4    4    0  501  0.17198823076E+02  0.13866857047E+03  0.11036008121E+03  0.17805650642E+03  0.00000000000E+00 0. -1.
</event>
<event>
 8    1  0.7096247E-006  0.1134020E+04  0.7818608E-02  0.8657975E-01
          1   -1    0    0  502    0  0.00000000000E+00  0.00000000000E+00  0.75459655507E+03  0.75459655507E+03  0.00000000000E+00 0.  1.
         -1   -1    0    0    0  501 -0.00000000000E+00 -0.00000000000E+00 -0.17100113616E+04  0.17100113616E+04  0.00000000000E+00 0. -1.
    9000010    2    1    2  502    0 -0.20765750277E+03  0.51244946135E+03 -0.54326412850E+03  0.12468304492E+04  0.97658802311E+03 0.  0.
   -9000010    2    1    2    0  501  0.20765750277E+03 -0.51244946135E+03 -0.41215067801E+03  0.12177774674E+04  0.10036870478E+04 0.  0.
        -13    1    3    3    0    0 -0.20216788451E+03 -0.11908176770E+03 -0.56824633465E+03  0.61478144811E+03  0.10566000000E+00 0.  1.
         13    1    4    4    0    0 -0.16473773945E+03 -0.59243575474E+03 -0.53757947239E+03  0.81676823310E+03  0.10566000000E+00 0. -1.
          4    1    3    3  502    0 -0.54896182567E+01  0.63153122905E+03  0.24982206156E+02  0.63204900111E+03  0.00000000000E+00 0.  1.
         -4    1    4    4    0  501  0.37239524222E+03  0.79986293396E+02  0.12542879438E+03  0.40100923433E+03  0.00000000000E+00 0. -1.
</event>
<event>
 8    1  0.7096247E-006  0.9794773E+03  0.7818608E-02  0.8794116E-01
          2   -1    0    0  502    0  0.00000000000E+00  0.00000000000E+00  0.68168903994E+03  0.68168903994E+03  0.00000000000E+00 0.  1.
         -2   -1    0    0    0  501 -0.00000000000E+00 -0.00000000000E+00 -0.14204163863E+04  0.14204163863E+04  0.00000000000E+00 0. -1.
    9000010    2    1    2  502    0  0.27348117790E+03 -0.14609745219E+03 -0.27168948167E+03  0.95663183648E+03  0.86324554786E+03 0.  0.
   -9000010    2    1    2    0  501 -0.27348117790E+03  0.14609745219E+03 -0.46703786471E+03  0.11454735898E+04  0.99892389981E+03 0.  0.
        -13    1    3    3    0    0 -0.25213197692E+03 -0.27683815313E+03 -0.13480799380E+03  0.39797374683E+03  0.10566000000E+00 0.  1.
         13    1    4    4    0    0  0.16860069427E+03  0.30201586737E+03  0.14456590355E+03  0.37488543568E+03  0.10566000000E+00 0. -1.
          4    1    3    3  502    0  0.52561315482E+03  0.13074070094E+03 -0.13688148788E+03  0.55865808964E+03  0.00000000000E+00 0.  1.
         -4    1    4    4    0  501 -0.44208187217E+03 -0.15591841518E+03 -0.61160376825E+03  0.77058815410E+03  0.00000000000E+00 0. -1.
</event>
<event>
 8    1  0.7096247E-006  0.1904582E+04  0.7818608E-02  0.8208387E-01
          2   -1    0    0  502    0  0.00000000000E+00  0.00000000000E+00  0.39751311262E+04  0.39751311262E+04  0.00000000000E+00 0. -1.
         -2   -1    0    0    0  501 -0.00000000000E+00 -0.00000000000E+00 -0.95470377774E+03  0.95470377774E+03  0.00000000000E+00 0.  1.
    9000010    2    1    2  502    0  0.14312267045E+04 -0.79210615854E+03  0.10062806450E+04  0.21700378017E+04  0.10102580256E+04 0.  0.
   -9000010    2    1    2    0  501 -0.14312267045E+04  0.79210615854E+03  0.20141467035E+04  0.27597971023E+04  0.94013353112E+03 0.  0.
        -13    1    3    3    0    0  0.14071646992E+04 -0.73327964964E+03  0.50563844356E+03  0.16653773692E+04  0.10566000000E+00 0.  1.
         13    1    4    4    0    0 -0.10264388287E+04  0.63542247277E+03  0.19868992136E+04  0.23248885746E+04  0.10566000000E+00 0. -1.
          4    1    3    3  502    0  0.24062005312E+02 -0.58826508897E+02  0.50064220141E+03  0.50466043245E+03  0.00000000000E+00 0.  1.
         -4    1    4    4    0  501 -0.40478787576E+03  0.15668368577E+03  0.27247489911E+02  0.43490852769E+03  0.00000000000E+00 0. -1.
</event>
<event>
 8    1  0.7096247E-006  0.1395257E+04  0.7818608E-02  0.8472451E-01
         -2   -1    0    0    0  501 -0.00000000000E+00  0.00000000000E+00  0.42917958917E+04  0.42917958917E+04  0.00000000000E+00 0.  1.
          2   -1    0    0  502    0  0.00000000000E+00 -0.00000000000E+00 -0.50878037901E+03  0.50878037901E+03  0.00000000000E+00 0. -1.
    9000010    2    1    2  502    0 -0.59525371142E+02 -0.94543325188E+03  0.11155999280E+04  0.17957419376E+04  0.10405472616E+04 0.  0.
   -9000010    2    1    2    0  501  0.59525371142E+02  0.94543325188E+03  0.26674155847E+04  0.30048343331E+04  0.10082341812E+04 0.  0.
        -13    1    3    3    0    0 -0.21845147469E+03  0.16320274741E+03  0.32810691333E+03  0.42662670017E+03  0.10566000000E+00 0.  1.
         13    1    4    4    0    0 -0.59841660797E+02  0.47540350499E+03  0.24073108558E+04  0.24545335778E+04  0.10566000000E+00 0. -1.
          4    1    3    3  502    0  0.15892610355E+03 -0.11086359993E+04  0.78749301467E+03  0.13691152375E+04  0.00000000000E+00 0.  1.
         -4    1    4    4    0  501  0.11936703194E+03  0.47002974689E+03  0.26010472891E+03  0.55030075530E+03  0.00000000000E+00 0. -1.
</event>
<event>
 8    1  0.7096247E-006  0.1381446E+04  0.7818608E-02  0.8481174E-01
          2   -1    0    0  502    0  0.00000000000E+00  0.00000000000E+00  0.23294062336E+04  0.23294062336E+04  0.00000000000E+00 0.  1.
         -2   -1    0    0    0  501 -0.00000000000E+00 -0.00000000000E+00 -0.91491253811E+03  0.91491253811E+03  0.00000000000E+00 0. -1.
    9000010    2    1    2  502    0 -0.36485119869E+03 -0.98988577009E+03  0.15727668309E+03  0.13235191442E+04  0.78356667550E+03 0.  0.
   -9000010    2    1    2    0  501  0.36485119869E+03  0.98988577009E+03  0.12572170125E+04  0.19207996276E+04  0.99794105933E+03 0.  0.
        -13    1    3    3    0    0 -0.31007692201E+03 -0.16430439764E+02  0.15827496600E+03  0.34852350414E+03  0.10566000000E+00 0.  1.
         13    1    4    4    0    0  0.78688733462E+02  0.36929881899E+03 -0.10916312702E+03  0.39305232978E+03  0.10566000000E+00 0. -1.
          4    1    3    3  502    0 -0.54774276679E+02 -0.97345533032E+03 -0.99828290730E+00  0.97499564004E+03  0.00000000000E+00 0.  1.
         -4    1    4    4    0  501  0.28616246522E+03  0.62058695110E+03  0.13663801395E+04  0.15277472978E+04  0.00000000000E+00 0. -1.
</event>
<event>
 8    1  0.7096247E-006  0.1023659E+04  0.7818608E-02  0.8752674E-01
          2   -1    0    0  502    0  0.00000000000E+00  0.00000000000E+00  0.10800339829E+04  0.10800339829E+04  0.00000000000E+00 0.  1.
         -2   -1    0    0    0  501 -0.00000000000E+00 -0.00000000000E+00 -0.10072656219E+04  0.10072656219E+04  0.00000000000E+00 0. -1.
    9000010    2    1    2  502    0 -0.86801315449E+02 -0.27068719835E+03  0.23560274580E+03  0.10764904832E+04  0.10111958657E+04 0.  0.
   -9000010    2    1    2    0  501  0.86801315449E+02  0.27068719835E+03 -0.16283438482E+03  0.10108091215E+04  0.95624997547E+03 0.  0.
        -13    1    3    3    0    0 -0.29610332864E+03  0.19936885915E+03 -0.19391150842E+03  0.40623491664E+03  0.10566000000E+00 0.  1.
         13    1    4    4    0    0  0.38211558407E+03 -0.11861771978E+03 -0.30365375626E+03  0.50228288632E+03  0.10566000000E+00 0. -1.
          4    1    3    3  502    0  0.20930201319E+03 -0.47005605750E+03  0.42951425423E+03  0.67025556656E+03  0.00000000000E+00 0.  1.
         -4    1    4    4    0  501 -0.29531426862E+03  0.38930491813E+03  0.14081937144E+03  0.50852623522E+03  0.00000000000E+00 0. -1.
</event>
<event>
 8    1  0.7096247E-006  0.1190913E+04  0.7818608E-02  0.8613437E-01
         -1   -1    0    0    0  501 -0.00000000000E+00  0.00000000000E+00  0.14982841818E+04  0.14982841818E+04  0.00000000000E+00 0.  1.
          1   -1    0    0  502    0  0.00000000000E+00 -0.00000000000E+00 -0.12692954806E+04  0.12692954806E+04  0.00000000000E+00 0. -1.
    9000010    2    1    2  502    0 -0.62376706805E+03  0.40085031186E+02  0.81300745141E+03  0.14528758998E+04  0.10291623289E+04 0.  0.
   -9000010    2    1    2    0  501  0.62376706805E+03 -0.40085031186E+02 -0.58401875017E+03  0.13147037625E+04  0.99833657538E+03 0.  0.
        -13    1    3    3    0    0 -0.83774602650E+03  0.22429927242E+03  0.78390056899E+03  0.11690289482E+04  0.10566000000E+00 0.  1.
         13    1    4    4    0    0  0.69021529670E+03 -0.35434688107E+03 -0.17626869936E+03  0.79563153121E+03  0.10566000000E+00 0. -1.
          4    1    3    3  502    0  0.21397895844E+03 -0.18421424123E+03  0.29106882415E+02  0.28384695160E+03  0.00000000000E+00 0.  1.
         -4    1    4    4    0  501 -0.66448228647E+02  0.31426184989E+03 -0.40775005082E+03  0.51907223132E+03  0.00000000000E+00 0. -1.
</event>
<event>
 8    1  0.7096247E-006  0.1600552E+04  0.7818608E-02  0.8353871E-01
         -1   -1    0    0    0  501 -0.00000000000E+00  0.00000000000E+00  0.37122454698E+04  0.37122454698E+04  0.00000000000E+00 0. -1.
          1   -1    0    0  502    0  0.00000000000E+00 -0.00000000000E+00 -0.14554296843E+04  0.14554296843E+04  0.00000000000E+00 0.  1.
    9000010    2    1    2  502    0 -0.99311420164E+03 -0.73623536976E+03  0.29980580174E+04  0.33929902766E+04  0.99785409989E+03 0.  0.
   -9000010    2    1    2    0  501  0.99311420164E+03  0.73623536976E+03 -0.74124223184E+03  0.17746848775E+04  0.10352526411E+04 0.  0.
        -13    1    3    3    0    0  0.17226095155E+03 -0.74146195069E+02  0.13298455824E+03  0.22990519256E+03  0.10566000000E+00 0.  1.
         13    1    4    4    0    0  0.67296153290E+03  0.34720872773E+02 -0.74367964777E+03  0.10035647430E+04  0.10566000000E+00 0. -1.
          4    1    3    3  502    0 -0.11653751532E+04 -0.66208917470E+03  0.28650734591E+04  0.31630850841E+04  0.00000000000E+00 0.  1.
         -4    1    4    4    0  501  0.32015266875E+03  0.70151449699E+03  0.24374159290E+01  0.77112013447E+03  0.00000000000E+00 0. -1.
</event>
<event>
 8    1  0.7096247E-006  0.1342265E+04  0.7818608E-02  0.8506501E-01
         -1   -1    0    0    0  501 -0.00000000000E+00  0.00000000000E+00  0.10511938816E+04  0.10511938816E+04  0.00000000000E+00 0.  1.
          1   -1    0    0  502    0  0.00000000000E+00 -0.00000000000E+00 -0.23065814571E+04  0.23065814571E+04  0.00000000000E+00 0. -1.
    9000010    2    1    2  502    0  0.13378321783E+02 -0.90161618751E+03  0.22635819749E+03  0.13524276895E+04  0.98220766277E+03 0.  0.
   -9000010    2    1    2    0  501 -0.13378321783E+02  0.90161618751E+03 -0.14817457730E+04  0.20053476492E+04  0.10063587478E+04 0.  0.
        -13    1    3    3    0    0  0.25261034696E+03  0.12013669151E+03  0.92063521731E+02  0.29448347192E+03  0.10566000000E+00 0.  1.
         13    1    4    4    0    0 -0.28447409360E+03  0.96736004123E+03 -0.13784685472E+04  0.17078894888E+04  0.10566000000E+00 0. -1.
          4    1    3    3  502    0 -0.23923202518E+03 -0.10217528790E+04  0.13429467575E+03  0.10579442176E+04  0.00000000000E+00 0.  1.
         -4    1    4    4    0  501  0.27109577181E+03 -0.65743853717E+02 -0.10327722583E+03  0.29745816037E+03  0.00000000000E+00 0. -1.
</event>
<event>
 8    1  0.7096247E-006  0.1251578E+04  0.7818608E-02  0.8568703E-01
          2   -1    0    0  502    0  0.00000000000E+00  0.00000000000E+00  0.45763877393E+03  0.45763877393E+03  0.00000000000E+00 0. -1.
         -2   -1    0    0    0  501 -0.00000000000E+00 -0.00000000000E+00 -0.35833950512E+04  0.35833950512E+04  0.00000000000E+00 0.  1.
    9000010    2    1    2  502    0 -0.67474030306E+03  0.37518697611E+03 -0.19958757294E+04  0.23582694646E+04  0.99089615844E+03 0.  0.
   -9000010    2    1    2    0  501  0.67474030306E+03 -0.37518697611E+03 -0.11298805479E+04  0.16827643605E+04  0.97929877822E+03 0.  0.
        -13    1    3    3    0    0 -0.69202868181E+03  0.95260509756E+02 -0.56013790150E+03  0.89539529875E+03  0.10566000000E+00 0.  1.
         13    1    4    4    0    0  0.26842576894E+03  0.27091377964E+03 -0.88279661886E+02  0.39145878365E+03  0.10566000000E+00 0. -1.
          4    1    3    3  502    0  0.17288378752E+02  0.27992646635E+03 -0.14357378279E+04  0.14628741659E+04  0.00000000000E+00 0.  1.
         -4    1    4    4    0  501  0.40631453412E+03 -0.64610075575E+03 -0.10416008860E+04  0.12913055769E+04  0.00000000000E+00 0. -1.
</event>
<event>
 8    1  0.7096247E-006  0.2687868E+04  0.7818608E-02  0.7934618E-01
          2   -1    0    0  502    0  0.00000000000E+00  0.00000000000E+00  0.18851432179E+04  0.18851432179E+04  0.00000000000E+00 0. -1.
         -2   -1    0    0    0  501 -0.00000000000E+00 -0.00000000000E+00 -0.41756240763E+04  0.41756240763E+04  0.00000000000E+00 0.  1.
    9000010    2    1    2  502    0  0.97942634995E+03 -0.22973768182E+04 -0.27575500395E+03  0.27002416519E+04  0.98896306122E+03 0.  0.
   -9000010    2    1    2    0  501 -0.97942634995E+03  0.22973768182E+04 -0.20147258545E+04  0.33605256423E+04  0.99839676691E+03 0.  0.
        -13    1    3    3    0    0  0.96991892013E+03 -0.23354933966E+04 -0.11148942493E+03  0.25313439159E+04  0.10566000000E+00 0.  1.
         13    1    4    4    0    0 -0.87881417091E+03  0.11565446065E+04 -0.68613804787E+03  0.16064542340E+04  0.10566000000E+00 0. -1.
          4    1    3    3  502    0  0.95074298211E+01  0.38116578436E+02 -0.16426557902E+03  0.16889773599E+03  0.00000000000E+00 0.  1.
         -4    1    4    4    0  501 -0.10061217904E+03  0.11408322117E+04 -0.13285878066E+04  0.17540714084E+04  0.00000000000E+00 0. -1.
</event>
<event>
 8    1  0.7096247E-006  0.1256447E+04  0.7818608E-02  0.8565227E-01
          1   -1    0    0  502    0  0.00000000000E+00  0.00000000000E+00  0.29313136796E+04  0.29313136796E+04  0.00000000000E+00 0. -1.
         -1   -1    0    0    0  501 -0.00000000000E+00 -0.00000000000E+00 -0.53864495169E+03  0.53864495169E+03  0.00000000000E+00 0.  1.
    9000010    2    1    2  502    0  0.95416224671E+02  0.73508983670E+03  0.12229426602E+04  0.17567171008E+04  0.10202964755E+04 0.  0.
   -9000010    2    1    2    0  501 -0.95416224671E+02 -0.73508983670E+03  0.11697260677E+04  0.17132415306E+04  0.10087002253E+04 0.  0.
        -13    1    3    3    0    0  0.53634308487E+02  0.90903651167E+01 -0.17374171918E+03  0.18205897378E+03  0.10566000000E+00 0.  1.
         13    1    4    4    0    0  0.55273690318E+02 -0.81374133249E+03  0.12748130507E+04  0.15133996374E+04  0.10566000000E+00 0. -1.
          4    1    3    3  502    0  0.41781916184E+02  0.72599947159E+03  0.13966843794E+04  0.15746581270E+04  0.00000000000E+00 0.  1.
         -4    1    4    4    0  501 -0.15068991499E+03  0.78651495790E+02 -0.10508698298E+03  0.19984189316E+03  0.00000000000E+00 0. -1.
</event>
<event>
 8    1  0.7096247E-006  0.1109561E+04  0.7818608E-02  0.8677966E-01
         -2   -1    0    0    0  501 -0.00000000000E+00  0.00000000000E+00  0.39400305740E+03  0.39400305740E+03  0.00000000000E+00 0.  1.
          2   -1    0    0  502    0  0.00000000000E+00 -0.00000000000E+00 -0.33494127006E+04  0.33494127006E+04  0.00000000000E+00 0. -1.
    9000010    2    1    2  502    0 -0.33171240351E+03 -0.39832601185E+03 -0.19807397102E+04  0.22778489460E+04  0.99828317178E+03 0.  0.
   -9000010    2    1    2    0  501  0.33171240351E+03  0.39832601185E+03 -0.97466993308E+03  0.14655668120E+04  0.96395428923E+03 0.  0.
        -13    1    3    3    0    0 -0.15705220960E+03  0.32313441657E+03 -0.44346234797E+03  0.57073646541E+03  0.10566000000E+00 0.  1.
         13    1    4    4    0    0  0.16596772240E+03  0.41837628374E+03 -0.11430346338E+04  0.12284592728E+04  0.10566000000E+00 0. -1.
          4    1    3    3  502    0 -0.17466019391E+03 -0.72146042842E+03 -0.15372773622E+04  0.17071124806E+04  0.00000000000E+00 0.  1.
         -4    1    4    4    0  501  0.16574468111E+03 -0.20050271896E+02  0.16836470072E+03  0.23710753924E+03  0.00000000000E+00 0. -1.
</event>
<event>
 8    1  0.7096247E-006  0.1280229E+04  0.7818608E-02  0.8548479E-01
          2   -1    0    0  502    0  0.00000000000E+00  0.00000000000E+00  0.16225554677E+04  0.16225554677E+04  0.00000000000E+00 0. -1.
         -2   -1    0    0    0  501 -0.00000000000E+00 -0.00000000000E+00 -0.10109048221E+04  0.10109048221E+04  0.00000000000E+00 0.  1.
    9000010    2    1    2  502    0  0.43272644784E+03 -0.67011637206E+03  0.29647339414E+03  0.13452016840E+04  0.10418075477E+04 0.  0.
   -9000010    2    1    2    0  501 -0.43272644784E+03  0.67011637206E+03  0.31517725145E+03  0.12882586059E+04  0.96123119228E+03 0.  0.
        -13    1    3    3    0    0 -0.18613691036E+03 -0.76129205223E+02  0.43223634681E+03  0.47672935294E+03  0.10566000000E+00 0.  1.
         13    1    4    4    0    0 -0.16291153950E+02 -0.21539901210E+03  0.21470569718E+03  0.30456638632E+03  0.10566000000E+00 0. -1.
          4    1    3    3  502    0  0.61886335820E+03 -0.59398716684E+03 -0.13576295267E+03  0.86847233106E+03  0.00000000000E+00 0.  1.
         -4    1    4    4    0  501 -0.41643529389E+03  0.88551538416E+03  0.10047155427E+03  0.98369221955E+03  0.00000000000E+00 0. -1.
</event>
<event>
 8    1  0.7096247E-006  0.1299997E+04  0.7818608E-02  0.8534841E-01
          2   -1    0    0  502    0  0.00000000000E+00  0.00000000000E+00  0.20624463158E+04  0.20624463158E+04  0.00000000000E+00 0. -1.
         -2   -1    0    0    0  501 -0.00000000000E+00 -0.00000000000E+00 -0.13514541106E+04  0.13514541106E+04  0.00000000000E+00 0.  1.
    9000010    2    1    2  502    0 -0.66943845196E+03 -0.32367879662E+03 -0.72116161679E+03  0.14515510552E+04  0.10168631097E+04 0.  0.
   -9000010    2    1    2    0  501  0.66943845196E+03  0.32367879662E+03  0.14321538220E+04  0.19623493713E+04  0.11166175176E+04 0.  0.
        -13    1    3    3    0    0  0.10717020072E+03  0.15478414535E+03  0.10953863585E+03  0.21781255125E+03  0.10566000000E+00 0.  1.
         13    1    4    4    0    0  0.47934716656E+03 -0.17375037503E+03  0.13242494002E+04  0.14190135250E+04  0.10566000000E+00 0. -1.
          4    1    3    3  502    0 -0.77660865268E+03 -0.47846294197E+03 -0.83070025265E+03  0.12337385039E+04  0.00000000000E+00 0.  1.
         -4    1    4    4    0  501  0.19009128540E+03  0.49742917166E+03  0.10790442182E+03  0.54333584628E+03  0.00000000000E+00 0. -1.
</event>
<event>
 8    1  0.7096247E-006  0.1167692E+04  0.7818608E-02  0.8631296E-01
          4   -1    0    0  502    0  0.00000000000E+00  0.00000000000E+00  0.87047485216E+03  0.87047485216E+03  0.00000000000E+00 0.  1.
         -4   -1    0    0    0  501 -0.00000000000E+00 -0.00000000000E+00 -0.15752429005E+04  0.15752429005E+04  0.00000000000E+00 0. -1.
    9000010    2    1    2  502    0 -0.29834522050E+03 -0.67881492733E+03 -0.43862796351E+03  0.12342659407E+04  0.88386556997E+03 0.  0.
   -9000010    2    1    2    0  501  0.29834522050E+03  0.67881492733E+03 -0.26614008480E+03  0.12114518120E+04  0.92031808185E+03 0.  0.
        -13    1    3    3    0    0 -0.30696837482E+03  0.11061997406E+03 -0.27788379584E+03  0.42858578716E+03  0.10566000000E+00 0.  1.
         13    1    4    4    0    0  0.44741809084E+03  0.60986458004E+03 -0.51372002922E+03  0.91434459236E+03  0.10566000000E+00 0. -1.
          4    1    3    3  502    0  0.86231543226E+01 -0.78943490139E+03 -0.16074416767E+03  0.80568015351E+03  0.00000000000E+00 0.  1.
         -4    1    4    4    0  501 -0.14907287034E+03  0.68950347298E+02  0.24757994441E+03  0.29710721960E+03  0.00000000000E+00 0. -1.
</event>
<event>
 8    1  0.7096247E-006  0.1582482E+04  0.7818608E-02  0.8363551E-01
         -2   -1    0    0    0  501 -0.00000000000E+00  0.00000000000E+00  0.72352176741E+03  0.72352176741E+03  0.00000000000E+00 0. -1.
          2   -1    0    0  502    0  0.00000000000E+00 -0.00000000000E+00 -0.35761101330E+04  0.35761101330E+04  0.00000000000E+00 0.  1.
    9000010    2    1    2  502    0 -0.62555248347E+03  0.10495162815E+04 -0.18127448132E+04  0.24071136247E+04  0.10076467187E+04 0.  0.
   -9000010    2    1    2    0  501  0.62555248347E+03 -0.10495162815E+04 -0.10398435524E+04  0.18925182757E+04  0.10037681384E+04 0.  0.
        -13    1    3    3    0    0 -0.17344961947E+03  0.95456424884E+02  0.10040714158E+03  0.22198717258E+03  0.10566000000E+00 0.  1.
         13    1    4    4    0    0  0.45625089768E+03 -0.33524612384E+03  0.60920445503E+02  0.56944372596E+03  0.10566000000E+00 0. -1.
          4    1    3    3  502    0 -0.45210286400E+03  0.95405985665E+03 -0.19131519548E+04  0.21851264522E+04  0.00000000000E+00 0.  1.
         -4    1    4    4    0  501  0.16930158579E+03 -0.71427015769E+03 -0.11007639979E+04  0.13230745497E+04  0.00000000000E+00 0. -1.
</event>
<event>
 8    1  0.7096247E-006  0.1453070E+04  0.7818608E-02  0.8437031E-01
         -2   -1    0    0    0  501 -0.00000000000E+00  0.00000000000E+00  0.86589267460E+03  0.86589267460E+03  0.00000000000E+00 0. -1.
          2   -1    0    0  502    0  0.00000000000E+00 -0.00000000000E+00 -0.26862026124E+04  0.26862026124E+04  0.00000000000E+00 0.  1.
    9000010    2    1    2  502    0  0.69908393802E+03  0.77781662109E+03 -0.38105388873E+03  0.15191369007E+04  0.10338557968E+04 0.  0.
   -9000010    2    1    2    0  501 -0.69908393802E+03 -0.77781662109E+03 -0.14392560490E+04  0.20329583862E+04  0.98374019792E+03 0.  0.
        -13    1    3    3    0    0  0.71511991703E+03  0.93992015857E+03 -0.53358372944E+03  0.12959776262E+04  0.10566000000E+00 0.  1.
         13    1    4    4    0    0 -0.28046404829E+00 -0.52157349217E+03 -0.10950490896E+04  0.12129185901E+04  0.10566000000E+00 0. -1.
          4    1    3    3  502    0 -0.16035979011E+02 -0.16210353748E+03  0.15252984071E+03  0.22315927450E+03  0.00000000000E+00 0.  1.
         -4    1    4    4    0  501 -0.69880347397E+03 -0.25624312892E+03 -0.34420695948E+03  0.82003979617E+03  0.00000000000E+00 0. -1.
</event>
<event>
 8    1  0.7096247E-006  0.1339410E+04  0.7818608E-02  0.8508381E-01
          2   -1    0    0  502    0  0.00000000000E+00  0.00000000000E+00  0.78333189729E+03  0.78333189729E+03  0.00000000000E+00 0.  1.
         -2   -1    0    0    0  501 -0.00000000000E+00 -0.00000000000E+00 -0.25358802930E+04  0.25358802930E+04  0.00000000000E+00 0. -1.
    9000010    2    1    2  502    0 -0.11115983626E+03 -0.86395698697E+03 -0.36242800087E+03  0.13919107237E+04  0.10233685662E+04 0.  0.
   -9000010    2    1    2    0  501  0.11115983626E+03  0.86395698697E+03 -0.13901203948E+04  0.19273014666E+04  0.10115720669E+04 0.  0.
        -13    1    3    3    0    0  0.72510644952E+02 -0.84903344317E+03 -0.63513185174E+03  0.10627831677E+04  0.10566000000E+00 0.  1.
         13    1    4    4    0    0  0.23854164222E+03  0.59537313452E+03 -0.14830949299E+04  0.16158409162E+04  0.10566000000E+00 0. -1.
          4    1    3    3  502    0 -0.18367048121E+03 -0.14923543797E+02  0.27270385087E+03  0.32912755598E+03  0.00000000000E+00 0.  1.
         -4    1    4    4    0  501 -0.12738180596E+03  0.26858385244E+03  0.92974535044E+02  0.31146055039E+03  0.00000000000E+00 0. -1.
</event>
<event>
 8    1  0.7096247E-006  0.1315447E+04  0.7818608E-02  0.8524355E-01
         -2   -1    0    0    0  501 -0.00000000000E+00  0.00000000000E+00  0.72759151093E+03  0.72759151093E+03  0.00000000000E+00 0.  1.
          2   -1    0    0  502    0  0.00000000000E+00 -0.00000000000E+00 -0.24949344128E+04  0.24949344128E+04  0.00000000000E+00 0. -1.
    9000010    2    1    2  502    0 -0.56439495280E+03 -0.68261304397E+03 -0.12420087364E+04  0.18211412590E+04  0.99471983651E+03 0.  0.
   -9000010    2    1    2    0  501  0.56439495280E+03  0.68261304397E+03 -0.52533416547E+03  0.14013846648E+04  0.95047396744E+03 0.  0.
        -13    1    3    3    0    0  0.13366723962E+03 -0.38553880395E+03 -0.90156444562E+03  0.98960879193E+03  0.10566000000E+00 0.  1.
         13    1    4    4    0    0  0.18198190610E+03  0.81328306395E+03 -0.54668351740E+03  0.99669937073E+03  0.10566000000E+00 0. -1.
          4    1    3    3  502    0 -0.69806219242E+03 -0.29707424001E+03 -0.34044429082E+03  0.83153246703E+03  0.00000000000E+00 0.  1.
         -4    1    4    4    0  501  0.38241304671E+03 -0.13067001998E+03  0.21349351929E+02  0.40468529407E+03  0.00000000000E+00 0. -1.
</event>
<event>
 8    1  0.7096247E-006  0.1536866E+04  0.7818608E-02  0.8388593E-01
         -1   -1    0    0    0  501 -0.00000000000E+00  0.00000000000E+00  0.17264272658E+04  0.17264272658E+04  0.00000000000E+00 0. -1.
          1   -1    0    0  502    0  0.00000000000E+00 -0.00000000000E+00 -0.14474968489E+04  0.14474968489E+04  0.00000000000E+00 0.  1.
    9000010    2    1    2  502    0  0.10156894946E+04 -0.60139059137E+03 -0.23301377569E+03  0.15421099259E+04  0.96463040139E+03 0.  0.
   -9000010    2    1    2    0  501 -0.10156894946E+04  0.60139059137E+03  0.51194419259E+03  0.16318141887E+04  0.10037105645E+04 0.  0.
        -13    1    3    3    0    0  0.53605015385E+03 -0.60617609412E+03  0.26420698923E+03  0.85123708145E+03  0.10566000000E+00 0.  1.
         13    1    4    4    0    0  0.14087810696E+03  0.32071061007E+03  0.44228482590E+02  0.35306954877E+03  0.10566000000E+00 0. -1.
          4    1    3    3  502    0  0.47963934071E+03  0.47855027423E+01 -0.49722076492E+03  0.69087284449E+03  0.00000000000E+00 0.  1.
         -4    1    4    4    0  501 -0.11565676015E+04  0.28067998130E+03  0.46771571000E+03  0.12787446399E+04  0.00000000000E+00 0. -1.
</event>
<event>
 8    1  0.7096247E-006  0.1333529E+04  0.7818608E-02  0.8512270E-01
          2   -1    0    0  502    0  0.00000000000E+00  0.00000000000E+00  0.15414765235E+04  0.15414765235E+04  0.00000000000E+00 0.  1.
         -2   -1    0    0    0  501 -0.00000000000E+00 -0.00000000000E+00 -0.12421003415E+04  0.12421003415E+04  0.00000000000E+00 0. -1.
    9000010    2    1    2  502    0  0.49599013800E+03 -0.80334452350E+03 -0.20922548370E+03  0.14140216475E+04  0.10316555996E+04 0.  0.
   -9000010    2    1    2    0  501 -0.49599013800E+03  0.80334452350E+03  0.50860166562E+03  0.13695552175E+04  0.85184341228E+03 0.  0.
        -13    1    3    3    0    0 -0.28887534264E+03 -0.10752187414E+03  0.93866211684E+02  0.32221234282E+03  0.10566000000E+00 0.  1.
         13    1    4    4    0    0  0.18453486677E+02  0.73665685861E+03  0.19076305966E+03  0.76117962046E+03  0.10566000000E+00 0. -1.
          4    1    3    3  502    0  0.78486548064E+03 -0.69582264935E+03 -0.30309169539E+03  0.10918093047E+04  0.00000000000E+00 0.  1.
         -4    1    4    4    0  501 -0.51444362468E+03  0.66687664891E+02  0.31783860596E+03  0.60837559703E+03  0.00000000000E+00 0. -1.
</event>
