<event>
 5    1  0.2540860E-005  0.2622889E+02  0.7818608E-02  0.1438022E+00
         -4   -1    0    0    0  501 -0.00000000000E+00  0.00000000000E+00  0.76930955828E+02  0.76930955828E+02  0.00000000000E+00 0. -1.
         21   -1    0    0  501  502  0.00000000000E+00 -0.00000000000E+00 -0.36587499873E+02  0.36587499873E+02  0.00000000000E+00 0. -1.
        -13    1    1    2    0    0 -0.25095856732E+02 -0.21646063926E+02  0.59798992074E+01  0.33676764500E+02  0.10566000000E+00 0.  1.
         13    1    1    2    0    0  0.11833300601E+02  0.22200029490E+02  0.52001355566E+02  0.57766949523E+02  0.10566000000E+00 0. -1.
         -4    1    1    2    0  502  0.13262556131E+02 -0.55396556350E+00 -0.17637798819E+02  0.22074741678E+02  0.00000000000E+00 0. -1.
</event>
<event>
 5    1  0.2540860E-005  0.3270428E+03  0.7818608E-02  0.1019270E+00
          4   -1    0    0  502    0 -0.00000000000E+00  0.00000000000E+00  0.19128126947E+04  0.19128126947E+04  0.00000000000E+00 0.  1.
         21   -1    0    0  501  502  0.00000000000E+00 -0.00000000000E+00 -0.26836607931E+03  0.26836607931E+03  0.00000000000E+00 0.  1.
        -13    1    1    2    0    0 -0.11802234201E+03  0.32322808658E+03 -0.12973970484E+03  0.36774729278E+03  0.10566000000E+00 0.  1.
         13    1    1    2    0    0  0.11199525418E+03 -0.11149626730E+03  0.91315014702E+03  0.92672409958E+03  0.10566000000E+00 0. -1.
          4    1    1    2  501    0  0.60270878259E+01 -0.21173181928E+03  0.86103617317E+03  0.88670738161E+03  0.00000000000E+00 0.  1.
</event>
<event>
 5    1  0.2540860E-005  0.1997671E+03  0.7818608E-02  0.1060296E+00
         -4   -1    0    0    0  501 -0.00000000000E+00  0.00000000000E+00  0.93398151173E+03  0.93398151173E+03  0.00000000000E+00 0. -1.
         21   -1    0    0  501  502  0.00000000000E+00 -0.00000000000E+00 -0.17794063994E+03  0.17794063994E+03  0.00000000000E+00 0.  1.
        -13    1    1    2    0    0  0.90209679222E+02  0.92852060038E+02 -0.68692081752E+02  0.14655341872E+03  0.10566000000E+00 0.  1.
         13    1    1    2    0    0 -0.20729380817E+03 -0.41099147159E+02  0.80929192317E+03  0.83642889170E+03  0.10566000000E+00 0. -1.
         -4    1    1    2    0  502  0.11708412894E+03 -0.51752912879E+02  0.15441030379E+02  0.12893984125E+03  0.00000000000E+00 0. -1.
</event>
<event>
 5    1  0.2540860E-005  0.5639021E+03  0.7818608E-02  0.9347932E-01
         21   -1    0    0  501  502  0.00000000000E+00  0.00000000000E+00  0.58558014112E+03  0.58558014112E+03  0.00000000000E+00 0.  1.
          4   -1    0    0  502    0 -0.00000000000E+00 -0.00000000000E+00 -0.14489537030E+04  0.14489537030E+04  0.00000000000E+00 0.  1.
        -13    1    1    2    0    0  0.28123044563E+02 -0.54038371058E+03 -0.62355669474E+03  0.82560791118E+03  0.10566000000E+00 0.  1.
         13    1    1    2    0    0 -0.44149210401E+02  0.58961509994E+03 -0.60156584799E+03  0.84349072282E+03  0.10566000000E+00 0. -1.
          4    1    1    2  501    0  0.16026165838E+02 -0.49231389359E+02  0.36174898082E+03  0.36543521015E+03  0.00000000000E+00 0.  1.
</event>
<event>
 5    1  0.2540860E-005  0.3092488E+03  0.7818608E-02  0.1019811E+00
         -4   -1    0    0    0  501 -0.00000000000E+00  0.00000000000E+00  0.52266961657E+03  0.52266961657E+03  0.00000000000E+00 0. -1.
         21   -1    0    0  501  502  0.00000000000E+00 -0.00000000000E+00 -0.14261710315E+04  0.14261710315E+04  0.00000000000E+00 0. -1.
        -13    1    1    2    0    0 -0.10385129218E+02 -0.18345605702E+03  0.31349890579E+03  0.36338072439E+03  0.10566000000E+00 0.  1.
         13    1    1    2    0    0 -0.17140317386E+03 -0.23698112586E+03 -0.10625490856E+04  0.11020660926E+04  0.10566000000E+00 0. -1.
         -4    1    1    2    0  502  0.18178830307E+03  0.42043718288E+03 -0.15445123512E+03  0.48339383107E+03  0.00000000000E+00 0. -1.
</event>
<event>
 5    1  0.2540860E-005  0.1120853E+03  0.7818608E-02  0.1198830E+00
         21   -1    0    0  501  502  0.00000000000E+00  0.00000000000E+00  0.73553891292E+02  0.73553891292E+02  0.00000000000E+00 0. -1.
         -4   -1    0    0    0  501 -0.00000000000E+00 -0.00000000000E+00 -0.83528138157E+03  0.83528138157E+03  0.00000000000E+00 0. -1.
        -13    1    1    2    0    0 -0.18083152015E+02 -0.26105769476E+02 -0.18608352141E+03  0.18877393806E+03  0.10566000000E+00 0.  1.
         13    1    1    2    0    0  0.27515084715E+02  0.13577390575E+03 -0.59270001862E+03  0.60867475436E+03  0.10566000000E+00 0. -1.
         -4    1    1    2    0  502 -0.94319327002E+01 -0.10966813627E+03  0.17056049750E+02  0.11138658044E+03  0.00000000000E+00 0. -1.
</event>
<event>
 5    1  0.2540860E-005  0.1341774E+03  0.7818608E-02  0.1184142E+00
         -4   -1    0    0    0  501 -0.00000000000E+00  0.00000000000E+00  0.27594739497E+03  0.27594739497E+03  0.00000000000E+00 0. -1.
         21   -1    0    0  501  502  0.00000000000E+00 -0.00000000000E+00 -0.13431272633E+03  0.13431272633E+03  0.00000000000E+00 0. -1.
        -13    1    1    2    0    0  0.22915060690E+02 -0.12251658505E+02  0.16718006294E+02  0.30898317770E+02  0.10566000000E+00 0.  1.
         13    1    1    2    0    0 -0.13834989134E+03  0.71522891304E+02  0.18031912892E+03  0.23826711026E+03  0.10566000000E+00 0. -1.
         -4    1    1    2    0  502  0.11543483065E+03 -0.59271232800E+02 -0.55402466568E+02  0.14109469326E+03  0.00000000000E+00 0. -1.
</event>
<event>
 5    1  0.2540860E-005  0.3004475E+03  0.7818608E-02  0.1007121E+00
          4   -1    0    0  502    0 -0.00000000000E+00  0.00000000000E+00  0.18689320613E+03  0.18689320613E+03  0.00000000000E+00 0.  1.
         21   -1    0    0  501  502  0.00000000000E+00 -0.00000000000E+00 -0.98999672848E+03  0.98999672848E+03  0.00000000000E+00 0. -1.
        -13    1    1    2    0    0 -0.98391732233E+01  0.29344217491E+03 -0.39320478393E+01  0.29363343050E+03  0.10566000000E+00 0.  1.
         13    1    1    2    0    0  0.60816749940E+01 -0.33323831256E+03 -0.67485044066E+03  0.75266718286E+03  0.10566000000E+00 0. -1.
          4    1    1    2  501    0  0.37574982292E+01  0.39796137652E+02 -0.12432103385E+03  0.13058932124E+03  0.00000000000E+00 0.  1.
</event>
<event>
 5    1  0.2540860E-005  0.5062626E+03  0.7818608E-02  0.9739041E-01
         21   -1    0    0  501  502  0.00000000000E+00  0.00000000000E+00  0.22773696737E+03  0.22773696737E+03  0.00000000000E+00 0. -1.
         -4   -1    0    0    0  501 -0.00000000000E+00 -0.00000000000E+00 -0.17299779896E+04  0.17299779896E+04  0.00000000000E+00 0. -1.
        -13    1    1    2    0    0  0.17638589852E+03  0.72193369888E+02 -0.42582782586E+03  0.46653318884E+03  0.10566000000E+00 0.  1.
         13    1    1    2    0    0  0.71334947910E+00  0.45928009418E+03 -0.60127440823E+03  0.75661723410E+03  0.10566000000E+00 0. -1.
         -4    1    1    2    0  502 -0.17709924800E+03 -0.53147346407E+03 -0.47513878815E+03  0.73456453403E+03  0.00000000000E+00 0. -1.
</event>
<event>
 5    1  0.2540860E-005  0.2552547E+02  0.7818608E-02  0.1494060E+00
         21   -1    0    0  501  502  0.00000000000E+00  0.00000000000E+00  0.13831175254E+03  0.13831175254E+03  0.00000000000E+00 0. -1.
         -4   -1    0    0    0  501 -0.00000000000E+00 -0.00000000000E+00 -0.97939268973E+01  0.97939268973E+01  0.00000000000E+00 0. -1.
        -13    1    1    2    0    0 -0.54914661174E+01  0.10784198573E+02  0.60528200694E+02  0.61726245490E+02  0.10566000000E+00 0.  1.
         13    1    1    2    0    0  0.15039597801E+02 -0.26519910554E+02  0.57783238679E+02  0.65333062029E+02  0.10566000000E+00 0. -1.
         -4    1    1    2    0  502 -0.95481316837E+01  0.15735711980E+02  0.10206386266E+02  0.21046371915E+02  0.00000000000E+00 0. -1.
</event>
<event>
 5    1  0.2540860E-005  0.4970172E+03  0.7818608E-02  0.9818271E-01
          4   -1    0    0  502    0 -0.00000000000E+00  0.00000000000E+00  0.33380648857E+04  0.33380648857E+04  0.00000000000E+00 0.  1.
         21   -1    0    0  501  502  0.00000000000E+00 -0.00000000000E+00 -0.10725707609E+03  0.10725707609E+03  0.00000000000E+00 0.  1.
        -13    1    1    2    0    0  0.51574725841E+03  0.13025433812E+03  0.10703196903E+04  0.11952178369E+04  0.10566000000E+00 0.  1.
         13    1    1    2    0    0 -0.11503451671E+03  0.10164776306E+03  0.75088703088E+03  0.76641800088E+03  0.10566000000E+00 0. -1.
          4    1    1    2  501    0 -0.40071274171E+03 -0.23190210117E+03  0.14096010884E+04  0.14836861240E+04  0.00000000000E+00 0.  1.
</event>
<event>
 5    1  0.2540860E-005  0.6710888E+03  0.7818608E-02  0.9166007E-01
          4   -1    0    0  502    0 -0.00000000000E+00  0.00000000000E+00  0.12890373889E+04  0.12890373889E+04  0.00000000000E+00 0.  1.
         21   -1    0    0  501  502  0.00000000000E+00 -0.00000000000E+00 -0.57356967043E+03  0.57356967043E+03  0.00000000000E+00 0. -1.
        -13    1    1    2    0    0  0.17548908304E+03 -0.77900850786E+03  0.41602145620E+03  0.90040243046E+03  0.10566000000E+00 0.  1.
         13    1    1    2    0    0 -0.18798787983E+03  0.56019057543E+03  0.40756060806E+03  0.71781514624E+03  0.10566000000E+00 0. -1.
          4    1    1    2  501    0  0.12498796789E+02  0.21881793243E+03 -0.10811434577E+03  0.24438948266E+03  0.00000000000E+00 0.  1.
</event>
<event>
 5    1  0.2540860E-005  0.5564062E+02  0.7818608E-02  0.1270384E+00
         21   -1    0    0  501  502  0.00000000000E+00  0.00000000000E+00  0.15634752235E+03  0.15634752235E+03  0.00000000000E+00 0. -1.
          4   -1    0    0  502    0 -0.00000000000E+00 -0.00000000000E+00 -0.64570479427E+02  0.64570479427E+02  0.00000000000E+00 0.  1.
        -13    1    1    2    0    0  0.49495385356E+02  0.20768950412E+02 -0.31058360165E+02  0.62014315871E+02  0.10566000000E+00 0.  1.
         13    1    1    2    0    0 -0.52018445607E+02 -0.39201685700E+02  0.45731315506E+02  0.79586777966E+02  0.10566000000E+00 0. -1.
          4    1    1    2  501    0  0.25230602504E+01  0.18432735287E+02  0.77104087586E+02  0.79316907943E+02  0.00000000000E+00 0.  1.
</event>
<event>
 5    1  0.2540860E-005  0.1556268E+03  0.7818608E-02  0.1095691E+00
         21   -1    0    0  501  502  0.00000000000E+00  0.00000000000E+00  0.61564829698E+02  0.61564829698E+02  0.00000000000E+00 0.  1.
         -4   -1    0    0    0  501 -0.00000000000E+00 -0.00000000000E+00 -0.46017594082E+03  0.46017594082E+03  0.00000000000E+00 0. -1.
        -13    1    1    2    0    0  0.93330444471E+02  0.12146304664E+03 -0.17693583076E+03  0.23403021799E+03  0.10566000000E+00 0.  1.
         13    1    1    2    0    0 -0.10540245092E+03 -0.11767003743E+03 -0.22472455875E+03  0.27469447181E+03  0.10566000000E+00 0. -1.
         -4    1    1    2    0  502  0.12072006452E+02 -0.37930092099E+01  0.30492783862E+01  0.13016080721E+02  0.00000000000E+00 0. -1.
</event>
<event>
 5    1  0.2540860E-005  0.1001535E+03  0.7818608E-02  0.1164302E+00
         21   -1    0    0  501  502  0.00000000000E+00  0.00000000000E+00  0.50739045965E+02  0.50739045965E+02  0.00000000000E+00 0.  1.
         -4   -1    0    0    0  501 -0.00000000000E+00 -0.00000000000E+00 -0.23418687305E+03  0.23418687305E+03  0.00000000000E+00 0. -1.
        -13    1    1    2    0    0  0.42869593962E+01 -0.10356052553E+03 -0.77900849427E+02  0.12965999373E+03  0.10566000000E+00 0.  1.
         13    1    1    2    0    0  0.53671448759E+01  0.97618497739E+02 -0.10562902973E+03  0.14392942865E+03  0.10566000000E+00 0. -1.
         -4    1    1    2    0  502 -0.96541042721E+01  0.59420277887E+01  0.82052069374E-01  0.11336496641E+02  0.00000000000E+00 0. -1.
</event>
<event>
 5    1  0.2540860E-005  0.3105045E+03  0.7818608E-02  0.1014723E+00
         21   -1    0    0  501  502  0.00000000000E+00  0.00000000000E+00  0.82065358631E+03  0.82065358631E+03  0.00000000000E+00 0. -1.
         -4   -1    0    0    0  501 -0.00000000000E+00 -0.00000000000E+00 -0.67514079553E+03  0.67514079553E+03  0.00000000000E+00 0. -1.
        -13    1    1    2    0    0  0.73189036252E+02 -0.20033360690E+03 -0.30946843946E+03  0.37584693063E+03  0.10566000000E+00 0.  1.
         13    1    1    2    0    0 -0.26355134536E+03 -0.60248617794E+02 -0.23501232896E+03  0.35821782970E+03  0.10566000000E+00 0. -1.
         -4    1    1    2    0  502  0.19036230911E+03  0.26058222469E+03  0.68999355920E+03  0.76172962151E+03  0.00000000000E+00 0. -1.
</event>
<event>
 5    1  0.2540860E-005  0.4632863E+03  0.7818608E-02  0.9645388E-01
          4   -1    0    0  502    0 -0.00000000000E+00  0.00000000000E+00  0.13215683078E+04  0.13215683078E+04  0.00000000000E+00 0.  1.
         21   -1    0    0  501  502  0.00000000000E+00 -0.00000000000E+00 -0.37338902702E+03  0.37338902702E+03  0.00000000000E+00 0.  1.
        -13    1    1    2    0    0 -0.25324744534E+03  0.32511304104E+03  0.17848012855E+03  0.44909678854E+03  0.10566000000E+00 0.  1.
         13    1    1    2    0    0 -0.33205467950E+03 -0.92888261539E+02  0.21238152009E+03  0.40496229522E+03  0.10566000000E+00 0. -1.
          4    1    1    2  501    0  0.58530212484E+03 -0.23222477950E+03  0.55731763216E+03  0.84089825108E+03  0.00000000000E+00 0.  1.
</event>
<event>
 5    1  0.2540860E-005  0.4077060E+03  0.7818608E-02  0.9783741E-01
         21   -1    0    0  501  502  0.00000000000E+00  0.00000000000E+00  0.14470091282E+03  0.14470091282E+03  0.00000000000E+00 0. -1.
          4   -1    0    0  502    0 -0.00000000000E+00 -0.00000000000E+00 -0.32941951547E+04  0.32941951547E+04  0.00000000000E+00 0.  1.
        -13    1    1    2    0    0 -0.35915188378E+03  0.34017445420E+03 -0.21089633173E+04  0.21662029037E+04  0.10566000000E+00 0.  1.
         13    1    1    2    0    0 -0.47219702823E+02 -0.30930808787E+03 -0.56978942155E+03  0.65004706724E+03  0.10566000000E+00 0. -1.
          4    1    1    2  501    0  0.40637158660E+03 -0.30866366326E+02 -0.47074150306E+03  0.62264609665E+03  0.00000000000E+00 0.  1.
</event>
<event>
 5    1  0.2540860E-005  0.4676586E+03  0.7818608E-02  0.9829071E-01
         21   -1    0    0  501  502  0.00000000000E+00  0.00000000000E+00  0.17681413708E+04  0.17681413708E+04  0.00000000000E+00 0.  1.
          4   -1    0    0  502    0 -0.00000000000E+00 -0.00000000000E+00 -0.23360727764E+03  0.23360727764E+03  0.00000000000E+00 0.  1.
        -13    1    1    2    0    0  0.30246484159E+03  0.18234017616E+03  0.38616369762E+02  0.35528038986E+03  0.10566000000E+00 0.  1.
         13    1    1    2    0    0  0.69904026803E+02  0.16330077295E+03  0.33311428739E+03  0.37751669504E+03  0.10566000000E+00 0. -1.
          4    1    1    2  501    0 -0.37236886839E+03 -0.34564094911E+03  0.11628034361E+04  0.12689515636E+04  0.00000000000E+00 0.  1.
</event>
<event>
 5    1  0.2540860E-005  0.4808859E+03  0.7818608E-02  0.9768582E-01
         -4   -1    0    0    0  501 -0.00000000000E+00  0.00000000000E+00  0.62655441059E+03  0.62655441059E+03  0.00000000000E+00 0. -1.
         21   -1    0    0  501  502  0.00000000000E+00 -0.00000000000E+00 -0.58230186340E+03  0.58230186340E+03  0.00000000000E+00 0. -1.
        -13    1    1    2    0    0 -0.41032935708E+02 -0.19662321158E+03  0.41705681897E+02  0.20514327727E+03  0.10566000000E+00 0.  1.
         13    1    1    2    0    0 -0.43972942305E+03 -0.55468372681E+01  0.14502494614E+03  0.46306044861E+03  0.10566000000E+00 0. -1.
         -4    1    1    2    0  502  0.48076235876E+03  0.20217004884E+03 -0.14247808085E+03  0.54065254811E+03  0.00000000000E+00 0. -1.
</event>
<event>
 5    1  0.2540860E-005  0.6757159E+03  0.7818608E-02  0.9158970E-01
          4   -1    0    0  502    0 -0.00000000000E+00  0.00000000000E+00  0.40913282222E+04  0.40913282222E+04  0.00000000000E+00 0.  1.
         21   -1    0    0  501  502  0.00000000000E+00 -0.00000000000E+00 -0.19384134701E+03  0.19384134701E+03  0.00000000000E+00 0.  1.
        -13    1    1    2    0    0  0.12562307413E+03  0.74405551024E+03  0.21917338023E+04  0.23179941394E+04  0.10566000000E+00 0.  1.
         13    1    1    2    0    0 -0.16326536471E+03 -0.58870019177E+03  0.17008612563E+04  0.18072499881E+04  0.10566000000E+00 0. -1.
          4    1    1    2  501    0  0.37642290587E+02 -0.15535531848E+03  0.48918165413E+01  0.15992544165E+03  0.00000000000E+00 0.  1.
</event>
<event>
 5    1  0.2686914E-005  0.4696020E+03  0.7818608E-02  0.9926776E-01
         -4   -1    0    0    0  501 -0.00000000000E+00  0.00000000000E+00  0.10478407158E+04  0.10478407158E+04  0.00000000000E+00 0. -1.
         21   -1    0    0  501  502  0.00000000000E+00 -0.00000000000E+00 -0.36593184719E+03  0.36593184719E+03  0.00000000000E+00 0. -1.
        -13    1    1    2    0    0 -0.33779499181E+02  0.12173610912E+03  0.30660946255E+03  0.33161741287E+03  0.10566000000E+00 0.  1.
         13    1    1    2    0    0 -0.27360200116E+03  0.28125119807E+03  0.41826332614E+03  0.57350197263E+03  0.10566000000E+00 0. -1.
         -4    1    1    2    0  502  0.30738150034E+03 -0.40298730719E+03 -0.42963920114E+02  0.50865317746E+03  0.00000000000E+00 0. -1.
</event>
<event>
 5    1  0.2540860E-005  0.4775937E+03  0.7818608E-02  0.9936492E-01
         21   -1    0    0  501  502  0.00000000000E+00  0.00000000000E+00  0.21692285284E+04  0.21692285284E+04  0.00000000000E+00 0.  1.
          4   -1    0    0  502    0 -0.00000000000E+00 -0.00000000000E+00 -0.22122017138E+03  0.22122017138E+03  0.00000000000E+00 0.  1.
        -13    1    1    2    0    0 -0.37055296028E+03 -0.36760058240E+03  0.83898814277E+03  0.98809958983E+03  0.10566000000E+00 0.  1.
         13    1    1    2    0    0  0.11581964140E+03 -0.10367281413E+02 -0.71766091648E+02  0.13664572051E+03  0.10566000000E+00 0. -1.
          4    1    1    2  501    0  0.25473331888E+03  0.37796786381E+03  0.11807863059E+04  0.12657033894E+04  0.00000000000E+00 0.  1.
</event>
<event>
 5    1  0.2540860E-005  0.6470944E+03  0.7818608E-02  0.9221497E-01
         -4   -1    0    0    0  501 -0.00000000000E+00  0.00000000000E+00  0.20870736782E+04  0.20870736782E+04  0.00000000000E+00 0. -1.
         21   -1    0    0  501  502  0.00000000000E+00 -0.00000000000E+00 -0.60960981936E+03  0.60960981936E+03  0.00000000000E+00 0. -1.
        -13    1    1    2    0    0  0.67671550307E+03  0.41790769561E+03  0.11601861184E+04  0.14066351889E+04  0.10566000000E+00 0.  1.
         13    1    1    2    0    0 -0.49067984350E+03  0.20186798942E+03  0.36057438668E+03  0.64150704865E+03  0.10566000000E+00 0. -1.
         -4    1    1    2    0  502 -0.18603565957E+03 -0.61977568503E+03 -0.43296646242E+02  0.64854126003E+03  0.00000000000E+00 0. -1.
</event>
<event>
 5    1  0.2540860E-005  0.1455721E+03  0.7818608E-02  0.1105562E+00
          4   -1    0    0  502    0 -0.00000000000E+00  0.00000000000E+00  0.11758339303E+04  0.11758339303E+04  0.00000000000E+00 0.  1.
         21   -1    0    0  501  502  0.00000000000E+00 -0.00000000000E+00 -0.34189729644E+02  0.34189729644E+02  0.00000000000E+00 0. -1.
        -13    1    1    2    0    0  0.14340637184E+03 -0.23991919928E+02  0.81562318387E+03  0.82848185794E+03  0.10566000000E+00 0.  1.
         13    1    1    2    0    0 -0.14553031613E+03  0.14193717670E+02  0.33658716470E+03  0.36697610977E+03  0.10566000000E+00 0. -1.
          4    1    1    2  501    0  0.21239442884E+01  0.97982022580E+01 -0.10566147950E+02  0.14565692203E+02  0.00000000000E+00 0.  1.
</event>
<event>
 5    1  0.2540860E-005  0.5047132E+03  0.7818608E-02  0.9669345E-01
         -4   -1    0    0    0  501 -0.00000000000E+00  0.00000000000E+00  0.25236740675E+04  0.25236740675E+04  0.00000000000E+00 0. -1.
         21   -1    0    0  501  502  0.00000000000E+00 -0.00000000000E+00 -0.17175468549E+03  0.17175468549E+03  0.00000000000E+00 0. -1.
        -13    1    1    2    0    0  0.24484496440E+03 -0.12112167308E+02  0.63751413902E+03  0.68302273008E+03  0.10566000000E+00 0.  1.
         13    1    1    2    0    0 -0.21412436816E+01 -0.47736655468E+03  0.10410675837E+04  0.11452969648E+04  0.10566000000E+00 0. -1.
         -4    1    1    2    0  502 -0.24270372072E+03  0.48947872199E+03  0.67333765927E+03  0.86710905815E+03  0.00000000000E+00 0. -1.
</event>
<event>
 5    1  0.2540860E-005  0.1009797E+04  0.7818608E-02  0.8765440E-01
         -4   -1    0    0    0  501 -0.00000000000E+00  0.00000000000E+00  0.18156709055E+04  0.18156709055E+04  0.00000000000E+00 0. -1.
         21   -1    0    0  501  502  0.00000000000E+00 -0.00000000000E+00 -0.74438711877E+03  0.74438711877E+03  0.00000000000E+00 0.  1.
        -13    1    1    2    0    0 -0.89343914888E+03 -0.43147362681E+03  0.57320203988E+03  0.11458462345E+04  0.10566000000E+00 0.  1.
         13    1    1    2    0    0  0.98407105835E+03  0.31311371255E+03  0.63458816733E+03  0.12120801121E+04  0.10566000000E+00 0. -1.
         -4    1    1    2    0  502 -0.90631909466E+02  0.11835991427E+03 -0.13650642045E+03  0.20213167773E+03  0.00000000000E+00 0. -1.
</event>
<event>
 5    1  0.2540860E-005  0.1307812E+03  0.7818608E-02  0.1121780E+00
         -4   -1    0    0    0  501 -0.00000000000E+00  0.00000000000E+00  0.23237233134E+03  0.23237233134E+03  0.00000000000E+00 0. -1.
         21   -1    0    0  501  502  0.00000000000E+00 -0.00000000000E+00 -0.13585532654E+03  0.13585532654E+03  0.00000000000E+00 0.  1.
        -13    1    1    2    0    0  0.76157264371E+02 -0.81150950667E+02  0.52841936067E+02  0.12319775599E+03  0.10566000000E+00 0.  1.
         13    1    1    2    0    0 -0.13580103680E+03  0.88462601537E+02  0.73482486514E+02  0.17795291640E+03  0.10566000000E+00 0. -1.
         -4    1    1    2    0  502  0.59643772426E+02 -0.73116508696E+01 -0.29807417779E+02  0.67076985489E+02  0.00000000000E+00 0. -1.
</event>
<event>
 5    1  0.2796595E-005  0.4427797E+03  0.7818608E-02  0.9877378E-01
          4   -1    0    0  502    0 -0.00000000000E+00  0.00000000000E+00  0.26394635617E+04  0.26394635617E+04  0.00000000000E+00 0.  1.
         21   -1    0    0  501  502  0.00000000000E+00 -0.00000000000E+00 -0.16697058742E+03  0.16697058742E+03  0.00000000000E+00 0.  1.
        -13    1    1    2    0    0 -0.24616869301E+03 -0.22339833350E+03  0.11616901866E+04  0.12083169872E+04  0.10566000000E+00 0.  1.
         13    1    1    2    0    0 -0.31603828658E+02 -0.17495242083E+03  0.10129170011E+04  0.10284007069E+04  0.10566000000E+00 0. -1.
          4    1    1    2  501    0  0.27777252167E+03  0.39835075433E+03  0.29788578652E+03  0.56971645498E+03  0.00000000000E+00 0.  1.
</event>
<event>
 5    1  0.2540860E-005  0.1863794E+03  0.7818608E-02  0.1069897E+00
          4   -1    0    0  502    0 -0.00000000000E+00  0.00000000000E+00  0.46425841197E+03  0.46425841197E+03  0.00000000000E+00 0.  1.
         21   -1    0    0  501  502  0.00000000000E+00 -0.00000000000E+00 -0.20328686114E+03  0.20328686114E+03  0.00000000000E+00 0. -1.
        -13    1    1    2    0    0 -0.12163629230E+03  0.13847979803E+03  0.36834220966E+03  0.41188352316E+03  0.10566000000E+00 0.  1.
         13    1    1    2    0    0  0.13957258557E+03 -0.14285330462E+03 -0.65971520977E+02  0.21033265564E+03  0.10566000000E+00 0. -1.
          4    1    1    2  501    0 -0.17936293268E+02  0.43735065927E+01 -0.41399137855E+02  0.45329094313E+02  0.00000000000E+00 0.  1.
</event>
<event>
 5    1  0.2540860E-005  0.4962225E+03  0.7818608E-02  0.9984063E-01
         21   -1    0    0  501  502  0.00000000000E+00  0.00000000000E+00  0.14202340417E+04  0.14202340417E+04  0.00000000000E+00 0.  1.
          4   -1    0    0  502    0 -0.00000000000E+00 -0.00000000000E+00 -0.21839658541E+03  0.21839658541E+03  0.00000000000E+00 0.  1.
        -13    1    1    2    0    0 -0.51120259605E+03  0.17094839743E+03  0.54131934007E+03  0.76392282849E+03  0.10566000000E+00 0.  1.
         13    1    1    2    0    0  0.55001916907E+02 -0.69450060049E+02  0.38291327200E+02  0.96512997088E+02  0.10566000000E+00 0. -1.
          4    1    1    2  501    0  0.45620067915E+03 -0.10149833738E+03  0.62222678900E+03  0.77819480151E+03  0.00000000000E+00 0.  1.
</event>
<event>
 5    1  0.2540860E-005  0.4936192E+03  0.7818608E-02  0.9544606E-01
         21   -1    0    0  501  502  0.00000000000E+00  0.00000000000E+00  0.79544104457E+03  0.79544104457E+03  0.00000000000E+00 0. -1.
         -4   -1    0    0    0  501 -0.00000000000E+00 -0.00000000000E+00 -0.10902043316E+04  0.10902043316E+04  0.00000000000E+00 0. -1.
        -13    1    1    2    0    0  0.20676086741E+02  0.40761691220E+03 -0.63302057685E+03  0.75318929198E+03  0.10566000000E+00 0.  1.
         13    1    1    2    0    0 -0.27922034187E+03  0.17789156979E+03 -0.11243900615E+03  0.34964546498E+03  0.10566000000E+00 0. -1.
         -4    1    1    2    0  502  0.25854425513E+03 -0.58550848199E+03  0.45069629597E+03  0.78281061921E+03  0.00000000000E+00 0. -1.
</event>
<event>
 5    1  0.2540860E-005  0.4467023E+03  0.7818608E-02  0.9833301E-01
         -4   -1    0    0    0  501 -0.00000000000E+00  0.00000000000E+00  0.65136233580E+03  0.65136233580E+03  0.00000000000E+00 0. -1.
         21   -1    0    0  501  502  0.00000000000E+00 -0.00000000000E+00 -0.58269507314E+03  0.58269507314E+03  0.00000000000E+00 0. -1.
        -13    1    1    2    0    0 -0.14736253040E+03  0.13657808608E+03  0.95973348003E+00  0.20092342127E+03  0.10566000000E+00 0.  1.
         13    1    1    2    0    0 -0.36785871226E+03 -0.22033647189E+03 -0.16782394446E+03  0.46047049908E+03  0.10566000000E+00 0. -1.
         -4    1    1    2    0  502  0.51522124266E+03  0.83758385819E+02  0.23553147363E+03  0.57266348858E+03  0.00000000000E+00 0. -1.
</event>
<event>
 5    1  0.2540860E-005  0.4624046E+03  0.7818608E-02  0.9725563E-01
         21   -1    0    0  501  502  0.00000000000E+00  0.00000000000E+00  0.45552764677E+03  0.45552764677E+03  0.00000000000E+00 0.  1.
         -4   -1    0    0    0  501 -0.00000000000E+00 -0.00000000000E+00 -0.15229175989E+04  0.15229175989E+04  0.00000000000E+00 0. -1.
        -13    1    1    2    0    0 -0.50374556170E+03 -0.12586880320E+01 -0.62052286039E+03  0.79925578299E+03  0.10566000000E+00 0.  1.
         13    1    1    2    0    0  0.10376635585E+03 -0.23076430167E+03 -0.63225682282E+03  0.68100537494E+03  0.10566000000E+00 0. -1.
         -4    1    1    2    0  502  0.39997920585E+03  0.23202298971E+03  0.18538973109E+03  0.49818408772E+03  0.00000000000E+00 0. -1.
</event>
<event>
 5    1  0.2540860E-005  0.2024789E+03  0.7818608E-02  0.1058450E+00
          4   -1    0    0  502    0 -0.00000000000E+00  0.00000000000E+00  0.94685889333E+03  0.94685889333E+03  0.00000000000E+00 0.  1.
         21   -1    0    0  501  502  0.00000000000E+00 -0.00000000000E+00 -0.10711778232E+03  0.10711778232E+03  0.00000000000E+00 0. -1.
        -13    1    1    2    0    0  0.13337043248E+03  0.15465781847E+03  0.77956017638E+03  0.80586648574E+03  0.10566000000E+00 0.  1.
         13    1    1    2    0    0 -0.12859382031E+03 -0.14569678150E+03  0.91784925778E+02  0.21491488205E+03  0.10566000000E+00 0. -1.
          4    1    1    2  501    0 -0.47766121687E+01 -0.89610369686E+01 -0.31603991147E+02  0.33195307858E+02  0.00000000000E+00 0.  1.
</event>
<event>
 5    1  0.2540860E-005  0.4593373E+03  0.7818608E-02  0.9723737E-01
         -4   -1    0    0    0  501 -0.00000000000E+00  0.00000000000E+00  0.13295071894E+04  0.13295071894E+04  0.00000000000E+00 0. -1.
         21   -1    0    0  501  502  0.00000000000E+00 -0.00000000000E+00 -0.34741900211E+03  0.34741900211E+03  0.00000000000E+00 0.  1.
        -13    1    1    2    0    0  0.13795442113E+03 -0.23098929156E+03  0.39756781865E+03  0.48004963984E+03  0.10566000000E+00 0.  1.
         13    1    1    2    0    0  0.21640145770E+03  0.49861966726E+03  0.51239134273E+03  0.74699134047E+03  0.10566000000E+00 0. -1.
         -4    1    1    2    0  502 -0.35435587883E+03 -0.26763037570E+03  0.72129025897E+02  0.44988521118E+03  0.00000000000E+00 0. -1.
</event>
<event>
 5    1  0.2540860E-005  0.4619276E+03  0.7818608E-02  0.9565566E-01
          4   -1    0    0  502    0 -0.00000000000E+00  0.00000000000E+00  0.10654814651E+04  0.10654814651E+04  0.00000000000E+00 0.  1.
         21   -1    0    0  501  502  0.00000000000E+00 -0.00000000000E+00 -0.24627503275E+03  0.24627503275E+03  0.00000000000E+00 0. -1.
        -13    1    1    2    0    0  0.39575618674E+03  0.25250747736E+03  0.59247082979E+03  0.75591314368E+03  0.10566000000E+00 0.  1.
         13    1    1    2    0    0 -0.38662676134E+03 -0.23029624827E+03  0.25619641521E+03  0.51783513678E+03  0.10566000000E+00 0. -1.
          4    1    1    2  501    0 -0.91294254014E+01 -0.22211229094E+02 -0.29460812661E+02  0.38008217384E+02  0.00000000000E+00 0.  1.
</event>
<event>
 5    1  0.2540860E-005  0.2445277E+03  0.7818608E-02  0.1033268E+00
         -4   -1    0    0    0  501 -0.00000000000E+00  0.00000000000E+00  0.25033115280E+03  0.25033115280E+03  0.00000000000E+00 0. -1.
         21   -1    0    0  501  502  0.00000000000E+00 -0.00000000000E+00 -0.91561058279E+03  0.91561058279E+03  0.00000000000E+00 0.  1.
        -13    1    1    2    0    0 -0.13331380541E+03  0.91575638273E+02 -0.40965964123E+03  0.44043126712E+03  0.10566000000E+00 0.  1.
         13    1    1    2    0    0  0.21792831924E+03 -0.13951602666E+03  0.15627514884E+03  0.30229026999E+03  0.10566000000E+00 0. -1.
         -4    1    1    2    0  502 -0.84614513832E+02  0.47940388390E+02 -0.41189493759E+03  0.42322019848E+03  0.00000000000E+00 0. -1.
</event>
<event>
 5    1  0.2540860E-005  0.1886102E+03  0.7818608E-02  0.1068238E+00
         21   -1    0    0  501  502  0.00000000000E+00  0.00000000000E+00  0.63705645839E+03  0.63705645839E+03  0.00000000000E+00 0. -1.
          4   -1    0    0  502    0 -0.00000000000E+00 -0.00000000000E+00 -0.19361064651E+03  0.19361064651E+03  0.00000000000E+00 0.  1.
        -13    1    1    2    0    0 -0.10522988070E+02 -0.18678797843E+03 -0.11576907516E+03  0.22000675465E+03  0.10566000000E+00 0.  1.
         13    1    1    2    0    0  0.35522016387E+01  0.20026067093E+03  0.36911134119E+03  0.41995255424E+03  0.10566000000E+00 0. -1.
          4    1    1    2  501    0  0.69707864312E+01 -0.13472692497E+02  0.19010354586E+03  0.19070779600E+03  0.00000000000E+00 0.  1.
</event>
<event>
 5    1  0.2540860E-005  0.5253629E+02  0.7818608E-02  0.1283614E+00
         21   -1    0    0  501  502  0.00000000000E+00  0.00000000000E+00  0.18396921451E+03  0.18396921451E+03  0.00000000000E+00 0. -1.
         -4   -1    0    0    0  501 -0.00000000000E+00 -0.00000000000E+00 -0.63242240192E+02  0.63242240192E+02  0.00000000000E+00 0. -1.
        -13    1    1    2    0    0 -0.40722707273E+02  0.34694378028E+02  0.43909735894E+02  0.69210655427E+02  0.10566000000E+00 0.  1.
         13    1    1    2    0    0 -0.14645904008E+02 -0.43116309585E+02 -0.31973705403E+02  0.55640341998E+02  0.10566000000E+00 0. -1.
         -4    1    1    2    0  502  0.55368611281E+02  0.84219315570E+01  0.10879094383E+03  0.12236045728E+03  0.00000000000E+00 0. -1.
</event>
<event>
 5    1  0.2540860E-005  0.1327162E+03  0.7818608E-02  0.1119529E+00
         21   -1    0    0  501  502  0.00000000000E+00  0.00000000000E+00  0.12598626052E+03  0.12598626052E+03  0.00000000000E+00 0. -1.
          4   -1    0    0  502    0 -0.00000000000E+00 -0.00000000000E+00 -0.17674809126E+03  0.17674809126E+03  0.00000000000E+00 0.  1.
        -13    1    1    2    0    0 -0.67228728995E+02 -0.12481118250E+03 -0.29863995205E+01  0.14179726029E+03  0.10566000000E+00 0.  1.
         13    1    1    2    0    0  0.66048857654E+02  0.10906613680E+03 -0.60048747225E+02  0.14093877040E+03  0.10566000000E+00 0. -1.
          4    1    1    2  501    0  0.11798713405E+01  0.15745045698E+02  0.12273316006E+02  0.19998321085E+02  0.00000000000E+00 0.  1.
</event>
<event>
 5    1  0.2540860E-005  0.7445028E+02  0.7818608E-02  0.1215513E+00
         -4   -1    0    0    0  501 -0.00000000000E+00  0.00000000000E+00  0.23634483576E+03  0.23634483576E+03  0.00000000000E+00 0. -1.
         21   -1    0    0  501  502  0.00000000000E+00 -0.00000000000E+00 -0.12874444204E+03  0.12874444204E+03  0.00000000000E+00 0.  1.
        -13    1    1    2    0    0  0.48435797641E+01  0.64498286555E+02 -0.80757500831E+02  0.10346629566E+03  0.10566000000E+00 0.  1.
         13    1    1    2    0    0  0.64827132029E+01 -0.74896605754E+02  0.21670504701E+03  0.22937440068E+03  0.10566000000E+00 0. -1.
         -4    1    1    2    0  502 -0.11326292967E+02  0.10398319200E+02 -0.28347152448E+02  0.32248581464E+02  0.00000000000E+00 0. -1.
</event>
<event>
 5    1  0.2540860E-005  0.1468064E+03  0.7818608E-02  0.1104304E+00
          4   -1    0    0  502    0 -0.00000000000E+00  0.00000000000E+00  0.13729400050E+03  0.13729400050E+03  0.00000000000E+00 0.  1.
         21   -1    0    0  501  502  0.00000000000E+00 -0.00000000000E+00 -0.59572529712E+03  0.59572529712E+03  0.00000000000E+00 0.  1.
        -13    1    1    2    0    0  0.11591342119E+03 -0.98514637272E+02  0.31084800619E+02  0.15526535661E+03  0.10566000000E+00 0.  1.
         13    1    1    2    0    0 -0.10033385915E+03  0.94296090567E+02 -0.63836974881E+02  0.15176892473E+03  0.10566000000E+00 0. -1.
          4    1    1    2  501    0 -0.15579562041E+02  0.42185467044E+01 -0.42567912236E+03  0.42598501629E+03  0.00000000000E+00 0.  1.
</event>
<event>
 5    1  0.2540860E-005  0.1314187E+03  0.7818608E-02  0.1121034E+00
         -4   -1    0    0    0  501 -0.00000000000E+00  0.00000000000E+00  0.77104735121E+03  0.77104735121E+03  0.00000000000E+00 0. -1.
         21   -1    0    0  501  502  0.00000000000E+00 -0.00000000000E+00 -0.39461960443E+02  0.39461960443E+02  0.00000000000E+00 0.  1.
        -13    1    1    2    0    0  0.13183363224E+03 -0.62199641694E+02  0.22648534686E+03  0.26934090949E+03  0.10566000000E+00 0.  1.
         13    1    1    2    0    0 -0.11397599462E+03  0.54246694170E+02  0.50609078820E+03  0.52159479315E+03  0.10566000000E+00 0. -1.
         -4    1    1    2    0  502 -0.17857637613E+02  0.79529475246E+01 -0.99074430019E+00  0.19573609011E+02  0.00000000000E+00 0. -1.
</event>
<event>
 5    1  0.2540860E-005  0.1178863E+03  0.7818608E-02  0.1165661E+00
         -4   -1    0    0    0  501 -0.00000000000E+00  0.00000000000E+00  0.30306473117E+03  0.30306473117E+03  0.00000000000E+00 0. -1.
         21   -1    0    0  501  502  0.00000000000E+00 -0.00000000000E+00 -0.23140060650E+03  0.23140060650E+03  0.00000000000E+00 0.  1.
        -13    1    1    2    0    0 -0.13127102251E+03  0.10879798160E+03  0.41332078787E+02  0.17543498526E+03  0.10566000000E+00 0.  1.
         13    1    1    2    0    0  0.38289388917E+02 -0.36330168413E+02  0.16898496099E+03  0.17703639921E+03  0.10566000000E+00 0. -1.
         -4    1    1    2    0  502  0.92981633593E+02 -0.72467813186E+02 -0.13865291511E+03  0.18199395320E+03  0.00000000000E+00 0. -1.
</event>
<event>
 5    1  0.2540860E-005  0.5389411E+02  0.7818608E-02  0.1276698E+00
         21   -1    0    0  501  502  0.00000000000E+00  0.00000000000E+00  0.45224315472E+02  0.45224315472E+02  0.00000000000E+00 0.  1.
          4   -1    0    0  502    0 -0.00000000000E+00 -0.00000000000E+00 -0.14769921288E+03  0.14769921288E+03  0.00000000000E+00 0.  1.
        -13    1    1    2    0    0  0.37626366320E+02 -0.41821592906E+02 -0.11191553848E+03  0.12525928306E+03  0.10566000000E+00 0.  1.
         13    1    1    2    0    0 -0.40332666178E+02  0.24726846395E+02 -0.12417727414E+01  0.47325406044E+02  0.10566000000E+00 0. -1.
          4    1    1    2  501    0  0.27062998579E+01  0.17094746511E+02  0.10682413811E+02  0.20338839250E+02  0.00000000000E+00 0.  1.
</event>
<event>
 5    1  0.2540860E-005  0.1851888E+03  0.7818608E-02  0.1070793E+00
          4   -1    0    0  502    0 -0.00000000000E+00  0.00000000000E+00  0.28009581908E+03  0.28009581908E+03  0.00000000000E+00 0.  1.
         21   -1    0    0  501  502  0.00000000000E+00 -0.00000000000E+00 -0.95234007063E+03  0.95234007063E+03  0.00000000000E+00 0.  1.
        -13    1    1    2    0    0 -0.20303611543E+03 -0.56729630183E+02  0.16567310923E+03  0.26812218370E+03  0.10566000000E+00 0.  1.
         13    1    1    2    0    0  0.12107916062E+03  0.82684204312E+02 -0.27284617235E+02  0.14913518123E+03  0.10566000000E+00 0. -1.
          4    1    1    2  501    0  0.81956954810E+02 -0.25954574129E+02 -0.81063274355E+03  0.81517852478E+03  0.00000000000E+00 0.  1.
</event>
<event>
 5    1  0.2540860E-005  0.3146768E+03  0.7818608E-02  0.1032242E+00
         21   -1    0    0  501  502  0.00000000000E+00  0.00000000000E+00  0.38562243375E+03  0.38562243375E+03  0.00000000000E+00 0.  1.
          4   -1    0    0  502    0 -0.00000000000E+00 -0.00000000000E+00 -0.11322773651E+04  0.11322773651E+04  0.00000000000E+00 0.  1.
        -13    1    1    2    0    0 -0.39693733427E+03 -0.49298609071E+02 -0.53269110783E+03  0.66614520018E+03  0.10566000000E+00 0.  1.
         13    1    1    2    0    0  0.92963101167E+02  0.73351262900E+02 -0.45052468049E+03  0.46582726932E+03  0.10566000000E+00 0. -1.
          4    1    1    2  501    0  0.30397423311E+03 -0.24052653830E+02  0.23656085693E+03  0.38592732940E+03  0.00000000000E+00 0.  1.
</event>
<event>
 5    1  0.2540860E-005  0.4158721E+03  0.7818608E-02  0.9684293E-01
         -4   -1    0    0    0  501 -0.00000000000E+00  0.00000000000E+00  0.26398350024E+04  0.26398350024E+04  0.00000000000E+00 0. -1.
         21   -1    0    0  501  502  0.00000000000E+00 -0.00000000000E+00 -0.14229167699E+03  0.14229167699E+03  0.00000000000E+00 0.  1.
        -13    1    1    2    0    0 -0.18183496553E+03  0.22691862334E+03  0.28882127570E+03  0.40984601592E+03  0.10566000000E+00 0.  1.
         13    1    1    2    0    0  0.20985773281E+03 -0.42383161318E+03  0.20851728466E+04  0.21381345411E+04  0.10566000000E+00 0. -1.
         -4    1    1    2    0  502 -0.28022767281E+02  0.19691298985E+03  0.12354920315E+03  0.23414612245E+03  0.00000000000E+00 0. -1.
</event>
<event>
 5    1  0.2540860E-005  0.4937227E+03  0.7818608E-02  0.9631886E-01
         21   -1    0    0  501  502  0.00000000000E+00  0.00000000000E+00  0.10824242540E+03  0.10824242540E+03  0.00000000000E+00 0. -1.
         -4   -1    0    0    0  501 -0.00000000000E+00 -0.00000000000E+00 -0.46830146271E+04  0.46830146271E+04  0.00000000000E+00 0. -1.
        -13    1    1    2    0    0  0.26660171626E+03 -0.13488984917E+03 -0.17290543232E+04  0.17546796318E+04  0.10566000000E+00 0.  1.
         13    1    1    2    0    0 -0.58785228536E+03 -0.17136418378E+03 -0.17685761331E+04  0.18715762188E+04  0.10566000000E+00 0. -1.
         -4    1    1    2    0  502  0.32125056909E+03  0.30625403295E+03 -0.10771417454E+04  0.11650012019E+04  0.00000000000E+00 0. -1.
</event>
<event>
 5    1  0.2540860E-005  0.4903304E+03  0.7818608E-02  0.9528291E-01
         21   -1    0    0  501  502  0.00000000000E+00  0.00000000000E+00  0.55833626368E+03  0.55833626368E+03  0.00000000000E+00 0.  1.
         -4   -1    0    0    0  501 -0.00000000000E+00 -0.00000000000E+00 -0.12668877621E+04  0.12668877621E+04  0.00000000000E+00 0. -1.
        -13    1    1    2    0    0  0.35904792614E+03 -0.25715604015E+03  0.11430341418E+03  0.45619066618E+03  0.10566000000E+00 0.  1.
         13    1    1    2    0    0 -0.12448063956E+03  0.63619498118E+03 -0.49836726788E+03  0.81768540928E+03  0.10566000000E+00 0. -1.
         -4    1    1    2    0  502 -0.23456728658E+03 -0.37903894102E+03 -0.32448764475E+03  0.55134795034E+03  0.00000000000E+00 0. -1.
</event>
<event>
 5    1  0.2540860E-005  0.1912119E+02  0.7818608E-02  0.1537931E+00
         21   -1    0    0  501  502  0.00000000000E+00  0.00000000000E+00  0.18156787963E+02  0.18156787963E+02  0.00000000000E+00 0.  1.
          4   -1    0    0  502    0 -0.00000000000E+00 -0.00000000000E+00 -0.20006033128E+03  0.20006033128E+03  0.00000000000E+00 0.  1.
        -13    1    1    2    0    0  0.33656136325E+02  0.26504845869E+01 -0.17195755021E+03  0.17524032304E+03  0.10566000000E+00 0.  1.
         13    1    1    2    0    0 -0.15072377383E+02 -0.31400450311E+01 -0.17143150566E+02  0.23042031554E+02  0.10566000000E+00 0. -1.
          4    1    1    2  501    0 -0.18583758942E+02  0.48956044411E+00  0.71971574639E+01  0.19934764644E+02  0.00000000000E+00 0.  1.
</event>
<event>
 5    1  0.2540860E-005  0.4745475E+03  0.7818608E-02  0.9787953E-01
         21   -1    0    0  501  502  0.00000000000E+00  0.00000000000E+00  0.73591173943E+03  0.73591173943E+03  0.00000000000E+00 0. -1.
         -4   -1    0    0    0  501 -0.00000000000E+00 -0.00000000000E+00 -0.52929716562E+03  0.52929716562E+03  0.00000000000E+00 0. -1.
        -13    1    1    2    0    0 -0.20310745958E+02 -0.19452674394E+03 -0.83161743807E+02  0.21253015623E+03  0.10566000000E+00 0.  1.
         13    1    1    2    0    0  0.21646975418E+03  0.49458111405E+03  0.40635248540E+03  0.67571590658E+03  0.10566000000E+00 0. -1.
         -4    1    1    2    0  502 -0.19615900823E+03 -0.30005437011E+03 -0.11657616779E+03  0.37696284223E+03  0.00000000000E+00 0. -1.
</event>
<event>
 5    1  0.2540860E-005  0.1585107E+03  0.7818608E-02  0.1093009E+00
         21   -1    0    0  501  502  0.00000000000E+00  0.00000000000E+00  0.11892742737E+03  0.11892742737E+03  0.00000000000E+00 0. -1.
          4   -1    0    0  502    0 -0.00000000000E+00 -0.00000000000E+00 -0.60056903697E+03  0.60056903697E+03  0.00000000000E+00 0.  1.
        -13    1    1    2    0    0  0.11837164563E+03  0.10279918373E+03 -0.50421016957E+03  0.52802218223E+03  0.10566000000E+00 0.  1.
         13    1    1    2    0    0 -0.13494454057E+03 -0.10737523422E+03  0.16488576101E+02  0.17323785458E+03  0.10566000000E+00 0. -1.
          4    1    1    2  501    0  0.16572894948E+02  0.45760504910E+01  0.60799838786E+01  0.18236427528E+02  0.00000000000E+00 0.  1.
</event>
<event>
 5    1  0.2540860E-005  0.9614405E+02  0.7818608E-02  0.1171098E+00
         21   -1    0    0  501  502  0.00000000000E+00  0.00000000000E+00  0.49922660808E+03  0.49922660808E+03  0.00000000000E+00 0.  1.
          4   -1    0    0  502    0 -0.00000000000E+00 -0.00000000000E+00 -0.71060793576E+02  0.71060793576E+02  0.00000000000E+00 0.  1.
        -13    1    1    2    0    0  0.74197534346E+02 -0.60665822191E+02 -0.11486812489E+02  0.96527582122E+02  0.10566000000E+00 0.  1.
         13    1    1    2    0    0 -0.84762651427E+02  0.49375078734E+02  0.12579328839E+03  0.15951980456E+03  0.10566000000E+00 0. -1.
          4    1    1    2  501    0  0.10565117081E+02  0.11290743458E+02  0.31385933860E+03  0.31424001498E+03  0.00000000000E+00 0.  1.
</event>
<event>
 5    1  0.2540860E-005  0.2137313E+03  0.7818608E-02  0.1051109E+00
         21   -1    0    0  501  502  0.00000000000E+00  0.00000000000E+00  0.13982140226E+03  0.13982140226E+03  0.00000000000E+00 0. -1.
          4   -1    0    0  502    0 -0.00000000000E+00 -0.00000000000E+00 -0.16519448463E+04  0.16519448463E+04  0.00000000000E+00 0.  1.
        -13    1    1    2    0    0  0.13953255286E+03  0.18019696313E+03 -0.13310245161E+04  0.13503949617E+04  0.10566000000E+00 0.  1.
         13    1    1    2    0    0 -0.89385944221E+02 -0.15286160170E+03 -0.27758033838E+03  0.32925274747E+03  0.10566000000E+00 0. -1.
          4    1    1    2  501    0 -0.50146608640E+02 -0.27335361431E+02  0.96481410395E+02  0.11211853948E+03  0.00000000000E+00 0.  1.
</event>
<event>
 5    1  0.2540860E-005  0.7207715E+02  0.7818608E-02  0.1221381E+00
         -4   -1    0    0    0  501 -0.00000000000E+00  0.00000000000E+00  0.37685616655E+02  0.37685616655E+02  0.00000000000E+00 0. -1.
         21   -1    0    0  501  502  0.00000000000E+00 -0.00000000000E+00 -0.27783963627E+03  0.27783963627E+03  0.00000000000E+00 0. -1.
        -13    1    1    2    0    0  0.40629532996E+02 -0.59893825211E+02 -0.41624810030E+02  0.83490509784E+02  0.10566000000E+00 0.  1.
         13    1    1    2    0    0 -0.17244858773E+02  0.72473906303E+02 -0.75102456756E+02  0.10578394218E+03  0.10566000000E+00 0. -1.
         -4    1    1    2    0  502 -0.23384674223E+02 -0.12580081092E+02 -0.12342675283E+03  0.12625080096E+03  0.00000000000E+00 0. -1.
</event>
<event>
 5    1  0.2540860E-005  0.1615675E+03  0.7818608E-02  0.1090232E+00
         -4   -1    0    0    0  501 -0.00000000000E+00  0.00000000000E+00  0.10220510295E+04  0.10220510295E+04  0.00000000000E+00 0. -1.
         21   -1    0    0  501  502  0.00000000000E+00 -0.00000000000E+00 -0.37933376427E+02  0.37933376427E+02  0.00000000000E+00 0.  1.
        -13    1    1    2    0    0  0.46622705611E+02  0.16375682131E+03  0.24905978460E+03  0.30169647110E+03  0.10566000000E+00 0.  1.
         13    1    1    2    0    0 -0.39619374318E+02 -0.15372182075E+03  0.72576225204E+03  0.74292055474E+03  0.10566000000E+00 0. -1.
         -4    1    1    2    0  502 -0.70033312933E+01 -0.10035000563E+02  0.92956163777E+01  0.15367380042E+02  0.00000000000E+00 0. -1.
</event>
<event>
 5    1  0.2540860E-005  0.1949779E+03  0.7818608E-02  0.1063634E+00
         21   -1    0    0  501  502  0.00000000000E+00  0.00000000000E+00  0.21182584763E+03  0.21182584763E+03  0.00000000000E+00 0. -1.
          4   -1    0    0  502    0 -0.00000000000E+00 -0.00000000000E+00 -0.27081293601E+03  0.27081293601E+03  0.00000000000E+00 0.  1.
        -13    1    1    2    0    0  0.18403155400E+03 -0.65655010722E+02 -0.14948347283E+03  0.24601527009E+03  0.10566000000E+00 0.  1.
         13    1    1    2    0    0 -0.18708187230E+03  0.52113662876E+02  0.60236725625E+02  0.20333208079E+03  0.10566000000E+00 0. -1.
          4    1    1    2  501    0  0.30503182943E+01  0.13541347846E+02  0.30259658829E+02  0.33291432766E+02  0.00000000000E+00 0.  1.
</event>
<event>
 5    1  0.2540860E-005  0.4785104E+03  0.7818608E-02  0.9771065E-01
         21   -1    0    0  501  502  0.00000000000E+00  0.00000000000E+00  0.10781740740E+04  0.10781740740E+04  0.00000000000E+00 0. -1.
         -4   -1    0    0    0  501 -0.00000000000E+00 -0.00000000000E+00 -0.53660047777E+03  0.53660047777E+03  0.00000000000E+00 0. -1.
        -13    1    1    2    0    0  0.19554548982E+03 -0.51190129999E+02 -0.87457256214E+02  0.22024361699E+03  0.10566000000E+00 0.  1.
         13    1    1    2    0    0  0.43241965360E+03 -0.85761008626E+02  0.60858971436E+03  0.75148064447E+03  0.10566000000E+00 0. -1.
         -4    1    1    2    0  502 -0.62796514342E+03  0.13695113863E+03  0.20441138077E+02  0.64305029029E+03  0.00000000000E+00 0. -1.
</event>
<event>
 5    1  0.2540860E-005  0.3066762E+03  0.7818608E-02  0.1024513E+00
          4   -1    0    0  502    0 -0.00000000000E+00  0.00000000000E+00  0.10132503905E+04  0.10132503905E+04  0.00000000000E+00 0.  1.
         21   -1    0    0  501  502  0.00000000000E+00 -0.00000000000E+00 -0.25202213762E+03  0.25202213762E+03  0.00000000000E+00 0.  1.
        -13    1    1    2    0    0 -0.51334572017E+02 -0.38451396678E+03  0.62041220835E+03  0.73170864992E+03  0.10566000000E+00 0.  1.
         13    1    1    2    0    0  0.12865825918E+03  0.99364960998E+02  0.17177223267E+03  0.23649958606E+03  0.10566000000E+00 0. -1.
          4    1    1    2  501    0 -0.77323687159E+02  0.28514900579E+03 -0.30956188115E+02  0.29706429216E+03  0.00000000000E+00 0.  1.
</event>
<event>
 5    1  0.2540860E-005  0.2985119E+03  0.7818608E-02  0.1010652E+00
         21   -1    0    0  501  502  0.00000000000E+00  0.00000000000E+00  0.81464479551E+03  0.81464479551E+03  0.00000000000E+00 0. -1.
         -4   -1    0    0    0  501 -0.00000000000E+00 -0.00000000000E+00 -0.13771261768E+04  0.13771261768E+04  0.00000000000E+00 0. -1.
        -13    1    1    2    0    0 -0.12221411729E+03  0.45926641490E+03 -0.93462346992E+03  0.10485146504E+04  0.10566000000E+00 0.  1.
         13    1    1    2    0    0  0.13812643833E+03 -0.14775469438E+03 -0.32313520223E+03  0.38121743502E+03  0.10566000000E+00 0. -1.
         -4    1    1    2    0  502 -0.15912321047E+02 -0.31151172053E+03  0.69527729087E+03  0.76203888693E+03  0.00000000000E+00 0. -1.
</event>
<event>
 5    1  0.2540860E-005  0.3395625E+03  0.7818608E-02  0.9921960E-01
         21   -1    0    0  501  502  0.00000000000E+00  0.00000000000E+00  0.32031709843E+03  0.32031709843E+03  0.00000000000E+00 0. -1.
         -4   -1    0    0    0  501 -0.00000000000E+00 -0.00000000000E+00 -0.15254668952E+04  0.15254668952E+04  0.00000000000E+00 0. -1.
        -13    1    1    2    0    0  0.29407279198E+03  0.18159831346E+03 -0.19826520158E+03  0.39845433334E+03  0.10566000000E+00 0.  1.
         13    1    1    2    0    0 -0.17473111669E+03 -0.31165380604E+03  0.63151778971E+02  0.36283221509E+03  0.10566000000E+00 0. -1.
         -4    1    1    2    0  502 -0.11934167529E+03  0.13005549258E+03 -0.10700363742E+04  0.10844974452E+04  0.00000000000E+00 0. -1.
</event>
<event>
 5    1  0.2540860E-005  0.5361658E+03  0.7818608E-02  0.9402042E-01
          4   -1    0    0  502    0 -0.00000000000E+00  0.00000000000E+00  0.33050462552E+04  0.33050462552E+04  0.00000000000E+00 0.  1.
         21   -1    0    0  501  502  0.00000000000E+00 -0.00000000000E+00 -0.29544127489E+03  0.29544127489E+03  0.00000000000E+00 0.  1.
        -13    1    1    2    0    0 -0.19322451466E+03  0.66791196362E+03  0.87707718173E+03  0.11192437170E+04  0.10566000000E+00 0.  1.
         13    1    1    2    0    0 -0.57065777325E+02 -0.50362463242E+03  0.21219735245E+04  0.21816658597E+04  0.10566000000E+00 0. -1.
          4    1    1    2  501    0  0.25029029198E+03 -0.16428733120E+03  0.10554274047E+02  0.29957795339E+03  0.00000000000E+00 0.  1.
</event>
<event>
 5    1  0.2540860E-005  0.8828416E+03  0.7818608E-02  0.8893221E-01
          4   -1    0    0  502    0 -0.00000000000E+00  0.00000000000E+00  0.17082669669E+04  0.17082669669E+04  0.00000000000E+00 0.  1.
         21   -1    0    0  501  502  0.00000000000E+00 -0.00000000000E+00 -0.11332752191E+04  0.11332752191E+04  0.00000000000E+00 0. -1.
        -13    1    1    2    0    0  0.77619405741E+03 -0.14998103306E+03  0.43799508803E+03  0.90377609690E+03  0.10566000000E+00 0.  1.
         13    1    1    2    0    0 -0.10118562770E+04 -0.23965084804E+03  0.66979254845E+03  0.12368943865E+04  0.10566000000E+00 0. -1.
          4    1    1    2  501    0  0.23566221962E+03  0.38963188110E+03 -0.53279588861E+03  0.70087170256E+03  0.00000000000E+00 0.  1.
</event>
<event>
 5    1  0.2540860E-005  0.1379650E+03  0.7818608E-02  0.1113628E+00
         -4   -1    0    0    0  501 -0.00000000000E+00  0.00000000000E+00  0.12487768775E+04  0.12487768775E+04  0.00000000000E+00 0. -1.
         21   -1    0    0  501  502  0.00000000000E+00 -0.00000000000E+00 -0.24996997748E+02  0.24996997748E+02  0.00000000000E+00 0.  1.
        -13    1    1    2    0    0 -0.14035500874E+03 -0.25838551935E+02  0.67367250661E+03  0.68862313102E+03  0.10566000000E+00 0.  1.
         13    1    1    2    0    0  0.12194435715E+03  0.57989089508E+02  0.52048566401E+03  0.53771600157E+03  0.10566000000E+00 0. -1.
         -4    1    1    2    0  502  0.18410651596E+02 -0.32150537573E+02  0.29621709109E+02  0.47434742636E+02  0.00000000000E+00 0. -1.
</event>
<event>
 5    1  0.2540860E-005  0.5011652E+03  0.7818608E-02  0.1018938E+00
         21   -1    0    0  501  502  0.00000000000E+00  0.00000000000E+00  0.98045995730E+03  0.98045995730E+03  0.00000000000E+00 0. -1.
         -4   -1    0    0    0  501 -0.00000000000E+00 -0.00000000000E+00 -0.44056352618E+03  0.44056352618E+03  0.00000000000E+00 0. -1.
        -13    1    1    2    0    0  0.42978718673E+02  0.11059151419E+02 -0.17683810356E+03  0.18232169680E+03  0.10566000000E+00 0.  1.
         13    1    1    2    0    0  0.47271811236E+03 -0.72705156188E+02  0.24639239074E+03  0.53801270883E+03  0.10566000000E+00 0. -1.
         -4    1    1    2    0  502 -0.51569683103E+03  0.61646004769E+02  0.47034214395E+03  0.70068907785E+03  0.00000000000E+00 0. -1.
</event>
<event>
 5    1  0.2540860E-005  0.2005616E+03  0.7818608E-02  0.1059752E+00
          4   -1    0    0  502    0 -0.00000000000E+00  0.00000000000E+00  0.16088495770E+03  0.16088495770E+03  0.00000000000E+00 0.  1.
         21   -1    0    0  501  502  0.00000000000E+00 -0.00000000000E+00 -0.52294180190E+03  0.52294180190E+03  0.00000000000E+00 0.  1.
        -13    1    1    2    0    0  0.45529877419E+02 -0.19780379354E+03  0.46576872843E+02  0.20825159477E+03  0.10566000000E+00 0.  1.
         13    1    1    2    0    0 -0.47706466636E+02  0.18629291082E+03 -0.24469277396E+03  0.31121619555E+03  0.10566000000E+00 0. -1.
          4    1    1    2  501    0  0.21765892163E+01  0.11510882719E+02 -0.16394094309E+03  0.16435896928E+03  0.00000000000E+00 0.  1.
</event>
<event>
 5    1  0.2540860E-005  0.4915517E+03  0.7818608E-02  0.9680683E-01
         21   -1    0    0  501  502  0.00000000000E+00  0.00000000000E+00  0.14697709774E+04  0.14697709774E+04  0.00000000000E+00 0. -1.
         -4   -1    0    0    0  501 -0.00000000000E+00 -0.00000000000E+00 -0.31665139516E+03  0.31665139516E+03  0.00000000000E+00 0. -1.
        -13    1    1    2    0    0  0.49534793673E+02 -0.25018493723E+03  0.28862629392E+02  0.25666955631E+03  0.10566000000E+00 0.  1.
         13    1    1    2    0    0 -0.46835912303E+03  0.37373031651E+03  0.60899100749E+03  0.85434458854E+03  0.10566000000E+00 0. -1.
         -4    1    1    2    0  502  0.41882432935E+03 -0.12354537928E+03  0.51526594537E+03  0.67540822771E+03  0.00000000000E+00 0. -1.
</event>
<event>
 5    1  0.2540860E-005  0.3757849E+03  0.7818608E-02  0.9840558E-01
         21   -1    0    0  501  502  0.00000000000E+00  0.00000000000E+00  0.40260196206E+03  0.40260196206E+03  0.00000000000E+00 0.  1.
          4   -1    0    0  502    0 -0.00000000000E+00 -0.00000000000E+00 -0.13134635972E+04  0.13134635972E+04  0.00000000000E+00 0.  1.
        -13    1    1    2    0    0  0.31763839660E+03  0.41490324591E+03 -0.58490398200E+03  0.78431596553E+03  0.10566000000E+00 0.  1.
         13    1    1    2    0    0 -0.32546082536E+03 -0.50092638297E+02 -0.43988434422E+03  0.54948363825E+03  0.10566000000E+00 0. -1.
          4    1    1    2  501    0  0.78224287637E+01 -0.36481060762E+03  0.11392669103E+03  0.38226595552E+03  0.00000000000E+00 0.  1.
</event>
<event>
 5    1  0.2540860E-005  0.5123734E+03  0.7818608E-02  0.9451257E-01
          4   -1    0    0  502    0 -0.00000000000E+00  0.00000000000E+00  0.11945135990E+04  0.11945135990E+04  0.00000000000E+00 0.  1.
         21   -1    0    0  501  502  0.00000000000E+00 -0.00000000000E+00 -0.49001029456E+03  0.49001029456E+03  0.00000000000E+00 0. -1.
        -13    1    1    2    0    0 -0.34284227458E+03  0.39509998436E+03  0.61403005117E+03  0.80664598046E+03  0.10566000000E+00 0.  1.
         13    1    1    2    0    0  0.33390898391E+03 -0.36964174824E+03  0.35518822910E+03  0.61179156650E+03  0.10566000000E+00 0. -1.
          4    1    1    2  501    0  0.89332906711E+01 -0.25458236118E+02 -0.26471497579E+03  0.26608634665E+03  0.00000000000E+00 0.  1.
</event>
<event>
 5    1  0.2540860E-005  0.4952978E+03  0.7818608E-02  0.9786871E-01
         21   -1    0    0  501  502  0.00000000000E+00  0.00000000000E+00  0.75569759753E+03  0.75569759753E+03  0.00000000000E+00 0. -1.
         -4   -1    0    0    0  501 -0.00000000000E+00 -0.00000000000E+00 -0.47136796080E+03  0.47136796080E+03  0.00000000000E+00 0. -1.
        -13    1    1    2    0    0  0.14326989086E+03 -0.96352883696E+02 -0.18978059233E+02  0.17369604981E+03  0.10566000000E+00 0.  1.
         13    1    1    2    0    0  0.64292153969E+02  0.52666907840E+03  0.14442618430E+03  0.54988429063E+03  0.10566000000E+00 0. -1.
         -4    1    1    2    0  502 -0.20756204483E+03 -0.43031619471E+03  0.15888151166E+03  0.50348521788E+03  0.00000000000E+00 0. -1.
</event>
<event>
 5    1  0.2540860E-005  0.7587814E+03  0.7818608E-02  0.9041807E-01
          4   -1    0    0  502    0 -0.00000000000E+00  0.00000000000E+00  0.13891206052E+04  0.13891206052E+04  0.00000000000E+00 0.  1.
         21   -1    0    0  501  502  0.00000000000E+00 -0.00000000000E+00 -0.70937317959E+03  0.70937317959E+03  0.00000000000E+00 0. -1.
        -13    1    1    2    0    0  0.69528584333E+03  0.31957420273E+03  0.88846291493E+03  0.11725683082E+04  0.10566000000E+00 0.  1.
         13    1    1    2    0    0 -0.67234488826E+03 -0.31244932929E+03 -0.26226866067E+02  0.74186258284E+03  0.10566000000E+00 0. -1.
          4    1    1    2  501    0 -0.22940955065E+02 -0.71248734322E+01 -0.18248862326E+03  0.18406289376E+03  0.00000000000E+00 0.  1.
</event>
<event>
 5    1  0.2540860E-005  0.1118911E+03  0.7818608E-02  0.1146253E+00
         21   -1    0    0  501  502  0.00000000000E+00  0.00000000000E+00  0.54590776877E+03  0.54590776877E+03  0.00000000000E+00 0. -1.
          4   -1    0    0  502    0 -0.00000000000E+00 -0.00000000000E+00 -0.14455880092E+03  0.14455880092E+03  0.00000000000E+00 0.  1.
        -13    1    1    2    0    0 -0.82133427184E+02 -0.68543946505E+02 -0.43929350004E+02  0.11564588803E+03  0.10566000000E+00 0.  1.
         13    1    1    2    0    0  0.10759390373E+03  0.56150972138E+02 -0.70856079188E+01  0.12157136504E+03  0.10566000000E+00 0. -1.
          4    1    1    2  501    0 -0.25460476550E+02  0.12392974368E+02  0.45236392577E+03  0.45324931662E+03  0.00000000000E+00 0.  1.
</event>
<event>
 5    1  0.2540860E-005  0.1390797E+03  0.7818608E-02  0.1112411E+00
         -4   -1    0    0    0  501 -0.00000000000E+00  0.00000000000E+00  0.82038966316E+03  0.82038966316E+03  0.00000000000E+00 0. -1.
         21   -1    0    0  501  502  0.00000000000E+00 -0.00000000000E+00 -0.74536522449E+02  0.74536522449E+02  0.00000000000E+00 0.  1.
        -13    1    1    2    0    0 -0.11866117190E+03 -0.48995197274E+02  0.92125611709E+01  0.12870852932E+03  0.10566000000E+00 0.  1.
         13    1    1    2    0    0  0.12899233655E+03  0.55079623694E+02  0.74046558514E+03  0.75363259071E+03  0.10566000000E+00 0. -1.
         -4    1    1    2    0  502 -0.10331164650E+02 -0.60844264202E+01 -0.38250055964E+01  0.12585065582E+02  0.00000000000E+00 0. -1.
</event>
<event>
 5    1  0.2540860E-005  0.4003640E+03  0.7818608E-02  0.9727995E-01
          4   -1    0    0  502    0 -0.00000000000E+00  0.00000000000E+00  0.57791564459E+03  0.57791564459E+03  0.00000000000E+00 0.  1.
         21   -1    0    0  501  502  0.00000000000E+00 -0.00000000000E+00 -0.40129779090E+03  0.40129779090E+03  0.00000000000E+00 0. -1.
        -13    1    1    2    0    0  0.33206151551E+03  0.19261800137E+03  0.25039594505E+03  0.45832814118E+03  0.10566000000E+00 0.  1.
         13    1    1    2    0    0 -0.38277757030E+03 -0.20781350837E+03 -0.69242193620E+01  0.43560656396E+03  0.10566000000E+00 0. -1.
          4    1    1    2  501    0  0.50716054795E+02  0.15195506998E+02 -0.66853872001E+02  0.85278730340E+02  0.00000000000E+00 0.  1.
</event>
<event>
 5    1  0.2540860E-005  0.7509760E+03  0.7818608E-02  0.9052138E-01
         -4   -1    0    0    0  501 -0.00000000000E+00  0.00000000000E+00  0.23201847593E+04  0.23201847593E+04  0.00000000000E+00 0. -1.
         21   -1    0    0  501  502  0.00000000000E+00 -0.00000000000E+00 -0.96139774179E+03  0.96139774179E+03  0.00000000000E+00 0. -1.
        -13    1    1    2    0    0  0.23206940840E+03 -0.69615771631E+03  0.18178354240E+04  0.19603615525E+04  0.10566000000E+00 0.  1.
         13    1    1    2    0    0 -0.52074091397E+03  0.77753627546E+03 -0.30642377913E+03  0.98469756916E+03  0.10566000000E+00 0. -1.
         -4    1    1    2    0  502  0.28867150557E+03 -0.81378559144E+02 -0.15262462743E+03  0.33652337945E+03  0.00000000000E+00 0. -1.
</event>
<event>
 5    1  0.2540860E-005  0.3929296E+03  0.7818608E-02  0.1008215E+00
         21   -1    0    0  501  502  0.00000000000E+00  0.00000000000E+00  0.15713296385E+03  0.15713296385E+03  0.00000000000E+00 0.  1.
          4   -1    0    0  502    0 -0.00000000000E+00 -0.00000000000E+00 -0.21844120273E+04  0.21844120273E+04  0.00000000000E+00 0.  1.
        -13    1    1    2    0    0 -0.28538038012E+02  0.30750990173E+03 -0.16526002506E+04  0.16812091954E+04  0.10566000000E+00 0.  1.
         13    1    1    2    0    0  0.78254757499E+02  0.10337549199E+03 -0.97246406713E+02  0.16207150952E+03  0.10566000000E+00 0. -1.
          4    1    1    2  501    0 -0.49716719487E+02 -0.41088539372E+03 -0.27743240619E+03  0.49826428627E+03  0.00000000000E+00 0.  1.
</event>
<event>
 5    1  0.2540860E-005  0.3108004E+03  0.7818608E-02  0.1002944E+00
          4   -1    0    0  502    0 -0.00000000000E+00  0.00000000000E+00  0.38827452091E+03  0.38827452091E+03  0.00000000000E+00 0.  1.
         21   -1    0    0  501  502  0.00000000000E+00 -0.00000000000E+00 -0.11229815824E+04  0.11229815824E+04  0.00000000000E+00 0.  1.
        -13    1    1    2    0    0 -0.16997371024E+02  0.42004222197E+03  0.72386825098E+02  0.42657266963E+03  0.10566000000E+00 0.  1.
         13    1    1    2    0    0  0.31245784710E+02 -0.23936191816E+03  0.15951211825E+02  0.24191915850E+03  0.10566000000E+00 0. -1.
          4    1    1    2  501    0 -0.14248413685E+02 -0.18068030381E+03 -0.82304509838E+03  0.84276427514E+03  0.00000000000E+00 0.  1.
</event>
<event>
 5    1  0.2540860E-005  0.2960087E+03  0.7818608E-02  0.1008967E+00
         21   -1    0    0  501  502  0.00000000000E+00  0.00000000000E+00  0.28445420993E+03  0.28445420993E+03  0.00000000000E+00 0. -1.
         -4   -1    0    0    0  501 -0.00000000000E+00 -0.00000000000E+00 -0.68900163557E+03  0.68900163557E+03  0.00000000000E+00 0. -1.
        -13    1    1    2    0    0 -0.28240752577E+03 -0.31720906646E+02 -0.15672968220E+03  0.32453725669E+03  0.10566000000E+00 0.  1.
         13    1    1    2    0    0  0.30140829705E+03  0.33325275572E+02 -0.39641571871E+03  0.49910216261E+03  0.10566000000E+00 0. -1.
         -4    1    1    2    0  502 -0.19000771276E+02 -0.16043689258E+01  0.14859797526E+03  0.14981642620E+03  0.00000000000E+00 0. -1.
</event>
<event>
 5    1  0.2540860E-005  0.2955277E+03  0.7818608E-02  0.1024326E+00
         21   -1    0    0  501  502  0.00000000000E+00  0.00000000000E+00  0.29130005555E+03  0.29130005555E+03  0.00000000000E+00 0.  1.
          4   -1    0    0  502    0 -0.00000000000E+00 -0.00000000000E+00 -0.15172012698E+04  0.15172012698E+04  0.00000000000E+00 0.  1.
        -13    1    1    2    0    0 -0.18054276296E+03  0.17983677599E+03 -0.84565268057E+03  0.88321312410E+03  0.10566000000E+00 0.  1.
         13    1    1    2    0    0  0.13638537087E+03  0.12161044391E+03 -0.54788211650E+03  0.57755077197E+03  0.10566000000E+00 0. -1.
          4    1    1    2  501    0  0.44157392089E+02 -0.30144721990E+03  0.16763358279E+03  0.34773742931E+03  0.00000000000E+00 0.  1.
</event>
<event>
 5    1  0.2540860E-005  0.6154491E+03  0.7818608E-02  0.9509720E-01
         21   -1    0    0  501  502  0.00000000000E+00  0.00000000000E+00  0.10548838446E+04  0.10548838446E+04  0.00000000000E+00 0.  1.
          4   -1    0    0  502    0 -0.00000000000E+00 -0.00000000000E+00 -0.58131196754E+03  0.58131196754E+03  0.00000000000E+00 0.  1.
        -13    1    1    2    0    0  0.28084888794E+03  0.59123036432E+03  0.22322358889E+03  0.69156216159E+03  0.10566000000E+00 0.  1.
         13    1    1    2    0    0 -0.23855962810E+03  0.11981534235E+02 -0.84565525183E+02  0.25338822494E+03  0.10566000000E+00 0. -1.
          4    1    1    2  501    0 -0.42289259831E+02 -0.60321189855E+03  0.33491381334E+03  0.69124542560E+03  0.00000000000E+00 0.  1.
</event>
<event>
 5    1  0.2540860E-005  0.1511916E+03  0.7818608E-02  0.1099942E+00
         21   -1    0    0  501  502  0.00000000000E+00  0.00000000000E+00  0.39788917509E+02  0.39788917509E+02  0.00000000000E+00 0.  1.
         -4   -1    0    0    0  501 -0.00000000000E+00 -0.00000000000E+00 -0.77093295647E+03  0.77093295647E+03  0.00000000000E+00 0. -1.
        -13    1    1    2    0    0 -0.13491854998E+03 -0.12826797245E+02 -0.27178802190E+03  0.30370426713E+03  0.10566000000E+00 0.  1.
         13    1    1    2    0    0  0.16372708021E+03  0.32042826029E+02 -0.43132289975E+03  0.46246378724E+03  0.10566000000E+00 0. -1.
         -4    1    1    2    0  502 -0.28808530228E+02 -0.19216028784E+02 -0.28033117313E+02  0.44553819616E+02  0.00000000000E+00 0. -1.
</event>
<event>
 5    1  0.3015886E-005  0.4109526E+03  0.7818608E-02  0.1013129E+00
          4   -1    0    0  502    0 -0.00000000000E+00  0.00000000000E+00  0.16753428054E+04  0.16753428054E+04  0.00000000000E+00 0.  1.
         21   -1    0    0  501  502  0.00000000000E+00 -0.00000000000E+00 -0.20520561278E+03  0.20520561278E+03  0.00000000000E+00 0.  1.
        -13    1    1    2    0    0  0.29175611873E+03  0.17760458312E+03  0.92203547279E+03  0.98326722970E+03  0.10566000000E+00 0.  1.
         13    1    1    2    0    0  0.96185376004E+02  0.10894133289E+02  0.44285846863E+03  0.45331439763E+03  0.10566000000E+00 0. -1.
          4    1    1    2  501    0 -0.38794149473E+03 -0.18849871641E+03  0.10524325117E+03  0.44396679081E+03  0.00000000000E+00 0.  1.
</event>
<event>
 5    1  0.2540860E-005  0.8783989E+02  0.7818608E-02  0.1186411E+00
         21   -1    0    0  501  502  0.00000000000E+00  0.00000000000E+00  0.92356357301E+02  0.92356357301E+02  0.00000000000E+00 0.  1.
         -4   -1    0    0    0  501 -0.00000000000E+00 -0.00000000000E+00 -0.27749607324E+03  0.27749607324E+03  0.00000000000E+00 0. -1.
        -13    1    1    2    0    0 -0.31713492003E+02 -0.12558759754E+03 -0.28341612291E+02  0.13259429996E+03  0.10566000000E+00 0.  1.
         13    1    1    2    0    0 -0.12948110016E+02  0.80292550518E+02 -0.15331623607E+03  0.17355237431E+03  0.10566000000E+00 0. -1.
         -4    1    1    2    0  502  0.44661602019E+02  0.45295047023E+02 -0.34818675733E+01  0.63705756266E+02  0.00000000000E+00 0. -1.
</event>
<event>
 5    1  0.2540860E-005  0.3328121E+03  0.7818608E-02  0.1001589E+00
          4   -1    0    0  502    0 -0.00000000000E+00  0.00000000000E+00  0.76213638679E+03  0.76213638679E+03  0.00000000000E+00 0.  1.
         21   -1    0    0  501  502  0.00000000000E+00 -0.00000000000E+00 -0.54688508269E+03  0.54688508269E+03  0.00000000000E+00 0.  1.
        -13    1    1    2    0    0 -0.38653657985E+02 -0.48841581043E+03  0.39412419193E+03  0.62879090244E+03  0.10566000000E+00 0.  1.
         13    1    1    2    0    0  0.17223295404E+03  0.20082235453E+03  0.73920660929E+02  0.27469634838E+03  0.10566000000E+00 0. -1.
          4    1    1    2  501    0 -0.13357929606E+03  0.28759345590E+03 -0.25279354876E+03  0.40553421866E+03  0.00000000000E+00 0.  1.
</event>
<event>
 5    1  0.2540860E-005  0.7353561E+03  0.7818608E-02  0.9073209E-01
          4   -1    0    0  502    0 -0.00000000000E+00  0.00000000000E+00  0.29156809567E+04  0.29156809567E+04  0.00000000000E+00 0.  1.
         21   -1    0    0  501  502  0.00000000000E+00 -0.00000000000E+00 -0.22693014725E+03  0.22693014725E+03  0.00000000000E+00 0. -1.
        -13    1    1    2    0    0 -0.36628796952E+03 -0.65426225422E+03  0.12438197746E+04  0.14523476226E+04  0.10566000000E+00 0.  1.
         13    1    1    2    0    0  0.41212936540E+03  0.59638708931E+03  0.14447581749E+04  0.16164326059E+04  0.10566000000E+00 0. -1.
          4    1    1    2  501    0 -0.45841395880E+02  0.57875164911E+02  0.17285985545E+00  0.73830875453E+02  0.00000000000E+00 0.  1.
</event>
<event>
 5    1  0.2540860E-005  0.1189456E+03  0.7818608E-02  0.1136534E+00
         -4   -1    0    0    0  501 -0.00000000000E+00  0.00000000000E+00  0.64708253938E+03  0.64708253938E+03  0.00000000000E+00 0. -1.
         21   -1    0    0  501  502  0.00000000000E+00 -0.00000000000E+00 -0.11496400319E+03  0.11496400319E+03  0.00000000000E+00 0.  1.
        -13    1    1    2    0    0  0.10376252779E+03 -0.23667635450E+02 -0.71199138873E+02  0.12804744309E+03  0.10566000000E+00 0.  1.
         13    1    1    2    0    0 -0.11983489973E+03  0.11106093275E+01  0.59211716283E+03  0.60412282056E+03  0.10566000000E+00 0. -1.
         -4    1    1    2    0  502  0.16072371940E+02  0.22557026123E+02  0.11200512237E+02  0.29876278912E+02  0.00000000000E+00 0. -1.
</event>
<event>
 5    1  0.2540860E-005  0.1538731E+03  0.7818608E-02  0.1097353E+00
          4   -1    0    0  502    0 -0.00000000000E+00  0.00000000000E+00  0.27722093529E+02  0.27722093529E+02  0.00000000000E+00 0.  1.
         21   -1    0    0  501  502  0.00000000000E+00 -0.00000000000E+00 -0.16967889325E+04  0.16967889325E+04  0.00000000000E+00 0.  1.
        -13    1    1    2    0    0 -0.15078267501E+03  0.93406395284E+01 -0.48210109801E+03  0.50521692618E+03  0.10566000000E+00 0.  1.
         13    1    1    2    0    0  0.15011866827E+03 -0.51272405405E+02 -0.38728153358E+03  0.41851101722E+03  0.10566000000E+00 0. -1.
          4    1    1    2  501    0  0.66400674437E+00  0.41931765876E+02 -0.79968420742E+03  0.80078308267E+03  0.00000000000E+00 0.  1.
</event>
<event>
 5    1  0.2540860E-005  0.2531852E+03  0.7818608E-02  0.1028755E+00
         21   -1    0    0  501  502  0.00000000000E+00  0.00000000000E+00  0.20128619842E+03  0.20128619842E+03  0.00000000000E+00 0. -1.
         -4   -1    0    0    0  501 -0.00000000000E+00 -0.00000000000E+00 -0.21715393922E+04  0.21715393922E+04  0.00000000000E+00 0. -1.
        -13    1    1    2    0    0  0.69449618622E+02  0.20316925725E+03 -0.77648449887E+03  0.80562347580E+03  0.10566000000E+00 0.  1.
         13    1    1    2    0    0 -0.10332274908E+03 -0.27652928793E+03 -0.13550387911E+04  0.13868216086E+04  0.10566000000E+00 0. -1.
         -4    1    1    2    0  502  0.33873130458E+02  0.73360030683E+02  0.16127009623E+03  0.18038050617E+03  0.00000000000E+00 0. -1.
</event>
<event>
 5    1  0.2540860E-005  0.8019601E+02  0.7818608E-02  0.1202259E+00
         21   -1    0    0  501  502  0.00000000000E+00  0.00000000000E+00  0.26665693297E+03  0.26665693297E+03  0.00000000000E+00 0.  1.
         -4   -1    0    0    0  501 -0.00000000000E+00 -0.00000000000E+00 -0.21217953637E+03  0.21217953637E+03  0.00000000000E+00 0. -1.
        -13    1    1    2    0    0 -0.10484250387E+03  0.29366311163E+02  0.18526934629E+03  0.21489316575E+03  0.10566000000E+00 0.  1.
         13    1    1    2    0    0  0.76544083045E+02 -0.19706260255E+02 -0.18547746957E+03  0.20161655741E+03  0.10566000000E+00 0. -1.
         -4    1    1    2    0  502  0.28298420826E+02 -0.96600509075E+01  0.54685519873E+02  0.62326746173E+02  0.00000000000E+00 0. -1.
</event>
<event>
 5    1  0.2540860E-005  0.4762488E+03  0.7818608E-02  0.9609251E-01
         21   -1    0    0  501  502  0.00000000000E+00  0.00000000000E+00  0.28494739541E+03  0.28494739541E+03  0.00000000000E+00 0. -1.
         -4   -1    0    0    0  501 -0.00000000000E+00 -0.00000000000E+00 -0.17817300221E+04  0.17817300221E+04  0.00000000000E+00 0. -1.
        -13    1    1    2    0    0 -0.31691544884E+03 -0.17220561263E+03 -0.45213005423E+03  0.57836992646E+03  0.10566000000E+00 0.  1.
         13    1    1    2    0    0  0.12779177821E+00 -0.31834613836E+03 -0.78908737498E+03  0.85088376213E+03  0.10566000000E+00 0. -1.
         -4    1    1    2    0  502  0.31678765706E+03  0.49055175099E+03 -0.25556519753E+03  0.63742372897E+03  0.00000000000E+00 0. -1.
</event>
<event>
 5    1  0.2540860E-005  0.4957493E+03  0.7818608E-02  0.1033997E+00
         -4   -1    0    0    0  501 -0.00000000000E+00  0.00000000000E+00  0.31785775016E+03  0.31785775016E+03  0.00000000000E+00 0. -1.
         21   -1    0    0  501  502  0.00000000000E+00 -0.00000000000E+00 -0.91643548473E+03  0.91643548473E+03  0.00000000000E+00 0. -1.
        -13    1    1    2    0    0 -0.81822166662E+01 -0.27504193056E+02  0.48079909599E+01  0.29095656829E+02  0.10566000000E+00 0.  1.
         13    1    1    2    0    0 -0.44585797225E+03 -0.18733840047E+03 -0.99565940765E+02  0.49375945098E+03  0.10566000000E+00 0. -1.
         -4    1    1    2    0  502  0.45404018891E+03  0.21484259353E+03 -0.50381978477E+03  0.71143812708E+03  0.00000000000E+00 0. -1.
</event>
<event>
 5    1  0.2540860E-005  0.4947196E+03  0.7818608E-02  0.9528109E-01
         21   -1    0    0  501  502  0.00000000000E+00  0.00000000000E+00  0.29139400523E+03  0.29139400523E+03  0.00000000000E+00 0. -1.
         -4   -1    0    0    0  501 -0.00000000000E+00 -0.00000000000E+00 -0.19977443718E+04  0.19977443718E+04  0.00000000000E+00 0. -1.
        -13    1    1    2    0    0  0.37535928313E+03 -0.21033024501E+03 -0.61122558161E+03  0.74748252566E+03  0.10566000000E+00 0.  1.
         13    1    1    2    0    0  0.28523531051E+03  0.12686049045E+03 -0.70233174172E+03  0.76858483786E+03  0.10566000000E+00 0. -1.
         -4    1    1    2    0  502 -0.66059459364E+03  0.83469754556E+02 -0.39279304321E+03  0.77307101347E+03  0.00000000000E+00 0. -1.
</event>
<event>
 5    1  0.2540860E-005  0.2369279E+03  0.7818608E-02  0.1044062E+00
         21   -1    0    0  501  502  0.00000000000E+00  0.00000000000E+00  0.19151286471E+03  0.19151286471E+03  0.00000000000E+00 0.  1.
          4   -1    0    0  502    0 -0.00000000000E+00 -0.00000000000E+00 -0.21147638849E+04  0.21147638849E+04  0.00000000000E+00 0.  1.
        -13    1    1    2    0    0 -0.36856038609E+03 -0.18585838553E+03 -0.13371556507E+04  0.13994160722E+04  0.10566000000E+00 0.  1.
         13    1    1    2    0    0  0.15254775841E+03  0.11931206761E+03 -0.64486228509E+03  0.67331535402E+03  0.10566000000E+00 0. -1.
          4    1    1    2  501    0  0.21601262768E+03  0.66546317921E+02  0.58766915558E+02  0.23354532346E+03  0.00000000000E+00 0.  1.
</event>
<event>
 5    1  0.2540860E-005  0.2650121E+03  0.7818608E-02  0.1054597E+00
         21   -1    0    0  501  502  0.00000000000E+00  0.00000000000E+00  0.43202447055E+03  0.43202447055E+03  0.00000000000E+00 0.  1.
          4   -1    0    0  502    0 -0.00000000000E+00 -0.00000000000E+00 -0.83869730048E+03  0.83869730048E+03  0.00000000000E+00 0.  1.
        -13    1    1    2    0    0  0.20476048423E+03  0.28528439620E+02 -0.63122934544E+03  0.66422227114E+03  0.10566000000E+00 0.  1.
         13    1    1    2    0    0  0.59900112815E+02 -0.81477583120E+02 -0.12759556211E+03  0.16281049935E+03  0.10566000000E+00 0. -1.
          4    1    1    2  501    0 -0.26466059705E+03  0.52949143500E+02  0.35215207761E+03  0.44368900053E+03  0.00000000000E+00 0.  1.
</event>
<event>
 5    1  0.2540860E-005  0.3899008E+03  0.7818608E-02  0.9989708E-01
         21   -1    0    0  501  502  0.00000000000E+00  0.00000000000E+00  0.17712590158E+03  0.17712590158E+03  0.00000000000E+00 0.  1.
          4   -1    0    0  502    0 -0.00000000000E+00 -0.00000000000E+00 -0.21564839002E+04  0.21564839002E+04  0.00000000000E+00 0.  1.
        -13    1    1    2    0    0 -0.45103146150E+03 -0.46450472194E+02 -0.12094640339E+04  0.12916618311E+04  0.10566000000E+00 0.  1.
         13    1    1    2    0    0  0.11629508692E+03 -0.13642860998E+03 -0.59667420443E+03  0.62302281680E+03  0.10566000000E+00 0. -1.
          4    1    1    2  501    0  0.33473637458E+03  0.18287908217E+03 -0.17321976035E+03  0.41892515387E+03  0.00000000000E+00 0.  1.
</event>
<event>
 5    1  0.2540860E-005  0.5724300E+03  0.7818608E-02  0.9331950E-01
         -4   -1    0    0    0  501 -0.00000000000E+00  0.00000000000E+00  0.25925341590E+04  0.25925341590E+04  0.00000000000E+00 0. -1.
         21   -1    0    0  501  502  0.00000000000E+00 -0.00000000000E+00 -0.28334186692E+03  0.28334186692E+03  0.00000000000E+00 0.  1.
        -13    1    1    2    0    0  0.38244417887E+03  0.40827225829E+03  0.93777981852E+03  0.10919618977E+04  0.10566000000E+00 0.  1.
         13    1    1    2    0    0 -0.39034751707E+02 -0.69086711643E+03  0.75944844823E+03  0.10274157100E+04  0.10566000000E+00 0. -1.
         -4    1    1    2    0  502 -0.34340942716E+03  0.28259485814E+03  0.61196402528E+03  0.75649841821E+03  0.00000000000E+00 0. -1.
</event>
<event>
 5    1  0.2540860E-005  0.9434941E+02  0.7818608E-02  0.1174259E+00
          4   -1    0    0  502    0 -0.00000000000E+00  0.00000000000E+00  0.20056051008E+03  0.20056051008E+03  0.00000000000E+00 0.  1.
         21   -1    0    0  501  502  0.00000000000E+00 -0.00000000000E+00 -0.28988327122E+03  0.28988327122E+03  0.00000000000E+00 0.  1.
        -13    1    1    2    0    0  0.66687738382E+02 -0.69732408966E+02  0.17105653283E+03  0.19639300369E+03  0.10566000000E+00 0.  1.
         13    1    1    2    0    0 -0.48284973680E+02  0.62127697000E+02 -0.78715067503E+02  0.11129852844E+03  0.10566000000E+00 0. -1.
          4    1    1    2  501    0 -0.18402764702E+02  0.76047119662E+01 -0.18166422648E+03  0.18275224916E+03  0.00000000000E+00 0.  1.
</event>
<event>
 5    1  0.2540860E-005  0.2594491E+03  0.7818608E-02  0.1025609E+00
         21   -1    0    0  501  502  0.00000000000E+00  0.00000000000E+00  0.26841263906E+03  0.26841263906E+03  0.00000000000E+00 0.  1.
          4   -1    0    0  502    0 -0.00000000000E+00 -0.00000000000E+00 -0.99308244659E+03  0.99308244659E+03  0.00000000000E+00 0.  1.
        -13    1    1    2    0    0 -0.26503771643E+03  0.11627305492E+03 -0.50962432684E+03  0.58607284539E+03  0.10566000000E+00 0.  1.
         13    1    1    2    0    0  0.95868972220E+02 -0.25246517051E+03 -0.33263189192E+03  0.42845479206E+03  0.10566000000E+00 0. -1.
          4    1    1    2  501    0  0.16916874421E+03  0.13619211559E+03  0.11758641122E+03  0.24696744820E+03  0.00000000000E+00 0.  1.
</event>
<event>
 5    1  0.2540860E-005  0.4828010E+03  0.7818608E-02  0.9714117E-01
         21   -1    0    0  501  502  0.00000000000E+00  0.00000000000E+00  0.38485132449E+03  0.38485132449E+03  0.00000000000E+00 0.  1.
          4   -1    0    0  502    0 -0.00000000000E+00 -0.00000000000E+00 -0.10766383184E+04  0.10766383184E+04  0.00000000000E+00 0.  1.
        -13    1    1    2    0    0 -0.52446664713E+02 -0.61390718575E+03 -0.27669582097E+03  0.67542081243E+03  0.10566000000E+00 0.  1.
         13    1    1    2    0    0 -0.71780978484E+02  0.22855513089E+03 -0.25721449727E+03  0.35149575460E+03  0.10566000000E+00 0. -1.
          4    1    1    2  501    0  0.12422764320E+03  0.38535205486E+03 -0.15787667563E+03  0.43457307582E+03  0.00000000000E+00 0.  1.
</event>
<event>
 5    1  0.2540860E-005  0.4787397E+03  0.7818608E-02  0.9703091E-01
         21   -1    0    0  501  502  0.00000000000E+00  0.00000000000E+00  0.40607337771E+03  0.40607337771E+03  0.00000000000E+00 0.  1.
          4   -1    0    0  502    0 -0.00000000000E+00 -0.00000000000E+00 -0.99958456008E+03  0.99958456008E+03  0.00000000000E+00 0.  1.
        -13    1    1    2    0    0  0.12610667111E+03  0.55051833554E+03 -0.16727175409E+03  0.58902731783E+03  0.10566000000E+00 0.  1.
         13    1    1    2    0    0  0.13773872517E+03 -0.21497174023E+03 -0.24176546223E+03  0.35161819549E+03  0.10566000000E+00 0. -1.
          4    1    1    2  501    0 -0.26384539628E+03 -0.33554659532E+03 -0.18447396603E+03  0.46501242447E+03  0.00000000000E+00 0.  1.
</event>
<event>
 5    1  0.2540860E-005  0.5554047E+02  0.7818608E-02  0.1270739E+00
         21   -1    0    0  501  502  0.00000000000E+00  0.00000000000E+00  0.40407223861E+03  0.40407223861E+03  0.00000000000E+00 0.  1.
          4   -1    0    0  502    0 -0.00000000000E+00 -0.00000000000E+00 -0.12575321267E+02  0.12575321267E+02  0.00000000000E+00 0.  1.
        -13    1    1    2    0    0 -0.45422097004E+02  0.33591352737E+02  0.10988966159E+03  0.12356089496E+03  0.10566000000E+00 0.  1.
         13    1    1    2    0    0  0.55827879581E+02 -0.12106509195E+02  0.18834297306E+03  0.19681566596E+03  0.10566000000E+00 0. -1.
          4    1    1    2  501    0 -0.10405782577E+02 -0.21484843542E+02  0.93264282696E+02  0.96270998955E+02  0.00000000000E+00 0.  1.
</event>
<event>
 5    1  0.2540860E-005  0.3095338E+03  0.7818608E-02  0.1008233E+00
         21   -1    0    0  501  502  0.00000000000E+00  0.00000000000E+00  0.10009096702E+04  0.10009096702E+04  0.00000000000E+00 0.  1.
          4   -1    0    0  502    0 -0.00000000000E+00 -0.00000000000E+00 -0.46250479228E+03  0.46250479228E+03  0.00000000000E+00 0.  1.
        -13    1    1    2    0    0  0.22841991119E+03  0.31354590915E+02 -0.28990153862E+03  0.37040745060E+03  0.10566000000E+00 0.  1.
         13    1    1    2    0    0  0.25031667584E-01 -0.26507384108E+03  0.80700011324E+02  0.27708598817E+03  0.10566000000E+00 0. -1.
          4    1    1    2  501    0 -0.22844494286E+03  0.23371925016E+03  0.74760640519E+03  0.81592102369E+03  0.00000000000E+00 0.  1.
</event>
<event>
 5    1  0.2540860E-005  0.1415914E+03  0.7818608E-02  0.1170899E+00
         21   -1    0    0  501  502  0.00000000000E+00  0.00000000000E+00  0.14324209833E+03  0.14324209833E+03  0.00000000000E+00 0.  1.
          4   -1    0    0  502    0 -0.00000000000E+00 -0.00000000000E+00 -0.18622999818E+03  0.18622999818E+03  0.00000000000E+00 0.  1.
        -13    1    1    2    0    0 -0.38342795919E+02 -0.14774976264E+03  0.29160927568E+02  0.15540441827E+03  0.10566000000E+00 0.  1.
         13    1    1    2    0    0  0.88835020008E+01  0.28910255830E+02  0.30246442912E+01  0.30395380193E+02  0.10566000000E+00 0. -1.
          4    1    1    2  501    0  0.29459293919E+02  0.11883950681E+03 -0.75173471711E+02  0.14367229804E+03  0.00000000000E+00 0.  1.
</event>
<event>
 5    1  0.2540860E-005  0.3369888E+03  0.7818608E-02  0.9931106E-01
         21   -1    0    0  501  502  0.00000000000E+00  0.00000000000E+00  0.27001010368E+03  0.27001010368E+03  0.00000000000E+00 0. -1.
         -4   -1    0    0    0  501 -0.00000000000E+00 -0.00000000000E+00 -0.15930569881E+04  0.15930569881E+04  0.00000000000E+00 0. -1.
        -13    1    1    2    0    0  0.53728786712E+02 -0.33492273795E+03 -0.63909454402E+03  0.72353429102E+03  0.10566000000E+00 0.  1.
         13    1    1    2    0    0 -0.40418510439E+02  0.33302918381E+03 -0.88064626778E+03  0.94237994109E+03  0.10566000000E+00 0. -1.
         -4    1    1    2    0  502 -0.13310276273E+02  0.18935541438E+01  0.19669392739E+03  0.19715285966E+03  0.00000000000E+00 0. -1.
</event>
<event>
 5    1  0.2540860E-005  0.4318929E+03  0.7818608E-02  0.9641216E-01
          4   -1    0    0  502    0 -0.00000000000E+00  0.00000000000E+00  0.15216669807E+04  0.15216669807E+04  0.00000000000E+00 0.  1.
         21   -1    0    0  501  502  0.00000000000E+00 -0.00000000000E+00 -0.45246206071E+03  0.45246206071E+03  0.00000000000E+00 0.  1.
        -13    1    1    2    0    0  0.21102293949E+03 -0.61010697521E+03  0.43448206692E+03  0.77816185966E+03  0.10566000000E+00 0.  1.
         13    1    1    2    0    0 -0.21542394562E+03  0.31442568360E+03  0.77876827030E+03  0.86703576445E+03  0.10566000000E+00 0. -1.
          4    1    1    2  501    0  0.44010061293E+01  0.29568129162E+03 -0.14404541722E+03  0.32893141731E+03  0.00000000000E+00 0.  1.
</event>
<event>
 5    1  0.2540860E-005  0.4014034E+03  0.7818608E-02  0.9897787E-01
         21   -1    0    0  501  502  0.00000000000E+00  0.00000000000E+00  0.63781660491E+03  0.63781660491E+03  0.00000000000E+00 0. -1.
         -4   -1    0    0    0  501 -0.00000000000E+00 -0.00000000000E+00 -0.61988757891E+03  0.61988757891E+03  0.00000000000E+00 0. -1.
        -13    1    1    2    0    0  0.43516695727E+02  0.21854525293E+03 -0.19149929889E+03  0.29381579778E+03  0.10566000000E+00 0.  1.
         13    1    1    2    0    0 -0.40930197983E+03 -0.44674129299E+01  0.32717022774E+03  0.52401186776E+03  0.10566000000E+00 0. -1.
         -4    1    1    2    0  502  0.36578528410E+03 -0.21407784000E+03 -0.11774190286E+03  0.43987651828E+03  0.00000000000E+00 0. -1.
</event>
<event>
 5    1  0.2540860E-005  0.3885897E+03  0.7818608E-02  0.9832466E-01
         21   -1    0    0  501  502  0.00000000000E+00  0.00000000000E+00  0.18181346547E+03  0.18181346547E+03  0.00000000000E+00 0.  1.
          4   -1    0    0  502    0 -0.00000000000E+00 -0.00000000000E+00 -0.29897866525E+04  0.29897866525E+04  0.00000000000E+00 0.  1.
        -13    1    1    2    0    0  0.50682219021E+02 -0.61259638282E+03 -0.12214265573E+04  0.13673791946E+04  0.10566000000E+00 0.  1.
         13    1    1    2    0    0 -0.12045009102E+03  0.28138535811E+03 -0.13668297886E+04  0.14006818434E+04  0.10566000000E+00 0. -1.
          4    1    1    2  501    0  0.69767871997E+02  0.33121102471E+03 -0.21971684109E+03  0.40353908003E+03  0.00000000000E+00 0.  1.
</event>
<event>
 5    1  0.2540860E-005  0.5177338E+02  0.7818608E-02  0.1284732E+00
         21   -1    0    0  501  502  0.00000000000E+00  0.00000000000E+00  0.18099193277E+03  0.18099193277E+03  0.00000000000E+00 0.  1.
          4   -1    0    0  502    0 -0.00000000000E+00 -0.00000000000E+00 -0.76050412958E+02  0.76050412958E+02  0.00000000000E+00 0.  1.
        -13    1    1    2    0    0  0.32591654162E+02  0.36999526248E+02 -0.43774840564E+02  0.65935033890E+02  0.10566000000E+00 0.  1.
         13    1    1    2    0    0 -0.33813770629E+02 -0.53276903773E+02  0.27562144462E+02  0.68858423822E+02  0.10566000000E+00 0. -1.
          4    1    1    2  501    0  0.12221164670E+01  0.16277377526E+02  0.12115421591E+03  0.12224888801E+03  0.00000000000E+00 0.  1.
</event>
<event>
 5    1  0.2540860E-005  0.5435106E+02  0.7818608E-02  0.1275020E+00
         21   -1    0    0  501  502  0.00000000000E+00  0.00000000000E+00  0.48003496463E+02  0.48003496463E+02  0.00000000000E+00 0.  1.
         -4   -1    0    0    0  501 -0.00000000000E+00 -0.00000000000E+00 -0.10137996751E+03  0.10137996751E+03  0.00000000000E+00 0. -1.
        -13    1    1    2    0    0 -0.38812443933E+02  0.16688721407E+02  0.82916446761E+01  0.43054404672E+02  0.10566000000E+00 0.  1.
         13    1    1    2    0    0  0.51153073989E+02 -0.31850457349E+02 -0.62426747044E+02  0.86765191882E+02  0.10566000000E+00 0. -1.
         -4    1    1    2    0  502 -0.12340630056E+02  0.15161735942E+02  0.75863131971E+00  0.19563867420E+02  0.00000000000E+00 0. -1.
</event>
<event>
 5    1  0.2540860E-005  0.2837417E+03  0.7818608E-02  0.1044453E+00
         -4   -1    0    0    0  501 -0.00000000000E+00  0.00000000000E+00  0.83719801591E+03  0.83719801591E+03  0.00000000000E+00 0. -1.
         21   -1    0    0  501  502  0.00000000000E+00 -0.00000000000E+00 -0.57356006137E+03  0.57356006137E+03  0.00000000000E+00 0. -1.
        -13    1    1    2    0    0  0.89790246601E+02 -0.66000648095E+02  0.39075371813E+03  0.40633342630E+03  0.10566000000E+00 0.  1.
         13    1    1    2    0    0 -0.42707824210E+02  0.34109416900E+03  0.32502267035E+03  0.47308449327E+03  0.10566000000E+00 0. -1.
         -4    1    1    2    0  502 -0.47082422390E+02 -0.27509352090E+03 -0.45213843394E+03  0.53134015770E+03  0.00000000000E+00 0. -1.
</event>
<event>
 5    1  0.2540860E-005  0.2795811E+03  0.7818608E-02  0.1022484E+00
         -4   -1    0    0    0  501 -0.00000000000E+00  0.00000000000E+00  0.21557828543E+04  0.21557828543E+04  0.00000000000E+00 0. -1.
         21   -1    0    0  501  502  0.00000000000E+00 -0.00000000000E+00 -0.96952812982E+02  0.96952812982E+02  0.00000000000E+00 0. -1.
        -13    1    1    2    0    0  0.11963380880E+03  0.19482466414E+03  0.43947687423E+03  0.49538755749E+03  0.10566000000E+00 0.  1.
         13    1    1    2    0    0  0.19018850096E+03 -0.14840994303E+03  0.12498264420E+04  0.12728956451E+04  0.10566000000E+00 0. -1.
         -4    1    1    2    0  502 -0.30982230976E+03 -0.46414721109E+02  0.36952672502E+03  0.48445246461E+03  0.00000000000E+00 0. -1.
</event>
<event>
 5    1  0.2540860E-005  0.5868779E+02  0.7818608E-02  0.1259970E+00
         -4   -1    0    0    0  501 -0.00000000000E+00  0.00000000000E+00  0.39923773085E+03  0.39923773085E+03  0.00000000000E+00 0. -1.
         21   -1    0    0  501  502  0.00000000000E+00 -0.00000000000E+00 -0.19223196163E+02  0.19223196163E+02  0.00000000000E+00 0.  1.
        -13    1    1    2    0    0  0.47682682572E+02  0.16924410751E+02  0.39263729153E+02  0.64044714752E+02  0.10566000000E+00 0.  1.
         13    1    1    2    0    0 -0.42960665279E+02 -0.44742905919E+02  0.28788446439E+03  0.29449112447E+03  0.10566000000E+00 0. -1.
         -4    1    1    2    0  502 -0.47220172929E+01  0.27818495168E+02  0.52866341136E+02  0.59925087784E+02  0.00000000000E+00 0. -1.
</event>
<event>
 5    1  0.2540860E-005  0.2253020E+03  0.7818608E-02  0.1046581E+00
         21   -1    0    0  501  502  0.00000000000E+00  0.00000000000E+00  0.58914794129E+03  0.58914794129E+03  0.00000000000E+00 0. -1.
         -4   -1    0    0    0  501 -0.00000000000E+00 -0.00000000000E+00 -0.81785960000E+03  0.81785960000E+03  0.00000000000E+00 0. -1.
        -13    1    1    2    0    0  0.12301820213E+03  0.16874601434E+03  0.22666593706E+03  0.30819823750E+03  0.10566000000E+00 0.  1.
         13    1    1    2    0    0 -0.34136061866E+03 -0.15494040197E+03 -0.68548631021E+03  0.78129705796E+03  0.10566000000E+00 0. -1.
         -4    1    1    2    0  502  0.21834241653E+03 -0.13805612373E+02  0.23010871444E+03  0.31751224582E+03  0.00000000000E+00 0. -1.
</event>
<event>
 5    1  0.2540860E-005  0.2485811E+03  0.7818608E-02  0.1073495E+00
         21   -1    0    0  501  502  0.00000000000E+00  0.00000000000E+00  0.19647506420E+03  0.19647506420E+03  0.00000000000E+00 0.  1.
          4   -1    0    0  502    0 -0.00000000000E+00 -0.00000000000E+00 -0.14131637565E+04  0.14131637565E+04  0.00000000000E+00 0.  1.
        -13    1    1    2    0    0  0.12300855224E+03  0.28759544190E+03 -0.12350155326E+04  0.12740116244E+04  0.10566000000E+00 0.  1.
         13    1    1    2    0    0 -0.40467487530E+02 -0.58207005045E+02 -0.44721439227E+02  0.83819396764E+02  0.10566000000E+00 0. -1.
          4    1    1    2  501    0 -0.82541064709E+02 -0.22938843686E+03  0.63048279585E+02  0.25180779949E+03  0.00000000000E+00 0.  1.
</event>
<event>
 5    1  0.2540860E-005  0.6608555E+03  0.7818608E-02  0.9181783E-01
         21   -1    0    0  501  502  0.00000000000E+00  0.00000000000E+00  0.56944578032E+03  0.56944578032E+03  0.00000000000E+00 0.  1.
          4   -1    0    0  502    0 -0.00000000000E+00 -0.00000000000E+00 -0.27326421540E+04  0.27326421540E+04  0.00000000000E+00 0.  1.
        -13    1    1    2    0    0  0.60577133115E+03  0.62426470443E+03 -0.27667548187E+03  0.91280592695E+03  0.10566000000E+00 0.  1.
         13    1    1    2    0    0 -0.41614806787E+03 -0.47227694161E+03 -0.20173589583E+04  0.21132822580E+04  0.10566000000E+00 0. -1.
          4    1    1    2  501    0 -0.18962326328E+03 -0.15198776282E+03  0.13083806651E+03  0.27599974941E+03  0.00000000000E+00 0.  1.
</event>
<event>
 5    1  0.2540860E-005  0.3945973E+03  0.7818608E-02  0.9744780E-01
         21   -1    0    0  501  502  0.00000000000E+00  0.00000000000E+00  0.68105000361E+02  0.68105000361E+02  0.00000000000E+00 0. -1.
         -4   -1    0    0    0  501 -0.00000000000E+00 -0.00000000000E+00 -0.36697922764E+04  0.36697922764E+04  0.00000000000E+00 0. -1.
        -13    1    1    2    0    0 -0.31926806747E+03  0.23187384836E+03 -0.15478124746E+04  0.15973168278E+04  0.10566000000E+00 0.  1.
         13    1    1    2    0    0  0.29830236611E+03 -0.25931343619E+03 -0.20663881411E+04  0.21038506888E+04  0.10566000000E+00 0. -1.
         -4    1    1    2    0  502  0.20965701357E+02  0.27439587834E+02  0.12513339715E+02  0.36729760205E+02  0.00000000000E+00 0. -1.
</event>
<event>
 5    1  0.2540860E-005  0.5861087E+02  0.7818608E-02  0.1260224E+00
         -4   -1    0    0    0  501 -0.00000000000E+00  0.00000000000E+00  0.19367580747E+03  0.19367580747E+03  0.00000000000E+00 0. -1.
         21   -1    0    0  501  502  0.00000000000E+00 -0.00000000000E+00 -0.92629514647E+02  0.92629514647E+02  0.00000000000E+00 0. -1.
        -13    1    1    2    0    0 -0.25199082735E+02 -0.50904791779E+02 -0.29911381748E+02  0.64194964903E+02  0.10566000000E+00 0.  1.
         13    1    1    2    0    0  0.40058706126E+02  0.43350298695E+02  0.16984056285E+03  0.17980482832E+03  0.10566000000E+00 0. -1.
         -4    1    1    2    0  502 -0.14859623391E+02  0.75544930837E+01 -0.38882888286E+02  0.42305528889E+02  0.00000000000E+00 0. -1.
</event>
<event>
 5    1  0.2540860E-005  0.2575933E+03  0.7818608E-02  0.1037456E+00
         21   -1    0    0  501  502  0.00000000000E+00  0.00000000000E+00  0.19513055326E+04  0.19513055326E+04  0.00000000000E+00 0.  1.
          4   -1    0    0  502    0 -0.00000000000E+00 -0.00000000000E+00 -0.27320021105E+03  0.27320021105E+03  0.00000000000E+00 0.  1.
        -13    1    1    2    0    0  0.13808672176E+03  0.10970518755E+03 -0.93934777653E+02  0.19981722778E+03  0.10566000000E+00 0.  1.
         13    1    1    2    0    0 -0.29915626506E+03  0.91319434122E+02  0.93445582251E+02  0.32644417284E+03  0.10566000000E+00 0. -1.
          4    1    1    2  501    0  0.16106954330E+03 -0.20102462167E+03  0.16785945169E+04  0.16982443430E+04  0.00000000000E+00 0.  1.
</event>
<event>
 5    1  0.2540860E-005  0.4856862E+03  0.7818608E-02  0.9598091E-01
          4   -1    0    0  502    0 -0.00000000000E+00  0.00000000000E+00  0.24908267661E+04  0.24908267661E+04  0.00000000000E+00 0.  1.
         21   -1    0    0  501  502  0.00000000000E+00 -0.00000000000E+00 -0.22429947545E+03  0.22429947545E+03  0.00000000000E+00 0.  1.
        -13    1    1    2    0    0  0.49466480341E+03  0.46118649691E+03  0.75714867178E+03  0.10152144478E+04  0.10566000000E+00 0.  1.
         13    1    1    2    0    0 -0.13833208983E+03 -0.32565914637E+03  0.10196061086E+04  0.10792526463E+04  0.10566000000E+00 0. -1.
          4    1    1    2  501    0 -0.35633271358E+03 -0.13552735053E+03  0.48977251029E+03  0.62065914747E+03  0.00000000000E+00 0.  1.
</event>
<event>
 5    1  0.3774764E-005  0.2829485E+03  0.7818608E-02  0.1028745E+00
         -4   -1    0    0    0  501 -0.00000000000E+00  0.00000000000E+00  0.95893364049E+03  0.95893364049E+03  0.00000000000E+00 0. -1.
         21   -1    0    0  501  502  0.00000000000E+00 -0.00000000000E+00 -0.53626865394E+03  0.53626865394E+03  0.00000000000E+00 0. -1.
        -13    1    1    2    0    0  0.13036672863E+03  0.12621820104E+03  0.44367002153E+03  0.47934290167E+03  0.10566000000E+00 0.  1.
         13    1    1    2    0    0 -0.21072354395E+03  0.15251338581E+03  0.41641975435E+03  0.49098896913E+03  0.10566000000E+00 0. -1.
         -4    1    1    2    0  502  0.80356815319E+02 -0.27873158685E+03 -0.43742478934E+03  0.52487042364E+03  0.00000000000E+00 0. -1.
</event>
<event>
 5    1  0.2540860E-005  0.5126442E+03  0.7818608E-02  0.9473554E-01
         -4   -1    0    0    0  501 -0.00000000000E+00  0.00000000000E+00  0.13942405460E+04  0.13942405460E+04  0.00000000000E+00 0. -1.
         21   -1    0    0  501  502  0.00000000000E+00 -0.00000000000E+00 -0.54568094008E+03  0.54568094008E+03  0.00000000000E+00 0. -1.
        -13    1    1    2    0    0 -0.46902615103E+03  0.47775043091E+02  0.63514553665E+03  0.79099800820E+03  0.10566000000E+00 0.  1.
         13    1    1    2    0    0  0.25728731569E+03 -0.53703017385E+03  0.98540108761E+02  0.60357960092E+03  0.10566000000E+00 0. -1.
         -4    1    1    2    0  502  0.21173883533E+03  0.48925513076E+03  0.11487396055E+03  0.54534387700E+03  0.00000000000E+00 0. -1.
</event>
<event>
 5    1  0.2540860E-005  0.5016094E+03  0.7818608E-02  0.9577508E-01
         -4   -1    0    0    0  501 -0.00000000000E+00  0.00000000000E+00  0.10896511358E+04  0.10896511358E+04  0.00000000000E+00 0. -1.
         21   -1    0    0  501  502  0.00000000000E+00 -0.00000000000E+00 -0.60781028865E+03  0.60781028865E+03  0.00000000000E+00 0. -1.
        -13    1    1    2    0    0  0.33631235962E+03  0.79797202595E+02  0.53281222484E+03  0.63510823871E+03  0.10566000000E+00 0.  1.
         13    1    1    2    0    0  0.26329391173E+03 -0.29785101457E+03  0.93027742454E+02  0.40828064229E+03  0.10566000000E+00 0. -1.
         -4    1    1    2    0  502 -0.59960627135E+03  0.21805381198E+03 -0.14399912010E+03  0.65407254349E+03  0.00000000000E+00 0. -1.
</event>
<event>
 5    1  0.2540860E-005  0.4796682E+03  0.7818608E-02  0.9885768E-01
         21   -1    0    0  501  502  0.00000000000E+00  0.00000000000E+00  0.15076365447E+03  0.15076365447E+03  0.00000000000E+00 0. -1.
         -4   -1    0    0    0  501 -0.00000000000E+00 -0.00000000000E+00 -0.20987808525E+04  0.20987808525E+04  0.00000000000E+00 0. -1.
        -13    1    1    2    0    0 -0.72071252580E+02 -0.11528118593E+03 -0.32345288712E+03  0.35086435930E+03  0.10566000000E+00 0.  1.
         13    1    1    2    0    0 -0.42496652698E+03 -0.41793459659E+02 -0.98514119802E+03  0.10737068657E+04  0.10566000000E+00 0. -1.
         -4    1    1    2    0  502  0.49703777956E+03  0.15707464559E+03 -0.63942311289E+03  0.82497328193E+03  0.00000000000E+00 0. -1.
</event>
<event>
 5    1  0.2540860E-005  0.8377245E+03  0.7818608E-02  0.8944123E-01
         21   -1    0    0  501  502  0.00000000000E+00  0.00000000000E+00  0.48013257702E+03  0.48013257702E+03  0.00000000000E+00 0.  1.
         -4   -1    0    0    0  501 -0.00000000000E+00 -0.00000000000E+00 -0.24158125446E+04  0.24158125446E+04  0.00000000000E+00 0. -1.
        -13    1    1    2    0    0 -0.80482738480E+03 -0.12928949651E+02 -0.11129527186E+04  0.13735275906E+04  0.10566000000E+00 0.  1.
         13    1    1    2    0    0  0.87900558631E+03 -0.10012737973E+03 -0.97649237325E+03  0.13176546130E+04  0.10566000000E+00 0. -1.
         -4    1    1    2    0  502 -0.74178201508E+02  0.11305632939E+03  0.15376512424E+03  0.20476291809E+03  0.00000000000E+00 0. -1.
</event>
<event>
 5    1  0.2540860E-005  0.6297637E+02  0.7818608E-02  0.1255583E+00
         21   -1    0    0  501  502  0.00000000000E+00  0.00000000000E+00  0.16476899616E+03  0.16476899616E+03  0.00000000000E+00 0. -1.
         -4   -1    0    0    0  501 -0.00000000000E+00 -0.00000000000E+00 -0.10973072156E+03  0.10973072156E+03  0.00000000000E+00 0. -1.
        -13    1    1    2    0    0  0.18296681624E+02 -0.48692010393E+02 -0.52820197594E+02  0.74132751686E+02  0.10566000000E+00 0.  1.
         13    1    1    2    0    0  0.10238072956E+02  0.97231506932E+02  0.26271987017E+02  0.10123740684E+03  0.10566000000E+00 0. -1.
         -4    1    1    2    0  502 -0.28534754580E+02 -0.48539496539E+02  0.81586485177E+02  0.99129559198E+02  0.00000000000E+00 0. -1.
</event>
<event>
 5    1  0.2540860E-005  0.3557413E+02  0.7818608E-02  0.1365032E+00
         21   -1    0    0  501  502  0.00000000000E+00  0.00000000000E+00  0.37735191563E+02  0.37735191563E+02  0.00000000000E+00 0.  1.
          4   -1    0    0  502    0 -0.00000000000E+00 -0.00000000000E+00 -0.27078073496E+03  0.27078073496E+03  0.00000000000E+00 0.  1.
        -13    1    1    2    0    0  0.24316637751E+02  0.20740873340E+02 -0.16076633836E+03  0.16391250536E+03  0.10566000000E+00 0.  1.
         13    1    1    2    0    0 -0.27921760094E+02 -0.54875511515E+02 -0.87552229002E+02  0.10703434224E+03  0.10566000000E+00 0. -1.
          4    1    1    2  501    0  0.36051223434E+01  0.34134638175E+02  0.15273023966E+02  0.37569078928E+02  0.00000000000E+00 0.  1.
</event>
<event>
 5    1  0.2540860E-005  0.2298119E+03  0.7818608E-02  0.1078255E+00
         21   -1    0    0  501  502  0.00000000000E+00  0.00000000000E+00  0.38632196776E+03  0.38632196776E+03  0.00000000000E+00 0. -1.
         -4   -1    0    0    0  501 -0.00000000000E+00 -0.00000000000E+00 -0.25878365804E+03  0.25878365804E+03  0.00000000000E+00 0. -1.
        -13    1    1    2    0    0 -0.78244416383E+02  0.50776015214E+01  0.85367805566E+02  0.11591222595E+03  0.10566000000E+00 0.  1.
         13    1    1    2    0    0  0.14079007589E+03 -0.21797537142E+03 -0.85472956831E+02  0.27320458548E+03  0.10566000000E+00 0. -1.
         -4    1    1    2    0  502 -0.62545659504E+02  0.21289776990E+03  0.12764346098E+03  0.25598881437E+03  0.00000000000E+00 0. -1.
</event>
<event>
 5    1  0.2540860E-005  0.4720653E+03  0.7818608E-02  0.9715135E-01
         21   -1    0    0  501  502  0.00000000000E+00  0.00000000000E+00  0.15639486458E+03  0.15639486458E+03  0.00000000000E+00 0. -1.
         -4   -1    0    0    0  501 -0.00000000000E+00 -0.00000000000E+00 -0.27310273224E+04  0.27310273224E+04  0.00000000000E+00 0. -1.
        -13    1    1    2    0    0  0.25509529324E+03  0.11986891680E+02 -0.83470868683E+03  0.87290085189E+03  0.10566000000E+00 0.  1.
         13    1    1    2    0    0  0.22842655989E+03 -0.27162135228E+03 -0.11728027742E+04  0.12253257569E+04  0.10566000000E+00 0. -1.
         -4    1    1    2    0  502 -0.48352185312E+03  0.25963446060E+03 -0.56712099678E+03  0.78919557815E+03  0.00000000000E+00 0. -1.
</event>
<event>
 5    1  0.2540860E-005  0.4946996E+03  0.7818608E-02  0.9691003E-01
         21   -1    0    0  501  502  0.00000000000E+00  0.00000000000E+00  0.72141071949E+03  0.72141071949E+03  0.00000000000E+00 0. -1.
         -4   -1    0    0    0  501 -0.00000000000E+00 -0.00000000000E+00 -0.60434746422E+03  0.60434746422E+03  0.00000000000E+00 0. -1.
        -13    1    1    2    0    0 -0.65572554460E+02  0.23226665238E+03 -0.11435424323E+03  0.26706639963E+03  0.10566000000E+00 0.  1.
         13    1    1    2    0    0  0.52095822193E+03 -0.66860036347E+02  0.23202092951E+03  0.57419635696E+03  0.10566000000E+00 0. -1.
         -4    1    1    2    0  502 -0.45538566747E+03 -0.16540661603E+03 -0.60343100659E+00  0.48449542711E+03  0.00000000000E+00 0. -1.
</event>
<event>
 5    1  0.2540860E-005  0.3429034E+03  0.7818608E-02  0.9938006E-01
          4   -1    0    0  502    0 -0.00000000000E+00  0.00000000000E+00  0.31986970943E+04  0.31986970943E+04  0.00000000000E+00 0.  1.
         21   -1    0    0  501  502  0.00000000000E+00 -0.00000000000E+00 -0.17715750247E+03  0.17715750247E+03  0.00000000000E+00 0.  1.
        -13    1    1    2    0    0  0.22287915064E+03 -0.26276403384E+03  0.16232165260E+04  0.16593830042E+04  0.10566000000E+00 0.  1.
         13    1    1    2    0    0 -0.36681022753E+03 -0.48469932379E+02  0.13115759612E+04  0.13627657872E+04  0.10566000000E+00 0. -1.
          4    1    1    2  501    0  0.14393107690E+03  0.31123396622E+03  0.86747104614E+02  0.35370580541E+03  0.00000000000E+00 0.  1.
</event>
<event>
 5    1  0.2540860E-005  0.2521524E+03  0.7818608E-02  0.1029283E+00
         21   -1    0    0  501  502  0.00000000000E+00  0.00000000000E+00  0.19139218637E+04  0.19139218637E+04  0.00000000000E+00 0.  1.
         -4   -1    0    0    0  501 -0.00000000000E+00 -0.00000000000E+00 -0.11808873441E+03  0.11808873441E+03  0.00000000000E+00 0. -1.
        -13    1    1    2    0    0  0.80166264976E+02  0.35478002093E+03  0.11900687930E+04  0.12444112007E+04  0.10566000000E+00 0.  1.
         13    1    1    2    0    0 -0.15180508422E+03 -0.18511347801E+03  0.11937814355E+03  0.26751249627E+03  0.10566000000E+00 0. -1.
         -4    1    1    2    0  502  0.71638819243E+02 -0.16966654292E+03  0.48638619278E+03  0.52008690114E+03  0.00000000000E+00 0. -1.
</event>
<event>
 5    1  0.2540860E-005  0.2555484E+03  0.7818608E-02  0.1027557E+00
         -4   -1    0    0    0  501 -0.00000000000E+00  0.00000000000E+00  0.97702875286E+02  0.97702875286E+02  0.00000000000E+00 0. -1.
         21   -1    0    0  501  502  0.00000000000E+00 -0.00000000000E+00 -0.14343713454E+04  0.14343713454E+04  0.00000000000E+00 0. -1.
        -13    1    1    2    0    0  0.16217538604E+03 -0.12702185097E+03 -0.64583151271E+03  0.67788919480E+03  0.10566000000E+00 0.  1.
         13    1    1    2    0    0 -0.15663056742E+03  0.22859792880E+03 -0.17350614776E+03  0.32694730795E+03  0.10566000000E+00 0. -1.
         -4    1    1    2    0  502 -0.55448186273E+01 -0.10157607783E+03 -0.51733080961E+03  0.52723771789E+03  0.00000000000E+00 0. -1.
</event>
<event>
 5    1  0.2540860E-005  0.4972668E+03  0.7818608E-02  0.9483983E-01
         21   -1    0    0  501  502  0.00000000000E+00  0.00000000000E+00  0.11189483046E+04  0.11189483046E+04  0.00000000000E+00 0.  1.
          4   -1    0    0  502    0 -0.00000000000E+00 -0.00000000000E+00 -0.55191463138E+03  0.55191463138E+03  0.00000000000E+00 0.  1.
        -13    1    1    2    0    0 -0.35964648218E+03 -0.62395610959E+03  0.47931637701E+03  0.86510751891E+03  0.10566000000E+00 0.  1.
         13    1    1    2    0    0  0.34844237511E+03  0.26024268977E+03  0.18148089194E+02  0.43527888836E+03  0.10566000000E+00 0. -1.
          4    1    1    2  501    0  0.11204107077E+02  0.36371341982E+03  0.69569207049E+02  0.37047652873E+03  0.00000000000E+00 0.  1.
</event>
<event>
 5    1  0.2540860E-005  0.2128616E+03  0.7818608E-02  0.1053958E+00
         -4   -1    0    0    0  501 -0.00000000000E+00  0.00000000000E+00  0.40695142438E+03  0.40695142438E+03  0.00000000000E+00 0. -1.
         21   -1    0    0  501  502  0.00000000000E+00 -0.00000000000E+00 -0.27599359697E+03  0.27599359697E+03  0.00000000000E+00 0. -1.
        -13    1    1    2    0    0 -0.16732925440E+02 -0.19816472334E+03  0.54613941709E+02  0.20623273786E+03  0.10566000000E+00 0.  1.
         13    1    1    2    0    0 -0.19713135713E+03  0.15052425355E+03  0.11852165849E+02  0.24831191649E+03  0.10566000000E+00 0. -1.
         -4    1    1    2    0  502  0.21386428257E+03  0.47640469796E+02  0.64491719852E+02  0.22840036701E+03  0.00000000000E+00 0. -1.
</event>
<event>
 5    1  0.2540860E-005  0.2361031E+03  0.7818608E-02  0.1037857E+00
         21   -1    0    0  501  502  0.00000000000E+00  0.00000000000E+00  0.23959392478E+03  0.23959392478E+03  0.00000000000E+00 0. -1.
          4   -1    0    0  502    0 -0.00000000000E+00 -0.00000000000E+00 -0.26036605858E+03  0.26036605858E+03  0.00000000000E+00 0.  1.
        -13    1    1    2    0    0  0.91074302806E+02 -0.22392374289E+03 -0.14307999698E+01  0.24174041783E+03  0.10566000000E+00 0.  1.
         13    1    1    2    0    0 -0.91781897113E+02  0.21258319245E+03 -0.39676664410E+02  0.23492505021E+03  0.10566000000E+00 0. -1.
          4    1    1    2  501    0  0.70759430736E+00  0.11340550437E+02  0.20335330585E+02  0.23294515318E+02  0.00000000000E+00 0.  1.
</event>
<event>
 5    1  0.2540860E-005  0.5271720E+03  0.7818608E-02  0.9542283E-01
         21   -1    0    0  501  502  0.00000000000E+00  0.00000000000E+00  0.72733257482E+03  0.72733257482E+03  0.00000000000E+00 0. -1.
         -4   -1    0    0    0  501 -0.00000000000E+00 -0.00000000000E+00 -0.86320626826E+03  0.86320626826E+03  0.00000000000E+00 0. -1.
        -13    1    1    2    0    0 -0.21256055440E+03 -0.26264097427E+03 -0.25845172145E+03  0.42539343453E+03  0.10566000000E+00 0.  1.
         13    1    1    2    0    0 -0.43130251728E+03  0.24271750309E+03  0.15934049082E+03  0.51992600521E+03  0.10566000000E+00 0. -1.
         -4    1    1    2    0  502  0.64386307168E+03  0.19923471185E+02 -0.36762462805E+02  0.64521940334E+03  0.00000000000E+00 0. -1.
</event>
<event>
 5    1  0.2540860E-005  0.4683307E+03  0.7818608E-02  0.9904168E-01
         21   -1    0    0  501  502  0.00000000000E+00  0.00000000000E+00  0.28020746223E+03  0.28020746223E+03  0.00000000000E+00 0. -1.
         -4   -1    0    0    0  501 -0.00000000000E+00 -0.00000000000E+00 -0.11283086416E+04  0.11283086416E+04  0.00000000000E+00 0. -1.
        -13    1    1    2    0    0  0.46991250557E+02 -0.12905248711E+03 -0.11854718807E+03  0.18142813734E+03  0.10566000000E+00 0.  1.
         13    1    1    2    0    0  0.39739886743E+03 -0.17238630907E+03 -0.21592248764E+03  0.48400974290E+03  0.10566000000E+00 0. -1.
         -4    1    1    2    0  502 -0.44439011799E+03  0.30143879618E+03 -0.51363150362E+03  0.74307822355E+03  0.00000000000E+00 0. -1.
</event>
<event>
 5    1  0.2540860E-005  0.3940644E+03  0.7818608E-02  0.9746346E-01
         21   -1    0    0  501  502  0.00000000000E+00  0.00000000000E+00  0.22948356311E+03  0.22948356311E+03  0.00000000000E+00 0. -1.
         -4   -1    0    0    0  501 -0.00000000000E+00 -0.00000000000E+00 -0.33822237035E+04  0.33822237035E+04  0.00000000000E+00 0. -1.
        -13    1    1    2    0    0 -0.62899877844E+02  0.35991583291E+03 -0.20228022402E+04  0.20555351410E+04  0.10566000000E+00 0.  1.
         13    1    1    2    0    0 -0.26124804892E+02 -0.69394652367E+03 -0.57135319206E+03  0.89927124072E+03  0.10566000000E+00 0. -1.
         -4    1    1    2    0  502  0.89024682736E+02  0.33403069076E+03 -0.55858470805E+03  0.65690088490E+03  0.00000000000E+00 0. -1.
</event>
<event>
 5    1  0.2540860E-005  0.4908178E+03  0.7818608E-02  0.9619416E-01
         21   -1    0    0  501  502  0.00000000000E+00  0.00000000000E+00  0.37768047088E+03  0.37768047088E+03  0.00000000000E+00 0.  1.
          4   -1    0    0  502    0 -0.00000000000E+00 -0.00000000000E+00 -0.13368128419E+04  0.13368128419E+04  0.00000000000E+00 0.  1.
        -13    1    1    2    0    0  0.23350990829E+03 -0.62490485914E+03 -0.28213509322E+03  0.72431566477E+03  0.10566000000E+00 0.  1.
         13    1    1    2    0    0 -0.19928845619E+03  0.24759875217E+03 -0.44180994462E+03  0.54425827433E+03  0.10566000000E+00 0. -1.
          4    1    1    2  501    0 -0.34221452106E+02  0.37730610696E+03 -0.23518733319E+03  0.44591937369E+03  0.00000000000E+00 0.  1.
</event>
<event>
 5    1  0.2540860E-005  0.2494888E+03  0.7818608E-02  0.1030658E+00
          4   -1    0    0  502    0 -0.00000000000E+00  0.00000000000E+00  0.22319611506E+04  0.22319611506E+04  0.00000000000E+00 0.  1.
         21   -1    0    0  501  502  0.00000000000E+00 -0.00000000000E+00 -0.88980720355E+02  0.88980720355E+02  0.00000000000E+00 0. -1.
        -13    1    1    2    0    0 -0.16299080495E+03 -0.23791175377E+03  0.13069351386E+04  0.13383749373E+04  0.10566000000E+00 0.  1.
         13    1    1    2    0    0  0.15120655844E+03  0.15675202828E+03  0.86773233289E+03  0.89464743580E+03  0.10566000000E+00 0. -1.
          4    1    1    2  501    0  0.11784246516E+02  0.81159725494E+02 -0.31687041303E+02  0.87919497808E+02  0.00000000000E+00 0.  1.
</event>
<event>
 5    1  0.2540860E-005  0.4029162E+03  0.7818608E-02  0.9990273E-01
          4   -1    0    0  502    0 -0.00000000000E+00  0.00000000000E+00  0.10312775785E+04  0.10312775785E+04  0.00000000000E+00 0.  1.
         21   -1    0    0  501  502  0.00000000000E+00 -0.00000000000E+00 -0.35891738200E+03  0.35891738200E+03  0.00000000000E+00 0.  1.
        -13    1    1    2    0    0 -0.24037145093E+03 -0.28228045639E+03 -0.62857780906E+02  0.37604760639E+03  0.10566000000E+00 0.  1.
         13    1    1    2    0    0 -0.79366160033E+02 -0.14139896388E+03  0.22956972222E+03  0.28106035449E+03  0.10566000000E+00 0. -1.
          4    1    1    2  501    0  0.31973761097E+03  0.42367942027E+03  0.50564825516E+03  0.73308699959E+03  0.00000000000E+00 0.  1.
</event>
<event>
 5    1  0.2540860E-005  0.3510255E+03  0.7818608E-02  0.1009370E+00
         21   -1    0    0  501  502  0.00000000000E+00  0.00000000000E+00  0.54240317469E+03  0.54240317469E+03  0.00000000000E+00 0. -1.
         -4   -1    0    0    0  501 -0.00000000000E+00 -0.00000000000E+00 -0.75383388349E+03  0.75383388349E+03  0.00000000000E+00 0. -1.
        -13    1    1    2    0    0  0.16640665298E+03  0.54844890876E+02 -0.23035291403E+03  0.28941598500E+03  0.10566000000E+00 0.  1.
         13    1    1    2    0    0 -0.32928870139E+03  0.16600671878E+03  0.39557407421E+03  0.54080323491E+03  0.10566000000E+00 0. -1.
         -4    1    1    2    0  502  0.16288204841E+03 -0.22085160965E+03 -0.37665186898E+03  0.46601783827E+03  0.00000000000E+00 0. -1.
</event>
<event>
 5    1  0.2540860E-005  0.8341410E+03  0.7818608E-02  0.8948309E-01
         -4   -1    0    0    0  501 -0.00000000000E+00  0.00000000000E+00  0.19360378363E+04  0.19360378363E+04  0.00000000000E+00 0. -1.
         21   -1    0    0  501  502  0.00000000000E+00 -0.00000000000E+00 -0.56675681909E+03  0.56675681909E+03  0.00000000000E+00 0.  1.
        -13    1    1    2    0    0 -0.48288659386E+03  0.63255356590E+03  0.35199584724E+03  0.87017501912E+03  0.10566000000E+00 0.  1.
         13    1    1    2    0    0  0.20450816307E+03 -0.87095828662E+03  0.83290195438E+03  0.12223410337E+04  0.10566000000E+00 0. -1.
         -4    1    1    2    0  502  0.27837843079E+03  0.23840472072E+03  0.18438321564E+03  0.41027860266E+03  0.00000000000E+00 0. -1.
</event>
<event>
 5    1  0.2540860E-005  0.4663893E+03  0.7818608E-02  0.9554848E-01
          4   -1    0    0  502    0 -0.00000000000E+00  0.00000000000E+00  0.37542509262E+03  0.37542509262E+03  0.00000000000E+00 0.  1.
         21   -1    0    0  501  502  0.00000000000E+00 -0.00000000000E+00 -0.15505290245E+04  0.15505290245E+04  0.00000000000E+00 0. -1.
        -13    1    1    2    0    0 -0.37714271006E+03 -0.23114337669E+03 -0.11282066488E+04  0.12118226511E+04  0.10566000000E+00 0.  1.
         13    1    1    2    0    0  0.39595419993E+03  0.25286408723E+03  0.16677804361E+03  0.49853274922E+03  0.10566000000E+00 0. -1.
          4    1    1    2  501    0 -0.18811489870E+02 -0.21720710540E+02 -0.21367532671E+03  0.21559871675E+03  0.00000000000E+00 0.  1.
</event>
<event>
 5    1  0.2540860E-005  0.4667703E+03  0.7818608E-02  0.9901027E-01
         21   -1    0    0  501  502  0.00000000000E+00  0.00000000000E+00  0.90154965569E+03  0.90154965569E+03  0.00000000000E+00 0. -1.
         -4   -1    0    0    0  501 -0.00000000000E+00 -0.00000000000E+00 -0.39343073938E+03  0.39343073938E+03  0.00000000000E+00 0. -1.
        -13    1    1    2    0    0 -0.12498788676E+03 -0.63488392624E+02 -0.51647508441E+02  0.14939954527E+03  0.10566000000E+00 0.  1.
         13    1    1    2    0    0  0.24504420405E+03  0.44138444474E+03  0.55332096792E+03  0.74902002290E+03  0.10566000000E+00 0. -1.
         -4    1    1    2    0  502 -0.12005631729E+03 -0.37789605211E+03  0.64454568272E+01  0.39656082691E+03  0.00000000000E+00 0. -1.
</event>
<event>
 5    1  0.2540860E-005  0.2555770E+03  0.7818608E-02  0.1027543E+00
         21   -1    0    0  501  502  0.00000000000E+00  0.00000000000E+00  0.28505138241E+03  0.28505138241E+03  0.00000000000E+00 0.  1.
          4   -1    0    0  502    0 -0.00000000000E+00 -0.00000000000E+00 -0.74859239729E+03  0.74859239729E+03  0.00000000000E+00 0.  1.
        -13    1    1    2    0    0 -0.26184694810E+03  0.14611840481E+03 -0.31265889423E+03  0.43320896546E+03  0.10566000000E+00 0.  1.
         13    1    1    2    0    0  0.19183010131E+03 -0.12613196117E+03 -0.33290237001E+03  0.40439097235E+03  0.10566000000E+00 0. -1.
          4    1    1    2  501    0  0.70016846797E+02 -0.19986443636E+02  0.18202024936E+03  0.19604384189E+03  0.00000000000E+00 0.  1.
</event>
<event>
 5    1  0.2540860E-005  0.3784643E+03  0.7818608E-02  0.9823056E-01
          4   -1    0    0  502    0 -0.00000000000E+00  0.00000000000E+00  0.20084272717E+04  0.20084272717E+04  0.00000000000E+00 0.  1.
         21   -1    0    0  501  502  0.00000000000E+00 -0.00000000000E+00 -0.28450131594E+03  0.28450131594E+03  0.00000000000E+00 0. -1.
        -13    1    1    2    0    0 -0.53796782401E+03 -0.28485998369E+01  0.14235791013E+04  0.15218393355E+04  0.10566000000E+00 0.  1.
         13    1    1    2    0    0  0.25516845200E+03 -0.22781108520E+03  0.10889139345E+03  0.35897935340E+03  0.10566000000E+00 0. -1.
          4    1    1    2  501    0  0.28279937201E+03  0.23065968503E+03  0.19145546102E+03  0.41210989877E+03  0.00000000000E+00 0.  1.
</event>
<event>
 5    1  0.2540860E-005  0.2847099E+03  0.7818608E-02  0.1034092E+00
         -4   -1    0    0    0  501 -0.00000000000E+00  0.00000000000E+00  0.16523086256E+03  0.16523086256E+03  0.00000000000E+00 0. -1.
         21   -1    0    0  501  502  0.00000000000E+00 -0.00000000000E+00 -0.10762866113E+04  0.10762866113E+04  0.00000000000E+00 0. -1.
        -13    1    1    2    0    0  0.45608443978E+02 -0.14400350973E+03 -0.13498474885E+03  0.20257846520E+03  0.10566000000E+00 0.  1.
         13    1    1    2    0    0 -0.27241151293E+03 -0.46630400328E+02 -0.88414238845E+02  0.29017152756E+03  0.10566000000E+00 0. -1.
         -4    1    1    2    0  502  0.22680306895E+03  0.19063391006E+03 -0.68765676103E+03  0.74876748109E+03  0.00000000000E+00 0. -1.
</event>
<event>
 5    1  0.2540860E-005  0.2551834E+03  0.7818608E-02  0.1027741E+00
         21   -1    0    0  501  502  0.00000000000E+00  0.00000000000E+00  0.58312977246E+02  0.58312977246E+02  0.00000000000E+00 0. -1.
          4   -1    0    0  502    0 -0.00000000000E+00 -0.00000000000E+00 -0.16768604726E+04  0.16768604726E+04  0.00000000000E+00 0.  1.
        -13    1    1    2    0    0  0.17638379357E+03 -0.18769070621E+03 -0.12197665493E+04  0.12466633426E+04  0.10566000000E+00 0.  1.
         13    1    1    2    0    0 -0.17439047962E+03  0.17773846597E+03 -0.40584493167E+03  0.47614401329E+03  0.10566000000E+00 0. -1.
          4    1    1    2  501    0 -0.19933139509E+01  0.99522402398E+01  0.70639856331E+01  0.12366093940E+02  0.00000000000E+00 0.  1.
</event>
<event>
 5    1  0.6760505E-005  0.3340900E+03  0.7818608E-02  0.1026538E+00
         -4   -1    0    0    0  501 -0.00000000000E+00  0.00000000000E+00  0.16020434681E+04  0.16020434681E+04  0.00000000000E+00 0. -1.
         21   -1    0    0  501  502  0.00000000000E+00 -0.00000000000E+00 -0.23206259340E+03  0.23206259340E+03  0.00000000000E+00 0. -1.
        -13    1    1    2    0    0 -0.66447613889E+02 -0.97569906871E+02  0.47145129676E+03  0.48600566715E+03  0.10566000000E+00 0.  1.
         13    1    1    2    0    0  0.13736430211E+03 -0.23947938941E+03  0.95940125299E+03  0.99833366408E+03  0.10566000000E+00 0. -1.
         -4    1    1    2    0  502 -0.70916688225E+02  0.33704929628E+03 -0.60871675032E+02  0.34976673029E+03  0.00000000000E+00 0. -1.
</event>
<event>
 5    1  0.2540860E-005  0.1560578E+03  0.7818608E-02  0.1095286E+00
         21   -1    0    0  501  502  0.00000000000E+00  0.00000000000E+00  0.41642979587E+03  0.41642979587E+03  0.00000000000E+00 0. -1.
         -4   -1    0    0    0  501 -0.00000000000E+00 -0.00000000000E+00 -0.12393188539E+04  0.12393188539E+04  0.00000000000E+00 0. -1.
        -13    1    1    2    0    0 -0.14455702107E+03 -0.22022296142E+02 -0.59553363028E+03  0.61322265926E+03  0.10566000000E+00 0.  1.
         13    1    1    2    0    0  0.17316715056E+03 -0.11963763040E+03 -0.60372564918E+03  0.63936272590E+03  0.10566000000E+00 0. -1.
         -4    1    1    2    0  502 -0.28610129493E+02  0.14165992654E+03  0.37637022146E+03  0.40316326457E+03  0.00000000000E+00 0. -1.
</event>
<event>
 5    1  0.2540860E-005  0.8478709E+02  0.7818608E-02  0.1192520E+00
         21   -1    0    0  501  502  0.00000000000E+00  0.00000000000E+00  0.66438488275E+03  0.66438488275E+03  0.00000000000E+00 0. -1.
          4   -1    0    0  502    0 -0.00000000000E+00 -0.00000000000E+00 -0.42822014234E+02  0.42822014234E+02  0.00000000000E+00 0.  1.
        -13    1    1    2    0    0  0.63215999792E+02  0.53911904290E+02  0.13302988464E+02  0.84141171373E+02  0.10566000000E+00 0.  1.
         13    1    1    2    0    0 -0.75541209538E+02 -0.59177148926E+02  0.31017688045E+03  0.32468156342E+03  0.10566000000E+00 0. -1.
          4    1    1    2  501    0  0.12325209746E+02  0.52652446362E+01  0.29808299960E+03  0.29838416219E+03  0.00000000000E+00 0.  1.
</event>
<event>
 5    1  0.2540860E-005  0.4913047E+03  0.7818608E-02  0.9497236E-01
         -4   -1    0    0    0  501 -0.00000000000E+00  0.00000000000E+00  0.23845892647E+04  0.23845892647E+04  0.00000000000E+00 0. -1.
         21   -1    0    0  501  502  0.00000000000E+00 -0.00000000000E+00 -0.17664118263E+03  0.17664118263E+03  0.00000000000E+00 0.  1.
        -13    1    1    2    0    0 -0.52087394982E+02  0.49205389773E+03  0.12033751489E+04  0.13011310061E+04  0.10566000000E+00 0.  1.
         13    1    1    2    0    0  0.42029055795E+02 -0.48577807985E+03  0.10793572474E+04  0.11843812153E+04  0.10566000000E+00 0. -1.
         -4    1    1    2    0  502  0.10058339187E+02 -0.62758178892E+01 -0.74784314243E+02  0.75718225905E+02  0.00000000000E+00 0. -1.
</event>
<event>
 5    1  0.6307843E-005  0.4571766E+03  0.7818608E-02  0.1027975E+00
         21   -1    0    0  501  502  0.00000000000E+00  0.00000000000E+00  0.18450115640E+03  0.18450115640E+03  0.00000000000E+00 0.  1.
          4   -1    0    0  502    0 -0.00000000000E+00 -0.00000000000E+00 -0.15116104460E+04  0.15116104460E+04  0.00000000000E+00 0.  1.
        -13    1    1    2    0    0  0.43855639821E+03 -0.13433745800E+03 -0.92650771580E+03  0.10338253361E+04  0.10566000000E+00 0.  1.
         13    1    1    2    0    0  0.94104709515E+01  0.43038542823E+02 -0.11520652385E+03  0.12334272347E+03  0.10566000000E+00 0. -1.
          4    1    1    2  501    0 -0.44796686916E+03  0.91298915176E+02 -0.28539504993E+03  0.53894354278E+03  0.00000000000E+00 0.  1.
</event>
<event>
 5    1  0.2540860E-005  0.1229022E+04  0.7818608E-02  0.8585023E-01
          4   -1    0    0  502    0 -0.00000000000E+00  0.00000000000E+00  0.40684935614E+04  0.40684935614E+04  0.00000000000E+00 0.  1.
         21   -1    0    0  501  502  0.00000000000E+00 -0.00000000000E+00 -0.67812206091E+03  0.67812206091E+03  0.00000000000E+00 0. -1.
        -13    1    1    2    0    0  0.66949940690E+03  0.93135790986E+03  0.91845496148E+03  0.14694272828E+04  0.10566000000E+00 0.  1.
         13    1    1    2    0    0 -0.87241170245E+03 -0.93000273206E+03  0.26914502517E+04  0.29782397030E+04  0.10566000000E+00 0. -1.
          4    1    1    2  501    0  0.20291229554E+03 -0.13551777988E+01 -0.21953371272E+03  0.29894863641E+03  0.00000000000E+00 0.  1.
</event>
<event>
 5    1  0.2540860E-005  0.9583307E+02  0.7818608E-02  0.1171640E+00
         -4   -1    0    0    0  501 -0.00000000000E+00  0.00000000000E+00  0.25830075483E+03  0.25830075483E+03  0.00000000000E+00 0. -1.
         21   -1    0    0  501  502  0.00000000000E+00 -0.00000000000E+00 -0.57715002809E+03  0.57715002809E+03  0.00000000000E+00 0.  1.
        -13    1    1    2    0    0 -0.99913399947E+02 -0.76260650508E+01 -0.18163966421E+03  0.20744595233E+03  0.10566000000E+00 0.  1.
         13    1    1    2    0    0  0.58296393859E+02  0.77861597120E+02  0.23111077686E+03  0.25074509005E+03  0.10566000000E+00 0. -1.
         -4    1    1    2    0  502  0.41617006088E+02 -0.70235532069E+02 -0.36832038590E+03  0.37725974053E+03  0.00000000000E+00 0. -1.
</event>
<event>
 5    1  0.2540860E-005  0.1707902E+02  0.7818608E-02  0.1555088E+00
         21   -1    0    0  501  502  0.00000000000E+00  0.00000000000E+00  0.18811183029E+03  0.18811183029E+03  0.00000000000E+00 0.  1.
          4   -1    0    0  502    0 -0.00000000000E+00 -0.00000000000E+00 -0.17340812965E+02  0.17340812965E+02  0.00000000000E+00 0.  1.
        -13    1    1    2    0    0  0.83038032275E+01 -0.15132630971E+02 -0.97763888656E+01  0.19837807626E+02  0.10566000000E+00 0.  1.
         13    1    1    2    0    0 -0.17753779895E+02  0.75247811566E+01  0.38585568799E+02  0.43135557440E+02  0.10566000000E+00 0. -1.
          4    1    1    2  501    0  0.94499766676E+01  0.76078498140E+01  0.14196183740E+03  0.14247927819E+03  0.00000000000E+00 0.  1.
</event>
<event>
 5    1  0.2540860E-005  0.4374950E+03  0.7818608E-02  0.9626620E-01
         21   -1    0    0  501  502  0.00000000000E+00  0.00000000000E+00  0.17018365733E+03  0.17018365733E+03  0.00000000000E+00 0. -1.
         -4   -1    0    0    0  501 -0.00000000000E+00 -0.00000000000E+00 -0.29781431793E+04  0.29781431793E+04  0.00000000000E+00 0. -1.
        -13    1    1    2    0    0  0.17220604434E+03  0.44041241782E+03 -0.17858761108E+04  0.18474229385E+04  0.10566000000E+00 0.  1.
         13    1    1    2    0    0 -0.33138408553E+03 -0.26254967757E+03 -0.96780232547E+03  0.10561198311E+04  0.10566000000E+00 0. -1.
         -4    1    1    2    0  502  0.15917804120E+03 -0.17786274024E+03 -0.54281085653E+02  0.24478406694E+03  0.00000000000E+00 0. -1.
</event>
<event>
 5    1  0.2540860E-005  0.1683821E+03  0.7818608E-02  0.1084274E+00
          4   -1    0    0  502    0 -0.00000000000E+00  0.00000000000E+00  0.46204670397E+03  0.46204670397E+03  0.00000000000E+00 0.  1.
         21   -1    0    0  501  502  0.00000000000E+00 -0.00000000000E+00 -0.22859766454E+03  0.22859766454E+03  0.00000000000E+00 0. -1.
        -13    1    1    2    0    0  0.46398113969E+02  0.15744853026E+03  0.36155745234E+03  0.39707257166E+03  0.10566000000E+00 0.  1.
         13    1    1    2    0    0 -0.83064785507E+02 -0.19440740208E+03 -0.11095458147E+03  0.23875704574E+03  0.10566000000E+00 0. -1.
          4    1    1    2  501    0  0.36666671538E+02  0.36958871818E+02 -0.17153831432E+02  0.54814751122E+02  0.00000000000E+00 0.  1.
</event>
<event>
 5    1  0.2540860E-005  0.4692447E+03  0.7818608E-02  0.9794614E-01
         -4   -1    0    0    0  501 -0.00000000000E+00  0.00000000000E+00  0.16895459745E+04  0.16895459745E+04  0.00000000000E+00 0. -1.
         21   -1    0    0  501  502  0.00000000000E+00 -0.00000000000E+00 -0.22390993368E+03  0.22390993368E+03  0.00000000000E+00 0. -1.
        -13    1    1    2    0    0 -0.52109592590E+02  0.19074417402E+03  0.52850014063E+03  0.56427932744E+03  0.10566000000E+00 0.  1.
         13    1    1    2    0    0 -0.23698220254E+03  0.31090352246E+03  0.40269859067E+03  0.56123767754E+03  0.10566000000E+00 0. -1.
         -4    1    1    2    0  502  0.28909179513E+03 -0.50164769648E+03  0.53443730956E+03  0.78793890324E+03  0.00000000000E+00 0. -1.
</event>
<event>
 5    1  0.2540860E-005  0.4908112E+03  0.7818608E-02  0.9738867E-01
         -4   -1    0    0    0  501 -0.00000000000E+00  0.00000000000E+00  0.73405648557E+03  0.73405648557E+03  0.00000000000E+00 0. -1.
         21   -1    0    0  501  502  0.00000000000E+00 -0.00000000000E+00 -0.81077337711E+03  0.81077337711E+03  0.00000000000E+00 0. -1.
        -13    1    1    2    0    0  0.11491681257E+03  0.17491453384E+03  0.33598114062E+03  0.39583368474E+03  0.10566000000E+00 0.  1.
         13    1    1    2    0    0  0.25202484387E+03 -0.45287318541E+03 -0.45105496919E+03  0.68706712946E+03  0.10566000000E+00 0. -1.
         -4    1    1    2    0  502 -0.36694165644E+03  0.27795865157E+03  0.38356937031E+02  0.46192904848E+03  0.00000000000E+00 0. -1.
</event>
<event>
 5    1  0.2540860E-005  0.2691945E+03  0.7818608E-02  0.1024497E+00
         -4   -1    0    0    0  501 -0.00000000000E+00  0.00000000000E+00  0.17871803467E+04  0.17871803467E+04  0.00000000000E+00 0. -1.
         21   -1    0    0  501  502  0.00000000000E+00 -0.00000000000E+00 -0.48854884707E+03  0.48854884707E+03  0.00000000000E+00 0. -1.
        -13    1    1    2    0    0 -0.19821359117E+03  0.13617821289E+03  0.12285279601E+04  0.12518442768E+04  0.10566000000E+00 0.  1.
         13    1    1    2    0    0  0.30461318377E+03 -0.36513622948E+03  0.39096434220E+03  0.61560278251E+03  0.10566000000E+00 0. -1.
         -4    1    1    2    0  502 -0.10639959260E+03  0.22895801659E+03 -0.32086080265E+03  0.40828213449E+03  0.00000000000E+00 0. -1.
</event>
<event>
 5    1  0.2540860E-005  0.5029254E+03  0.7818608E-02  0.9471583E-01
          4   -1    0    0  502    0 -0.00000000000E+00  0.00000000000E+00  0.11062704214E+04  0.11062704214E+04  0.00000000000E+00 0.  1.
         21   -1    0    0  501  502  0.00000000000E+00 -0.00000000000E+00 -0.84046390998E+03  0.84046390998E+03  0.00000000000E+00 0. -1.
        -13    1    1    2    0    0 -0.51197013253E+03  0.23077763627E+03  0.22411311630E+03  0.60464736340E+03  0.10566000000E+00 0.  1.
         13    1    1    2    0    0  0.36305081867E+03 -0.31971249302E+03  0.59233254337E+03  0.76477436426E+03  0.10566000000E+00 0. -1.
          4    1    1    2  501    0  0.14891931386E+03  0.88934856745E+02 -0.55063914827E+03  0.57731260370E+03  0.00000000000E+00 0.  1.
</event>
<event>
 5    1  0.2540860E-005  0.4379602E+03  0.7818608E-02  0.9945957E-01
         21   -1    0    0  501  502  0.00000000000E+00  0.00000000000E+00  0.57511851333E+03  0.57511851333E+03  0.00000000000E+00 0.  1.
          4   -1    0    0  502    0 -0.00000000000E+00 -0.00000000000E+00 -0.83061487385E+03  0.83061487385E+03  0.00000000000E+00 0.  1.
        -13    1    1    2    0    0  0.28604870968E+03  0.27799533109E+03 -0.24784982705E+03  0.46961134606E+03  0.10566000000E+00 0.  1.
         13    1    1    2    0    0 -0.74719887726E+02  0.12558697161E+03 -0.34141460607E+03  0.37137459992E+03  0.10566000000E+00 0. -1.
          4    1    1    2  501    0 -0.21132882196E+03 -0.40358230271E+03  0.33376807260E+03  0.56474744119E+03  0.00000000000E+00 0.  1.
</event>
<event>
 5    1  0.2540860E-005  0.5206646E+03  0.7818608E-02  0.9433794E-01
          4   -1    0    0  502    0 -0.00000000000E+00  0.00000000000E+00  0.15054749577E+04  0.15054749577E+04  0.00000000000E+00 0.  1.
         21   -1    0    0  501  502  0.00000000000E+00 -0.00000000000E+00 -0.36605780834E+03  0.36605780834E+03  0.00000000000E+00 0.  1.
        -13    1    1    2    0    0  0.67685409750E+03 -0.10548994797E+03  0.64460096179E+03  0.94062213961E+03  0.10566000000E+00 0.  1.
         13    1    1    2    0    0 -0.43300106803E+03 -0.27783976822E+02  0.48790774596E+03  0.65292867453E+03  0.10566000000E+00 0. -1.
          4    1    1    2  501    0 -0.24385302947E+03  0.13327392479E+03  0.69084416019E+01  0.27798195189E+03  0.00000000000E+00 0.  1.
</event>
<event>
 5    1  0.2540860E-005  0.4121823E+03  0.7818608E-02  0.9832224E-01
         -4   -1    0    0    0  501 -0.00000000000E+00  0.00000000000E+00  0.20253826592E+04  0.20253826592E+04  0.00000000000E+00 0. -1.
         21   -1    0    0  501  502  0.00000000000E+00 -0.00000000000E+00 -0.48563689956E+03  0.48563689956E+03  0.00000000000E+00 0. -1.
        -13    1    1    2    0    0  0.21477661546E+03  0.14056206990E+03  0.14555991647E+04  0.14780580603E+04  0.10566000000E+00 0.  1.
         13    1    1    2    0    0 -0.41827479194E+03 -0.43714989733E+03  0.22663456353E+03  0.64607822348E+03  0.10566000000E+00 0. -1.
         -4    1    1    2    0  502  0.20349817648E+03  0.29658782743E+03 -0.14248796868E+03  0.38688327494E+03  0.00000000000E+00 0. -1.
</event>
<event>
 5    1  0.2540860E-005  0.4132748E+03  0.7818608E-02  0.9696228E-01
         -4   -1    0    0    0  501 -0.00000000000E+00  0.00000000000E+00  0.11207567215E+04  0.11207567215E+04  0.00000000000E+00 0. -1.
         21   -1    0    0  501  502  0.00000000000E+00 -0.00000000000E+00 -0.86706184908E+03  0.86706184908E+03  0.00000000000E+00 0. -1.
        -13    1    1    2    0    0 -0.25291370581E+03 -0.31820977681E+03  0.71632132249E+03  0.82361341227E+03  0.10566000000E+00 0.  1.
         13    1    1    2    0    0 -0.31786338017E+03  0.24554546630E+03 -0.42923372348E+03  0.58785313217E+03  0.10566000000E+00 0. -1.
         -4    1    1    2    0  502  0.57077708598E+03  0.72664310513E+02 -0.33392726558E+02  0.57635202619E+03  0.00000000000E+00 0. -1.
</event>
<event>
 5    1  0.2540860E-005  0.4536923E+03  0.7818608E-02  0.9585689E-01
         -4   -1    0    0    0  501 -0.00000000000E+00  0.00000000000E+00  0.10811207995E+04  0.10811207995E+04  0.00000000000E+00 0. -1.
         21   -1    0    0  501  502  0.00000000000E+00 -0.00000000000E+00 -0.55055537923E+03  0.55055537923E+03  0.00000000000E+00 0. -1.
        -13    1    1    2    0    0 -0.18069059336E+03  0.43760063097E+03  0.35771331040E+03  0.59338202396E+03  0.10566000000E+00 0.  1.
         13    1    1    2    0    0  0.15567900271E+03 -0.41190539280E+03  0.52449165522E+03  0.68483100986E+03  0.10566000000E+00 0. -1.
         -4    1    1    2    0  502  0.25011590650E+02 -0.25695238164E+02 -0.35163954537E+03  0.35346314490E+03  0.00000000000E+00 0. -1.
</event>
<event>
 5    1  0.2540860E-005  0.6840470E+02  0.7818608E-02  0.1230977E+00
          4   -1    0    0  502    0 -0.00000000000E+00  0.00000000000E+00  0.27396392076E+03  0.27396392076E+03  0.00000000000E+00 0.  1.
         21   -1    0    0  501  502  0.00000000000E+00 -0.00000000000E+00 -0.57419544029E+02  0.57419544029E+02  0.00000000000E+00 0. -1.
        -13    1    1    2    0    0 -0.66236738786E+02  0.23415491577E+02  0.21290969753E+03  0.22420111792E+03  0.10566000000E+00 0.  1.
         13    1    1    2    0    0  0.63054275883E+02  0.14742315433E+02 -0.11938723193E+02  0.65846198425E+02  0.10566000000E+00 0. -1.
          4    1    1    2  501    0  0.31824629029E+01 -0.38157807010E+02  0.15573402394E+02  0.41336148443E+02  0.00000000000E+00 0.  1.
</event>
<event>
 5    1  0.2540860E-005  0.4359885E+03  0.7818608E-02  0.9959668E-01
         -4   -1    0    0    0  501 -0.00000000000E+00  0.00000000000E+00  0.79801283176E+03  0.79801283176E+03  0.00000000000E+00 0. -1.
         21   -1    0    0  501  502  0.00000000000E+00 -0.00000000000E+00 -0.41467149997E+03  0.41467149997E+03  0.00000000000E+00 0. -1.
        -13    1    1    2    0    0 -0.13726167753E+03 -0.34595327805E+02  0.19670080156E+02  0.14291440810E+03  0.10566000000E+00 0.  1.
         13    1    1    2    0    0  0.21084706855E+03 -0.39647352148E+03  0.43673182774E+03  0.62640437425E+03  0.10566000000E+00 0. -1.
         -4    1    1    2    0  502 -0.73585391019E+02  0.43106884929E+03 -0.73060576101E+02  0.44336554938E+03  0.00000000000E+00 0. -1.
</event>
<event>
 5    1  0.2540860E-005  0.4929180E+03  0.7818608E-02  0.9681567E-01
         21   -1    0    0  501  502  0.00000000000E+00  0.00000000000E+00  0.79062088006E+03  0.79062088006E+03  0.00000000000E+00 0. -1.
         -4   -1    0    0    0  501 -0.00000000000E+00 -0.00000000000E+00 -0.15460736410E+04  0.15460736410E+04  0.00000000000E+00 0. -1.
        -13    1    1    2    0    0 -0.19948988427E+03  0.15421201756E+03 -0.11904065077E+04  0.12168176630E+04  0.10566000000E+00 0.  1.
         13    1    1    2    0    0  0.56198955665E+03  0.50931105554E+02  0.41937280098E+03  0.70306457503E+03  0.10566000000E+00 0. -1.
         -4    1    1    2    0  502 -0.36249967239E+03 -0.20514312312E+03  0.15580945730E+02  0.41681228306E+03  0.00000000000E+00 0. -1.
</event>
<event>
 5    1  0.2540860E-005  0.3173411E+03  0.7818608E-02  0.1000393E+00
         21   -1    0    0  501  502  0.00000000000E+00  0.00000000000E+00  0.17045921097E+03  0.17045921097E+03  0.00000000000E+00 0.  1.
         -4   -1    0    0    0  501 -0.00000000000E+00 -0.00000000000E+00 -0.24732939890E+04  0.24732939890E+04  0.00000000000E+00 0. -1.
        -13    1    1    2    0    0  0.23404120719E+03  0.24743630150E+03 -0.92737652792E+03  0.98794091203E+03  0.10566000000E+00 0.  1.
         13    1    1    2    0    0  0.20182164558E+02 -0.34739338394E+03 -0.13350699813E+04  0.13796743635E+04  0.10566000000E+00 0. -1.
         -4    1    1    2    0  502 -0.25422337175E+03  0.99957082440E+02 -0.40388268754E+02  0.27613792446E+03  0.00000000000E+00 0. -1.
</event>
<event>
 5    1  0.2540860E-005  0.6048511E+02  0.7818608E-02  0.1257522E+00
          4   -1    0    0  502    0 -0.00000000000E+00  0.00000000000E+00  0.16335187653E+03  0.16335187653E+03  0.00000000000E+00 0.  1.
         21   -1    0    0  501  502  0.00000000000E+00 -0.00000000000E+00 -0.13491593469E+03  0.13491593469E+03  0.00000000000E+00 0.  1.
        -13    1    1    2    0    0  0.50309176827E+02 -0.30252742596E+02  0.10702876390E+03  0.12207132822E+03  0.10566000000E+00 0.  1.
         13    1    1    2    0    0 -0.76468232382E+02 -0.26663453119E+02 -0.73266101981E+01  0.81314332543E+02  0.10566000000E+00 0. -1.
          4    1    1    2  501    0  0.26159055555E+02  0.56916195715E+02 -0.71266211860E+02  0.94882150456E+02  0.00000000000E+00 0.  1.
</event>
<event>
 5    1  0.2540860E-005  0.5003303E+03  0.7818608E-02  0.9477248E-01
          4   -1    0    0  502    0 -0.00000000000E+00  0.00000000000E+00  0.26213361121E+04  0.26213361121E+04  0.00000000000E+00 0.  1.
         21   -1    0    0  501  502  0.00000000000E+00 -0.00000000000E+00 -0.44138567255E+03  0.44138567255E+03  0.00000000000E+00 0.  1.
        -13    1    1    2    0    0 -0.62631219364E+02 -0.43766343657E+03  0.12219599967E+04  0.12994838198E+04  0.10566000000E+00 0.  1.
         13    1    1    2    0    0 -0.29861510319E+03  0.68894534284E+03  0.10718551664E+04  0.13086978926E+04  0.10566000000E+00 0. -1.
          4    1    1    2  501    0  0.36124632256E+03 -0.25128190627E+03 -0.11386472351E+03  0.45454007220E+03  0.00000000000E+00 0.  1.
</event>
<event>
 5    1  0.2540860E-005  0.6583462E+03  0.7818608E-02  0.9185697E-01
          4   -1    0    0  502    0 -0.00000000000E+00  0.00000000000E+00  0.55272711528E+03  0.55272711528E+03  0.00000000000E+00 0.  1.
         21   -1    0    0  501  502  0.00000000000E+00 -0.00000000000E+00 -0.15338760472E+04  0.15338760472E+04  0.00000000000E+00 0.  1.
        -13    1    1    2    0    0 -0.15511826127E+03 -0.79504142396E+03 -0.78700408717E+03  0.11293927506E+04  0.10566000000E+00 0.  1.
         13    1    1    2    0    0  0.32507782523E+03  0.52092207575E+03 -0.10904686939E+03  0.62363982582E+03  0.10566000000E+00 0. -1.
          4    1    1    2  501    0 -0.16995956395E+03  0.27411934821E+03 -0.85097975336E+02  0.33357058600E+03  0.00000000000E+00 0.  1.
</event>
<event>
 5    1  0.2540860E-005  0.3638745E+03  0.7818608E-02  0.9839602E-01
         21   -1    0    0  501  502  0.00000000000E+00  0.00000000000E+00  0.91677402652E+03  0.91677402652E+03  0.00000000000E+00 0. -1.
         -4   -1    0    0    0  501 -0.00000000000E+00 -0.00000000000E+00 -0.50020290856E+03  0.50020290856E+03  0.00000000000E+00 0. -1.
        -13    1    1    2    0    0 -0.28865983944E+03 -0.12222995916E+03  0.73280170313E+02  0.32192337652E+03  0.10566000000E+00 0.  1.
         13    1    1    2    0    0  0.42708628645E+03  0.33738950073E+03  0.54426513507E+03  0.76971353093E+03  0.10566000000E+00 0. -1.
         -4    1    1    2    0  502 -0.13842644701E+03 -0.21515954157E+03 -0.20097418743E+03  0.32534002762E+03  0.00000000000E+00 0. -1.
</event>
<event>
 5    1  0.2540860E-005  0.1818212E+03  0.7818608E-02  0.1073368E+00
         -4   -1    0    0    0  501 -0.00000000000E+00  0.00000000000E+00  0.21851013394E+03  0.21851013394E+03  0.00000000000E+00 0. -1.
         21   -1    0    0  501  502  0.00000000000E+00 -0.00000000000E+00 -0.50476181820E+03  0.50476181820E+03  0.00000000000E+00 0. -1.
        -13    1    1    2    0    0  0.16026697212E+03 -0.46469449564E+02  0.50687538359E+02  0.17439653036E+03  0.10566000000E+00 0.  1.
         13    1    1    2    0    0 -0.23634835297E+03 -0.61206638125E+02 -0.74630635255E+02  0.25529696313E+03  0.10566000000E+00 0. -1.
         -4    1    1    2    0  502  0.76081380854E+02  0.10767608769E+03 -0.26230858737E+03  0.29357845864E+03  0.00000000000E+00 0. -1.
</event>
<event>
 5    1  0.2540860E-005  0.9185664E+02  0.7818608E-02  0.1178781E+00
         -4   -1    0    0    0  501 -0.00000000000E+00  0.00000000000E+00  0.19178015764E+03  0.19178015764E+03  0.00000000000E+00 0. -1.
         21   -1    0    0  501  502  0.00000000000E+00 -0.00000000000E+00 -0.11807921629E+03  0.11807921629E+03  0.00000000000E+00 0.  1.
        -13    1    1    2    0    0 -0.78275986960E+02  0.79434128718E+02  0.52661233399E+02  0.12332934609E+03  0.10566000000E+00 0.  1.
         13    1    1    2    0    0  0.66608576764E+02 -0.49050489044E+02  0.82597688270E+02  0.11689757160E+03  0.10566000000E+00 0. -1.
         -4    1    1    2    0  502  0.11667410196E+02 -0.30383639674E+02 -0.61557980325E+02  0.69632456241E+02  0.00000000000E+00 0. -1.
</event>
<event>
 5    1  0.2540860E-005  0.2331391E+03  0.7818608E-02  0.1039521E+00
         -4   -1    0    0    0  501 -0.00000000000E+00  0.00000000000E+00  0.94076536160E+03  0.94076536160E+03  0.00000000000E+00 0. -1.
         21   -1    0    0  501  502  0.00000000000E+00 -0.00000000000E+00 -0.63145055429E+02  0.63145055429E+02  0.00000000000E+00 0.  1.
        -13    1    1    2    0    0  0.22233982786E+03 -0.55764243326E+02  0.47371641104E+03  0.52626219619E+03  0.10566000000E+00 0.  1.
         13    1    1    2    0    0 -0.23425792993E+03  0.45106697214E+02  0.37126739636E+03  0.44130588330E+03  0.10566000000E+00 0. -1.
         -4    1    1    2    0  502  0.11918102070E+02  0.10657546112E+02  0.32636498759E+02  0.36342337533E+02  0.00000000000E+00 0. -1.
</event>
<event>
 5    1  0.2540860E-005  0.4707510E+03  0.7818608E-02  0.9762701E-01
          4   -1    0    0  502    0 -0.00000000000E+00  0.00000000000E+00  0.68410382777E+03  0.68410382777E+03  0.00000000000E+00 0.  1.
         21   -1    0    0  501  502  0.00000000000E+00 -0.00000000000E+00 -0.56648814565E+03  0.56648814565E+03  0.00000000000E+00 0.  1.
        -13    1    1    2    0    0 -0.50586842938E+03  0.12665860524E+03 -0.19769924122E+03  0.55770087974E+03  0.10566000000E+00 0.  1.
         13    1    1    2    0    0  0.19120192149E+03  0.10572689283E+03  0.62950744610E+02  0.22737448859E+03  0.10566000000E+00 0. -1.
          4    1    1    2  501    0  0.31466650789E+03 -0.23238549807E+03  0.25236417874E+03  0.46551660508E+03  0.00000000000E+00 0.  1.
</event>
<event>
 5    1  0.2540860E-005  0.4393894E+03  0.7818608E-02  0.9621736E-01
         21   -1    0    0  501  502  0.00000000000E+00  0.00000000000E+00  0.27906031821E+03  0.27906031821E+03  0.00000000000E+00 0. -1.
         -4   -1    0    0    0  501 -0.00000000000E+00 -0.00000000000E+00 -0.21258619149E+04  0.21258619149E+04  0.00000000000E+00 0. -1.
        -13    1    1    2    0    0 -0.12037143702E+03 -0.30001238151E+03 -0.53376886532E+02  0.32763671207E+03  0.10566000000E+00 0.  1.
         13    1    1    2    0    0  0.15364759963E+03  0.43728310214E+03 -0.18630305928E+04  0.19198195480E+04  0.10566000000E+00 0. -1.
         -4    1    1    2    0  502 -0.33276162604E+02 -0.13727072062E+03  0.69605882659E+02  0.15746597295E+03  0.00000000000E+00 0. -1.
</event>
<event>
 5    1  0.2540860E-005  0.8608022E+02  0.7818608E-02  0.1233186E+00
         21   -1    0    0  501  502  0.00000000000E+00  0.00000000000E+00  0.21178415822E+03  0.21178415822E+03  0.00000000000E+00 0. -1.
         -4   -1    0    0    0  501 -0.00000000000E+00 -0.00000000000E+00 -0.64137534120E+02  0.64137534120E+02  0.00000000000E+00 0. -1.
        -13    1    1    2    0    0 -0.20951382949E+01  0.32660790695E+02  0.73408837435E+02  0.80374034557E+02  0.10566000000E+00 0.  1.
         13    1    1    2    0    0 -0.39245248116E+02  0.55474121386E+02 -0.75911561694E+01  0.68375466793E+02  0.10566000000E+00 0. -1.
         -4    1    1    2    0  502  0.41340386411E+02 -0.88134912081E+02  0.81828942835E+02  0.12717219099E+03  0.00000000000E+00 0. -1.
</event>
<event>
 5    1  0.2540860E-005  0.7312126E+02  0.7818608E-02  0.1230226E+00
         21   -1    0    0  501  502  0.00000000000E+00  0.00000000000E+00  0.20908106192E+03  0.20908106192E+03  0.00000000000E+00 0. -1.
         -4   -1    0    0    0  501 -0.00000000000E+00 -0.00000000000E+00 -0.32304651401E+03  0.32304651401E+03  0.00000000000E+00 0. -1.
        -13    1    1    2    0    0  0.16094671716E+02  0.54597711505E+02  0.15925265659E+01  0.56942917594E+02  0.10566000000E+00 0.  1.
         13    1    1    2    0    0 -0.76149408081E+02 -0.12064615193E+02 -0.28245222171E+03  0.29278585349E+03  0.10566000000E+00 0. -1.
         -4    1    1    2    0  502  0.60054736365E+02 -0.42533096312E+02  0.16689424305E+03  0.18239880484E+03  0.00000000000E+00 0. -1.
</event>
<event>
 5    1  0.2540860E-005  0.1554360E+03  0.7818608E-02  0.1095871E+00
         21   -1    0    0  501  502  0.00000000000E+00  0.00000000000E+00  0.44502178497E+03  0.44502178497E+03  0.00000000000E+00 0.  1.
         -4   -1    0    0    0  501 -0.00000000000E+00 -0.00000000000E+00 -0.18001971645E+03  0.18001971645E+03  0.00000000000E+00 0. -1.
        -13    1    1    2    0    0 -0.13711781730E+03 -0.41886929854E+02  0.58724469042E+02  0.15493348618E+03  0.10566000000E+00 0.  1.
         13    1    1    2    0    0  0.13953445344E+03  0.83403015444E+02 -0.79752795678E+02  0.18107027990E+03  0.10566000000E+00 0. -1.
         -4    1    1    2    0  502 -0.24166361445E+01 -0.41516085590E+02  0.28603039515E+03  0.28903773533E+03  0.00000000000E+00 0. -1.
</event>
<event>
 5    1  0.2540860E-005  0.5158306E+03  0.7818608E-02  0.9509640E-01
         -4   -1    0    0    0  501 -0.00000000000E+00  0.00000000000E+00  0.18142197034E+04  0.18142197034E+04  0.00000000000E+00 0. -1.
         21   -1    0    0  501  502  0.00000000000E+00 -0.00000000000E+00 -0.80842778863E+03  0.80842778863E+03  0.00000000000E+00 0. -1.
        -13    1    1    2    0    0  0.14836189867E+03 -0.56232188001E+03  0.12972064439E+04  0.14216053317E+04  0.10566000000E+00 0.  1.
         13    1    1    2    0    0 -0.22162943114E+03 -0.25879901457E+03 -0.89733795621E+02  0.35234741368E+03  0.10566000000E+00 0. -1.
         -4    1    1    2    0  502  0.73267532469E+02  0.82112089458E+03 -0.20168073349E+03  0.84869474671E+03  0.00000000000E+00 0. -1.
</event>
<event>
 5    1  0.2540860E-005  0.4633320E+03  0.7818608E-02  0.9943464E-01
         -4   -1    0    0    0  501 -0.00000000000E+00  0.00000000000E+00  0.14231537764E+03  0.14231537764E+03  0.00000000000E+00 0. -1.
         21   -1    0    0  501  502  0.00000000000E+00 -0.00000000000E+00 -0.23805044029E+04  0.23805044029E+04  0.00000000000E+00 0. -1.
        -13    1    1    2    0    0 -0.79793192624E+01  0.12418580259E+03 -0.95161546709E+02  0.15665731466E+03  0.10566000000E+00 0.  1.
         13    1    1    2    0    0  0.36861200060E+03 -0.32344246274E+03 -0.16618061222E+04  0.17326538698E+04  0.10566000000E+00 0. -1.
         -4    1    1    2    0  502 -0.36063268134E+03  0.19925666015E+03 -0.48122135632E+03  0.63350859603E+03  0.00000000000E+00 0. -1.
</event>
<event>
 5    1  0.2540860E-005  0.1358218E+03  0.7818608E-02  0.1116003E+00
         21   -1    0    0  501  502  0.00000000000E+00  0.00000000000E+00  0.62492279130E+03  0.62492279130E+03  0.00000000000E+00 0. -1.
          4   -1    0    0  502    0 -0.00000000000E+00 -0.00000000000E+00 -0.14987344209E+03  0.14987344209E+03  0.00000000000E+00 0.  1.
        -13    1    1    2    0    0  0.12338041967E+03 -0.83397303784E+02 -0.87656599907E+02  0.17280488682E+03  0.10566000000E+00 0.  1.
         13    1    1    2    0    0 -0.92297351633E+02  0.30830172979E+02  0.11725938711E+03  0.15237806835E+03  0.10566000000E+00 0. -1.
          4    1    1    2  501    0 -0.31083068037E+02  0.52567130806E+02  0.44544656200E+03  0.44961327822E+03  0.00000000000E+00 0.  1.
</event>
<event>
 5    1  0.2540860E-005  0.4670633E+03  0.7818608E-02  0.9704058E-01
         21   -1    0    0  501  502  0.00000000000E+00  0.00000000000E+00  0.23883887134E+03  0.23883887134E+03  0.00000000000E+00 0.  1.
          4   -1    0    0  502    0 -0.00000000000E+00 -0.00000000000E+00 -0.18343590587E+04  0.18343590587E+04  0.00000000000E+00 0.  1.
        -13    1    1    2    0    0  0.29336364393E+03  0.24261357555E+02 -0.10275776505E+04  0.10689091075E+04  0.10566000000E+00 0.  1.
         13    1    1    2    0    0  0.25329189009E+03 -0.10454614733E+03 -0.21927785436E+03  0.35095507845E+03  0.10566000000E+00 0. -1.
          4    1    1    2  501    0 -0.54665553402E+03  0.80284789778E+02 -0.34866468243E+03  0.65333374406E+03  0.00000000000E+00 0.  1.
</event>
<event>
 5    1  0.2540860E-005  0.2030604E+02  0.7818608E-02  0.1505643E+00
          4   -1    0    0  502    0 -0.00000000000E+00  0.00000000000E+00  0.13621845679E+02  0.13621845679E+02  0.00000000000E+00 0.  1.
         21   -1    0    0  501  502  0.00000000000E+00 -0.00000000000E+00 -0.22890755617E+03  0.22890755617E+03  0.00000000000E+00 0. -1.
        -13    1    1    2    0    0  0.18932570685E+02 -0.17423839174E+01 -0.54168885750E+00  0.19020586882E+02  0.10566000000E+00 0.  1.
         13    1    1    2    0    0 -0.27269697500E+02  0.17971719336E+02 -0.65881526356E+02  0.73532345105E+02  0.10566000000E+00 0. -1.
          4    1    1    2  501    0  0.83371268149E+01 -0.16229335419E+02 -0.14886249527E+03  0.14997646986E+03  0.00000000000E+00 0.  1.
</event>
<event>
 5    1  0.2540860E-005  0.3456143E+03  0.7818608E-02  0.9900789E-01
         21   -1    0    0  501  502  0.00000000000E+00  0.00000000000E+00  0.49598393232E+02  0.49598393232E+02  0.00000000000E+00 0. -1.
          4   -1    0    0  502    0 -0.00000000000E+00 -0.00000000000E+00 -0.33688693909E+04  0.33688693909E+04  0.00000000000E+00 0.  1.
        -13    1    1    2    0    0  0.36775361135E+03  0.13566822627E+03 -0.20259058371E+04  0.20634783881E+04  0.10566000000E+00 0.  1.
         13    1    1    2    0    0 -0.28679555220E+03 -0.73998897003E+02 -0.10554380013E+04  0.10962102496E+04  0.10566000000E+00 0. -1.
          4    1    1    2  501    0 -0.80958059146E+02 -0.61669329264E+02 -0.23792715925E+03  0.25877914642E+03  0.00000000000E+00 0.  1.
</event>
<event>
 5    1  0.2540860E-005  0.9936556E+02  0.7818608E-02  0.1165609E+00
         21   -1    0    0  501  502  0.00000000000E+00  0.00000000000E+00  0.26418495434E+03  0.26418495434E+03  0.00000000000E+00 0.  1.
         -4   -1    0    0    0  501 -0.00000000000E+00 -0.00000000000E+00 -0.20139529402E+03  0.20139529402E+03  0.00000000000E+00 0. -1.
        -13    1    1    2    0    0 -0.11932047783E+03  0.26979475890E+01  0.19224419364E+03  0.22627968645E+03  0.10566000000E+00 0.  1.
         13    1    1    2    0    0  0.94870426474E+02  0.25945909722E+02 -0.16200454131E+03  0.18952327197E+03  0.10566000000E+00 0. -1.
         -4    1    1    2    0  502  0.24450051354E+02 -0.28643857311E+02  0.32550007988E+02  0.49777289931E+02  0.00000000000E+00 0. -1.
</event>
<event>
 5    1  0.2540860E-005  0.3010471E+03  0.7818608E-02  0.1006874E+00
         -4   -1    0    0    0  501 -0.00000000000E+00  0.00000000000E+00  0.24897118577E+04  0.24897118577E+04  0.00000000000E+00 0. -1.
         21   -1    0    0  501  502  0.00000000000E+00 -0.00000000000E+00 -0.11400821631E+03  0.11400821631E+03  0.00000000000E+00 0.  1.
        -13    1    1    2    0    0 -0.89593021986E+02 -0.26478921845E+03  0.11805806005E+04  0.12132233122E+04  0.10566000000E+00 0.  1.
         13    1    1    2    0    0  0.65909821861E+02  0.32391392614E+03  0.12581762485E+04  0.13008734834E+04  0.10566000000E+00 0. -1.
         -4    1    1    2    0  502  0.23683200125E+02 -0.59124707693E+02 -0.63053207711E+02  0.89623278397E+02  0.00000000000E+00 0. -1.
</event>
<event>
 5    1  0.2540860E-005  0.2940414E+03  0.7818608E-02  0.1013335E+00
         21   -1    0    0  501  502  0.00000000000E+00  0.00000000000E+00  0.16160809579E+03  0.16160809579E+03  0.00000000000E+00 0.  1.
          4   -1    0    0  502    0 -0.00000000000E+00 -0.00000000000E+00 -0.29536572451E+04  0.29536572451E+04  0.00000000000E+00 0.  1.
        -13    1    1    2    0    0 -0.19796624640E+03  0.21488322422E+03 -0.52360569452E+02  0.29682835976E+03  0.10566000000E+00 0.  1.
         13    1    1    2    0    0 -0.19828786694E+03 -0.17204359059E+03 -0.11419990638E+04  0.11717845144E+04  0.10566000000E+00 0. -1.
          4    1    1    2  501    0  0.39625411333E+03 -0.42839633624E+02 -0.15976895160E+04  0.16466524667E+04  0.00000000000E+00 0.  1.
</event>
<event>
 5    1  0.2540860E-005  0.3740200E+02  0.7818608E-02  0.1353731E+00
          4   -1    0    0  502    0 -0.00000000000E+00  0.00000000000E+00  0.13507297919E+03  0.13507297919E+03  0.00000000000E+00 0.  1.
         21   -1    0    0  501  502  0.00000000000E+00 -0.00000000000E+00 -0.19513543218E+03  0.19513543218E+03  0.00000000000E+00 0. -1.
        -13    1    1    2    0    0  0.30019855040E+02  0.22527385550E+02  0.12674028563E+03  0.13218088349E+03  0.10566000000E+00 0.  1.
         13    1    1    2    0    0 -0.29165974325E+02 -0.88965538766E+01 -0.18037271220E+03  0.18293203437E+03  0.10566000000E+00 0. -1.
          4    1    1    2  501    0 -0.85388071486E+00 -0.13630831673E+02 -0.64300264272E+01  0.15095493507E+02  0.00000000000E+00 0.  1.
</event>
<event>
 5    1  0.2540860E-005  0.1588753E+03  0.7818608E-02  0.1092674E+00
         21   -1    0    0  501  502  0.00000000000E+00  0.00000000000E+00  0.73149475818E+02  0.73149475818E+02  0.00000000000E+00 0. -1.
          4   -1    0    0  502    0 -0.00000000000E+00 -0.00000000000E+00 -0.68023351875E+03  0.68023351875E+03  0.00000000000E+00 0.  1.
        -13    1    1    2    0    0  0.10941337249E+03 -0.11051032020E+03 -0.50652834557E+03  0.52986299454E+03  0.10566000000E+00 0.  1.
         13    1    1    2    0    0 -0.11675336342E+03  0.12737324214E+03 -0.10790753348E+03  0.20371386215E+03  0.10566000000E+00 0. -1.
          4    1    1    2  501    0  0.73399909302E+01 -0.16862921945E+02  0.73518361231E+01  0.19806137881E+02  0.00000000000E+00 0.  1.
</event>
<event>
 5    1  0.2540860E-005  0.9067359E+02  0.7818608E-02  0.1180982E+00
         -4   -1    0    0    0  501 -0.00000000000E+00  0.00000000000E+00  0.98937820834E+02  0.98937820834E+02  0.00000000000E+00 0. -1.
         21   -1    0    0  501  502  0.00000000000E+00 -0.00000000000E+00 -0.11941300303E+03  0.11941300303E+03  0.00000000000E+00 0.  1.
        -13    1    1    2    0    0 -0.78187588020E+02 -0.44882634619E+02 -0.50018314559E+02  0.10309991642E+03  0.10566000000E+00 0.  1.
         13    1    1    2    0    0  0.72713153072E+02  0.54834827542E+02  0.40315763838E+02  0.99596349929E+02  0.10566000000E+00 0. -1.
         -4    1    1    2    0  502  0.54744349480E+01 -0.99521929238E+01 -0.10772631473E+02  0.15654557510E+02  0.00000000000E+00 0. -1.
</event>
<event>
 5    1  0.2540860E-005  0.3390302E+03  0.7818608E-02  0.9923844E-01
          4   -1    0    0  502    0 -0.00000000000E+00  0.00000000000E+00  0.87328569340E+03  0.87328569340E+03  0.00000000000E+00 0.  1.
         21   -1    0    0  501  502  0.00000000000E+00 -0.00000000000E+00 -0.41243831497E+03  0.41243831497E+03  0.00000000000E+00 0. -1.
        -13    1    1    2    0    0 -0.32558852245E+03 -0.10025701446E+03  0.67547251267E+03  0.75651998086E+03  0.10566000000E+00 0.  1.
         13    1    1    2    0    0  0.31411633561E+03  0.10761875710E+03 -0.18446588392E+02  0.33255248753E+03  0.10566000000E+00 0. -1.
          4    1    1    2  501    0  0.11472186840E+02 -0.73617426325E+01 -0.19617854585E+03  0.19665153998E+03  0.00000000000E+00 0.  1.
</event>
<event>
 5    1  0.2540860E-005  0.9800326E+03  0.7818608E-02  0.8793582E-01
          4   -1    0    0  502    0 -0.00000000000E+00  0.00000000000E+00  0.11902814055E+04  0.11902814055E+04  0.00000000000E+00 0.  1.
         21   -1    0    0  501  502  0.00000000000E+00 -0.00000000000E+00 -0.36174486472E+04  0.36174486472E+04  0.00000000000E+00 0.  1.
        -13    1    1    2    0    0  0.78363352520E+03  0.88517506688E+02 -0.11907217497E+04  0.14281929657E+04  0.10566000000E+00 0.  1.
         13    1    1    2    0    0 -0.82136926584E+03 -0.63466133363E+03  0.77469417104E+03  0.12952194984E+04  0.10566000000E+00 0. -1.
          4    1    1    2  501    0  0.37735740635E+02  0.54614382694E+03 -0.20111396631E+04  0.20843175886E+04  0.00000000000E+00 0.  1.
</event>
<event>
 5    1  0.2540860E-005  0.4048545E+03  0.7818608E-02  0.1008208E+00
         -4   -1    0    0    0  501 -0.00000000000E+00  0.00000000000E+00  0.13430243338E+04  0.13430243338E+04  0.00000000000E+00 0. -1.
         21   -1    0    0  501  502  0.00000000000E+00 -0.00000000000E+00 -0.29293741278E+03  0.29293741278E+03  0.00000000000E+00 0. -1.
        -13    1    1    2    0    0 -0.53227222731E+02  0.10594059919E+03  0.39428240185E+03  0.41172220170E+03  0.10566000000E+00 0.  1.
         13    1    1    2    0    0  0.11276785824E+03  0.37126880337E+03 -0.27137699870E+02  0.38896475435E+03  0.10566000000E+00 0. -1.
         -4    1    1    2    0  502 -0.59540635510E+02 -0.47720940256E+03  0.68294221902E+03  0.83527479052E+03  0.00000000000E+00 0. -1.
</event>
<event>
 5    1  0.2540860E-005  0.1001211E+03  0.7818608E-02  0.1170148E+00
         21   -1    0    0  501  502  0.00000000000E+00  0.00000000000E+00  0.22997495427E+02  0.22997495427E+02  0.00000000000E+00 0.  1.
         -4   -1    0    0    0  501 -0.00000000000E+00 -0.00000000000E+00 -0.12581171096E+04  0.12581171096E+04  0.00000000000E+00 0. -1.
        -13    1    1    2    0    0 -0.42551545892E+02  0.10137776591E+03 -0.27732817808E+03  0.29832702693E+03  0.10566000000E+00 0.  1.
         13    1    1    2    0    0 -0.63032180042E+02 -0.81989541118E+02 -0.61327902370E+03  0.62193770802E+03  0.10566000000E+00 0. -1.
         -4    1    1    2    0  502  0.10558372593E+03 -0.19388224788E+02 -0.34451241237E+03  0.36084987006E+03  0.00000000000E+00 0. -1.
</event>
<event>
 5    1  0.2540860E-005  0.4745899E+03  0.7818608E-02  0.9756165E-01
         -4   -1    0    0    0  501 -0.00000000000E+00  0.00000000000E+00  0.64565764873E+03  0.64565764873E+03  0.00000000000E+00 0. -1.
         21   -1    0    0  501  502  0.00000000000E+00 -0.00000000000E+00 -0.91292877308E+03  0.91292877308E+03  0.00000000000E+00 0. -1.
        -13    1    1    2    0    0  0.18029259609E+03  0.12268916205E+03  0.31566171530E+03  0.38366701756E+03  0.10566000000E+00 0.  1.
         13    1    1    2    0    0 -0.38368905299E+03 -0.47300931673E+03 -0.28725639309E+03  0.67340281380E+03  0.10566000000E+00 0. -1.
         -4    1    1    2    0  502  0.20339645690E+03  0.35032015468E+03 -0.29567644656E+03  0.50151659046E+03  0.00000000000E+00 0. -1.
</event>
<event>
 5    1  0.2540860E-005  0.5578173E+03  0.7818608E-02  0.9359520E-01
         -4   -1    0    0    0  501 -0.00000000000E+00  0.00000000000E+00  0.24824125058E+04  0.24824125058E+04  0.00000000000E+00 0. -1.
         21   -1    0    0  501  502  0.00000000000E+00 -0.00000000000E+00 -0.27654814810E+03  0.27654814810E+03  0.00000000000E+00 0.  1.
        -13    1    1    2    0    0 -0.50272607708E+03 -0.23824636311E+03  0.16748527711E+04  0.17648304888E+04  0.10566000000E+00 0.  1.
         13    1    1    2    0    0  0.52211191205E+03  0.20809237077E+03  0.65614594647E+03  0.86396226637E+03  0.10566000000E+00 0. -1.
         -4    1    1    2    0  502 -0.19385834967E+02  0.30153992333E+02 -0.12513435986E+03  0.13016789876E+03  0.00000000000E+00 0. -1.
</event>
<event>
 5    1  0.2540860E-005  0.2608245E+03  0.7818608E-02  0.1024931E+00
         21   -1    0    0  501  502  0.00000000000E+00  0.00000000000E+00  0.34666731427E+03  0.34666731427E+03  0.00000000000E+00 0.  1.
          4   -1    0    0  502    0 -0.00000000000E+00 -0.00000000000E+00 -0.28474403123E+04  0.28474403123E+04  0.00000000000E+00 0.  1.
        -13    1    1    2    0    0 -0.60155861150E+02  0.18456934999E+03 -0.87083604687E+03  0.89221073984E+03  0.10566000000E+00 0.  1.
         13    1    1    2    0    0 -0.22239478951E+02 -0.41375243298E+03 -0.18962628106E+04  0.19410044637E+04  0.10566000000E+00 0. -1.
          4    1    1    2  501    0  0.82395340101E+02  0.22918308299E+03  0.26632585941E+03  0.36089242302E+03  0.00000000000E+00 0.  1.
</event>
<event>
 5    1  0.2540860E-005  0.2402528E+03  0.7818608E-02  0.1035571E+00
         -4   -1    0    0    0  501 -0.00000000000E+00  0.00000000000E+00  0.72588134036E+03  0.72588134036E+03  0.00000000000E+00 0. -1.
         21   -1    0    0  501  502  0.00000000000E+00 -0.00000000000E+00 -0.32724429130E+03  0.32724429130E+03  0.00000000000E+00 0. -1.
        -13    1    1    2    0    0 -0.26227570830E+03 -0.65369236132E+02  0.38012766861E+03  0.46643192408E+03  0.10566000000E+00 0.  1.
         13    1    1    2    0    0  0.21190982356E+03  0.30659654058E+02  0.26043620813E+03  0.33715399654E+03  0.10566000000E+00 0. -1.
         -4    1    1    2    0  502  0.50365884735E+02  0.34709582075E+02 -0.24192682769E+03  0.24953971104E+03  0.00000000000E+00 0. -1.
</event>
<event>
 5    1  0.2540860E-005  0.8534862E+02  0.7818608E-02  0.1191375E+00
         21   -1    0    0  501  502  0.00000000000E+00  0.00000000000E+00  0.47727443735E+02  0.47727443735E+02  0.00000000000E+00 0. -1.
          4   -1    0    0  502    0 -0.00000000000E+00 -0.00000000000E+00 -0.58584832457E+03  0.58584832457E+03  0.00000000000E+00 0.  1.
        -13    1    1    2    0    0 -0.78070520441E+02  0.30017351067E+02 -0.47401514989E+03  0.48133815662E+03  0.10566000000E+00 0.  1.
         13    1    1    2    0    0  0.88477603307E+02 -0.35316651896E+02 -0.85406969610E+02  0.12794496399E+03  0.10566000000E+00 0. -1.
          4    1    1    2  501    0 -0.10407082866E+02  0.52993008281E+01  0.21301238670E+02  0.24292647693E+02  0.00000000000E+00 0.  1.
</event>
<event>
 5    1  0.2540860E-005  0.8313624E+02  0.7818608E-02  0.1195942E+00
         -4   -1    0    0    0  501 -0.00000000000E+00  0.00000000000E+00  0.58909060588E+03  0.58909060588E+03  0.00000000000E+00 0. -1.
         21   -1    0    0  501  502  0.00000000000E+00 -0.00000000000E+00 -0.62074410312E+02  0.62074410312E+02  0.00000000000E+00 0. -1.
        -13    1    1    2    0    0 -0.40304270074E+02 -0.53513374905E+02  0.66352740331E+02  0.94291106651E+02  0.10566000000E+00 0.  1.
         13    1    1    2    0    0  0.39735292459E+02  0.78265033692E+02  0.50149730086E+03  0.50912067617E+03  0.10566000000E+00 0. -1.
         -4    1    1    2    0  502  0.56897761554E+00 -0.24751658786E+02 -0.40833845631E+02  0.47753233369E+02  0.00000000000E+00 0. -1.
</event>
<event>
 5    1  0.2540860E-005  0.1819254E+03  0.7818608E-02  0.1073287E+00
         -4   -1    0    0    0  501 -0.00000000000E+00  0.00000000000E+00  0.80779127476E+02  0.80779127476E+02  0.00000000000E+00 0. -1.
         21   -1    0    0  501  502  0.00000000000E+00 -0.00000000000E+00 -0.64244532816E+03  0.64244532816E+03  0.00000000000E+00 0.  1.
        -13    1    1    2    0    0 -0.12780559413E+03  0.11266668388E+03 -0.43507484716E+03  0.46724531602E+03  0.10566000000E+00 0.  1.
         13    1    1    2    0    0  0.11981331120E+03 -0.14242819556E+03 -0.86036465616E+02  0.20504464151E+03  0.10566000000E+00 0. -1.
         -4    1    1    2    0  502  0.79922829309E+01  0.29761511679E+02 -0.40554887907E+02  0.50934498103E+02  0.00000000000E+00 0. -1.
</event>
<event>
 5    1  0.2540860E-005  0.1384921E+02  0.7818608E-02  0.1619503E+00
          4   -1    0    0  502    0 -0.00000000000E+00  0.00000000000E+00  0.85651840338E+02  0.85651840338E+02  0.00000000000E+00 0.  1.
         21   -1    0    0  501  502  0.00000000000E+00 -0.00000000000E+00 -0.10307921725E+02  0.10307921725E+02  0.00000000000E+00 0. -1.
        -13    1    1    2    0    0  0.83670304589E+01 -0.12120541556E+02  0.67066726069E+02  0.68664922893E+02  0.10566000000E+00 0.  1.
         13    1    1    2    0    0  0.34623704504E+01  0.13071697548E+02  0.73495834290E+01  0.15391063203E+02  0.10566000000E+00 0. -1.
          4    1    1    2  501    0 -0.11829400909E+02 -0.95115599173E+00  0.92760911512E+00  0.11903775967E+02  0.00000000000E+00 0.  1.
</event>
<event>
 5    1  0.2540860E-005  0.5201665E+03  0.7818608E-02  0.9845703E-01
         21   -1    0    0  501  502  0.00000000000E+00  0.00000000000E+00  0.18166502080E+03  0.18166502080E+03  0.00000000000E+00 0. -1.
         -4   -1    0    0    0  501 -0.00000000000E+00 -0.00000000000E+00 -0.19835611499E+04  0.19835611499E+04  0.00000000000E+00 0. -1.
        -13    1    1    2    0    0 -0.27698335033E+02  0.11882914901E+03 -0.36603265371E+03  0.38583348631E+03  0.10566000000E+00 0.  1.
         13    1    1    2    0    0 -0.73529812450E+02  0.45843405391E+03 -0.66472785499E+03  0.81082152628E+03  0.10566000000E+00 0. -1.
         -4    1    1    2    0  502  0.10122814748E+03 -0.57726320292E+03 -0.77113562041E+03  0.96857115813E+03  0.00000000000E+00 0. -1.
</event>
<event>
 5    1  0.2540860E-005  0.5019867E+03  0.7818608E-02  0.9668972E-01
         21   -1    0    0  501  502  0.00000000000E+00  0.00000000000E+00  0.59948159673E+03  0.59948159673E+03  0.00000000000E+00 0. -1.
         -4   -1    0    0    0  501 -0.00000000000E+00 -0.00000000000E+00 -0.79002823140E+03  0.79002823140E+03  0.00000000000E+00 0. -1.
        -13    1    1    2    0    0  0.16561939433E+03 -0.18658484469E+03  0.15045682037E+03  0.29134336102E+03  0.10566000000E+00 0.  1.
         13    1    1    2    0    0  0.25156452045E+02 -0.38144943008E+03 -0.32008124430E+03  0.49858653101E+03  0.10566000000E+00 0. -1.
         -4    1    1    2    0  502 -0.19077584638E+03  0.56803427477E+03 -0.20922210743E+02  0.59957993611E+03  0.00000000000E+00 0. -1.
</event>
<event>
 5    1  0.2540860E-005  0.8731313E+02  0.7818608E-02  0.1187446E+00
          4   -1    0    0  502    0 -0.00000000000E+00  0.00000000000E+00  0.80392141668E+02  0.80392141668E+02  0.00000000000E+00 0.  1.
         21   -1    0    0  501  502  0.00000000000E+00 -0.00000000000E+00 -0.90276762572E+03  0.90276762572E+03  0.00000000000E+00 0. -1.
        -13    1    1    2    0    0 -0.71723503947E+02  0.47465946134E+02  0.47135876446E+02  0.98076903872E+02  0.10566000000E+00 0.  1.
         13    1    1    2    0    0  0.10775175354E+03 -0.62238978335E+02 -0.71454903825E+03  0.72530301946E+03  0.10566000000E+00 0. -1.
          4    1    1    2  501    0 -0.36028249593E+02  0.14773032201E+02 -0.15496232225E+03  0.15977984405E+03  0.00000000000E+00 0.  1.
</event>
<event>
 5    1  0.2540860E-005  0.4902874E+03  0.7818608E-02  0.9719698E-01
         21   -1    0    0  501  502  0.00000000000E+00  0.00000000000E+00  0.56996537120E+03  0.56996537120E+03  0.00000000000E+00 0.  1.
          4   -1    0    0  502    0 -0.00000000000E+00 -0.00000000000E+00 -0.76487718543E+03  0.76487718543E+03  0.00000000000E+00 0.  1.
        -13    1    1    2    0    0  0.30607542413E+03 -0.37760560155E+03  0.87555720960E+02  0.49389692347E+03  0.10566000000E+00 0.  1.
         13    1    1    2    0    0  0.16748393487E+03  0.14929700188E+03 -0.21528776495E+03  0.31094902494E+03  0.10566000000E+00 0. -1.
          4    1    1    2  501    0 -0.47355935900E+03  0.22830859968E+03 -0.67179770244E+02  0.52999660821E+03  0.00000000000E+00 0.  1.
</event>
<event>
 5    1  0.2540860E-005  0.1064134E+03  0.7818608E-02  0.1154360E+00
          4   -1    0    0  502    0 -0.00000000000E+00  0.00000000000E+00  0.14317182064E+03  0.14317182064E+03  0.00000000000E+00 0.  1.
         21   -1    0    0  501  502  0.00000000000E+00 -0.00000000000E+00 -0.18063840306E+03  0.18063840306E+03  0.00000000000E+00 0.  1.
        -13    1    1    2    0    0  0.58056050948E+02  0.10034897246E+03  0.83281862136E+02  0.14274558154E+03  0.10566000000E+00 0.  1.
         13    1    1    2    0    0 -0.61066883564E+02 -0.59593032250E+02 -0.48733802828E+02  0.98262345092E+02  0.10566000000E+00 0. -1.
          4    1    1    2  501    0  0.30108326158E+01 -0.40755940208E+02 -0.72014641728E+02  0.82802297060E+02  0.00000000000E+00 0.  1.
</event>
<event>
 5    1  0.2540860E-005  0.4770645E+03  0.7818608E-02  0.9543017E-01
         -4   -1    0    0    0  501 -0.00000000000E+00  0.00000000000E+00  0.38045813183E+04  0.38045813183E+04  0.00000000000E+00 0. -1.
         21   -1    0    0  501  502  0.00000000000E+00 -0.00000000000E+00 -0.18408741301E+03  0.18408741301E+03  0.00000000000E+00 0.  1.
        -13    1    1    2    0    0 -0.48284928141E+03  0.75052308873E+02  0.16989257223E+04  0.17678022793E+04  0.10566000000E+00 0.  1.
         13    1    1    2    0    0  0.53636851783E+02 -0.42646739157E+03  0.13808855319E+04  0.14462351854E+04  0.10566000000E+00 0. -1.
         -4    1    1    2    0  502  0.42921242963E+03  0.35141508270E+03  0.54068265108E+03  0.77463126665E+03  0.00000000000E+00 0. -1.
</event>
<event>
 5    1  0.2540860E-005  0.4821735E+03  0.7818608E-02  0.9547767E-01
          4   -1    0    0  502    0 -0.00000000000E+00  0.00000000000E+00  0.19551054461E+04  0.19551054461E+04  0.00000000000E+00 0.  1.
         21   -1    0    0  501  502  0.00000000000E+00 -0.00000000000E+00 -0.36999529260E+03  0.36999529260E+03  0.00000000000E+00 0.  1.
        -13    1    1    2    0    0  0.13681595221E+03 -0.47278804484E+03  0.60712050515E+03  0.78156411065E+03  0.10566000000E+00 0.  1.
         13    1    1    2    0    0  0.37243631023E+03  0.34672057479E+03  0.87004851436E+03  0.10079228099E+04  0.10566000000E+00 0. -1.
          4    1    1    2  501    0 -0.50925226244E+03  0.12606747005E+03  0.10794113397E+03  0.53561381816E+03  0.00000000000E+00 0.  1.
</event>
<event>
 5    1  0.2540860E-005  0.4847986E+03  0.7818608E-02  0.9635538E-01
         -4   -1    0    0    0  501 -0.00000000000E+00  0.00000000000E+00  0.18805847251E+04  0.18805847251E+04  0.00000000000E+00 0. -1.
         21   -1    0    0  501  502  0.00000000000E+00 -0.00000000000E+00 -0.34540724077E+03  0.34540724077E+03  0.00000000000E+00 0.  1.
        -13    1    1    2    0    0 -0.29921113727E+03 -0.86792778784E+02 -0.55734534372E+02  0.31649113827E+03  0.10566000000E+00 0.  1.
         13    1    1    2    0    0  0.66693238319E+03  0.14779468440E+03  0.10129315774E+04  0.12217497551E+04  0.10566000000E+00 0. -1.
         -4    1    1    2    0  502 -0.36772124591E+03 -0.61001905615E+02  0.57798044128E+03  0.68775107247E+03  0.00000000000E+00 0. -1.
</event>
<event>
 5    1  0.2540860E-005  0.3888700E+03  0.7818608E-02  0.1004786E+00
          4   -1    0    0  502    0 -0.00000000000E+00  0.00000000000E+00  0.98030499362E+03  0.98030499362E+03  0.00000000000E+00 0.  1.
         21   -1    0    0  501  502  0.00000000000E+00 -0.00000000000E+00 -0.41628320995E+03  0.41628320995E+03  0.00000000000E+00 0.  1.
        -13    1    1    2    0    0  0.87819111795E+02 -0.41815603521E+03  0.43313748805E+03  0.60841988864E+03  0.10566000000E+00 0.  1.
         13    1    1    2    0    0  0.11743727457E+03  0.92438533776E+02  0.32447479366E+03  0.35723983383E+03  0.10566000000E+00 0. -1.
          4    1    1    2  501    0 -0.20525638637E+03  0.32571750143E+03 -0.19359049804E+03  0.43092848109E+03  0.00000000000E+00 0.  1.
</event>
<event>
 5    1  0.2540860E-005  0.6732805E+02  0.7818608E-02  0.1233918E+00
         -4   -1    0    0    0  501 -0.00000000000E+00  0.00000000000E+00  0.40757774231E+03  0.40757774231E+03  0.00000000000E+00 0. -1.
         21   -1    0    0  501  502  0.00000000000E+00 -0.00000000000E+00 -0.34470349705E+03  0.34470349705E+03  0.00000000000E+00 0.  1.
        -13    1    1    2    0    0  0.81337932069E+02 -0.39185964979E+02 -0.27696751942E+03  0.29131154633E+03  0.10566000000E+00 0.  1.
         13    1    1    2    0    0 -0.61261242429E+02  0.27376087286E+02  0.39522874141E+03  0.40088422167E+03  0.10566000000E+00 0. -1.
         -4    1    1    2    0  502 -0.20076689639E+02  0.11809877693E+02 -0.55386976729E+02  0.60085471365E+02  0.00000000000E+00 0. -1.
</event>
<event>
 5    1  0.2540860E-005  0.4882415E+03  0.7818608E-02  0.9738772E-01
         21   -1    0    0  501  502  0.00000000000E+00  0.00000000000E+00  0.15744118433E+03  0.15744118433E+03  0.00000000000E+00 0. -1.
         -4   -1    0    0    0  501 -0.00000000000E+00 -0.00000000000E+00 -0.25574349212E+04  0.25574349212E+04  0.00000000000E+00 0. -1.
        -13    1    1    2    0    0 -0.21109860930E+03  0.25875021384E+02 -0.69984576202E+03  0.73144804420E+03  0.10566000000E+00 0.  1.
         13    1    1    2    0    0 -0.20724981805E+03 -0.40264631106E+03 -0.65532812089E+03  0.79657485279E+03  0.10566000000E+00 0. -1.
         -4    1    1    2    0  502  0.41834842736E+03  0.37677128968E+03 -0.10448198539E+04  0.11868532085E+04  0.00000000000E+00 0. -1.
</event>
<event>
 5    1  0.2540860E-005  0.4897110E+03  0.7818608E-02  0.9755294E-01
          4   -1    0    0  502    0 -0.00000000000E+00  0.00000000000E+00  0.15121720900E+04  0.15121720900E+04  0.00000000000E+00 0.  1.
         21   -1    0    0  501  502  0.00000000000E+00 -0.00000000000E+00 -0.28199717088E+03  0.28199717088E+03  0.00000000000E+00 0.  1.
        -13    1    1    2    0    0 -0.56775226904E+03 -0.32076296388E+02  0.18684402434E+03  0.59856681196E+03  0.10566000000E+00 0.  1.
         13    1    1    2    0    0  0.19889834536E+03  0.87494201533E+01  0.50293959277E+03  0.54091159100E+03  0.10566000000E+00 0. -1.
          4    1    1    2  501    0  0.36885392368E+03  0.23326876234E+02  0.54039130205E+03  0.65469085796E+03  0.00000000000E+00 0.  1.
</event>
<event>
 5    1  0.2540860E-005  0.1458638E+03  0.7818608E-02  0.1193290E+00
         21   -1    0    0  501  502  0.00000000000E+00  0.00000000000E+00  0.16005797263E+03  0.16005797263E+03  0.00000000000E+00 0.  1.
         -4   -1    0    0    0  501 -0.00000000000E+00 -0.00000000000E+00 -0.27571968233E+03  0.27571968233E+03  0.00000000000E+00 0. -1.
        -13    1    1    2    0    0 -0.27976833761E+01  0.16118203220E+02  0.52031951429E+02  0.54543181433E+02  0.10566000000E+00 0.  1.
         13    1    1    2    0    0 -0.10814486344E+03  0.83212944260E+02 -0.18655415368E+03  0.23113236251E+03  0.10566000000E+00 0. -1.
         -4    1    1    2    0  502  0.11094254681E+03 -0.99331147480E+02  0.18860492555E+02  0.15010211102E+03  0.00000000000E+00 0. -1.
</event>
<event>
 5    1  0.2540860E-005  0.5041004E+03  0.7818608E-02  0.9494178E-01
          4   -1    0    0  502    0 -0.00000000000E+00  0.00000000000E+00  0.88945026684E+03  0.88945026684E+03  0.00000000000E+00 0.  1.
         21   -1    0    0  501  502  0.00000000000E+00 -0.00000000000E+00 -0.85561282176E+03  0.85561282176E+03  0.00000000000E+00 0. -1.
        -13    1    1    2    0    0  0.34547848471E+02 -0.36545945365E+03  0.13920523715E+03  0.39259683558E+03  0.10566000000E+00 0.  1.
         13    1    1    2    0    0 -0.45754798320E+03 -0.26301609629E+03 -0.24547073273E+03  0.58205112802E+03  0.10566000000E+00 0. -1.
          4    1    1    2  501    0  0.42300013473E+03  0.62847554994E+03  0.14010294066E+03  0.77041512500E+03  0.00000000000E+00 0.  1.
</event>
<event>
 5    1  0.2540860E-005  0.1823695E+03  0.7818608E-02  0.1072944E+00
         21   -1    0    0  501  502  0.00000000000E+00  0.00000000000E+00  0.42398906210E+02  0.42398906210E+02  0.00000000000E+00 0.  1.
          4   -1    0    0  502    0 -0.00000000000E+00 -0.00000000000E+00 -0.13189625928E+04  0.13189625928E+04  0.00000000000E+00 0.  1.
        -13    1    1    2    0    0 -0.18077292316E+03 -0.52844313754E+02 -0.87350260718E+03  0.89357606680E+03  0.10566000000E+00 0.  1.
         13    1    1    2    0    0  0.15618491479E+03  0.74793764986E+02 -0.39851501427E+03  0.43451359317E+03  0.10566000000E+00 0. -1.
          4    1    1    2  501    0  0.24588008371E+02 -0.21949451232E+02 -0.45460651489E+01  0.33271839044E+02  0.00000000000E+00 0.  1.
</event>
<event>
 5    1  0.2540860E-005  0.8291442E+03  0.7818608E-02  0.9115017E-01
         21   -1    0    0  501  502  0.00000000000E+00  0.00000000000E+00  0.18210022209E+04  0.18210022209E+04  0.00000000000E+00 0.  1.
          4   -1    0    0  502    0 -0.00000000000E+00 -0.00000000000E+00 -0.12223172470E+04  0.12223172470E+04  0.00000000000E+00 0.  1.
        -13    1    1    2    0    0  0.16135315227E+03  0.46991663574E+03 -0.48608162948E+03  0.69507686336E+03  0.10566000000E+00 0.  1.
         13    1    1    2    0    0  0.32192751713E+03  0.29202274066E+03 -0.41308157849E+03  0.59962572410E+03  0.10566000000E+00 0. -1.
          4    1    1    2  501    0 -0.48328066940E+03 -0.76193937641E+03  0.14978481819E+04  0.17486168805E+04  0.00000000000E+00 0.  1.
</event>
<event>
 5    1  0.2540860E-005  0.3732902E+03  0.7818608E-02  0.9962084E-01
          4   -1    0    0  502    0 -0.00000000000E+00  0.00000000000E+00  0.17521929650E+04  0.17521929650E+04  0.00000000000E+00 0.  1.
         21   -1    0    0  501  502  0.00000000000E+00 -0.00000000000E+00 -0.24730066259E+03  0.24730066259E+03  0.00000000000E+00 0.  1.
        -13    1    1    2    0    0 -0.57901011396E+02 -0.34261016627E+03  0.38668925345E+02  0.34961342952E+03  0.10566000000E+00 0.  1.
         13    1    1    2    0    0 -0.18872725087E+03 -0.12017197799E+03  0.55722531674E+03  0.60046593933E+03  0.10566000000E+00 0. -1.
          4    1    1    2  501    0  0.24662826227E+03  0.46278214425E+03  0.90899806034E+03  0.10494142588E+04  0.00000000000E+00 0.  1.
</event>
<event>
 5    1  0.2540860E-005  0.3345351E+02  0.7818608E-02  0.1379148E+00
         21   -1    0    0  501  502  0.00000000000E+00  0.00000000000E+00  0.11873227127E+03  0.11873227127E+03  0.00000000000E+00 0.  1.
          4   -1    0    0  502    0 -0.00000000000E+00 -0.00000000000E+00 -0.45090934154E+02  0.45090934154E+02  0.00000000000E+00 0.  1.
        -13    1    1    2    0    0  0.30066239114E+02  0.81615676288E+01 -0.21160772509E+02  0.37661377801E+02  0.10566000000E+00 0.  1.
         13    1    1    2    0    0 -0.37205769902E+02 -0.25096105740E+02  0.19996947147E+02  0.49132198165E+02  0.10566000000E+00 0. -1.
          4    1    1    2  501    0  0.71395307885E+01  0.16934538111E+02  0.74805162483E+02  0.77029629461E+02  0.00000000000E+00 0.  1.
</event>
<event>
 5    1  0.2540860E-005  0.7688986E+03  0.7818608E-02  0.9028606E-01
         -4   -1    0    0    0  501 -0.00000000000E+00  0.00000000000E+00  0.26607591047E+04  0.26607591047E+04  0.00000000000E+00 0. -1.
         21   -1    0    0  501  502  0.00000000000E+00 -0.00000000000E+00 -0.42576358894E+03  0.42576358894E+03  0.00000000000E+00 0.  1.
        -13    1    1    2    0    0 -0.60031979132E+03 -0.54363497969E+03  0.61360894845E+03  0.10160899546E+04  0.10566000000E+00 0.  1.
         13    1    1    2    0    0  0.41238025712E+03  0.63849447546E+03  0.16866672661E+04  0.18500213916E+04  0.10566000000E+00 0. -1.
         -4    1    1    2    0  502  0.18793953420E+03 -0.94859495760E+02 -0.65280698812E+02  0.22041134746E+03  0.00000000000E+00 0. -1.
</event>
<event>
 5    1  0.2540860E-005  0.8595813E+02  0.7818608E-02  0.1227457E+00
         21   -1    0    0  501  502  0.00000000000E+00  0.00000000000E+00  0.21447972844E+03  0.21447972844E+03  0.00000000000E+00 0. -1.
         -4   -1    0    0    0  501 -0.00000000000E+00 -0.00000000000E+00 -0.14113072611E+03  0.14113072611E+03  0.00000000000E+00 0. -1.
        -13    1    1    2    0    0  0.51142090076E+02 -0.10281383520E+03  0.39243858835E+02  0.12135192502E+03  0.10566000000E+00 0.  1.
         13    1    1    2    0    0 -0.27938090021E+02  0.20046850475E+02 -0.82508804198E+02  0.89387510438E+02  0.10566000000E+00 0. -1.
         -4    1    1    2    0  502 -0.23204000055E+02  0.82766984725E+02  0.11661394769E+03  0.14487101910E+03  0.00000000000E+00 0. -1.
</event>
<event>
 5    1  0.2540860E-005  0.3917777E+03  0.7818608E-02  0.1021281E+00
         21   -1    0    0  501  502  0.00000000000E+00  0.00000000000E+00  0.26267176958E+03  0.26267176958E+03  0.00000000000E+00 0. -1.
         -4   -1    0    0    0  501 -0.00000000000E+00 -0.00000000000E+00 -0.14425861365E+04  0.14425861365E+04  0.00000000000E+00 0. -1.
        -13    1    1    2    0    0  0.85830288958E+02 -0.88416767699E+01 -0.44479356752E+03  0.45308535909E+03  0.10566000000E+00 0.  1.
         13    1    1    2    0    0 -0.22702572945E+03 -0.35171958985E+03 -0.75623912373E+03  0.86437548273E+03  0.10566000000E+00 0. -1.
         -4    1    1    2    0  502  0.14119544049E+03  0.36056126662E+03  0.21118324350E+02  0.38779706423E+03  0.00000000000E+00 0. -1.
</event>
<event>
 5    1  0.2540860E-005  0.2820858E+02  0.7818608E-02  0.1419896E+00
         21   -1    0    0  501  502  0.00000000000E+00  0.00000000000E+00  0.27806755227E+02  0.27806755227E+02  0.00000000000E+00 0. -1.
         -4   -1    0    0    0  501 -0.00000000000E+00 -0.00000000000E+00 -0.89864125103E+02  0.89864125103E+02  0.00000000000E+00 0. -1.
        -13    1    1    2    0    0 -0.14658955076E+02 -0.15552319519E+02 -0.19754551069E+02  0.29103488765E+02  0.10566000000E+00 0.  1.
         13    1    1    2    0    0  0.29950063595E+02  0.20617082872E+02 -0.56438056309E+02  0.67136694731E+02  0.10566000000E+00 0. -1.
         -4    1    1    2    0  502 -0.15291108519E+02 -0.50647633532E+01  0.14135237502E+02  0.21430696834E+02  0.00000000000E+00 0. -1.
</event>
<event>
 5    1  0.2540860E-005  0.2228708E+03  0.7818608E-02  0.1050903E+00
         21   -1    0    0  501  502  0.00000000000E+00  0.00000000000E+00  0.42893091961E+02  0.42893091961E+02  0.00000000000E+00 0.  1.
          4   -1    0    0  502    0 -0.00000000000E+00 -0.00000000000E+00 -0.27264944069E+04  0.27264944069E+04  0.00000000000E+00 0.  1.
        -13    1    1    2    0    0  0.20578210541E+03  0.87640843362E+02 -0.78673621667E+03  0.81791263477E+03  0.10566000000E+00 0.  1.
         13    1    1    2    0    0  0.37342629683E+02 -0.18594360387E+03 -0.96237792742E+03  0.98088775207E+03  0.10566000000E+00 0. -1.
          4    1    1    2  501    0 -0.24312473510E+03  0.98302760510E+02 -0.93448717087E+03  0.97058711204E+03  0.00000000000E+00 0.  1.
</event>
<event>
 5    1  0.3150195E-005  0.2459450E+03  0.7818608E-02  0.1032583E+00
         21   -1    0    0  501  502  0.00000000000E+00  0.00000000000E+00  0.43136190530E+03  0.43136190530E+03  0.00000000000E+00 0. -1.
         -4   -1    0    0    0  501 -0.00000000000E+00 -0.00000000000E+00 -0.19568421578E+04  0.19568421578E+04  0.00000000000E+00 0. -1.
        -13    1    1    2    0    0 -0.24083955133E+03  0.51092015108E+02 -0.13078632849E+04  0.13308345000E+04  0.10566000000E+00 0.  1.
         13    1    1    2    0    0  0.81729837897E+02 -0.24708978748E+03 -0.56842322986E+03  0.62517046387E+03  0.10566000000E+00 0. -1.
         -4    1    1    2    0  502  0.15910971343E+03  0.19599777237E+03  0.35080626224E+03  0.43219909916E+03  0.00000000000E+00 0. -1.
</event>
<event>
 5    1  0.2540860E-005  0.4808443E+03  0.7818608E-02  0.9672079E-01
         21   -1    0    0  501  502  0.00000000000E+00  0.00000000000E+00  0.54362286228E+03  0.54362286228E+03  0.00000000000E+00 0. -1.
         -4   -1    0    0    0  501 -0.00000000000E+00 -0.00000000000E+00 -0.89898279139E+03  0.89898279139E+03  0.00000000000E+00 0. -1.
        -13    1    1    2    0    0  0.27906075113E+03  0.31113542934E+02  0.10565717102E+03  0.30001067369E+03  0.10566000000E+00 0.  1.
         13    1    1    2    0    0 -0.57038426226E+02  0.46814489166E+03 -0.84722275213E+02  0.47915644286E+03  0.10566000000E+00 0. -1.
         -4    1    1    2    0  502 -0.22202232490E+03 -0.49925843459E+03 -0.37629482491E+03  0.66343853711E+03  0.00000000000E+00 0. -1.
</event>
<event>
 5    1  0.2540860E-005  0.5002026E+03  0.7818608E-02  0.9611454E-01
         21   -1    0    0  501  502  0.00000000000E+00  0.00000000000E+00  0.22453396724E+03  0.22453396724E+03  0.00000000000E+00 0.  1.
          4   -1    0    0  502    0 -0.00000000000E+00 -0.00000000000E+00 -0.24565573883E+04  0.24565573883E+04  0.00000000000E+00 0.  1.
        -13    1    1    2    0    0 -0.22694120108E+03 -0.26062986969E+03 -0.63542211914E+03  0.72331978985E+03  0.10566000000E+00 0.  1.
         13    1    1    2    0    0 -0.22966218432E+03 -0.20654785970E+03 -0.10847573699E+04  0.11278764560E+04  0.10566000000E+00 0. -1.
          4    1    1    2  501    0  0.45660338540E+03  0.46717772939E+03 -0.51184393203E+03  0.82989510973E+03  0.00000000000E+00 0.  1.
</event>
<event>
 5    1  0.2540860E-005  0.3608997E+03  0.7818608E-02  0.9849307E-01
          4   -1    0    0  502    0 -0.00000000000E+00  0.00000000000E+00  0.23914576007E+04  0.23914576007E+04  0.00000000000E+00 0.  1.
         21   -1    0    0  501  502  0.00000000000E+00 -0.00000000000E+00 -0.24852890820E+03  0.24852890820E+03  0.00000000000E+00 0.  1.
        -13    1    1    2    0    0  0.35124585323E+03 -0.42792429533E+03  0.17472714169E+03  0.58053633577E+03  0.10566000000E+00 0.  1.
         13    1    1    2    0    0 -0.10701702378E+03  0.32326651524E+03  0.11092017078E+04  0.11602940674E+04  0.10566000000E+00 0. -1.
          4    1    1    2  501    0 -0.24422882945E+03  0.10465778008E+03  0.85899984306E+03  0.89915610571E+03  0.00000000000E+00 0.  1.
</event>
<event>
 5    1  0.2540860E-005  0.2968666E+03  0.7818608E-02  0.1010579E+00
          4   -1    0    0  502    0 -0.00000000000E+00  0.00000000000E+00  0.10905706171E+04  0.10905706171E+04  0.00000000000E+00 0.  1.
         21   -1    0    0  501  502  0.00000000000E+00 -0.00000000000E+00 -0.42177276383E+03  0.42177276383E+03  0.00000000000E+00 0.  1.
        -13    1    1    2    0    0 -0.23580399278E+03  0.15253843585E+03 -0.19028545658E+03  0.33923452591E+03  0.10566000000E+00 0.  1.
         13    1    1    2    0    0 -0.21403746161E+03 -0.21928450773E+03  0.17867275931E+03  0.35471354131E+03  0.10566000000E+00 0. -1.
          4    1    1    2  501    0  0.44984145439E+03  0.66746071881E+02  0.68041055056E+03  0.81839531372E+03  0.00000000000E+00 0.  1.
</event>
<event>
 5    1  0.2540860E-005  0.3338092E+03  0.7818608E-02  0.9983218E-01
         21   -1    0    0  501  502  0.00000000000E+00  0.00000000000E+00  0.61029400630E+03  0.61029400630E+03  0.00000000000E+00 0. -1.
          4   -1    0    0  502    0 -0.00000000000E+00 -0.00000000000E+00 -0.71752921029E+03  0.71752921029E+03  0.00000000000E+00 0.  1.
        -13    1    1    2    0    0  0.12236935699E+03  0.63311242348E+02 -0.47921637642E+03  0.49862904000E+03  0.10566000000E+00 0.  1.
         13    1    1    2    0    0 -0.18435464005E+02  0.29125149289E+03 -0.17476101250E+02  0.29235718517E+03  0.10566000000E+00 0. -1.
          4    1    1    2  501    0 -0.10393389299E+03 -0.35456273524E+03  0.38945727368E+03  0.53683699142E+03  0.00000000000E+00 0.  1.
</event>
<event>
 5    1  0.2540860E-005  0.6882273E+02  0.7818608E-02  0.1229851E+00
         21   -1    0    0  501  502  0.00000000000E+00  0.00000000000E+00  0.15870035608E+02  0.15870035608E+02  0.00000000000E+00 0.  1.
         -4   -1    0    0    0  501 -0.00000000000E+00 -0.00000000000E+00 -0.53534595978E+03  0.53534595978E+03  0.00000000000E+00 0. -1.
        -13    1    1    2    0    0  0.55426133188E+02  0.56065896078E+02 -0.13902053687E+03  0.15981915335E+03  0.10566000000E+00 0.  1.
         13    1    1    2    0    0 -0.41817167738E+02 -0.51087589061E+02 -0.36180194810E+03  0.36777612495E+03  0.10566000000E+00 0. -1.
         -4    1    1    2    0  502 -0.13608965450E+02 -0.49783070167E+01 -0.18653439212E+02  0.23620717089E+02  0.00000000000E+00 0. -1.
</event>
<event>
 5    1  0.2540860E-005  0.2082752E+03  0.7818608E-02  0.1054606E+00
         21   -1    0    0  501  502  0.00000000000E+00  0.00000000000E+00  0.90680965054E+02  0.90680965054E+02  0.00000000000E+00 0. -1.
          4   -1    0    0  502    0 -0.00000000000E+00 -0.00000000000E+00 -0.85336374205E+03  0.85336374205E+03  0.00000000000E+00 0.  1.
        -13    1    1    2    0    0 -0.11066607160E+03  0.17895671866E+03 -0.67049047512E+03  0.70273037145E+03  0.10566000000E+00 0.  1.
         13    1    1    2    0    0  0.98901078170E+02 -0.17415070159E+03 -0.10247288443E+03  0.22496798291E+03  0.10566000000E+00 0. -1.
          4    1    1    2  501    0  0.11764993430E+02 -0.48060170756E+01  0.10280582556E+02  0.16346352750E+02  0.00000000000E+00 0.  1.
</event>
<event>
 5    1  0.2540860E-005  0.3809124E+03  0.7818608E-02  0.9871031E-01
          4   -1    0    0  502    0 -0.00000000000E+00  0.00000000000E+00  0.73479624213E+03  0.73479624213E+03  0.00000000000E+00 0.  1.
         21   -1    0    0  501  502  0.00000000000E+00 -0.00000000000E+00 -0.10704471710E+04  0.10704471710E+04  0.00000000000E+00 0.  1.
        -13    1    1    2    0    0 -0.34829163390E+03  0.20513660954E+03 -0.83860547188E+03  0.93093890210E+03  0.10566000000E+00 0.  1.
         13    1    1    2    0    0  0.36653841213E+01 -0.28524304299E+03  0.42523278450E+03  0.51205464629E+03  0.10566000000E+00 0. -1.
          4    1    1    2  501    0  0.34462624978E+03  0.80106433445E+02  0.77721758560E+02  0.36224986469E+03  0.00000000000E+00 0.  1.
</event>
<event>
 5    1  0.2540860E-005  0.3549051E+03  0.7818608E-02  0.9869169E-01
         -4   -1    0    0    0  501 -0.00000000000E+00  0.00000000000E+00  0.12313120146E+04  0.12313120146E+04  0.00000000000E+00 0. -1.
         21   -1    0    0  501  502  0.00000000000E+00 -0.00000000000E+00 -0.87576068882E+03  0.87576068882E+03  0.00000000000E+00 0. -1.
        -13    1    1    2    0    0  0.46253557784E+03 -0.25443229992E+03 -0.13311668574E+03  0.54442172917E+03  0.10566000000E+00 0.  1.
         13    1    1    2    0    0 -0.14490931577E+03  0.31584607822E+03  0.94295358123E+03  0.10049472237E+04  0.10566000000E+00 0. -1.
         -4    1    1    2    0  502 -0.31762626207E+03 -0.61413778303E+02 -0.45428556970E+03  0.55770375054E+03  0.00000000000E+00 0. -1.
</event>
<event>
 5    1  0.2540860E-005  0.6276222E+02  0.7818608E-02  0.1247103E+00
         21   -1    0    0  501  502  0.00000000000E+00  0.00000000000E+00  0.14472747054E+03  0.14472747054E+03  0.00000000000E+00 0.  1.
          4   -1    0    0  502    0 -0.00000000000E+00 -0.00000000000E+00 -0.14033605383E+03  0.14033605383E+03  0.00000000000E+00 0.  1.
        -13    1    1    2    0    0 -0.77235523831E+01 -0.85032328220E+02 -0.25211415221E+02  0.89026831491E+02  0.10566000000E+00 0.  1.
         13    1    1    2    0    0  0.15280432803E+02  0.54028177115E+02 -0.70985973641E+02  0.90507210579E+02  0.10566000000E+00 0. -1.
          4    1    1    2  501    0 -0.75568804199E+01  0.31004151105E+02  0.10058880557E+03  0.10552948230E+03  0.00000000000E+00 0.  1.
</event>
<event>
 5    1  0.2540860E-005  0.5043394E+03  0.7818608E-02  0.9669215E-01
          4   -1    0    0  502    0 -0.00000000000E+00  0.00000000000E+00  0.15254542545E+04  0.15254542545E+04  0.00000000000E+00 0.  1.
         21   -1    0    0  501  502  0.00000000000E+00 -0.00000000000E+00 -0.27408036270E+03  0.27408036270E+03  0.00000000000E+00 0.  1.
        -13    1    1    2    0    0 -0.50910241637E+03  0.29415296182E+03  0.37251787308E+03  0.69604655895E+03  0.10566000000E+00 0.  1.
         13    1    1    2    0    0  0.10490177662E+03 -0.22229344036E+03  0.23620044214E+03  0.34089502255E+03  0.10566000000E+00 0. -1.
          4    1    1    2  501    0  0.40420063974E+03 -0.71859521461E+02  0.64265557655E+03  0.76259303568E+03  0.00000000000E+00 0.  1.
</event>
<event>
 5    1  0.2540860E-005  0.2102148E+03  0.7818608E-02  0.1053350E+00
         21   -1    0    0  501  502  0.00000000000E+00  0.00000000000E+00  0.37664322576E+02  0.37664322576E+02  0.00000000000E+00 0.  1.
         -4   -1    0    0    0  501 -0.00000000000E+00 -0.00000000000E+00 -0.15982567079E+04  0.15982567079E+04  0.00000000000E+00 0. -1.
        -13    1    1    2    0    0  0.20227722458E+03  0.52757117516E+02 -0.50455314865E+03  0.54614401032E+03  0.10566000000E+00 0.  1.
         13    1    1    2    0    0 -0.20716534383E+03 -0.39791800603E+02 -0.10549979872E+04  0.10758817925E+04  0.10566000000E+00 0. -1.
         -4    1    1    2    0  502  0.48881192577E+01 -0.12965316913E+02 -0.10412494300E+01  0.13895227703E+02  0.00000000000E+00 0. -1.
</event>
<event>
 5    1  0.2540860E-005  0.2499370E+03  0.7818608E-02  0.1030425E+00
         21   -1    0    0  501  502  0.00000000000E+00  0.00000000000E+00  0.59121183435E+03  0.59121183435E+03  0.00000000000E+00 0. -1.
          4   -1    0    0  502    0 -0.00000000000E+00 -0.00000000000E+00 -0.30481184920E+03  0.30481184920E+03  0.00000000000E+00 0.  1.
        -13    1    1    2    0    0  0.24085618564E+03  0.64794813561E+02 -0.19846297121E+03  0.31874383466E+03  0.10566000000E+00 0.  1.
         13    1    1    2    0    0 -0.25136739711E+03 -0.38740192737E+02  0.31380780654E+03  0.40393281802E+03  0.10566000000E+00 0. -1.
          4    1    1    2  501    0  0.10511211468E+02 -0.26054620823E+02  0.17105514982E+03  0.17334703087E+03  0.00000000000E+00 0.  1.
</event>
<event>
 5    1  0.2540860E-005  0.3252349E+03  0.7818608E-02  0.9974015E-01
         -4   -1    0    0    0  501 -0.00000000000E+00  0.00000000000E+00  0.97880148066E+03  0.97880148066E+03  0.00000000000E+00 0. -1.
         21   -1    0    0  501  502  0.00000000000E+00 -0.00000000000E+00 -0.54830287976E+03  0.54830287976E+03  0.00000000000E+00 0. -1.
        -13    1    1    2    0    0 -0.19926929667E+03  0.22584498003E+03  0.16662463491E+03  0.34420631563E+03  0.10566000000E+00 0.  1.
         13    1    1    2    0    0  0.77257411516E+02 -0.34116712167E+03  0.66315381995E+03  0.74975776929E+03  0.10566000000E+00 0. -1.
         -4    1    1    2    0  502  0.12201188516E+03  0.11532214164E+03 -0.39927985396E+03  0.43314027549E+03  0.00000000000E+00 0. -1.
</event>
<event>
 5    1  0.2540860E-005  0.5449109E+02  0.7818608E-02  0.1274510E+00
         21   -1    0    0  501  502  0.00000000000E+00  0.00000000000E+00  0.38269321219E+03  0.38269321219E+03  0.00000000000E+00 0.  1.
         -4   -1    0    0    0  501 -0.00000000000E+00 -0.00000000000E+00 -0.30965576645E+02  0.30965576645E+02  0.00000000000E+00 0. -1.
        -13    1    1    2    0    0  0.48663348265E+02 -0.48527874129E+02  0.18146777572E+03  0.19404546071E+03  0.10566000000E+00 0.  1.
         13    1    1    2    0    0 -0.50899878349E+02  0.15624097795E+02  0.77670677927E+01  0.53807513917E+02  0.10566000000E+00 0. -1.
         -4    1    1    2    0  502  0.22365300834E+01  0.32903776334E+02  0.16249279203E+03  0.16580581421E+03  0.00000000000E+00 0. -1.
</event>
<event>
 5    1  0.2540860E-005  0.4987138E+03  0.7818608E-02  0.9660987E-01
         21   -1    0    0  501  502  0.00000000000E+00  0.00000000000E+00  0.79793446747E+03  0.79793446747E+03  0.00000000000E+00 0. -1.
         -4   -1    0    0    0  501 -0.00000000000E+00 -0.00000000000E+00 -0.53357427324E+03  0.53357427324E+03  0.00000000000E+00 0. -1.
        -13    1    1    2    0    0  0.24072771737E+03 -0.10254702621E+03  0.12581156150E+03  0.29033478377E+03  0.10566000000E+00 0.  1.
         13    1    1    2    0    0  0.16230808754E+03  0.46333336149E+03  0.61040322504E+02  0.49471977047E+03  0.10566000000E+00 0. -1.
         -4    1    1    2    0  502 -0.40303580491E+03 -0.36078633528E+03  0.77508310226E+02  0.54645418648E+03  0.00000000000E+00 0. -1.
</event>
<event>
 5    1  0.2540860E-005  0.2840788E+02  0.7818608E-02  0.1418167E+00
          4   -1    0    0  502    0 -0.00000000000E+00  0.00000000000E+00  0.43437818241E+02  0.43437818241E+02  0.00000000000E+00 0.  1.
         21   -1    0    0  501  502  0.00000000000E+00 -0.00000000000E+00 -0.11557128632E+03  0.11557128632E+03  0.00000000000E+00 0. -1.
        -13    1    1    2    0    0 -0.27223923866E+02 -0.88480194537E+01  0.34031943233E+02  0.44470369946E+02  0.10566000000E+00 0.  1.
         13    1    1    2    0    0  0.27153552076E+02 -0.42526231069E+01 -0.87642511021E+02  0.91851081081E+02  0.10566000000E+00 0. -1.
          4    1    1    2  501    0  0.70371790057E-01  0.13100642561E+02 -0.18522900291E+02  0.22687653534E+02  0.00000000000E+00 0.  1.
</event>
<event>
 5    1  0.2540860E-005  0.7065873E+02  0.7818608E-02  0.1247684E+00
         -4   -1    0    0    0  501 -0.00000000000E+00  0.00000000000E+00  0.53269186214E+03  0.53269186214E+03  0.00000000000E+00 0. -1.
         21   -1    0    0  501  502  0.00000000000E+00 -0.00000000000E+00 -0.27829613099E+02  0.27829613099E+02  0.00000000000E+00 0. -1.
        -13    1    1    2    0    0  0.17657987957E+02 -0.39698113238E+02  0.28981290000E+02  0.52227110464E+02  0.10566000000E+00 0.  1.
         13    1    1    2    0    0 -0.83188036128E+02  0.17301725245E+02  0.38371866862E+03  0.39301351995E+03  0.10566000000E+00 0. -1.
         -4    1    1    2    0  502  0.65530048171E+02  0.22396387993E+02  0.92162290425E+02  0.11528084483E+03  0.00000000000E+00 0. -1.
</event>
<event>
 5    1  0.2540860E-005  0.1755841E+03  0.7818608E-02  0.1105748E+00
         -4   -1    0    0    0  501 -0.00000000000E+00  0.00000000000E+00  0.42928163177E+03  0.42928163177E+03  0.00000000000E+00 0. -1.
         21   -1    0    0  501  502  0.00000000000E+00 -0.00000000000E+00 -0.18861992010E+03  0.18861992010E+03  0.00000000000E+00 0. -1.
        -13    1    1    2    0    0 -0.78416266740E+02 -0.25780125544E+02  0.10428867010E+03  0.13300324672E+03  0.10566000000E+00 0.  1.
         13    1    1    2    0    0  0.14733396217E+02  0.18958437957E+03  0.21955908132E+03  0.29045741735E+03  0.10566000000E+00 0. -1.
         -4    1    1    2    0  502  0.63682870523E+02 -0.16380425403E+03 -0.83186039749E+02  0.19444088779E+03  0.00000000000E+00 0. -1.
</event>
<event>
 5    1  0.2540860E-005  0.3775953E+03  0.7818608E-02  0.1003881E+00
         21   -1    0    0  501  502  0.00000000000E+00  0.00000000000E+00  0.13236917880E+03  0.13236917880E+03  0.00000000000E+00 0. -1.
         -4   -1    0    0    0  501 -0.00000000000E+00 -0.00000000000E+00 -0.27099148193E+04  0.27099148193E+04  0.00000000000E+00 0. -1.
        -13    1    1    2    0    0 -0.25509507747E+02  0.16616713126E+03 -0.58465700188E+03  0.60834699926E+03  0.10566000000E+00 0.  1.
         13    1    1    2    0    0 -0.35443962478E+03 -0.97500896366E+02 -0.17256505182E+04  0.17643705945E+04  0.10566000000E+00 0. -1.
         -4    1    1    2    0  502  0.37994913253E+03 -0.68666234895E+02 -0.26723812042E+03  0.46956640439E+03  0.00000000000E+00 0. -1.
</event>
<event>
 5    1  0.2540860E-005  0.2496962E+03  0.7818608E-02  0.1030550E+00
          4   -1    0    0  502    0 -0.00000000000E+00  0.00000000000E+00  0.21990400024E+04  0.21990400024E+04  0.00000000000E+00 0.  1.
         21   -1    0    0  501  502  0.00000000000E+00 -0.00000000000E+00 -0.59333811752E+02  0.59333811752E+02  0.00000000000E+00 0.  1.
        -13    1    1    2    0    0 -0.80618579656E+02  0.23812146347E+03  0.11461340547E+04  0.11733816383E+04  0.10566000000E+00 0.  1.
         13    1    1    2    0    0  0.95676566486E+02 -0.22896797983E+03  0.10219174632E+04  0.10516157349E+04  0.10566000000E+00 0. -1.
          4    1    1    2  501    0 -0.15057986830E+02 -0.91534836409E+01 -0.28345327237E+02  0.33376440887E+02  0.00000000000E+00 0.  1.
</event>
<event>
 5    1  0.2540860E-005  0.4335471E+03  0.7818608E-02  0.9859108E-01
         -4   -1    0    0    0  501 -0.00000000000E+00  0.00000000000E+00  0.17012365619E+04  0.17012365619E+04  0.00000000000E+00 0. -1.
         21   -1    0    0  501  502  0.00000000000E+00 -0.00000000000E+00 -0.19472540882E+03  0.19472540882E+03  0.00000000000E+00 0. -1.
        -13    1    1    2    0    0 -0.20095018789E+03  0.13484325991E+02  0.51932692452E+03  0.55701281023E+03  0.10566000000E+00 0.  1.
         13    1    1    2    0    0  0.11352855305E+03 -0.44148622448E+03  0.61197038738E+03  0.76309015520E+03  0.10566000000E+00 0. -1.
         -4    1    1    2    0  502  0.87421634836E+02  0.42800189849E+03  0.37521384115E+03  0.57585900526E+03  0.00000000000E+00 0. -1.
</event>
<event>
 5    1  0.2540860E-005  0.5518523E+03  0.7818608E-02  0.9371031E-01
          4   -1    0    0  502    0 -0.00000000000E+00  0.00000000000E+00  0.42128714685E+04  0.42128714685E+04  0.00000000000E+00 0.  1.
         21   -1    0    0  501  502  0.00000000000E+00 -0.00000000000E+00 -0.80485076403E+02  0.80485076403E+02  0.00000000000E+00 0. -1.
        -13    1    1    2    0    0 -0.49447370094E+03  0.21920468204E+03  0.23743583335E+04  0.24351863257E+04  0.10566000000E+00 0.  1.
         13    1    1    2    0    0  0.51926987593E+03 -0.23107357115E+03  0.17182913972E+04  0.18098512470E+04  0.10566000000E+00 0. -1.
          4    1    1    2  501    0 -0.24796174989E+02  0.11868889114E+02  0.39736661347E+02  0.48318972236E+02  0.00000000000E+00 0.  1.
</event>
<event>
 5    1  0.2540860E-005  0.2569016E+03  0.7818608E-02  0.1026877E+00
         21   -1    0    0  501  502  0.00000000000E+00  0.00000000000E+00  0.58969845134E+03  0.58969845134E+03  0.00000000000E+00 0. -1.
         -4   -1    0    0    0  501 -0.00000000000E+00 -0.00000000000E+00 -0.90663497771E+03  0.90663497771E+03  0.00000000000E+00 0. -1.
        -13    1    1    2    0    0 -0.22958039847E+01 -0.26509108696E+03 -0.35290322826E+03  0.44138334221E+03  0.10566000000E+00 0.  1.
         13    1    1    2    0    0  0.23774467447E+03  0.19142351692E+03 -0.43022667627E+03  0.52750402577E+03  0.10566000000E+00 0. -1.
         -4    1    1    2    0  502 -0.23544887049E+03  0.73667570049E+02  0.46619337816E+03  0.52744606107E+03  0.00000000000E+00 0. -1.
</event>
<event>
 5    1  0.2540860E-005  0.3781487E+03  0.7818608E-02  0.1003422E+00
          4   -1    0    0  502    0 -0.00000000000E+00  0.00000000000E+00  0.13316123275E+04  0.13316123275E+04  0.00000000000E+00 0.  1.
         21   -1    0    0  501  502  0.00000000000E+00 -0.00000000000E+00 -0.27136332874E+03  0.27136332874E+03  0.00000000000E+00 0.  1.
        -13    1    1    2    0    0  0.16294278080E+03  0.24159193533E+03  0.97804121801E+03  0.10205300820E+04  0.10566000000E+00 0.  1.
         13    1    1    2    0    0  0.16893512492E+03 -0.18027921963E+02  0.65053852727E+02  0.18192332814E+03  0.10566000000E+00 0. -1.
          4    1    1    2  501    0 -0.33187790572E+03 -0.22356401337E+03  0.17153928064E+02  0.40052224611E+03  0.00000000000E+00 0.  1.
</event>
<event>
 5    1  0.2540860E-005  0.8351114E+02  0.7818608E-02  0.1195158E+00
          4   -1    0    0  502    0 -0.00000000000E+00  0.00000000000E+00  0.31828820296E+03  0.31828820296E+03  0.00000000000E+00 0.  1.
         21   -1    0    0  501  502  0.00000000000E+00 -0.00000000000E+00 -0.18168206175E+03  0.18168206175E+03  0.00000000000E+00 0.  1.
        -13    1    1    2    0    0  0.15967414995E+01 -0.75309187076E+02  0.17975415772E+03  0.19489892669E+03  0.10566000000E+00 0.  1.
         13    1    1    2    0    0 -0.22830543336E+00  0.10784914315E+03  0.10670791321E+03  0.15171710420E+03  0.10566000000E+00 0. -1.
          4    1    1    2  501    0 -0.13684360662E+01 -0.32539956072E+02 -0.14985592972E+03  0.15335423383E+03  0.00000000000E+00 0.  1.
</event>
<event>
 5    1  0.2540860E-005  0.3816120E+03  0.7818608E-02  0.1002899E+00
         21   -1    0    0  501  502  0.00000000000E+00  0.00000000000E+00  0.11979702016E+03  0.11979702016E+03  0.00000000000E+00 0. -1.
         -4   -1    0    0    0  501 -0.00000000000E+00 -0.00000000000E+00 -0.32470574313E+04  0.32470574313E+04  0.00000000000E+00 0. -1.
        -13    1    1    2    0    0  0.90655592474E+02  0.14161815127E+03 -0.86052691142E+03  0.87680141061E+03  0.10566000000E+00 0.  1.
         13    1    1    2    0    0  0.35463023173E+03 -0.11741785058E+03 -0.31689545718E+03  0.48986967128E+03  0.10566000000E+00 0. -1.
         -4    1    1    2    0  502 -0.44528582420E+03 -0.24200300690E+02 -0.19498380426E+04  0.20001833696E+04  0.00000000000E+00 0. -1.
</event>
<event>
 5    1  0.2540860E-005  0.4967183E+03  0.7818608E-02  0.9688621E-01
         21   -1    0    0  501  502  0.00000000000E+00  0.00000000000E+00  0.17052520015E+04  0.17052520015E+04  0.00000000000E+00 0. -1.
         -4   -1    0    0    0  501 -0.00000000000E+00 -0.00000000000E+00 -0.36311155223E+03  0.36311155223E+03  0.00000000000E+00 0. -1.
        -13    1    1    2    0    0 -0.68339404462E+02  0.23048736230E+03 -0.13221457114E+03  0.27436363165E+03  0.10566000000E+00 0.  1.
         13    1    1    2    0    0  0.51402068354E+03  0.13117787327E+02  0.74592410091E+03  0.90597578054E+03  0.10566000000E+00 0. -1.
         -4    1    1    2    0  502 -0.44568127908E+03 -0.24360514963E+03  0.72843091949E+03  0.88802414151E+03  0.00000000000E+00 0. -1.
</event>
<event>
 5    1  0.2540860E-005  0.3975897E+03  0.7818608E-02  0.9768117E-01
         21   -1    0    0  501  502  0.00000000000E+00  0.00000000000E+00  0.31100056099E+03  0.31100056099E+03  0.00000000000E+00 0. -1.
         -4   -1    0    0    0  501 -0.00000000000E+00 -0.00000000000E+00 -0.19317688771E+04  0.19317688771E+04  0.00000000000E+00 0. -1.
        -13    1    1    2    0    0  0.12101427615E+03  0.33476386337E+03 -0.86153211827E+03  0.93217428693E+03  0.10566000000E+00 0.  1.
         13    1    1    2    0    0  0.29956278156E+03 -0.28752827450E+03 -0.78345014732E+03  0.88668174292E+03  0.10566000000E+00 0. -1.
         -4    1    1    2    0  502 -0.42057705770E+03 -0.47235588872E+02  0.24213949488E+02  0.42391340822E+03  0.00000000000E+00 0. -1.
</event>
<event>
 5    1  0.2540860E-005  0.2612310E+02  0.7818608E-02  0.1439043E+00
         21   -1    0    0  501  502  0.00000000000E+00  0.00000000000E+00  0.56482148148E+02  0.56482148148E+02  0.00000000000E+00 0. -1.
          4   -1    0    0  502    0 -0.00000000000E+00 -0.00000000000E+00 -0.59849874381E+02  0.59849874381E+02  0.00000000000E+00 0.  1.
        -13    1    1    2    0    0 -0.47185552499E+01  0.27608442010E+02 -0.49153761765E+02  0.56573795114E+02  0.10566000000E+00 0.  1.
         13    1    1    2    0    0  0.14836635712E+02 -0.12315590254E+02  0.17447048843E+02  0.26004041992E+02  0.10566000000E+00 0. -1.
          4    1    1    2  501    0 -0.10118080462E+02 -0.15292851757E+02  0.28338986689E+02  0.33754185424E+02  0.00000000000E+00 0.  1.
</event>
<event>
 5    1  0.2540860E-005  0.4941662E+03  0.7818608E-02  0.9848950E-01
         21   -1    0    0  501  502  0.00000000000E+00  0.00000000000E+00  0.22926590606E+03  0.22926590606E+03  0.00000000000E+00 0. -1.
         -4   -1    0    0    0  501 -0.00000000000E+00 -0.00000000000E+00 -0.14603858873E+04  0.14603858873E+04  0.00000000000E+00 0. -1.
        -13    1    1    2    0    0 -0.96802739119E+02  0.10217665283E+03 -0.26445759803E+03  0.29958082549E+03  0.10566000000E+00 0.  1.
         13    1    1    2    0    0 -0.39228011346E+03 -0.27624643548E+03 -0.46682150016E+03  0.66941624174E+03  0.10566000000E+00 0. -1.
         -4    1    1    2    0  502  0.48908285258E+03  0.17406978265E+03 -0.49984088306E+03  0.72065472614E+03  0.00000000000E+00 0. -1.
</event>
<event>
 5    1  0.2540860E-005  0.1056240E+03  0.7818608E-02  0.1155572E+00
         21   -1    0    0  501  502  0.00000000000E+00  0.00000000000E+00  0.46007425566E+03  0.46007425566E+03  0.00000000000E+00 0.  1.
         -4   -1    0    0    0  501 -0.00000000000E+00 -0.00000000000E+00 -0.59610430716E+02  0.59610430716E+02  0.00000000000E+00 0. -1.
        -13    1    1    2    0    0  0.10748365372E+03 -0.31961445909E+02  0.25003194180E+03  0.27402600775E+03  0.10566000000E+00 0.  1.
         13    1    1    2    0    0 -0.10209962229E+03  0.21158304794E+02  0.10042626430E+02  0.10475147848E+03  0.10566000000E+00 0. -1.
         -4    1    1    2    0  502 -0.53840314276E+01  0.10803141116E+02  0.14038925672E+03  0.14090720015E+03  0.00000000000E+00 0. -1.
</event>
<event>
 5    1  0.2540860E-005  0.3432443E+03  0.7818608E-02  0.1002880E+00
          4   -1    0    0  502    0 -0.00000000000E+00  0.00000000000E+00  0.11721959829E+04  0.11721959829E+04  0.00000000000E+00 0.  1.
         21   -1    0    0  501  502  0.00000000000E+00 -0.00000000000E+00 -0.36886908820E+03  0.36886908820E+03  0.00000000000E+00 0.  1.
        -13    1    1    2    0    0 -0.27428138895E+03  0.43745495956E+03  0.55005686236E+03  0.75442672604E+03  0.10566000000E+00 0.  1.
         13    1    1    2    0    0  0.35128312292E+02 -0.22853633594E+03  0.37992790208E+03  0.44475619964E+03  0.10566000000E+00 0. -1.
          4    1    1    2  501    0  0.23915307666E+03 -0.20891862362E+03 -0.12665786978E+03  0.34188214540E+03  0.00000000000E+00 0.  1.
</event>
<event>
 5    1  0.2540860E-005  0.8009272E+03  0.7818608E-02  0.8988185E-01
          4   -1    0    0  502    0 -0.00000000000E+00  0.00000000000E+00  0.22209334726E+04  0.22209334726E+04  0.00000000000E+00 0.  1.
         21   -1    0    0  501  502  0.00000000000E+00 -0.00000000000E+00 -0.58419886342E+03  0.58419886342E+03  0.00000000000E+00 0.  1.
        -13    1    1    2    0    0  0.60685366872E+03  0.64471023656E+03  0.55019636715E+03  0.10424196458E+04  0.10566000000E+00 0.  1.
         13    1    1    2    0    0 -0.51674156793E+03 -0.56448716136E+03  0.13051769571E+04  0.15129952094E+04  0.10566000000E+00 0. -1.
          4    1    1    2  501    0 -0.90112100787E+02 -0.80223075200E+02 -0.21863871503E+03  0.24971748079E+03  0.00000000000E+00 0.  1.
</event>
<event>
 5    1  0.2540860E-005  0.2614017E+03  0.7818608E-02  0.1029150E+00
          4   -1    0    0  502    0 -0.00000000000E+00  0.00000000000E+00  0.64544781240E+03  0.64544781240E+03  0.00000000000E+00 0.  1.
         21   -1    0    0  501  502  0.00000000000E+00 -0.00000000000E+00 -0.88517257728E+03  0.88517257728E+03  0.00000000000E+00 0.  1.
        -13    1    1    2    0    0 -0.33563293454E+03 -0.14835863324E+03  0.17166091954E+03  0.40512619425E+03  0.10566000000E+00 0.  1.
         13    1    1    2    0    0  0.84724954621E+02  0.21087328366E+03  0.29550996713E+03  0.37278950030E+03  0.10566000000E+00 0. -1.
          4    1    1    2  501    0  0.25090797992E+03 -0.62514650424E+02 -0.70689565155E+03  0.75270469513E+03  0.00000000000E+00 0.  1.
</event>
<event>
 5    1  0.2540860E-005  0.4137408E+02  0.7818608E-02  0.1331534E+00
         -4   -1    0    0    0  501 -0.00000000000E+00  0.00000000000E+00  0.30550210538E+02  0.30550210538E+02  0.00000000000E+00 0. -1.
         21   -1    0    0  501  502  0.00000000000E+00 -0.00000000000E+00 -0.36226222077E+03  0.36226222077E+03  0.00000000000E+00 0.  1.
        -13    1    1    2    0    0  0.23740981916E+02  0.66560812388E+02 -0.97390942484E+02  0.12032864501E+03  0.10566000000E+00 0.  1.
         13    1    1    2    0    0  0.21055201186E+01 -0.36812427407E+02 -0.20890837534E+01  0.36931875954E+02  0.10566000000E+00 0. -1.
         -4    1    1    2    0  502 -0.25846502034E+02 -0.29748384981E+02 -0.23223198400E+03  0.23555191034E+03  0.00000000000E+00 0. -1.
</event>
<event>
 5    1  0.2540860E-005  0.4995564E+03  0.7818608E-02  0.9700673E-01
         21   -1    0    0  501  502  0.00000000000E+00  0.00000000000E+00  0.35898380002E+03  0.35898380002E+03  0.00000000000E+00 0. -1.
         -4   -1    0    0    0  501 -0.00000000000E+00 -0.00000000000E+00 -0.12929035864E+04  0.12929035864E+04  0.00000000000E+00 0. -1.
        -13    1    1    2    0    0  0.15717653005E+03 -0.16323715540E+03 -0.47998948283E+03  0.53079256333E+03  0.10566000000E+00 0.  1.
         13    1    1    2    0    0  0.98041770276E+02  0.54708018626E+03 -0.17672840329E+03  0.58321681955E+03  0.10566000000E+00 0. -1.
         -4    1    1    2    0  502 -0.25521830032E+03 -0.38384303086E+03 -0.27720190021E+03  0.53787800349E+03  0.00000000000E+00 0. -1.
</event>
<event>
 5    1  0.2540860E-005  0.2847512E+03  0.7818608E-02  0.1032524E+00
          4   -1    0    0  502    0 -0.00000000000E+00  0.00000000000E+00  0.12163373920E+03  0.12163373920E+03  0.00000000000E+00 0.  1.
         21   -1    0    0  501  502  0.00000000000E+00 -0.00000000000E+00 -0.17781765082E+04  0.17781765082E+04  0.00000000000E+00 0.  1.
        -13    1    1    2    0    0 -0.28992858084E+03  0.20892125514E+03 -0.13123051190E+04  0.13600924268E+04  0.10566000000E+00 0.  1.
         13    1    1    2    0    0  0.13214558418E+03 -0.87400099955E+02 -0.20676184707E+02  0.15977718444E+03  0.10566000000E+00 0. -1.
          4    1    1    2  501    0  0.15778299666E+03 -0.12152115519E+03 -0.32356146524E+03  0.37994063612E+03  0.00000000000E+00 0.  1.
</event>
<event>
 5    1  0.2540860E-005  0.3039271E+03  0.7818608E-02  0.1013311E+00
          4   -1    0    0  502    0 -0.00000000000E+00  0.00000000000E+00  0.13017452950E+04  0.13017452950E+04  0.00000000000E+00 0.  1.
         21   -1    0    0  501  502  0.00000000000E+00 -0.00000000000E+00 -0.40492683598E+03  0.40492683598E+03  0.00000000000E+00 0.  1.
        -13    1    1    2    0    0  0.78733377479E+02 -0.37453862650E+03  0.58487348557E+03  0.69896719005E+03  0.10566000000E+00 0.  1.
         13    1    1    2    0    0 -0.21436796964E+03  0.10319556184E+03  0.56475142395E+03  0.61281900461E+03  0.10566000000E+00 0. -1.
          4    1    1    2  501    0  0.13563459216E+03  0.27134306466E+03 -0.25280645047E+03  0.39488593635E+03  0.00000000000E+00 0.  1.
</event>
<event>
 5    1  0.2540860E-005  0.5246505E+03  0.7818608E-02  0.9619149E-01
         21   -1    0    0  501  502  0.00000000000E+00  0.00000000000E+00  0.23854554475E+03  0.23854554475E+03  0.00000000000E+00 0.  1.
         -4   -1    0    0    0  501 -0.00000000000E+00 -0.00000000000E+00 -0.19482773750E+04  0.19482773750E+04  0.00000000000E+00 0. -1.
        -13    1    1    2    0    0 -0.11213931419E+03 -0.23510102592E+03 -0.50152123298E+03  0.56512943338E+03  0.10566000000E+00 0.  1.
         13    1    1    2    0    0 -0.38630873994E+03 -0.15760788505E+03 -0.67165335964E+03  0.79069142822E+03  0.10566000000E+00 0. -1.
         -4    1    1    2    0  502  0.49844805413E+03  0.39270891097E+03 -0.53655723766E+03  0.83100205819E+03  0.00000000000E+00 0. -1.
</event>
<event>
 5    1  0.2540860E-005  0.5080604E+03  0.7818608E-02  0.9886545E-01
         -4   -1    0    0    0  501 -0.00000000000E+00  0.00000000000E+00  0.16650138479E+04  0.16650138479E+04  0.00000000000E+00 0. -1.
         21   -1    0    0  501  502  0.00000000000E+00 -0.00000000000E+00 -0.19608991332E+03  0.19608991332E+03  0.00000000000E+00 0. -1.
        -13    1    1    2    0    0  0.96986379457E+02 -0.60131411922E+02  0.19377521637E+03  0.22487994606E+03  0.10566000000E+00 0.  1.
         13    1    1    2    0    0 -0.55742770020E+03 -0.20200635695E+02  0.68227933721E+03  0.88127113409E+03  0.10566000000E+00 0. -1.
         -4    1    1    2    0  502  0.46044132074E+03  0.80332047617E+02  0.59286938105E+03  0.75495268111E+03  0.00000000000E+00 0. -1.
</event>
<event>
 5    1  0.2540860E-005  0.1766030E+03  0.7818608E-02  0.1077479E+00
         -4   -1    0    0    0  501 -0.00000000000E+00  0.00000000000E+00  0.61239507161E+03  0.61239507161E+03  0.00000000000E+00 0. -1.
         21   -1    0    0  501  502  0.00000000000E+00 -0.00000000000E+00 -0.12342950739E+03  0.12342950739E+03  0.00000000000E+00 0.  1.
        -13    1    1    2    0    0  0.15875372020E+03  0.95397868304E+02  0.35229931916E+02  0.18853290488E+03  0.10566000000E+00 0.  1.
         13    1    1    2    0    0 -0.15226175008E+03 -0.86048619513E+02  0.48417461208E+03  0.51479420315E+03  0.10566000000E+00 0. -1.
         -4    1    1    2    0  502 -0.64919701249E+01 -0.93492487907E+01 -0.30438979776E+02  0.32497470961E+02  0.00000000000E+00 0. -1.
</event>
<event>
 5    1  0.2540860E-005  0.5220987E+03  0.7818608E-02  0.9430809E-01
         -4   -1    0    0    0  501 -0.00000000000E+00  0.00000000000E+00  0.11459570774E+04  0.11459570774E+04  0.00000000000E+00 0. -1.
         21   -1    0    0  501  502  0.00000000000E+00 -0.00000000000E+00 -0.12022063618E+04  0.12022063618E+04  0.00000000000E+00 0. -1.
        -13    1    1    2    0    0 -0.36993209154E+03 -0.35072096507E+03  0.81366765321E+03  0.96016144931E+03  0.10566000000E+00 0.  1.
         13    1    1    2    0    0  0.41451896863E+03  0.57357739025E+03 -0.91455627135E+03  0.11563866925E+04  0.10566000000E+00 0. -1.
         -4    1    1    2    0  502 -0.44586877082E+02 -0.22285642519E+03  0.44639333726E+02  0.23161529736E+03  0.00000000000E+00 0. -1.
</event>
<event>
 5    1  0.2540860E-005  0.3345146E+03  0.7818608E-02  0.9939982E-01
          4   -1    0    0  502    0 -0.00000000000E+00  0.00000000000E+00  0.18898985565E+04  0.18898985565E+04  0.00000000000E+00 0.  1.
         21   -1    0    0  501  502  0.00000000000E+00 -0.00000000000E+00 -0.39036784823E+03  0.39036784823E+03  0.00000000000E+00 0.  1.
        -13    1    1    2    0    0  0.47918401437E+03 -0.13025204938E+03  0.57046876556E+03  0.75631841154E+03  0.10566000000E+00 0.  1.
         13    1    1    2    0    0 -0.19364649705E+03  0.24706571088E+03  0.11186380168E+04  0.11618482926E+04  0.10566000000E+00 0. -1.
          4    1    1    2  501    0 -0.28553751731E+03 -0.11681366150E+03 -0.18957607406E+03  0.36209970058E+03  0.00000000000E+00 0.  1.
</event>
<event>
 5    1  0.2540860E-005  0.1074226E+03  0.7818608E-02  0.1177731E+00
          4   -1    0    0  502    0 -0.00000000000E+00  0.00000000000E+00  0.29159913607E+03  0.29159913607E+03  0.00000000000E+00 0.  1.
         21   -1    0    0  501  502  0.00000000000E+00 -0.00000000000E+00 -0.95961618448E+03  0.95961618448E+03  0.00000000000E+00 0.  1.
        -13    1    1    2    0    0 -0.93505390531E+02  0.11724905425E+03  0.25605276251E+03  0.29673831424E+03  0.10566000000E+00 0.  1.
         13    1    1    2    0    0  0.56399857642E+02 -0.16885566180E+02 -0.60916655293E+02  0.84716682793E+02  0.10566000000E+00 0. -1.
          4    1    1    2  501    0  0.37105532889E+02 -0.10036348807E+03 -0.86315315563E+03  0.86976032353E+03  0.00000000000E+00 0.  1.
</event>
<event>
 5    1  0.2540860E-005  0.7362475E+03  0.7818608E-02  0.9071992E-01
         21   -1    0    0  501  502  0.00000000000E+00  0.00000000000E+00  0.58039492149E+03  0.58039492149E+03  0.00000000000E+00 0. -1.
          4   -1    0    0  502    0 -0.00000000000E+00 -0.00000000000E+00 -0.15972125605E+04  0.15972125605E+04  0.00000000000E+00 0.  1.
        -13    1    1    2    0    0  0.31140511173E+03 -0.76391987345E+03 -0.81722838911E+03  0.11612101308E+04  0.10566000000E+00 0.  1.
         13    1    1    2    0    0 -0.57427901733E+01  0.60441488807E+03  0.24937733633E+02  0.60495639371E+03  0.10566000000E+00 0. -1.
          4    1    1    2  501    0 -0.30566232155E+03  0.15950498538E+03 -0.22452698349E+03  0.41144095748E+03  0.00000000000E+00 0.  1.
</event>
<event>
 5    1  0.2540860E-005  0.3267991E+02  0.7818608E-02  0.1408444E+00
         -4   -1    0    0    0  501 -0.00000000000E+00  0.00000000000E+00  0.13745914959E+03  0.13745914959E+03  0.00000000000E+00 0. -1.
         21   -1    0    0  501  502  0.00000000000E+00 -0.00000000000E+00 -0.68179088595E+02  0.68179088595E+02  0.00000000000E+00 0. -1.
        -13    1    1    2    0    0  0.16507419147E+02 -0.14373188375E+02  0.55655655168E+01  0.22584731890E+02  0.10566000000E+00 0.  1.
         13    1    1    2    0    0 -0.46829224405E+02  0.24299712778E+02  0.11278953182E+03  0.12451884175E+03  0.10566000000E+00 0. -1.
         -4    1    1    2    0  502  0.30321805258E+02 -0.99265244025E+01 -0.49075036342E+02  0.58534664540E+02  0.00000000000E+00 0. -1.
</event>
<event>
 5    1  0.2540860E-005  0.4877498E+03  0.7818608E-02  0.9619705E-01
         21   -1    0    0  501  502  0.00000000000E+00  0.00000000000E+00  0.20750879608E+03  0.20750879608E+03  0.00000000000E+00 0. -1.
         -4   -1    0    0    0  501 -0.00000000000E+00 -0.00000000000E+00 -0.23525226977E+04  0.23525226977E+04  0.00000000000E+00 0. -1.
        -13    1    1    2    0    0  0.20896469293E+03  0.24700864513E+03 -0.27873518212E+03  0.42705131609E+03  0.10566000000E+00 0.  1.
         13    1    1    2    0    0  0.38282218139E+03 -0.21496107658E+03 -0.84243309368E+03  0.94997611312E+03  0.10566000000E+00 0. -1.
         -4    1    1    2    0  502 -0.59178687432E+03 -0.32047568552E+02 -0.10238456258E+04  0.11830040646E+04  0.00000000000E+00 0. -1.
</event>
<event>
 5    1  0.2540860E-005  0.4391608E+03  0.7818608E-02  0.9788923E-01
         -4   -1    0    0    0  501 -0.00000000000E+00  0.00000000000E+00  0.26933078283E+04  0.26933078283E+04  0.00000000000E+00 0. -1.
         21   -1    0    0  501  502  0.00000000000E+00 -0.00000000000E+00 -0.13446494373E+03  0.13446494373E+03  0.00000000000E+00 0. -1.
        -13    1    1    2    0    0 -0.21891108393E+03  0.11212904231E+03  0.91466088930E+03  0.94715338694E+03  0.10566000000E+00 0.  1.
         13    1    1    2    0    0  0.54709280552E+03  0.15427165762E+02  0.83792662683E+03  0.10008344411E+04  0.10566000000E+00 0. -1.
         -4    1    1    2    0  502 -0.32818172159E+03 -0.12755620807E+03  0.80625536844E+03  0.87978494403E+03  0.00000000000E+00 0. -1.
</event>
<event>
 5    1  0.2540860E-005  0.6063337E+02  0.7818608E-02  0.1253684E+00
         21   -1    0    0  501  502  0.00000000000E+00  0.00000000000E+00  0.16224109355E+03  0.16224109355E+03  0.00000000000E+00 0. -1.
          4   -1    0    0  502    0 -0.00000000000E+00 -0.00000000000E+00 -0.54835650077E+02  0.54835650077E+02  0.00000000000E+00 0.  1.
        -13    1    1    2    0    0  0.28234850211E+02 -0.52537953713E+02 -0.22908119119E+02  0.63892381646E+02  0.10566000000E+00 0.  1.
         13    1    1    2    0    0 -0.39914532030E+02  0.52953623534E+02  0.93996149919E+02  0.11503279305E+03  0.10566000000E+00 0. -1.
          4    1    1    2  501    0  0.11679681819E+02 -0.41566982078E+00  0.36317412675E+02  0.38151568935E+02  0.00000000000E+00 0.  1.
</event>
<event>
 5    1  0.2608915E-005  0.2679720E+03  0.7818608E-02  0.1041787E+00
         -4   -1    0    0    0  501 -0.00000000000E+00  0.00000000000E+00  0.17062539484E+04  0.17062539484E+04  0.00000000000E+00 0. -1.
         21   -1    0    0  501  502  0.00000000000E+00 -0.00000000000E+00 -0.21627802940E+03  0.21627802940E+03  0.00000000000E+00 0. -1.
        -13    1    1    2    0    0 -0.16666896827E+02  0.14238073433E+03  0.44972545832E+03  0.47202018811E+03  0.10566000000E+00 0.  1.
         13    1    1    2    0    0  0.35621163347E+02 -0.39851471912E+03  0.11136932833E+04  0.11833831117E+04  0.10566000000E+00 0. -1.
         -4    1    1    2    0  502 -0.18954266521E+02  0.25613398479E+03 -0.73442822654E+02  0.26712867795E+03  0.00000000000E+00 0. -1.
</event>
<event>
 5    1  0.2540860E-005  0.4412771E+03  0.7818608E-02  0.9909142E-01
         -4   -1    0    0    0  501 -0.00000000000E+00  0.00000000000E+00  0.99333418107E+03  0.99333418107E+03  0.00000000000E+00 0. -1.
         21   -1    0    0  501  502  0.00000000000E+00 -0.00000000000E+00 -0.37014190909E+03  0.37014190909E+03  0.00000000000E+00 0. -1.
        -13    1    1    2    0    0 -0.16129708329E+03  0.76081172166E+01  0.22443206277E+03  0.27648579437E+03  0.10566000000E+00 0.  1.
         13    1    1    2    0    0  0.42974030214E+03 -0.21446412398E+03 -0.93552091481E+02  0.48930930171E+03  0.10566000000E+00 0. -1.
         -4    1    1    2    0  502 -0.26844321885E+03  0.20685600676E+03  0.49231230069E+03  0.59768099408E+03  0.00000000000E+00 0. -1.
</event>
<event>
 5    1  0.2540860E-005  0.6725772E+02  0.7818608E-02  0.1234112E+00
         21   -1    0    0  501  502  0.00000000000E+00  0.00000000000E+00  0.37931621934E+03  0.37931621934E+03  0.00000000000E+00 0.  1.
          4   -1    0    0  502    0 -0.00000000000E+00 -0.00000000000E+00 -0.36809172019E+02  0.36809172019E+02  0.00000000000E+00 0.  1.
        -13    1    1    2    0    0  0.65133475812E+02 -0.23039027129E+02  0.31084676981E+01  0.69158081074E+02  0.10566000000E+00 0.  1.
         13    1    1    2    0    0 -0.52938198591E+02  0.17247351770E+02  0.22551820880E+03  0.23228946958E+03  0.10566000000E+00 0. -1.
          4    1    1    2  501    0 -0.12195277221E+02  0.57916753594E+01  0.11388037083E+03  0.11467784071E+03  0.00000000000E+00 0.  1.
</event>
<event>
 5    1  0.2540860E-005  0.4237032E+03  0.7818608E-02  0.9793501E-01
         21   -1    0    0  501  502  0.00000000000E+00  0.00000000000E+00  0.13112522615E+03  0.13112522615E+03  0.00000000000E+00 0. -1.
         -4   -1    0    0    0  501 -0.00000000000E+00 -0.00000000000E+00 -0.34082194232E+04  0.34082194232E+04  0.00000000000E+00 0. -1.
        -13    1    1    2    0    0  0.25839845317E+03 -0.76960922505E+02 -0.99092675810E+03  0.10269511163E+04  0.10566000000E+00 0.  1.
         13    1    1    2    0    0 -0.47147067371E+03 -0.26515000579E+03 -0.18071993790E+04  0.18864142516E+04  0.10566000000E+00 0. -1.
         -4    1    1    2    0  502  0.21307222054E+03  0.34211092830E+03 -0.47896805990E+03  0.62597928147E+03  0.00000000000E+00 0. -1.
</event>
<event>
 5    1  0.2540860E-005  0.1372495E+03  0.7818608E-02  0.1114415E+00
         -4   -1    0    0    0  501 -0.00000000000E+00  0.00000000000E+00  0.30595530974E+03  0.30595530974E+03  0.00000000000E+00 0. -1.
         21   -1    0    0  501  502  0.00000000000E+00 -0.00000000000E+00 -0.11624467977E+03  0.11624467977E+03  0.00000000000E+00 0.  1.
        -13    1    1    2    0    0 -0.47255237665E+02 -0.12004249706E+03 -0.26720922415E+01  0.12903646705E+03  0.10566000000E+00 0.  1.
         13    1    1    2    0    0  0.44497370493E+02  0.13255391308E+03  0.22116575246E+03  0.26165790086E+03  0.10566000000E+00 0. -1.
         -4    1    1    2    0  502  0.27578671723E+01 -0.12511416020E+02 -0.28783030249E+02  0.31505621601E+02  0.00000000000E+00 0. -1.
</event>
<event>
 5    1  0.2540860E-005  0.2944363E+03  0.7818608E-02  0.1018467E+00
          4   -1    0    0  502    0 -0.00000000000E+00  0.00000000000E+00  0.17977594312E+03  0.17977594312E+03  0.00000000000E+00 0.  1.
         21   -1    0    0  501  502  0.00000000000E+00 -0.00000000000E+00 -0.15292715963E+04  0.15292715963E+04  0.00000000000E+00 0.  1.
        -13    1    1    2    0    0 -0.18367362031E+02 -0.35542956625E+03 -0.14332792795E+03  0.38368013064E+03  0.10566000000E+00 0.  1.
         13    1    1    2    0    0 -0.17683416703E+03  0.13442904716E+03 -0.30591052046E+03  0.37805125187E+03  0.10566000000E+00 0. -1.
          4    1    1    2  501    0  0.19520152906E+03  0.22100051909E+03 -0.90025720475E+03  0.94731615688E+03  0.00000000000E+00 0.  1.
</event>
<event>
 5    1  0.2540860E-005  0.8836250E+02  0.7818608E-02  0.1185393E+00
          4   -1    0    0  502    0 -0.00000000000E+00  0.00000000000E+00  0.21564709352E+03  0.21564709352E+03  0.00000000000E+00 0.  1.
         21   -1    0    0  501  502  0.00000000000E+00 -0.00000000000E+00 -0.45338119264E+03  0.45338119264E+03  0.00000000000E+00 0.  1.
        -13    1    1    2    0    0 -0.10857930771E+02 -0.87313585305E+02  0.17417870095E+03  0.19514043115E+03  0.10566000000E+00 0.  1.
         13    1    1    2    0    0 -0.23925083259E+01  0.91662608078E+02 -0.37259268145E+02  0.98974855607E+02  0.10566000000E+00 0. -1.
          4    1    1    2  501    0  0.13250439097E+02 -0.43490227732E+01 -0.37465353193E+03  0.37491299940E+03  0.00000000000E+00 0.  1.
</event>
<event>
 5    1  0.2540860E-005  0.1262884E+03  0.7818608E-02  0.1127172E+00
         -4   -1    0    0    0  501 -0.00000000000E+00  0.00000000000E+00  0.45382366200E+03  0.45382366200E+03  0.00000000000E+00 0. -1.
         21   -1    0    0  501  502  0.00000000000E+00 -0.00000000000E+00 -0.89137469025E+02  0.89137469025E+02  0.00000000000E+00 0.  1.
        -13    1    1    2    0    0  0.12156786916E+03 -0.45867191149E+02  0.97006779250E+01  0.13029451390E+03  0.10566000000E+00 0.  1.
         13    1    1    2    0    0 -0.12227135639E+03  0.29602719806E+02  0.36982601511E+03  0.39063780952E+03  0.10566000000E+00 0. -1.
         -4    1    1    2    0  502  0.70348722812E+00  0.16264471344E+02 -0.14840500058E+02  0.22028807602E+02  0.00000000000E+00 0. -1.
</event>
<event>
 5    1  0.2540860E-005  0.2986782E+03  0.7818608E-02  0.1058286E+00
         -4   -1    0    0    0  501 -0.00000000000E+00  0.00000000000E+00  0.20673957292E+04  0.20673957292E+04  0.00000000000E+00 0. -1.
         21   -1    0    0  501  502  0.00000000000E+00 -0.00000000000E+00 -0.14523804100E+03  0.14523804100E+03  0.00000000000E+00 0. -1.
        -13    1    1    2    0    0  0.21748290264E+02 -0.59537209163E+02  0.24394384177E+03  0.25204419554E+03  0.10566000000E+00 0.  1.
         13    1    1    2    0    0  0.27817212650E+03  0.31200503238E+02  0.16319737874E+04  0.16558054406E+04  0.10566000000E+00 0. -1.
         -4    1    1    2    0  502 -0.29992041676E+03  0.28336705925E+02  0.46240059036E+02  0.30478413402E+03  0.00000000000E+00 0. -1.
</event>
<event>
 5    1  0.2540860E-005  0.4605370E+03  0.7818608E-02  0.9596747E-01
         21   -1    0    0  501  502  0.00000000000E+00  0.00000000000E+00  0.18191038716E+03  0.18191038716E+03  0.00000000000E+00 0.  1.
          4   -1    0    0  502    0 -0.00000000000E+00 -0.00000000000E+00 -0.31421514818E+04  0.31421514818E+04  0.00000000000E+00 0.  1.
        -13    1    1    2    0    0 -0.37044655649E+03  0.37227376043E+03 -0.16533075329E+04  0.17347173295E+04  0.10566000000E+00 0.  1.
         13    1    1    2    0    0  0.40109421227E+03  0.11406670988E+03 -0.61427799067E+03  0.74244544742E+03  0.10566000000E+00 0. -1.
          4    1    1    2  501    0 -0.30647655773E+02 -0.48634047031E+03 -0.69265557107E+03  0.84689909199E+03  0.00000000000E+00 0.  1.
</event>
<event>
 5    1  0.2540860E-005  0.1569045E+02  0.7818608E-02  0.1604955E+00
         21   -1    0    0  501  502  0.00000000000E+00  0.00000000000E+00  0.13214325012E+03  0.13214325012E+03  0.00000000000E+00 0.  1.
          4   -1    0    0  502    0 -0.00000000000E+00 -0.00000000000E+00 -0.17705199577E+02  0.17705199577E+02  0.00000000000E+00 0.  1.
        -13    1    1    2    0    0  0.88140643251E+01  0.15373178361E+02 -0.11374488245E+02  0.21057361889E+02  0.10566000000E+00 0.  1.
         13    1    1    2    0    0 -0.11439347777E+02  0.20292997481E+00  0.62439627779E+02  0.63479273306E+02  0.10566000000E+00 0. -1.
          4    1    1    2  501    0  0.26252834517E+01 -0.15576108335E+02  0.63372911010E+02  0.65311814505E+02  0.00000000000E+00 0.  1.
</event>
<event>
 5    1  0.2540860E-005  0.2160758E+03  0.7818608E-02  0.1049641E+00
         -4   -1    0    0    0  501 -0.00000000000E+00  0.00000000000E+00  0.13512272875E+04  0.13512272875E+04  0.00000000000E+00 0. -1.
         21   -1    0    0  501  502  0.00000000000E+00 -0.00000000000E+00 -0.75350639036E+02  0.75350639036E+02  0.00000000000E+00 0.  1.
        -13    1    1    2    0    0  0.56371710984E+02 -0.23155489289E+03  0.29001866140E+03  0.37537484378E+03  0.10566000000E+00 0.  1.
         13    1    1    2    0    0  0.44629063003E+02  0.21000838055E+03  0.86954586136E+03  0.89565913680E+03  0.10566000000E+00 0. -1.
         -4    1    1    2    0  502 -0.10100077399E+03  0.21546512340E+02  0.11631212574E+03  0.15554394599E+03  0.00000000000E+00 0. -1.
</event>
<event>
 5    1  0.2540860E-005  0.4378053E+02  0.7818608E-02  0.1319415E+00
         21   -1    0    0  501  502  0.00000000000E+00  0.00000000000E+00  0.23021962515E+03  0.23021962515E+03  0.00000000000E+00 0. -1.
          4   -1    0    0  502    0 -0.00000000000E+00 -0.00000000000E+00 -0.17234573852E+02  0.17234573852E+02  0.00000000000E+00 0.  1.
        -13    1    1    2    0    0  0.39587573809E+02  0.36515460422E+01  0.30374472149E+02  0.50031285322E+02  0.10566000000E+00 0.  1.
         13    1    1    2    0    0 -0.55776515657E+02 -0.38271762137E+01  0.11457653578E+03  0.12748906107E+03  0.10566000000E+00 0. -1.
          4    1    1    2  501    0  0.16188941847E+02  0.17563017148E+00  0.68034043369E+02  0.69933852613E+02  0.00000000000E+00 0.  1.
</event>
<event>
 5    1  0.2540860E-005  0.4454599E+03  0.7818608E-02  0.9606261E-01
         -4   -1    0    0    0  501 -0.00000000000E+00  0.00000000000E+00  0.14398520075E+04  0.14398520075E+04  0.00000000000E+00 0. -1.
         21   -1    0    0  501  502  0.00000000000E+00 -0.00000000000E+00 -0.19646540865E+03  0.19646540865E+03  0.00000000000E+00 0.  1.
        -13    1    1    2    0    0  0.26075891979E+03 -0.35266232424E+03  0.89992329934E+03  0.10011133228E+04  0.10566000000E+00 0.  1.
         13    1    1    2    0    0 -0.23466617609E+03  0.39884271052E+03  0.35207940474E+03  0.58146680072E+03  0.10566000000E+00 0. -1.
         -4    1    1    2    0  502 -0.26092743697E+02 -0.46180386274E+02 -0.86161052503E+01  0.53737292635E+02  0.00000000000E+00 0. -1.
</event>
<event>
 5    1  0.2540860E-005  0.8511849E+03  0.7818608E-02  0.8928593E-01
         -4   -1    0    0    0  501 -0.00000000000E+00  0.00000000000E+00  0.11394294232E+04  0.11394294232E+04  0.00000000000E+00 0. -1.
         21   -1    0    0  501  502  0.00000000000E+00 -0.00000000000E+00 -0.11899321208E+04  0.11899321208E+04  0.00000000000E+00 0.  1.
        -13    1    1    2    0    0 -0.88030598019E+03  0.18482030289E+03  0.30166654997E+03  0.94873593884E+03  0.10566000000E+00 0.  1.
         13    1    1    2    0    0  0.78355420290E+03 -0.17990905966E+03  0.19310737570E+03  0.82681009207E+03  0.10566000000E+00 0. -1.
         -4    1    1    2    0  502  0.96751777283E+02 -0.49112432275E+01 -0.54527662325E+03  0.55381551312E+03  0.00000000000E+00 0. -1.
</event>
<event>
 5    1  0.2540860E-005  0.2483530E+03  0.7818608E-02  0.1042807E+00
          4   -1    0    0  502    0 -0.00000000000E+00  0.00000000000E+00  0.12490827982E+04  0.12490827982E+04  0.00000000000E+00 0.  1.
         21   -1    0    0  501  502  0.00000000000E+00 -0.00000000000E+00 -0.44390670785E+03  0.44390670785E+03  0.00000000000E+00 0. -1.
        -13    1    1    2    0    0  0.47474526229E+02  0.20241913831E+03  0.96643035350E+03  0.98854184410E+03  0.10566000000E+00 0.  1.
         13    1    1    2    0    0 -0.33623786938E+03 -0.13656016380E+03 -0.18495183452E+03  0.40732269198E+03  0.10566000000E+00 0. -1.
          4    1    1    2  501    0  0.28876334315E+03 -0.65858974506E+02  0.23697571322E+02  0.29712496993E+03  0.00000000000E+00 0.  1.
</event>
<event>
 5    1  0.2540860E-005  0.4960918E+03  0.7818608E-02  0.9610684E-01
         21   -1    0    0  501  502  0.00000000000E+00  0.00000000000E+00  0.14785782358E+03  0.14785782358E+03  0.00000000000E+00 0.  1.
          4   -1    0    0  502    0 -0.00000000000E+00 -0.00000000000E+00 -0.32098427358E+04  0.32098427358E+04  0.00000000000E+00 0.  1.
        -13    1    1    2    0    0 -0.32227242757E+03  0.39457861450E+03 -0.94433766177E+03  0.10729983370E+04  0.10566000000E+00 0.  1.
         13    1    1    2    0    0 -0.19344280347E+03 -0.25175150846E+03 -0.67301530092E+03  0.74414282679E+03  0.10566000000E+00 0. -1.
          4    1    1    2  501    0  0.51571523104E+03 -0.14282710603E+03 -0.14446319495E+04  0.15405593956E+04  0.00000000000E+00 0.  1.
</event>
<event>
 5    1  0.2540860E-005  0.2947904E+03  0.7818608E-02  0.1040465E+00
         -4   -1    0    0    0  501 -0.00000000000E+00  0.00000000000E+00  0.45619057037E+03  0.45619057037E+03  0.00000000000E+00 0. -1.
         21   -1    0    0  501  502  0.00000000000E+00 -0.00000000000E+00 -0.74223087088E+03  0.74223087088E+03  0.00000000000E+00 0. -1.
        -13    1    1    2    0    0  0.37306002515E+02 -0.10568035052E+03  0.51695491188E+02  0.12342005219E+03  0.10566000000E+00 0.  1.
         13    1    1    2    0    0 -0.31829151444E+03  0.17319579405E+03  0.23611047215E+03  0.43249790458E+03  0.10566000000E+00 0. -1.
         -4    1    1    2    0  502  0.28098551193E+03 -0.67515443527E+02 -0.57384626385E+03  0.64250348447E+03  0.00000000000E+00 0. -1.
</event>
<event>
 5    1  0.2540860E-005  0.1547215E+03  0.7818608E-02  0.1096546E+00
         21   -1    0    0  501  502  0.00000000000E+00  0.00000000000E+00  0.53105738082E+03  0.53105738082E+03  0.00000000000E+00 0. -1.
          4   -1    0    0  502    0 -0.00000000000E+00 -0.00000000000E+00 -0.59413671215E+02  0.59413671215E+02  0.00000000000E+00 0.  1.
        -13    1    1    2    0    0 -0.59001176923E+02 -0.14474506903E+03  0.10679854606E+03  0.18930983728E+03  0.10566000000E+00 0.  1.
         13    1    1    2    0    0  0.46343514430E+02  0.14423210332E+03  0.31222416620E+03  0.34703683101E+03  0.10566000000E+00 0. -1.
          4    1    1    2  501    0  0.12657662492E+02  0.51296571304E+00  0.52620997348E+02  0.54124383742E+02  0.00000000000E+00 0.  1.
</event>
<event>
 5    1  0.2540860E-005  0.2279001E+02  0.7818608E-02  0.1486586E+00
         -4   -1    0    0    0  501 -0.00000000000E+00  0.00000000000E+00  0.19981926444E+03  0.19981926444E+03  0.00000000000E+00 0. -1.
         21   -1    0    0  501  502  0.00000000000E+00 -0.00000000000E+00 -0.15759207605E+02  0.15759207605E+02  0.00000000000E+00 0. -1.
        -13    1    1    2    0    0  0.57152256381E+01  0.18106183492E+02 -0.19635270800E+01  0.19088328564E+02  0.10566000000E+00 0.  1.
         13    1    1    2    0    0 -0.24021249161E+02 -0.27122770175E+02  0.15624467644E+03  0.16039038361E+03  0.10566000000E+00 0. -1.
         -4    1    1    2    0  502  0.18306023523E+02  0.90165866829E+01  0.29778907470E+02  0.36099759871E+02  0.00000000000E+00 0. -1.
</event>
<event>
 5    1  0.2540860E-005  0.4347777E+03  0.7818608E-02  0.9826442E-01
         21   -1    0    0  501  502  0.00000000000E+00  0.00000000000E+00  0.39178017723E+03  0.39178017723E+03  0.00000000000E+00 0.  1.
          4   -1    0    0  502    0 -0.00000000000E+00 -0.00000000000E+00 -0.10811139332E+04  0.10811139332E+04  0.00000000000E+00 0.  1.
        -13    1    1    2    0    0 -0.29626806858E+03  0.28997135238E+03 -0.47629380338E+03  0.63143800327E+03  0.10566000000E+00 0.  1.
         13    1    1    2    0    0  0.16782721251E+03  0.14690843343E+03 -0.30404462788E+03  0.37708249493E+03  0.10566000000E+00 0. -1.
          4    1    1    2  501    0  0.12844085608E+03 -0.43687978581E+03  0.91004675343E+02  0.46437361219E+03  0.00000000000E+00 0.  1.
</event>
<event>
 5    1  0.2540860E-005  0.1332672E+03  0.7818608E-02  0.1118896E+00
         21   -1    0    0  501  502  0.00000000000E+00  0.00000000000E+00  0.43495060767E+03  0.43495060767E+03  0.00000000000E+00 0. -1.
         -4   -1    0    0    0  501 -0.00000000000E+00 -0.00000000000E+00 -0.65167021160E+03  0.65167021160E+03  0.00000000000E+00 0. -1.
        -13    1    1    2    0    0  0.66271703816E+02  0.10518316211E+03 -0.47421349476E+03  0.49023860119E+03  0.10566000000E+00 0.  1.
         13    1    1    2    0    0 -0.79981102751E+02 -0.22814322457E+03 -0.65525663798E+02  0.25047940333E+03  0.10566000000E+00 0. -1.
         -4    1    1    2    0  502  0.13709398934E+02  0.12296006246E+03  0.32301955463E+03  0.34590281475E+03  0.00000000000E+00 0. -1.
</event>
<event>
 5    1  0.2540860E-005  0.4354582E+03  0.7818608E-02  0.9718927E-01
         -4   -1    0    0    0  501 -0.00000000000E+00  0.00000000000E+00  0.23283812691E+04  0.23283812691E+04  0.00000000000E+00 0. -1.
         21   -1    0    0  501  502  0.00000000000E+00 -0.00000000000E+00 -0.27208084591E+03  0.27208084591E+03  0.00000000000E+00 0. -1.
        -13    1    1    2    0    0  0.32050709866E+03 -0.19414075956E+02  0.11734565721E+04  0.12165944453E+04  0.10566000000E+00 0.  1.
         13    1    1    2    0    0 -0.29289890671E+03 -0.41786047570E+03  0.78281387701E+03  0.93444888780E+03  0.10566000000E+00 0. -1.
         -4    1    1    2    0  502 -0.27608191950E+02  0.43727455165E+03  0.10002997406E+03  0.44941878187E+03  0.00000000000E+00 0. -1.
</event>
<event>
 5    1  0.2540860E-005  0.5033488E+03  0.7818608E-02  0.9892278E-01
         21   -1    0    0  501  502  0.00000000000E+00  0.00000000000E+00  0.48787426829E+03  0.48787426829E+03  0.00000000000E+00 0.  1.
          4   -1    0    0  502    0 -0.00000000000E+00 -0.00000000000E+00 -0.82003291703E+03  0.82003291703E+03  0.00000000000E+00 0.  1.
        -13    1    1    2    0    0 -0.48688201654E+03  0.11200145004E+03 -0.16567225807E+02  0.49987289082E+03  0.10566000000E+00 0.  1.
         13    1    1    2    0    0  0.24307524988E+02  0.11251971220E+03 -0.26797054831E+03  0.29165007685E+03  0.10566000000E+00 0. -1.
          4    1    1    2  501    0  0.46257449155E+03 -0.22452116224E+03 -0.47620874625E+02  0.51638421764E+03  0.00000000000E+00 0.  1.
</event>
<event>
 5    1  0.2540860E-005  0.4883411E+03  0.7818608E-02  0.9700499E-01
         -4   -1    0    0    0  501 -0.00000000000E+00  0.00000000000E+00  0.10563242013E+04  0.10563242013E+04  0.00000000000E+00 0. -1.
         21   -1    0    0  501  502  0.00000000000E+00 -0.00000000000E+00 -0.38701863887E+03  0.38701863887E+03  0.00000000000E+00 0. -1.
        -13    1    1    2    0    0 -0.20817327613E+03  0.12482262964E+03  0.70126764834E+02  0.25265505353E+03  0.10566000000E+00 0.  1.
         13    1    1    2    0    0 -0.14878747407E+03 -0.47921301081E+03  0.42749022693E+03  0.65918944731E+03  0.10566000000E+00 0. -1.
         -4    1    1    2    0  502  0.35696075019E+03  0.35439038117E+03  0.17168857070E+03  0.53149833937E+03  0.00000000000E+00 0. -1.
</event>
<event>
 5    1  0.2540860E-005  0.5183112E+03  0.7818608E-02  0.9443724E-01
         21   -1    0    0  501  502  0.00000000000E+00  0.00000000000E+00  0.10723579276E+04  0.10723579276E+04  0.00000000000E+00 0.  1.
          4   -1    0    0  502    0 -0.00000000000E+00 -0.00000000000E+00 -0.77675517692E+03  0.77675517692E+03  0.00000000000E+00 0.  1.
        -13    1    1    2    0    0 -0.14307500054E+03  0.43462085098E+03  0.44426566031E+01  0.45758659098E+03  0.10566000000E+00 0.  1.
         13    1    1    2    0    0  0.51577894215E+03  0.87247398325E+02 -0.22389609816E+03  0.56900746885E+03  0.10566000000E+00 0. -1.
          4    1    1    2  501    0 -0.37270394161E+03 -0.52186824930E+03  0.51505619228E+03  0.82251904472E+03  0.00000000000E+00 0.  1.
</event>
<event>
 5    1  0.2540860E-005  0.3892383E+03  0.7818608E-02  0.9760650E-01
          4   -1    0    0  502    0 -0.00000000000E+00  0.00000000000E+00  0.37797147559E+03  0.37797147559E+03  0.00000000000E+00 0.  1.
         21   -1    0    0  501  502  0.00000000000E+00 -0.00000000000E+00 -0.14292905634E+04  0.14292905634E+04  0.00000000000E+00 0.  1.
        -13    1    1    2    0    0  0.38518389268E+03 -0.11040905132E+03  0.15959399352E+03  0.43130852498E+03  0.10566000000E+00 0.  1.
         13    1    1    2    0    0 -0.32345128987E+03  0.15722720038E+03 -0.31914804773E+03  0.48082909333E+03  0.10566000000E+00 0. -1.
          4    1    1    2  501    0 -0.61732602806E+02 -0.46818149062E+02 -0.89176503356E+03  0.89512442063E+03  0.00000000000E+00 0.  1.
</event>
<event>
 5    1  0.2540860E-005  0.4279558E+03  0.7818608E-02  0.9887148E-01
         -4   -1    0    0    0  501 -0.00000000000E+00  0.00000000000E+00  0.14378977818E+04  0.14378977818E+04  0.00000000000E+00 0. -1.
         21   -1    0    0  501  502  0.00000000000E+00 -0.00000000000E+00 -0.28930474696E+03  0.28930474696E+03  0.00000000000E+00 0. -1.
        -13    1    1    2    0    0 -0.10568380674E+03 -0.15855896856E+03  0.45076668139E+03  0.48938801143E+03  0.10566000000E+00 0.  1.
         13    1    1    2    0    0  0.23805334678E+03  0.51866670531E+03  0.62670863269E+03  0.84761327772E+03  0.10566000000E+00 0. -1.
         -4    1    1    2    0  502 -0.13236954004E+03 -0.36010773675E+03  0.71117720781E+02  0.39020123963E+03  0.00000000000E+00 0. -1.
</event>
<event>
 5    1  0.2540860E-005  0.4954842E+03  0.7818608E-02  0.9558334E-01
          4   -1    0    0  502    0 -0.00000000000E+00  0.00000000000E+00  0.55751015627E+03  0.55751015627E+03  0.00000000000E+00 0.  1.
         21   -1    0    0  501  502  0.00000000000E+00 -0.00000000000E+00 -0.95611274624E+03  0.95611274624E+03  0.00000000000E+00 0.  1.
        -13    1    1    2    0    0  0.18383158574E+03 -0.38167729539E+03 -0.51927019293E+02  0.42681147622E+03  0.10566000000E+00 0.  1.
         13    1    1    2    0    0  0.37812924560E+03  0.67581966177E+02 -0.16355459440E+03  0.41749151493E+03  0.10566000000E+00 0. -1.
          4    1    1    2  501    0 -0.56196083133E+03  0.31409532922E+03 -0.18312097628E+03  0.66931991136E+03  0.00000000000E+00 0.  1.
</event>
<event>
 5    1  0.2540860E-005  0.4789442E+02  0.7818608E-02  0.1300607E+00
         21   -1    0    0  501  502  0.00000000000E+00  0.00000000000E+00  0.24384127968E+03  0.24384127968E+03  0.00000000000E+00 0. -1.
         -4   -1    0    0    0  501 -0.00000000000E+00 -0.00000000000E+00 -0.12613833773E+04  0.12613833773E+04  0.00000000000E+00 0. -1.
        -13    1    1    2    0    0 -0.46755373587E+02  0.10245369910E+02 -0.23009970365E+03  0.23502535469E+03  0.10566000000E+00 0.  1.
         13    1    1    2    0    0  0.58697373466E+02  0.31526296101E+02  0.23631108359E+03  0.24552439469E+03  0.10566000000E+00 0. -1.
         -4    1    1    2    0  502 -0.11941999879E+02 -0.41771666011E+02 -0.10237534776E+04  0.10246749076E+04  0.00000000000E+00 0. -1.
</event>
<event>
 5    1  0.2540860E-005  0.2271451E+02  0.7818608E-02  0.1475262E+00
         21   -1    0    0  501  502  0.00000000000E+00  0.00000000000E+00  0.10208198043E+03  0.10208198043E+03  0.00000000000E+00 0. -1.
          4   -1    0    0  502    0 -0.00000000000E+00 -0.00000000000E+00 -0.27481006617E+02  0.27481006617E+02  0.00000000000E+00 0.  1.
        -13    1    1    2    0    0  0.20314913801E+02  0.10010438527E+02 -0.17979345740E+02  0.28916649867E+02  0.10566000000E+00 0.  1.
         13    1    1    2    0    0 -0.26531443009E+02  0.13090069430E+01  0.62022610651E+02  0.67471819031E+02  0.10566000000E+00 0. -1.
          4    1    1    2  501    0  0.62165292074E+01 -0.11319445470E+02  0.30557708903E+02  0.33174518150E+02  0.00000000000E+00 0.  1.
</event>
<event>
 5    1  0.2540860E-005  0.4957153E+03  0.7818608E-02  0.9750545E-01
          4   -1    0    0  502    0 -0.00000000000E+00  0.00000000000E+00  0.59411476002E+03  0.59411476002E+03  0.00000000000E+00 0.  1.
         21   -1    0    0  501  502  0.00000000000E+00 -0.00000000000E+00 -0.66784694830E+03  0.66784694830E+03  0.00000000000E+00 0.  1.
        -13    1    1    2    0    0  0.21932412217E+03 -0.37163352838E+03 -0.20023467398E+02  0.43199016238E+03  0.10566000000E+00 0.  1.
         13    1    1    2    0    0  0.19390913121E+03 -0.21621557036E+02  0.12555677120E+03  0.23201887176E+03  0.10566000000E+00 0. -1.
          4    1    1    2  501    0 -0.41323325338E+03  0.39325508542E+03 -0.17926549208E+03  0.59795267418E+03  0.00000000000E+00 0.  1.
</event>
<event>
 5    1  0.2540860E-005  0.9763746E+02  0.7818608E-02  0.1168525E+00
         21   -1    0    0  501  502  0.00000000000E+00  0.00000000000E+00  0.21097289324E+03  0.21097289324E+03  0.00000000000E+00 0. -1.
         -4   -1    0    0    0  501 -0.00000000000E+00 -0.00000000000E+00 -0.14244300667E+03  0.14244300667E+03  0.00000000000E+00 0. -1.
        -13    1    1    2    0    0  0.49420014198E+02 -0.48341567740E+02  0.44328167685E+02  0.82123337664E+02  0.10566000000E+00 0.  1.
         13    1    1    2    0    0 -0.10772692760E+03  0.32901272980E+02 -0.88645293457E+02  0.14333730816E+03  0.10566000000E+00 0. -1.
         -4    1    1    2    0  502  0.58306913403E+02  0.15440294760E+02  0.11284701235E+03  0.12795525409E+03  0.00000000000E+00 0. -1.
</event>
<event>
 5    1  0.2540860E-005  0.4154619E+03  0.7818608E-02  0.9844521E-01
         21   -1    0    0  501  502  0.00000000000E+00  0.00000000000E+00  0.93748043075E+03  0.93748043075E+03  0.00000000000E+00 0. -1.
         -4   -1    0    0    0  501 -0.00000000000E+00 -0.00000000000E+00 -0.74010870243E+03  0.74010870243E+03  0.00000000000E+00 0. -1.
        -13    1    1    2    0    0 -0.44743665166E+02  0.23622622334E+03 -0.41575337477E+03  0.48026628443E+03  0.10566000000E+00 0.  1.
         13    1    1    2    0    0 -0.28706948179E+03 -0.34292718742E+03  0.70680159459E+03  0.83640686781E+03  0.10566000000E+00 0. -1.
         -4    1    1    2    0  502  0.33181314696E+03  0.10670096408E+03 -0.93676491495E+02  0.36091598093E+03  0.00000000000E+00 0. -1.
</event>
<event>
 5    1  0.2540860E-005  0.1191818E+03  0.7818608E-02  0.1136221E+00
         21   -1    0    0  501  502  0.00000000000E+00  0.00000000000E+00  0.38904991815E+02  0.38904991815E+02  0.00000000000E+00 0.  1.
          4   -1    0    0  502    0 -0.00000000000E+00 -0.00000000000E+00 -0.64248301626E+03  0.64248301626E+03  0.00000000000E+00 0.  1.
        -13    1    1    2    0    0  0.26824270909E+02  0.12348648476E+03 -0.27172430391E+03  0.29967075588E+03  0.10566000000E+00 0.  1.
         13    1    1    2    0    0 -0.39165095232E+02 -0.10790041001E+03 -0.34102350000E+03  0.35982418191E+03  0.10566000000E+00 0. -1.
          4    1    1    2  501    0  0.12340824324E+02 -0.15586074748E+02  0.91697794737E+01  0.21893070288E+02  0.00000000000E+00 0.  1.
</event>
<event>
 5    1  0.2540860E-005  0.4809386E+03  0.7818608E-02  0.9644985E-01
         -4   -1    0    0    0  501 -0.00000000000E+00  0.00000000000E+00  0.18481994418E+04  0.18481994418E+04  0.00000000000E+00 0. -1.
         21   -1    0    0  501  502  0.00000000000E+00 -0.00000000000E+00 -0.25857365743E+03  0.25857365743E+03  0.00000000000E+00 0. -1.
        -13    1    1    2    0    0 -0.18502651160E+03  0.24704217843E+03  0.51873244527E+03  0.60361246580E+03  0.10566000000E+00 0.  1.
         13    1    1    2    0    0 -0.32818742018E+03  0.12797289067E+02  0.80503032276E+03  0.86945073759E+03  0.10566000000E+00 0. -1.
         -4    1    1    2    0  502  0.51321393178E+03 -0.25983946750E+03  0.26586301637E+03  0.63370989587E+03  0.00000000000E+00 0. -1.
</event>
<event>
 5    1  0.2540860E-005  0.1056512E+04  0.7818608E-02  0.8723232E-01
         21   -1    0    0  501  502  0.00000000000E+00  0.00000000000E+00  0.91248284102E+03  0.91248284102E+03  0.00000000000E+00 0. -1.
          4   -1    0    0  502    0 -0.00000000000E+00 -0.00000000000E+00 -0.18042633731E+04  0.18042633731E+04  0.00000000000E+00 0.  1.
        -13    1    1    2    0    0 -0.10804719741E+04 -0.32093904229E+03 -0.14431857760E+01  0.11271307154E+04  0.10566000000E+00 0.  1.
         13    1    1    2    0    0  0.88843624669E+03  0.52813310009E+03 -0.72195765015E+03  0.12607404156E+04  0.10566000000E+00 0. -1.
          4    1    1    2  501    0  0.19203572740E+03 -0.20719405780E+03 -0.16837969610E+03  0.32887508304E+03  0.00000000000E+00 0.  1.
</event>
<event>
 5    1  0.2540860E-005  0.3480835E+03  0.7818608E-02  0.9975100E-01
          4   -1    0    0  502    0 -0.00000000000E+00  0.00000000000E+00  0.18693724014E+04  0.18693724014E+04  0.00000000000E+00 0.  1.
         21   -1    0    0  501  502  0.00000000000E+00 -0.00000000000E+00 -0.28675053689E+03  0.28675053689E+03  0.00000000000E+00 0.  1.
        -13    1    1    2    0    0  0.10182691278E+03 -0.20684876464E+03  0.91837304511E+03  0.94687073708E+03  0.10566000000E+00 0.  1.
         13    1    1    2    0    0  0.25146480118E+03  0.81537456247E+02  0.77461854018E+03  0.81848445127E+03  0.10566000000E+00 0. -1.
          4    1    1    2  501    0 -0.35329171396E+03  0.12531130839E+03 -0.11036972075E+03  0.39076774998E+03  0.00000000000E+00 0.  1.
</event>
<event>
 5    1  0.2540860E-005  0.2598006E+02  0.7818608E-02  0.1440432E+00
         -4   -1    0    0    0  501 -0.00000000000E+00  0.00000000000E+00  0.10233900226E+03  0.10233900226E+03  0.00000000000E+00 0. -1.
         21   -1    0    0  501  502  0.00000000000E+00 -0.00000000000E+00 -0.20974874464E+02  0.20974874464E+02  0.00000000000E+00 0.  1.
        -13    1    1    2    0    0  0.11725129762E+02 -0.27046180496E+02  0.44533860521E+02  0.53406464443E+02  0.10566000000E+00 0.  1.
         13    1    1    2    0    0 -0.23330295196E+02  0.11712654636E+02  0.42483738386E+02  0.49863495102E+02  0.10566000000E+00 0. -1.
         -4    1    1    2    0  502  0.11605165434E+02  0.15333525860E+02 -0.56534711148E+01  0.20043917174E+02  0.00000000000E+00 0. -1.
</event>
<event>
 5    1  0.2540860E-005  0.3975905E+03  0.7818608E-02  0.9935323E-01
         -4   -1    0    0    0  501 -0.00000000000E+00  0.00000000000E+00  0.28724362812E+04  0.28724362812E+04  0.00000000000E+00 0. -1.
         21   -1    0    0  501  502  0.00000000000E+00 -0.00000000000E+00 -0.15023144278E+03  0.15023144278E+03  0.00000000000E+00 0. -1.
        -13    1    1    2    0    0  0.13047622986E+03 -0.15464447121E+03  0.12865027022E+03  0.23977043651E+03  0.10566000000E+00 0.  1.
         13    1    1    2    0    0 -0.50156844231E+03  0.12629656303E+03  0.21113010616E+04  0.21737327131E+04  0.10566000000E+00 0. -1.
         -4    1    1    2    0  502  0.37109221245E+03  0.28347908184E+02  0.48225350660E+03  0.60916457437E+03  0.00000000000E+00 0. -1.
</event>
<event>
 5    1  0.2540860E-005  0.1523757E+03  0.7818608E-02  0.1160416E+00
         -4   -1    0    0    0  501 -0.00000000000E+00  0.00000000000E+00  0.48734564595E+03  0.48734564595E+03  0.00000000000E+00 0. -1.
         21   -1    0    0  501  502  0.00000000000E+00 -0.00000000000E+00 -0.90993191783E+02  0.90993191783E+02  0.00000000000E+00 0. -1.
        -13    1    1    2    0    0 -0.28869715150E+02  0.11965922447E+02  0.17430819750E+03  0.17708755640E+03  0.10566000000E+00 0.  1.
         13    1    1    2    0    0 -0.13732100046E+03 -0.47329446881E+02  0.36705594898E+02  0.14981470412E+03  0.10566000000E+00 0. -1.
         -4    1    1    2    0  502  0.16619071561E+03  0.35363524433E+02  0.18533866177E+03  0.25143657722E+03  0.00000000000E+00 0. -1.
</event>
<event>
 5    1  0.2540860E-005  0.2437855E+03  0.7818608E-02  0.1033664E+00
         21   -1    0    0  501  502  0.00000000000E+00  0.00000000000E+00  0.15565382381E+04  0.15565382381E+04  0.00000000000E+00 0. -1.
          4   -1    0    0  502    0 -0.00000000000E+00 -0.00000000000E+00 -0.14106146240E+03  0.14106146240E+03  0.00000000000E+00 0.  1.
        -13    1    1    2    0    0 -0.22553541936E+03  0.91848042490E+02 -0.68707045939E+01  0.24361754050E+03  0.10566000000E+00 0.  1.
         13    1    1    2    0    0  0.21327571782E+03 -0.12992107227E+03  0.13315329061E+04  0.13547493894E+04  0.10566000000E+00 0. -1.
          4    1    1    2  501    0  0.12259701540E+02  0.38073029783E+02  0.90814574211E+02  0.99232770635E+02  0.00000000000E+00 0.  1.
</event>
<event>
 5    1  0.2540860E-005  0.2624703E+03  0.7818608E-02  0.1024126E+00
         21   -1    0    0  501  502  0.00000000000E+00  0.00000000000E+00  0.54108662345E+03  0.54108662345E+03  0.00000000000E+00 0.  1.
         -4   -1    0    0    0  501 -0.00000000000E+00 -0.00000000000E+00 -0.43256088991E+03  0.43256088991E+03  0.00000000000E+00 0. -1.
        -13    1    1    2    0    0  0.21955652441E+03 -0.16657495511E+03  0.26763528959E+03  0.38416265108E+03  0.10566000000E+00 0.  1.
         13    1    1    2    0    0 -0.24222196486E+03  0.99199784749E+02 -0.32010375292E+03  0.41349546715E+03  0.10566000000E+00 0. -1.
         -4    1    1    2    0  502  0.22665440451E+02  0.67375170365E+02  0.16099419687E+03  0.17598939513E+03  0.00000000000E+00 0. -1.
</event>
<event>
 5    1  0.2540860E-005  0.1949577E+03  0.7818608E-02  0.1063649E+00
         -4   -1    0    0    0  501 -0.00000000000E+00  0.00000000000E+00  0.53601662479E+03  0.53601662479E+03  0.00000000000E+00 0. -1.
         21   -1    0    0  501  502  0.00000000000E+00 -0.00000000000E+00 -0.14927810636E+03  0.14927810636E+03  0.00000000000E+00 0.  1.
        -13    1    1    2    0    0 -0.92763562396E+02  0.18221230426E+03  0.60221262440E+02  0.21315021451E+03  0.10566000000E+00 0.  1.
         13    1    1    2    0    0  0.99868226794E+02 -0.16421892091E+03  0.37420676266E+03  0.42068067354E+03  0.10566000000E+00 0. -1.
         -4    1    1    2    0  502 -0.71046643981E+01 -0.17993383350E+02 -0.47689506669E+02  0.51463843103E+02  0.00000000000E+00 0. -1.
</event>
<event>
 5    1  0.2540860E-005  0.2482492E+03  0.7818608E-02  0.1031304E+00
          4   -1    0    0  502    0 -0.00000000000E+00  0.00000000000E+00  0.13560640362E+04  0.13560640362E+04  0.00000000000E+00 0.  1.
         21   -1    0    0  501  502  0.00000000000E+00 -0.00000000000E+00 -0.63056399825E+03  0.63056399825E+03  0.00000000000E+00 0.  1.
        -13    1    1    2    0    0  0.14989081339E+02  0.28083685219E+03  0.37709598939E+03  0.47042045713E+03  0.10566000000E+00 0.  1.
         13    1    1    2    0    0 -0.50913702555E+02 -0.23283080080E+03  0.91546766534E+03  0.94598279284E+03  0.10566000000E+00 0. -1.
          4    1    1    2  501    0  0.35924621216E+02 -0.48006051396E+02 -0.56706361676E+03  0.57022478448E+03  0.00000000000E+00 0.  1.
</event>
<event>
 5    1  0.2540860E-005  0.4971846E+03  0.7818608E-02  0.9611356E-01
          4   -1    0    0  502    0 -0.00000000000E+00  0.00000000000E+00  0.30148289536E+04  0.30148289536E+04  0.00000000000E+00 0.  1.
         21   -1    0    0  501  502  0.00000000000E+00 -0.00000000000E+00 -0.20018064604E+03  0.20018064604E+03  0.00000000000E+00 0.  1.
        -13    1    1    2    0    0 -0.27826345805E+03  0.38607491257E+03  0.69018613643E+03  0.83835631105E+03  0.10566000000E+00 0.  1.
         13    1    1    2    0    0  0.26189509045E+03  0.17439852372E+03  0.15197740207E+04  0.15520041781E+04  0.10566000000E+00 0. -1.
          4    1    1    2  501    0  0.16368367593E+02 -0.56047343630E+03  0.60468815042E+03  0.82464911053E+03  0.00000000000E+00 0.  1.
</event>
<event>
 5    1  0.2540860E-005  0.1030240E+03  0.7818608E-02  0.1159647E+00
         21   -1    0    0  501  502  0.00000000000E+00  0.00000000000E+00  0.75986431363E+03  0.75986431363E+03  0.00000000000E+00 0.  1.
          4   -1    0    0  502    0 -0.00000000000E+00 -0.00000000000E+00 -0.36621049013E+02  0.36621049013E+02  0.00000000000E+00 0.  1.
        -13    1    1    2    0    0  0.35745414654E+02  0.12949246898E+03  0.24973241855E+03  0.28357067237E+03  0.10566000000E+00 0.  1.
         13    1    1    2    0    0  0.26341233425E+02 -0.89267538148E+02  0.12062559253E+03  0.15235845458E+03  0.10566000000E+00 0. -1.
          4    1    1    2  501    0 -0.62086648080E+02 -0.40224930830E+02  0.35288525354E+03  0.36055623569E+03  0.00000000000E+00 0.  1.
</event>
<event>
 5    1  0.2540860E-005  0.7374086E+02  0.7818608E-02  0.1298696E+00
         -4   -1    0    0    0  501 -0.00000000000E+00  0.00000000000E+00  0.30489091495E+03  0.30489091495E+03  0.00000000000E+00 0. -1.
         21   -1    0    0  501  502  0.00000000000E+00 -0.00000000000E+00 -0.50955784436E+02  0.50955784436E+02  0.00000000000E+00 0. -1.
        -13    1    1    2    0    0 -0.12976142908E+02  0.41315880123E+01 -0.14930239939E+02  0.20208254080E+02  0.10566000000E+00 0.  1.
         13    1    1    2    0    0 -0.16325333849E+02 -0.72002865344E+02  0.24809823656E+03  0.25885068146E+03  0.10566000000E+00 0. -1.
         -4    1    1    2    0  502  0.29301476757E+02  0.67871277332E+02  0.20767133894E+02  0.76787763849E+02  0.00000000000E+00 0. -1.
</event>
<event>
 5    1  0.2540860E-005  0.4861844E+02  0.7818608E-02  0.1297518E+00
          4   -1    0    0  502    0 -0.00000000000E+00  0.00000000000E+00  0.78292919896E+02  0.78292919896E+02  0.00000000000E+00 0.  1.
         21   -1    0    0  501  502  0.00000000000E+00 -0.00000000000E+00 -0.18412176697E+03  0.18412176697E+03  0.00000000000E+00 0.  1.
        -13    1    1    2    0    0 -0.41403470422E+02 -0.27037731455E+02  0.51856461318E+02  0.71654658115E+02  0.10566000000E+00 0.  1.
         13    1    1    2    0    0  0.30209174350E+02  0.36498267248E+02 -0.18590775096E+02  0.50895439970E+02  0.10566000000E+00 0. -1.
          4    1    1    2  501    0  0.11194296073E+02 -0.94605357935E+01 -0.13909453329E+03  0.13986458878E+03  0.00000000000E+00 0.  1.
</event>
<event>
 5    1  0.2540860E-005  0.4991603E+03  0.7818608E-02  0.9737989E-01
         21   -1    0    0  501  502  0.00000000000E+00  0.00000000000E+00  0.36916946043E+03  0.36916946043E+03  0.00000000000E+00 0. -1.
         -4   -1    0    0    0  501 -0.00000000000E+00 -0.00000000000E+00 -0.13696622381E+04  0.13696622381E+04  0.00000000000E+00 0. -1.
        -13    1    1    2    0    0  0.33206163516E+02 -0.19678216393E+03 -0.58948595828E+03  0.62235004259E+03  0.10566000000E+00 0.  1.
         13    1    1    2    0    0 -0.14951658959E+03  0.55901556167E+03 -0.32130536740E+02  0.57955671966E+03  0.10566000000E+00 0. -1.
         -4    1    1    2    0  502  0.11631042607E+03 -0.36223339774E+03 -0.37887628269E+03  0.53692493631E+03  0.00000000000E+00 0. -1.
</event>
<event>
 5    1  0.2540860E-005  0.1271667E+03  0.7818608E-02  0.1126099E+00
         -4   -1    0    0    0  501 -0.00000000000E+00  0.00000000000E+00  0.30205186504E+03  0.30205186504E+03  0.00000000000E+00 0. -1.
         21   -1    0    0  501  502  0.00000000000E+00 -0.00000000000E+00 -0.98772117032E+02  0.98772117032E+02  0.00000000000E+00 0.  1.
        -13    1    1    2    0    0  0.56068226344E+02 -0.96448381738E+02  0.27311257573E+01  0.11159483213E+03  0.10566000000E+00 0.  1.
         13    1    1    2    0    0 -0.62204296305E+02  0.11689083617E+03  0.22230498578E+03  0.25875154092E+03  0.10566000000E+00 0. -1.
         -4    1    1    2    0  502  0.61360699611E+01 -0.20442454435E+02 -0.21756363532E+02  0.30477609027E+02  0.00000000000E+00 0. -1.
</event>
<event>
 5    1  0.2540860E-005  0.1131577E+03  0.7818608E-02  0.1144450E+00
         21   -1    0    0  501  502  0.00000000000E+00  0.00000000000E+00  0.11849542463E+03  0.11849542463E+03  0.00000000000E+00 0.  1.
         -4   -1    0    0    0  501 -0.00000000000E+00 -0.00000000000E+00 -0.34738803472E+03  0.34738803472E+03  0.00000000000E+00 0. -1.
        -13    1    1    2    0    0 -0.12386074996E+02  0.10428236498E+03  0.35140935940E+02  0.11073898610E+03  0.10566000000E+00 0.  1.
         13    1    1    2    0    0 -0.10684334051E+02 -0.11416655834E+03 -0.29428599294E+03  0.31583605691E+03  0.10566000000E+00 0. -1.
         -4    1    1    2    0  502  0.23070409048E+02  0.98841933558E+01  0.30252446911E+02  0.39308416351E+02  0.00000000000E+00 0. -1.
</event>
<event>
 5    1  0.2540860E-005  0.3565780E+03  0.7818608E-02  0.9863584E-01
         21   -1    0    0  501  502  0.00000000000E+00  0.00000000000E+00  0.98340023002E+03  0.98340023002E+03  0.00000000000E+00 0.  1.
          4   -1    0    0  502    0 -0.00000000000E+00 -0.00000000000E+00 -0.10668330022E+04  0.10668330022E+04  0.00000000000E+00 0.  1.
        -13    1    1    2    0    0 -0.29995676440E+03  0.33075516663E+03 -0.95589415673E+02  0.45662937741E+03  0.10566000000E+00 0.  1.
         13    1    1    2    0    0  0.34984473399E+03 -0.54363619439E+02 -0.72386936784E+03  0.80581239372E+03  0.10566000000E+00 0. -1.
          4    1    1    2  501    0 -0.49887969588E+02 -0.27639154719E+03  0.73602601131E+03  0.78779146111E+03  0.00000000000E+00 0.  1.
</event>
<event>
 5    1  0.2540860E-005  0.4777439E+03  0.7818608E-02  0.9766134E-01
         -4   -1    0    0    0  501 -0.00000000000E+00  0.00000000000E+00  0.64680252241E+03  0.64680252241E+03  0.00000000000E+00 0. -1.
         21   -1    0    0  501  502  0.00000000000E+00 -0.00000000000E+00 -0.74111757787E+03  0.74111757787E+03  0.00000000000E+00 0. -1.
        -13    1    1    2    0    0  0.10750067144E+02  0.20629897066E+03  0.23212878426E+03  0.31073881779E+03  0.10566000000E+00 0.  1.
         13    1    1    2    0    0 -0.48144417845E+03 -0.71208564044E+02 -0.32904624944E+03  0.58747817150E+03  0.10566000000E+00 0. -1.
         -4    1    1    2    0  502  0.47069411130E+03 -0.13509040661E+03  0.26024097110E+01  0.48970311099E+03  0.00000000000E+00 0. -1.
</event>
<event>
 5    1  0.2540860E-005  0.8019475E+02  0.7818608E-02  0.1202262E+00
         21   -1    0    0  501  502  0.00000000000E+00  0.00000000000E+00  0.23682498254E+03  0.23682498254E+03  0.00000000000E+00 0.  1.
         -4   -1    0    0    0  501 -0.00000000000E+00 -0.00000000000E+00 -0.44819778547E+02  0.44819778547E+02  0.00000000000E+00 0. -1.
        -13    1    1    2    0    0 -0.77150015832E+02  0.44694182573E+02  0.10442926636E+03  0.13731415708E+03  0.10566000000E+00 0.  1.
         13    1    1    2    0    0  0.63592391722E+02 -0.42219481468E+02  0.25099499352E+02  0.80352180631E+02  0.10566000000E+00 0. -1.
         -4    1    1    2    0  502  0.13557624110E+02 -0.24747011048E+01  0.62476438286E+02  0.63978423379E+02  0.00000000000E+00 0. -1.
</event>
<event>
 5    1  0.2540860E-005  0.3864480E+03  0.7818608E-02  0.1055979E+00
         -4   -1    0    0    0  501 -0.00000000000E+00  0.00000000000E+00  0.22743230016E+03  0.22743230016E+03  0.00000000000E+00 0. -1.
         21   -1    0    0  501  502  0.00000000000E+00 -0.00000000000E+00 -0.77274880675E+03  0.77274880675E+03  0.00000000000E+00 0. -1.
        -13    1    1    2    0    0 -0.12043744691E+02 -0.28904093057E+02 -0.11573381631E+02  0.33383419658E+02  0.10566000000E+00 0.  1.
         13    1    1    2    0    0 -0.36374697226E+03  0.12508628820E+03 -0.12782618191E+03  0.40533687628E+03  0.10566000000E+00 0. -1.
         -4    1    1    2    0  502  0.37579071695E+03 -0.96182195141E+02 -0.40591694305E+03  0.56146081098E+03  0.00000000000E+00 0. -1.
</event>
<event>
 5    1  0.2540860E-005  0.6098332E+02  0.7818608E-02  0.1252582E+00
         21   -1    0    0  501  502  0.00000000000E+00  0.00000000000E+00  0.40717105912E+03  0.40717105912E+03  0.00000000000E+00 0. -1.
         -4   -1    0    0    0  501 -0.00000000000E+00 -0.00000000000E+00 -0.20024162232E+02  0.20024162232E+02  0.00000000000E+00 0. -1.
        -13    1    1    2    0    0  0.28714412511E+02 -0.31580403107E+02  0.22152822671E+03  0.22560276093E+03  0.10566000000E+00 0.  1.
         13    1    1    2    0    0 -0.60284591650E+02  0.30777690714E+02  0.57044871325E+02  0.88519075598E+02  0.10566000000E+00 0. -1.
         -4    1    1    2    0  502  0.31570179139E+02  0.80271239314E+00  0.10857379885E+03  0.11307338482E+03  0.00000000000E+00 0. -1.
</event>
<event>
 5    1  0.2540860E-005  0.6436084E+03  0.7818608E-02  0.9209059E-01
         21   -1    0    0  501  502  0.00000000000E+00  0.00000000000E+00  0.15151543744E+04  0.15151543744E+04  0.00000000000E+00 0.  1.
          4   -1    0    0  502    0 -0.00000000000E+00 -0.00000000000E+00 -0.68321516380E+03  0.68321516380E+03  0.00000000000E+00 0.  1.
        -13    1    1    2    0    0  0.65075332113E+03  0.27165985475E+03  0.34769954447E+03  0.78624038693E+03  0.10566000000E+00 0.  1.
         13    1    1    2    0    0 -0.63949179942E+03  0.16762195460E+03 -0.11296650104E+03  0.67067751021E+03  0.10566000000E+00 0. -1.
          4    1    1    2  501    0 -0.11261521718E+02 -0.43928180935E+03  0.59720616715E+03  0.74145164102E+03  0.00000000000E+00 0.  1.
</event>
<event>
 5    1  0.2540860E-005  0.4853458E+03  0.7818608E-02  0.9716285E-01
          4   -1    0    0  502    0 -0.00000000000E+00  0.00000000000E+00  0.18016843132E+04  0.18016843132E+04  0.00000000000E+00 0.  1.
         21   -1    0    0  501  502  0.00000000000E+00 -0.00000000000E+00 -0.21771354202E+03  0.21771354202E+03  0.00000000000E+00 0. -1.
        -13    1    1    2    0    0  0.53499610755E+03  0.27297567394E+03  0.76599488017E+03  0.97338826851E+03  0.10566000000E+00 0.  1.
         13    1    1    2    0    0 -0.23352233861E+03  0.15642410153E+02  0.31483559169E+03  0.39229941191E+03  0.10566000000E+00 0. -1.
          4    1    1    2  501    0 -0.30147376894E+03 -0.28861808410E+03  0.50314029929E+03  0.65371017477E+03  0.00000000000E+00 0.  1.
</event>
<event>
 5    1  0.2540860E-005  0.4905764E+03  0.7818608E-02  0.9564910E-01
          4   -1    0    0  502    0 -0.00000000000E+00  0.00000000000E+00  0.10779857493E+04  0.10779857493E+04  0.00000000000E+00 0.  1.
         21   -1    0    0  501  502  0.00000000000E+00 -0.00000000000E+00 -0.81388183784E+03  0.81388183784E+03  0.00000000000E+00 0.  1.
        -13    1    1    2    0    0  0.43978108774E+03  0.85745810687E+02 -0.64109831576E+02  0.45262548631E+03  0.10566000000E+00 0.  1.
         13    1    1    2    0    0  0.69601017920E+02 -0.38022290577E+03  0.65918972625E+03  0.76416285315E+03  0.10566000000E+00 0. -1.
          4    1    1    2  501    0 -0.50938210566E+03  0.29447709508E+03 -0.33097598326E+03  0.67507924764E+03  0.00000000000E+00 0.  1.
</event>
<event>
 5    1  0.2540860E-005  0.6570956E+02  0.7818608E-02  0.1238455E+00
         -4   -1    0    0    0  501 -0.00000000000E+00  0.00000000000E+00  0.43637974183E+03  0.43637974183E+03  0.00000000000E+00 0. -1.
         21   -1    0    0  501  502  0.00000000000E+00 -0.00000000000E+00 -0.15580735771E+03  0.15580735771E+03  0.00000000000E+00 0. -1.
        -13    1    1    2    0    0 -0.16899659859E+02 -0.33912209186E+02  0.14869841790E+01  0.37919107600E+02  0.10566000000E+00 0.  1.
         13    1    1    2    0    0  0.47730903795E+02  0.51908393979E+02  0.41130885183E+03  0.41731008052E+03  0.10566000000E+00 0. -1.
         -4    1    1    2    0  502 -0.30831243937E+02 -0.17996184794E+02 -0.13222345189E+03  0.13695791142E+03  0.00000000000E+00 0. -1.
</event>
<event>
 5    1  0.2540860E-005  0.1929029E+03  0.7818608E-02  0.1065113E+00
         21   -1    0    0  501  502  0.00000000000E+00  0.00000000000E+00  0.87907826529E+02  0.87907826529E+02  0.00000000000E+00 0.  1.
         -4   -1    0    0    0  501 -0.00000000000E+00 -0.00000000000E+00 -0.14297769240E+04  0.14297769240E+04  0.00000000000E+00 0. -1.
        -13    1    1    2    0    0 -0.57484813045E+02 -0.17372763173E+03 -0.15639705724E+03  0.24071943094E+03  0.10566000000E+00 0.  1.
         13    1    1    2    0    0  0.13472443960E+03  0.14457510800E+03 -0.11775623961E+04  0.11940292477E+04  0.10566000000E+00 0. -1.
         -4    1    1    2    0  502 -0.77239626554E+02  0.29152523726E+02 -0.79096441276E+01  0.82936071887E+02  0.00000000000E+00 0. -1.
</event>
<event>
 5    1  0.2540860E-005  0.1917115E+03  0.7818608E-02  0.1074612E+00
          4   -1    0    0  502    0 -0.00000000000E+00  0.00000000000E+00  0.15052217227E+04  0.15052217227E+04  0.00000000000E+00 0.  1.
         21   -1    0    0  501  502  0.00000000000E+00 -0.00000000000E+00 -0.31379373797E+03  0.31379373797E+03  0.00000000000E+00 0.  1.
        -13    1    1    2    0    0  0.29431689793E+03 -0.85915598384E+02  0.80605279103E+03  0.86239494406E+03  0.10566000000E+00 0.  1.
         13    1    1    2    0    0 -0.14657454790E+03 -0.30529514132E+02  0.63027353206E+03  0.64781238465E+03  0.10566000000E+00 0. -1.
          4    1    1    2  501    0 -0.14774235003E+03  0.11644511252E+03 -0.24489833837E+03  0.30880813195E+03  0.00000000000E+00 0.  1.
</event>
<event>
 5    1  0.2540860E-005  0.4684570E+03  0.7818608E-02  0.9996238E-01
         -4   -1    0    0    0  501 -0.00000000000E+00  0.00000000000E+00  0.41483794777E+03  0.41483794777E+03  0.00000000000E+00 0. -1.
         21   -1    0    0  501  502  0.00000000000E+00 -0.00000000000E+00 -0.84847044119E+03  0.84847044119E+03  0.00000000000E+00 0. -1.
        -13    1    1    2    0    0 -0.83839266490E+02  0.56624024330E+02  0.10492314403E+03  0.14575383376E+03  0.10566000000E+00 0.  1.
         13    1    1    2    0    0  0.42911334717E+03 -0.26660463486E+03 -0.50134677257E+03  0.71173372379E+03  0.10566000000E+00 0. -1.
         -4    1    1    2    0  502 -0.34527408068E+03  0.20998061053E+03 -0.37208864891E+02  0.40582083142E+03  0.00000000000E+00 0. -1.
</event>
<event>
 5    1  0.2540860E-005  0.2860044E+03  0.7818608E-02  0.1051415E+00
         21   -1    0    0  501  502  0.00000000000E+00  0.00000000000E+00  0.84622972522E+03  0.84622972522E+03  0.00000000000E+00 0. -1.
         -4   -1    0    0    0  501 -0.00000000000E+00 -0.00000000000E+00 -0.33705865872E+03  0.33705865872E+03  0.00000000000E+00 0. -1.
        -13    1    1    2    0    0 -0.69818113987E+02  0.54209554930E+02  0.25318398539E+02  0.91947144355E+02  0.10566000000E+00 0.  1.
         13    1    1    2    0    0  0.12397565356E+03  0.23041969191E+03 -0.21252726058E+03  0.33709204195E+03  0.10566000000E+00 0. -1.
         -4    1    1    2    0  502 -0.54157539568E+02 -0.28462924684E+03  0.69637992854E+03  0.75424919763E+03  0.00000000000E+00 0. -1.
</event>
<event>
 5    1  0.2540860E-005  0.1052033E+03  0.7818608E-02  0.1156222E+00
          4   -1    0    0  502    0 -0.00000000000E+00  0.00000000000E+00  0.89093085470E+03  0.89093085470E+03  0.00000000000E+00 0.  1.
         21   -1    0    0  501  502  0.00000000000E+00 -0.00000000000E+00 -0.33050941036E+02  0.33050941036E+02  0.00000000000E+00 0. -1.
        -13    1    1    2    0    0  0.45469942461E+02 -0.10064413990E+03  0.53021558039E+03  0.54159517300E+03  0.10566000000E+00 0.  1.
         13    1    1    2    0    0  0.34048842028E+02  0.10831282420E+03  0.22756704549E+03  0.25431823153E+03  0.10566000000E+00 0. -1.
          4    1    1    2  501    0 -0.79518784489E+02 -0.76686842920E+01  0.10009728778E+03  0.12806839121E+03  0.00000000000E+00 0.  1.
</event>
<event>
 5    1  0.2540860E-005  0.6132506E+02  0.7818608E-02  0.1275762E+00
         21   -1    0    0  501  502  0.00000000000E+00  0.00000000000E+00  0.33073102456E+02  0.33073102456E+02  0.00000000000E+00 0. -1.
         -4   -1    0    0    0  501 -0.00000000000E+00 -0.00000000000E+00 -0.28460842273E+03  0.28460842273E+03  0.00000000000E+00 0. -1.
        -13    1    1    2    0    0 -0.20405399504E+02 -0.31194456934E+02 -0.22463856416E+02  0.43521379590E+02  0.10566000000E+00 0.  1.
         13    1    1    2    0    0  0.73910272101E+02  0.43444799253E+02 -0.18452493151E+03  0.20346901586E+03  0.10566000000E+00 0. -1.
         -4    1    1    2    0  502 -0.53504872596E+02 -0.12250342319E+02 -0.44546532352E+02  0.70691129734E+02  0.00000000000E+00 0. -1.
</event>
<event>
 5    1  0.2540860E-005  0.4605445E+03  0.7818608E-02  0.1010776E+00
         21   -1    0    0  501  502  0.00000000000E+00  0.00000000000E+00  0.17621698177E+03  0.17621698177E+03  0.00000000000E+00 0.  1.
          4   -1    0    0  502    0 -0.00000000000E+00 -0.00000000000E+00 -0.17764210900E+04  0.17764210900E+04  0.00000000000E+00 0.  1.
        -13    1    1    2    0    0 -0.41361906281E+03  0.42883497441E+02 -0.10656655039E+04  0.11439242548E+04  0.10566000000E+00 0.  1.
         13    1    1    2    0    0 -0.65010826100E+02 -0.35677356454E+02 -0.22929457931E+03  0.24098816680E+03  0.10566000000E+00 0. -1.
          4    1    1    2  501    0  0.47862988891E+03 -0.72061409870E+01 -0.30524402509E+03  0.56772565018E+03  0.00000000000E+00 0.  1.
</event>
<event>
 5    1  0.2540860E-005  0.3695883E+03  0.7818608E-02  0.9821235E-01
         21   -1    0    0  501  502  0.00000000000E+00  0.00000000000E+00  0.42425584263E+03  0.42425584263E+03  0.00000000000E+00 0. -1.
         -4   -1    0    0    0  501 -0.00000000000E+00 -0.00000000000E+00 -0.17567151419E+04  0.17567151419E+04  0.00000000000E+00 0. -1.
        -13    1    1    2    0    0  0.29012334644E+03 -0.18089816842E+03 -0.11297447407E+04  0.11803469379E+04  0.10566000000E+00 0.  1.
         13    1    1    2    0    0 -0.37411556674E+03  0.48047887138E+03 -0.29423420827E+03  0.67631071528E+03  0.10566000000E+00 0. -1.
         -4    1    1    2    0  502  0.83992220297E+02 -0.29958070296E+03  0.91519649648E+02  0.32431333141E+03  0.00000000000E+00 0. -1.
</event>
<event>
 5    1  0.2540860E-005  0.2557389E+03  0.7818608E-02  0.1027461E+00
         -4   -1    0    0    0  501 -0.00000000000E+00  0.00000000000E+00  0.55404876228E+03  0.55404876228E+03  0.00000000000E+00 0. -1.
         21   -1    0    0  501  502  0.00000000000E+00 -0.00000000000E+00 -0.15138799062E+03  0.15138799062E+03  0.00000000000E+00 0.  1.
        -13    1    1    2    0    0 -0.90980539758E+02  0.22507714828E+03  0.69689958971E+02  0.25257450948E+03  0.10566000000E+00 0.  1.
         13    1    1    2    0    0  0.65360675882E+02 -0.25509676540E+03  0.31163443036E+03  0.40799804781E+03  0.10566000000E+00 0. -1.
         -4    1    1    2    0  502  0.25619863876E+02  0.30019617119E+02  0.21336382325E+02  0.44864195610E+02  0.00000000000E+00 0. -1.
</event>
<event>
 5    1  0.2540860E-005  0.4547014E+03  0.7818608E-02  0.9583199E-01
         -4   -1    0    0    0  501 -0.00000000000E+00  0.00000000000E+00  0.17081622735E+04  0.17081622735E+04  0.00000000000E+00 0. -1.
         21   -1    0    0  501  502  0.00000000000E+00 -0.00000000000E+00 -0.92156444798E+03  0.92156444798E+03  0.00000000000E+00 0. -1.
        -13    1    1    2    0    0  0.34640535806E+03  0.13362778201E+03  0.15713481138E+03  0.40316797533E+03  0.10566000000E+00 0.  1.
         13    1    1    2    0    0 -0.48955136390E+03 -0.82361226138E+01  0.13737151883E+04  0.14583627126E+04  0.10566000000E+00 0. -1.
         -4    1    1    2    0  502  0.14314600584E+03 -0.12539165940E+03 -0.74425217419E+03  0.76819603359E+03  0.00000000000E+00 0. -1.
</event>
<event>
 5    1  0.2540860E-005  0.2855049E+03  0.7818608E-02  0.1013475E+00
         21   -1    0    0  501  502  0.00000000000E+00  0.00000000000E+00  0.28989266589E+03  0.28989266589E+03  0.00000000000E+00 0. -1.
          4   -1    0    0  502    0 -0.00000000000E+00 -0.00000000000E+00 -0.55055047923E+03  0.55055047923E+03  0.00000000000E+00 0.  1.
        -13    1    1    2    0    0  0.12324373781E+03 -0.25211667607E+03 -0.24190617381E+03  0.37050026363E+03  0.10566000000E+00 0.  1.
         13    1    1    2    0    0 -0.12743709946E+03  0.26287462872E+03 -0.15670217463E+03  0.33150998091E+03  0.10566000000E+00 0. -1.
          4    1    1    2  501    0  0.41933616541E+01 -0.10757952645E+02  0.13795053511E+03  0.13843290058E+03  0.00000000000E+00 0.  1.
</event>
<event>
 5    1  0.2540860E-005  0.4402114E+03  0.7818608E-02  0.9936693E-01
         21   -1    0    0  501  502  0.00000000000E+00  0.00000000000E+00  0.11769746104E+03  0.11769746104E+03  0.00000000000E+00 0.  1.
         -4   -1    0    0    0  501 -0.00000000000E+00 -0.00000000000E+00 -0.28201535525E+04  0.28201535525E+04  0.00000000000E+00 0. -1.
        -13    1    1    2    0    0  0.14837546128E+03 -0.23520206902E+01 -0.91900056398E+02  0.17454638650E+03  0.10566000000E+00 0.  1.
         13    1    1    2    0    0 -0.39086706006E+03 -0.31709885185E+03 -0.15345782765E+04  0.16150106001E+04  0.10566000000E+00 0. -1.
         -4    1    1    2    0  502  0.24249159878E+03  0.31945087254E+03 -0.10759777585E+04  0.11482940269E+04  0.00000000000E+00 0. -1.
</event>
<event>
 5    1  0.2540860E-005  0.1383268E+03  0.7818608E-02  0.1113231E+00
         21   -1    0    0  501  502  0.00000000000E+00  0.00000000000E+00  0.17705490551E+04  0.17705490551E+04  0.00000000000E+00 0. -1.
         -4   -1    0    0    0  501 -0.00000000000E+00 -0.00000000000E+00 -0.42149111669E+02  0.42149111669E+02  0.00000000000E+00 0. -1.
        -13    1    1    2    0    0  0.41454644191E+02  0.11184756676E+03  0.14069903266E+03  0.18445756875E+03  0.10566000000E+00 0.  1.
         13    1    1    2    0    0 -0.56527369887E+02 -0.20042799142E+03  0.57477350968E+03  0.61133568675E+03  0.10566000000E+00 0. -1.
         -4    1    1    2    0  502  0.15072725697E+02  0.88580424667E+02  0.10129274011E+04  0.10169049113E+04  0.00000000000E+00 0. -1.
</event>
<event>
 5    1  0.2540860E-005  0.5629039E+03  0.7818608E-02  0.9349822E-01
         -4   -1    0    0    0  501 -0.00000000000E+00  0.00000000000E+00  0.18263324536E+04  0.18263324536E+04  0.00000000000E+00 0. -1.
         21   -1    0    0  501  502  0.00000000000E+00 -0.00000000000E+00 -0.68442114176E+03  0.68442114176E+03  0.00000000000E+00 0.  1.
        -13    1    1    2    0    0  0.52719531002E+03  0.20580094178E+03  0.11832159226E+04  0.13115978245E+04  0.10566000000E+00 0.  1.
         13    1    1    2    0    0 -0.32276161727E+03 -0.59411319660E+03  0.19105027217E+03  0.70259929520E+03  0.10566000000E+00 0. -1.
         -4    1    1    2    0  502 -0.20443369275E+03  0.38831225482E+03 -0.23235488288E+03  0.49655647571E+03  0.00000000000E+00 0. -1.
</event>
<event>
 5    1  0.2540860E-005  0.5020413E+03  0.7818608E-02  0.1011009E+00
         21   -1    0    0  501  502  0.00000000000E+00  0.00000000000E+00  0.22855464948E+03  0.22855464948E+03  0.00000000000E+00 0. -1.
         -4   -1    0    0    0  501 -0.00000000000E+00 -0.00000000000E+00 -0.13343026473E+04  0.13343026473E+04  0.00000000000E+00 0. -1.
        -13    1    1    2    0    0  0.52307982814E+02 -0.22189044275E+02 -0.20510700105E+03  0.21283179226E+03  0.10566000000E+00 0.  1.
         13    1    1    2    0    0 -0.10188891563E+03 -0.48521736498E+03 -0.45191819338E+03  0.67085565294E+03  0.10566000000E+00 0. -1.
         -4    1    1    2    0  502  0.49580932815E+02  0.50740640926E+03 -0.44872280344E+03  0.67916985164E+03  0.00000000000E+00 0. -1.
</event>
<event>
 5    1  0.2540860E-005  0.3801947E+03  0.7818608E-02  0.9788053E-01
         21   -1    0    0  501  502  0.00000000000E+00  0.00000000000E+00  0.21530840172E+03  0.21530840172E+03  0.00000000000E+00 0.  1.
          4   -1    0    0  502    0 -0.00000000000E+00 -0.00000000000E+00 -0.22984472906E+04  0.22984472906E+04  0.00000000000E+00 0.  1.
        -13    1    1    2    0    0  0.21993319295E+02  0.41488611674E+03 -0.16275474248E+04  0.16797395117E+04  0.10566000000E+00 0.  1.
         13    1    1    2    0    0  0.99303226833E+02 -0.31742826281E+03 -0.55667478748E+03  0.64846639317E+03  0.10566000000E+00 0. -1.
          4    1    1    2  501    0 -0.12129654613E+03 -0.97457853926E+02  0.10108332335E+03  0.18554978753E+03  0.00000000000E+00 0.  1.
</event>
<event>
 5    1  0.2540860E-005  0.9948896E+02  0.7818608E-02  0.1170754E+00
          4   -1    0    0  502    0 -0.00000000000E+00  0.00000000000E+00  0.21929672517E+03  0.21929672517E+03  0.00000000000E+00 0.  1.
         21   -1    0    0  501  502  0.00000000000E+00 -0.00000000000E+00 -0.14656825538E+03  0.14656825538E+03  0.00000000000E+00 0.  1.
        -13    1    1    2    0    0 -0.51711625519E+02  0.19618816563E+02  0.14023090382E+03  0.15074384806E+03  0.10566000000E+00 0.  1.
         13    1    1    2    0    0  0.93935580414E+01  0.86978778350E+02 -0.14122968778E+02  0.88617245653E+02  0.10566000000E+00 0. -1.
          4    1    1    2  501    0  0.42318067477E+02 -0.10659759491E+03 -0.53379465245E+02  0.12650388684E+03  0.00000000000E+00 0.  1.
</event>
<event>
 5    1  0.2540860E-005  0.4838515E+03  0.7818608E-02  0.9832011E-01
         21   -1    0    0  501  502  0.00000000000E+00  0.00000000000E+00  0.34113389814E+03  0.34113389814E+03  0.00000000000E+00 0. -1.
         -4   -1    0    0    0  501 -0.00000000000E+00 -0.00000000000E+00 -0.10968561949E+04  0.10968561949E+04  0.00000000000E+00 0. -1.
        -13    1    1    2    0    0  0.15063878784E+03 -0.50246319078E+02 -0.32206494840E+03  0.35908575457E+03  0.10566000000E+00 0.  1.
         13    1    1    2    0    0  0.38992884676E+03 -0.66519834881E+02 -0.33238930265E+03  0.51667403036E+03  0.10566000000E+00 0. -1.
         -4    1    1    2    0  502 -0.54056763460E+03  0.11676615396E+03 -0.10126804571E+03  0.56223030812E+03  0.00000000000E+00 0. -1.
</event>
<event>
 5    1  0.2540860E-005  0.4728741E+03  0.7818608E-02  0.9940487E-01
         21   -1    0    0  501  502  0.00000000000E+00  0.00000000000E+00  0.17391728710E+03  0.17391728710E+03  0.00000000000E+00 0.  1.
          4   -1    0    0  502    0 -0.00000000000E+00 -0.00000000000E+00 -0.18076241789E+04  0.18076241789E+04  0.00000000000E+00 0.  1.
        -13    1    1    2    0    0 -0.35575379685E+03 -0.23447466807E+03 -0.50130614771E+03  0.65791108733E+03  0.10566000000E+00 0.  1.
         13    1    1    2    0    0 -0.11095547669E+03 -0.40805596660E+02 -0.36903348759E+03  0.38750734271E+03  0.10566000000E+00 0. -1.
          4    1    1    2  501    0  0.46670927354E+03  0.27528026473E+03 -0.76336725652E+03  0.93612303597E+03  0.00000000000E+00 0.  1.
</event>
<event>
 5    1  0.2540860E-005  0.5104640E+03  0.7818608E-02  0.9798540E-01
         21   -1    0    0  501  502  0.00000000000E+00  0.00000000000E+00  0.54089624428E+03  0.54089624428E+03  0.00000000000E+00 0. -1.
         -4   -1    0    0    0  501 -0.00000000000E+00 -0.00000000000E+00 -0.67134483322E+03  0.67134483322E+03  0.00000000000E+00 0. -1.
        -13    1    1    2    0    0 -0.14735795712E+03  0.35401926408E+02 -0.66470261989E+02  0.16548707144E+03  0.10566000000E+00 0.  1.
         13    1    1    2    0    0  0.59523154812E+03  0.16208300363E+01 -0.45579917568E+02  0.59697635046E+03  0.10566000000E+00 0. -1.
         -4    1    1    2    0  502 -0.44787359100E+03 -0.37022756445E+02 -0.18398409387E+02  0.44977765560E+03  0.00000000000E+00 0. -1.
</event>
<event>
 5    1  0.2540860E-005  0.5418104E+03  0.7818608E-02  0.9503862E-01
          4   -1    0    0  502    0 -0.00000000000E+00  0.00000000000E+00  0.26637559688E+04  0.26637559688E+04  0.00000000000E+00 0.  1.
         21   -1    0    0  501  502  0.00000000000E+00 -0.00000000000E+00 -0.40307187759E+03  0.40307187759E+03  0.00000000000E+00 0. -1.
        -13    1    1    2    0    0  0.19645108818E+03  0.28064401981E+03  0.19236884339E+03  0.39288659812E+03  0.10566000000E+00 0.  1.
         13    1    1    2    0    0  0.64306417340E+03 -0.17673872642E+03  0.15358349840E+04  0.16743826378E+04  0.10566000000E+00 0. -1.
          4    1    1    2  501    0 -0.83951526159E+03 -0.10390529339E+03  0.53248026382E+03  0.99955861048E+03  0.00000000000E+00 0.  1.
</event>
<event>
 5    1  0.2540860E-005  0.1601888E+03  0.7818608E-02  0.1091476E+00
          4   -1    0    0  502    0 -0.00000000000E+00  0.00000000000E+00  0.13030647762E+04  0.13030647762E+04  0.00000000000E+00 0.  1.
         21   -1    0    0  501  502  0.00000000000E+00 -0.00000000000E+00 -0.99707238407E+02  0.99707238407E+02  0.00000000000E+00 0.  1.
        -13    1    1    2    0    0  0.81280530410E+01 -0.15425118943E+03  0.39989237893E+03  0.42868802243E+03  0.10566000000E+00 0.  1.
         13    1    1    2    0    0 -0.34275997197E+02  0.16025319195E+03  0.87888593992E+03  0.89403380029E+03  0.10566000000E+00 0. -1.
          4    1    1    2  501    0  0.26147944156E+02 -0.60020025218E+01 -0.75420781015E+02  0.80050191922E+02  0.00000000000E+00 0.  1.
</event>
<event>
 5    1  0.2540860E-005  0.4711024E+02  0.7818608E-02  0.1319983E+00
         21   -1    0    0  501  502  0.00000000000E+00  0.00000000000E+00  0.14773833500E+02  0.14773833500E+02  0.00000000000E+00 0. -1.
         -4   -1    0    0    0  501 -0.00000000000E+00 -0.00000000000E+00 -0.39787995862E+03  0.39787995862E+03  0.00000000000E+00 0. -1.
        -13    1    1    2    0    0  0.88311981197E+00 -0.34753062179E+02 -0.61790868805E+02  0.70899068140E+02  0.10566000000E+00 0.  1.
         13    1    1    2    0    0 -0.34814430896E+02  0.59048977584E+02 -0.24898330217E+03  0.25824701794E+03  0.10566000000E+00 0. -1.
         -4    1    1    2    0  502  0.33931311084E+02 -0.24295915404E+02 -0.72331954144E+02  0.83507706037E+02  0.00000000000E+00 0. -1.
</event>
<event>
 5    1  0.2540860E-005  0.5449299E+03  0.7818608E-02  0.9384582E-01
         -4   -1    0    0    0  501 -0.00000000000E+00  0.00000000000E+00  0.17813907911E+04  0.17813907911E+04  0.00000000000E+00 0. -1.
         21   -1    0    0  501  502  0.00000000000E+00 -0.00000000000E+00 -0.63365464353E+03  0.63365464353E+03  0.00000000000E+00 0. -1.
        -13    1    1    2    0    0  0.53347173587E+03 -0.24735954692E+02  0.62781392403E+03  0.82422951585E+03  0.10566000000E+00 0.  1.
         13    1    1    2    0    0 -0.55213306796E+03  0.30374394689E+02  0.98271693536E+03  0.11276107993E+04  0.10566000000E+00 0. -1.
         -4    1    1    2    0  502  0.18661332089E+02 -0.56384399978E+01 -0.46279471185E+03  0.46320511940E+03  0.00000000000E+00 0. -1.
</event>
<event>
 5    1  0.2600776E-005  0.4403878E+03  0.7818608E-02  0.1022261E+00
         21   -1    0    0  501  502  0.00000000000E+00  0.00000000000E+00  0.19804934735E+03  0.19804934735E+03  0.00000000000E+00 0.  1.
          4   -1    0    0  502    0 -0.00000000000E+00 -0.00000000000E+00 -0.14193859822E+04  0.14193859822E+04  0.00000000000E+00 0.  1.
        -13    1    1    2    0    0  0.76688174444E+02  0.47266944468E+03 -0.88810192763E+03  0.10089710229E+04  0.10566000000E+00 0.  1.
         13    1    1    2    0    0  0.16614174142E+02 -0.56516486750E+02 -0.11540751828E+03  0.12957256846E+03  0.10566000000E+00 0. -1.
          4    1    1    2  501    0 -0.93302348586E+02 -0.41615295793E+03 -0.21782718890E+03  0.47889173815E+03  0.00000000000E+00 0.  1.
</event>
<event>
 5    1  0.2540860E-005  0.2127589E+02  0.7818608E-02  0.1492844E+00
          4   -1    0    0  502    0 -0.00000000000E+00  0.00000000000E+00  0.11419277471E+03  0.11419277471E+03  0.00000000000E+00 0.  1.
         21   -1    0    0  501  502  0.00000000000E+00 -0.00000000000E+00 -0.21766788880E+02  0.21766788880E+02  0.00000000000E+00 0. -1.
        -13    1    1    2    0    0 -0.86257560195E+01  0.20255081152E+02  0.10649312823E+03  0.10874497461E+03  0.10566000000E+00 0.  1.
         13    1    1    2    0    0  0.54277567447E+01 -0.10586148001E+02 -0.11850555344E+02  0.16792078453E+02  0.10566000000E+00 0. -1.
          4    1    1    2  501    0  0.31979992748E+01 -0.96689331510E+01 -0.22165870483E+01  0.10422510532E+02  0.00000000000E+00 0.  1.
</event>
<event>
 5    1  0.2540860E-005  0.4062800E+03  0.7818608E-02  0.9711082E-01
         21   -1    0    0  501  502  0.00000000000E+00  0.00000000000E+00  0.10724176774E+04  0.10724176774E+04  0.00000000000E+00 0.  1.
         -4   -1    0    0    0  501 -0.00000000000E+00 -0.00000000000E+00 -0.21561059743E+03  0.21561059743E+03  0.00000000000E+00 0. -1.
        -13    1    1    2    0    0  0.36095651574E+03 -0.18782464149E+03  0.61403036454E+03  0.73661455454E+03  0.10566000000E+00 0.  1.
         13    1    1    2    0    0 -0.35251234531E+03  0.20167549188E+03  0.11428119539E+03  0.42189828205E+03  0.10566000000E+00 0. -1.
         -4    1    1    2    0  502 -0.84441704348E+01 -0.13850850381E+02  0.12849552001E+03  0.12951543821E+03  0.00000000000E+00 0. -1.
</event>
<event>
 5    1  0.2540860E-005  0.1137166E+03  0.7818608E-02  0.1143664E+00
         21   -1    0    0  501  502  0.00000000000E+00  0.00000000000E+00  0.12275447594E+03  0.12275447594E+03  0.00000000000E+00 0. -1.
          4   -1    0    0  502    0 -0.00000000000E+00 -0.00000000000E+00 -0.28095854749E+03  0.28095854749E+03  0.00000000000E+00 0.  1.
        -13    1    1    2    0    0  0.10209317278E+03  0.38130188534E+02 -0.16535573181E+03  0.19803902749E+03  0.10566000000E+00 0.  1.
         13    1    1    2    0    0 -0.11344172892E+03 -0.54323318097E+02 -0.57330886726E+02  0.13822767626E+03  0.10566000000E+00 0. -1.
          4    1    1    2  501    0  0.11348556139E+02  0.16193129563E+02  0.64482546983E+02  0.67446319669E+02  0.00000000000E+00 0.  1.
</event>
<event>
 5    1  0.2540860E-005  0.2307409E+03  0.7818608E-02  0.1040886E+00
          4   -1    0    0  502    0 -0.00000000000E+00  0.00000000000E+00  0.10740102480E+03  0.10740102480E+03  0.00000000000E+00 0.  1.
         21   -1    0    0  501  502  0.00000000000E+00 -0.00000000000E+00 -0.72201982296E+03  0.72201982296E+03  0.00000000000E+00 0. -1.
        -13    1    1    2    0    0  0.78849299197E+02 -0.20466175979E+03 -0.39075707577E+03  0.44810127352E+03  0.10566000000E+00 0.  1.
         13    1    1    2    0    0 -0.61141977293E+02  0.22798768445E+03 -0.10401294028E+03  0.25794462305E+03  0.10566000000E+00 0. -1.
          4    1    1    2  501    0 -0.17707321904E+02 -0.23325924659E+02 -0.11984878211E+03  0.12337495120E+03  0.00000000000E+00 0.  1.
</event>
<event>
 5    1  0.2540860E-005  0.6968838E+02  0.7818608E-02  0.1227547E+00
         21   -1    0    0  501  502  0.00000000000E+00  0.00000000000E+00  0.31996969625E+03  0.31996969625E+03  0.00000000000E+00 0.  1.
          4   -1    0    0  502    0 -0.00000000000E+00 -0.00000000000E+00 -0.58283990988E+02  0.58283990988E+02  0.00000000000E+00 0.  1.
        -13    1    1    2    0    0 -0.64752231658E+02  0.53768519088E+02  0.48542896683E+02  0.97161356166E+02  0.10566000000E+00 0.  1.
         13    1    1    2    0    0  0.53379178457E+02 -0.34918058928E+02 -0.29759644925E+01  0.63855109903E+02  0.10566000000E+00 0. -1.
          4    1    1    2  501    0  0.11373053201E+02 -0.18850460160E+02  0.21611877307E+03  0.21723722117E+03  0.00000000000E+00 0.  1.
</event>
<event>
 5    1  0.2540860E-005  0.1162204E+03  0.7818608E-02  0.1140198E+00
          4   -1    0    0  502    0 -0.00000000000E+00  0.00000000000E+00  0.14041151591E+03  0.14041151591E+03  0.00000000000E+00 0.  1.
         21   -1    0    0  501  502  0.00000000000E+00 -0.00000000000E+00 -0.34556481662E+03  0.34556481662E+03  0.00000000000E+00 0.  1.
        -13    1    1    2    0    0  0.48985843005E+01 -0.11585240841E+03  0.83844880816E+02  0.14309350742E+03  0.10566000000E+00 0.  1.
         13    1    1    2    0    0 -0.35824660313E+02  0.11537654281E+03 -0.11718450590E+03  0.16830737507E+03  0.10566000000E+00 0. -1.
          4    1    1    2  501    0  0.30926076013E+02  0.47586560610E+00 -0.17181367563E+03  0.17457545004E+03  0.00000000000E+00 0.  1.
</event>
<event>
 5    1  0.2540860E-005  0.3900504E+03  0.7818608E-02  0.1014194E+00
         -4   -1    0    0    0  501 -0.00000000000E+00  0.00000000000E+00  0.39895139241E+03  0.39895139241E+03  0.00000000000E+00 0. -1.
         21   -1    0    0  501  502  0.00000000000E+00 -0.00000000000E+00 -0.83738107153E+03  0.83738107153E+03  0.00000000000E+00 0. -1.
        -13    1    1    2    0    0 -0.69657097685E+02 -0.84392672044E+02 -0.19518374333E+03  0.22376536635E+03  0.10566000000E+00 0.  1.
         13    1    1    2    0    0  0.28270815421E+03 -0.24965803973E+03  0.19264540626E+03  0.42351540819E+03  0.10566000000E+00 0. -1.
         -4    1    1    2    0  502 -0.21305105653E+03  0.33405071177E+03 -0.43589134204E+03  0.58905168940E+03  0.00000000000E+00 0. -1.
</event>
<event>
 5    1  0.2540860E-005  0.3703227E+02  0.7818608E-02  0.1355956E+00
         21   -1    0    0  501  502  0.00000000000E+00  0.00000000000E+00  0.28025412000E+03  0.28025412000E+03  0.00000000000E+00 0.  1.
         -4   -1    0    0    0  501 -0.00000000000E+00 -0.00000000000E+00 -0.15854072223E+02  0.15854072223E+02  0.00000000000E+00 0. -1.
        -13    1    1    2    0    0 -0.42029772015E+02 -0.37222679571E+01  0.13256913760E+03  0.13912204866E+03  0.10566000000E+00 0.  1.
         13    1    1    2    0    0  0.35906889819E+02 -0.43828575328E+01  0.14110403065E+02  0.38828196138E+02  0.10566000000E+00 0. -1.
         -4    1    1    2    0  502  0.61228821960E+01  0.81051254899E+01  0.11772050711E+03  0.11815794743E+03  0.00000000000E+00 0. -1.
</event>
<event>
 5    1  0.2540860E-005  0.9966517E+02  0.7818608E-02  0.1165111E+00
         21   -1    0    0  501  502  0.00000000000E+00  0.00000000000E+00  0.15608325414E+03  0.15608325414E+03  0.00000000000E+00 0.  1.
          4   -1    0    0  502    0 -0.00000000000E+00 -0.00000000000E+00 -0.50718657354E+03  0.50718657354E+03  0.00000000000E+00 0.  1.
        -13    1    1    2    0    0  0.72185287405E+02 -0.54062338361E+02 -0.11637508926E+03  0.14722983635E+03  0.10566000000E+00 0.  1.
         13    1    1    2    0    0 -0.84321996723E+02  0.61060836588E+02 -0.36779091379E+03  0.38224179825E+03  0.10566000000E+00 0. -1.
          4    1    1    2  501    0  0.12136709318E+02 -0.69984982272E+01  0.13306268366E+03  0.13379819308E+03  0.00000000000E+00 0.  1.
</event>
<event>
 5    1  0.2540860E-005  0.6175356E+02  0.7818608E-02  0.1250184E+00
          4   -1    0    0  502    0 -0.00000000000E+00  0.00000000000E+00  0.10196591850E+02  0.10196591850E+02  0.00000000000E+00 0.  1.
         21   -1    0    0  501  502  0.00000000000E+00 -0.00000000000E+00 -0.67042932663E+03  0.67042932663E+03  0.00000000000E+00 0. -1.
        -13    1    1    2    0    0  0.58862615128E+02 -0.20255354485E+02 -0.13492070195E+03  0.14858900977E+03  0.10566000000E+00 0.  1.
         13    1    1    2    0    0 -0.60970342411E+02  0.82519103756E+01 -0.29223936740E+03  0.29864583657E+03  0.10566000000E+00 0. -1.
          4    1    1    2  501    0  0.21077272825E+01  0.12003444109E+02 -0.23307266542E+03  0.23339107213E+03  0.00000000000E+00 0.  1.
</event>
<event>
 5    1  0.2540860E-005  0.2135156E+03  0.7818608E-02  0.1051245E+00
         -4   -1    0    0    0  501 -0.00000000000E+00  0.00000000000E+00  0.71977775590E+02  0.71977775590E+02  0.00000000000E+00 0. -1.
         21   -1    0    0  501  502  0.00000000000E+00 -0.00000000000E+00 -0.10607389176E+04  0.10607389176E+04  0.00000000000E+00 0.  1.
        -13    1    1    2    0    0  0.13281295953E+03 -0.14672431004E+03 -0.45832688425E+03  0.49923025686E+03  0.10566000000E+00 0.  1.
         13    1    1    2    0    0 -0.16224888773E+03  0.15099081661E+03 -0.19050562549E+03  0.29225901659E+03  0.10566000000E+00 0. -1.
         -4    1    1    2    0  502  0.29435928201E+02 -0.42665065732E+01 -0.33992863226E+03  0.34122741973E+03  0.00000000000E+00 0. -1.
</event>
<event>
 5    1  0.2540860E-005  0.4816191E+03  0.7818608E-02  0.9804844E-01
         21   -1    0    0  501  502  0.00000000000E+00  0.00000000000E+00  0.28011557309E+03  0.28011557309E+03  0.00000000000E+00 0. -1.
         -4   -1    0    0    0  501 -0.00000000000E+00 -0.00000000000E+00 -0.13666372200E+04  0.13666372200E+04  0.00000000000E+00 0. -1.
        -13    1    1    2    0    0 -0.97442296824E+02  0.14728864763E+03 -0.29971861206E+03  0.34787958335E+03  0.10566000000E+00 0.  1.
         13    1    1    2    0    0 -0.24040153305E+03  0.34678072544E+03 -0.22603206256E+03  0.47868598590E+03  0.10566000000E+00 0. -1.
         -4    1    1    2    0  502  0.33784382987E+03 -0.49406937307E+03 -0.56077097233E+03  0.82018722387E+03  0.00000000000E+00 0. -1.
</event>
<event>
 5    1  0.2540860E-005  0.4753539E+03  0.7818608E-02  0.1003277E+00
          4   -1    0    0  502    0 -0.00000000000E+00  0.00000000000E+00  0.79722942894E+03  0.79722942894E+03  0.00000000000E+00 0.  1.
         21   -1    0    0  501  502  0.00000000000E+00 -0.00000000000E+00 -0.37853647103E+03  0.37853647103E+03  0.00000000000E+00 0. -1.
        -13    1    1    2    0    0 -0.45573638001E+03 -0.13128842366E+03  0.51985073977E+02  0.47711084387E+03  0.10566000000E+00 0.  1.
         13    1    1    2    0    0  0.23404853431E+02 -0.82684471463E+02 -0.10127206541E+02  0.86527917239E+02  0.10566000000E+00 0. -1.
          4    1    1    2  501    0  0.43233152658E+03  0.21397289512E+03  0.37683509047E+03  0.61212713887E+03  0.00000000000E+00 0.  1.
</event>
<event>
 5    1  0.2540860E-005  0.1506814E+03  0.7818608E-02  0.1100441E+00
         -4   -1    0    0    0  501 -0.00000000000E+00  0.00000000000E+00  0.15466165094E+04  0.15466165094E+04  0.00000000000E+00 0. -1.
         21   -1    0    0  501  502  0.00000000000E+00 -0.00000000000E+00 -0.78416326717E+02  0.78416326717E+02  0.00000000000E+00 0. -1.
        -13    1    1    2    0    0 -0.15686494830E+03 -0.28476278916E+02  0.87681910401E+03  0.89119541223E+03  0.10566000000E+00 0.  1.
         13    1    1    2    0    0  0.14119571687E+03 -0.66546418907E+02  0.61514729333E+03  0.63464230869E+03  0.10566000000E+00 0. -1.
         -4    1    1    2    0  502  0.15669231430E+02  0.95022697822E+02 -0.23766214667E+02  0.99195115175E+02  0.00000000000E+00 0. -1.
</event>
<event>
 5    1  0.2540860E-005  0.3424827E+02  0.7818608E-02  0.1373722E+00
         -4   -1    0    0    0  501 -0.00000000000E+00  0.00000000000E+00  0.14914761383E+03  0.14914761383E+03  0.00000000000E+00 0. -1.
         21   -1    0    0  501  502  0.00000000000E+00 -0.00000000000E+00 -0.76428203200E+02  0.76428203200E+02  0.00000000000E+00 0. -1.
        -13    1    1    2    0    0  0.20258608581E+02 -0.16773398835E+02  0.13637549650E+02  0.29626880609E+02  0.10566000000E+00 0.  1.
         13    1    1    2    0    0 -0.33491632151E+02  0.16115229311E+02  0.12412496427E+03  0.12957008899E+03  0.10566000000E+00 0. -1.
         -4    1    1    2    0  502  0.13233023571E+02  0.65816952412E+00 -0.65043103297E+02  0.66378847432E+02  0.00000000000E+00 0. -1.
</event>
<event>
 5    1  0.2540860E-005  0.4862189E+03  0.7818608E-02  0.9628349E-01
         21   -1    0    0  501  502  0.00000000000E+00  0.00000000000E+00  0.10333805465E+04  0.10333805465E+04  0.00000000000E+00 0.  1.
          4   -1    0    0  502    0 -0.00000000000E+00 -0.00000000000E+00 -0.16736457265E+04  0.16736457265E+04  0.00000000000E+00 0.  1.
        -13    1    1    2    0    0  0.19435587839E+03 -0.52272920112E+03  0.59477719106E+03  0.81534038496E+03  0.10566000000E+00 0.  1.
         13    1    1    2    0    0  0.16309947347E+03  0.27155135012E+03 -0.13919074075E+04  0.14274970459E+04  0.10566000000E+00 0. -1.
          4    1    1    2  501    0 -0.35745535186E+03  0.25117785101E+03  0.15686503643E+03  0.46418884203E+03  0.00000000000E+00 0.  1.
</event>
<event>
 5    1  0.2540860E-005  0.7028247E+03  0.7818608E-02  0.9118890E-01
         21   -1    0    0  501  502  0.00000000000E+00  0.00000000000E+00  0.66669860832E+03  0.66669860832E+03  0.00000000000E+00 0.  1.
          4   -1    0    0  502    0 -0.00000000000E+00 -0.00000000000E+00 -0.11511682169E+04  0.11511682169E+04  0.00000000000E+00 0.  1.
        -13    1    1    2    0    0 -0.39774218136E+03 -0.75952203514E+03 -0.13704043262E+03  0.86824688657E+03  0.10566000000E+00 0.  1.
         13    1    1    2    0    0  0.36922448894E+03  0.49687353075E+03 -0.25876466734E+03  0.67094649043E+03  0.10566000000E+00 0. -1.
          4    1    1    2  501    0  0.28517692425E+02  0.26264850439E+03 -0.88664508570E+02  0.27867344818E+03  0.00000000000E+00 0.  1.
</event>
<event>
 5    1  0.2540860E-005  0.4110911E+03  0.7818608E-02  0.9697549E-01
          4   -1    0    0  502    0 -0.00000000000E+00  0.00000000000E+00  0.17365198797E+04  0.17365198797E+04  0.00000000000E+00 0.  1.
         21   -1    0    0  501  502  0.00000000000E+00 -0.00000000000E+00 -0.32644736518E+03  0.32644736518E+03  0.00000000000E+00 0.  1.
        -13    1    1    2    0    0 -0.63558701512E+03  0.16420514299E+02  0.66169155554E+03  0.91764710696E+03  0.10566000000E+00 0.  1.
         13    1    1    2    0    0  0.31880242883E+03 -0.14586029344E+03  0.72136532496E+03  0.80204623124E+03  0.10566000000E+00 0. -1.
          4    1    1    2  501    0  0.31678458628E+03  0.12943977914E+03  0.27015634030E+02  0.34327390669E+03  0.00000000000E+00 0.  1.
</event>
<event>
 5    1  0.2540860E-005  0.4761885E+03  0.7818608E-02  0.9994028E-01
          4   -1    0    0  502    0 -0.00000000000E+00  0.00000000000E+00  0.35086677187E+03  0.35086677187E+03  0.00000000000E+00 0.  1.
         21   -1    0    0  501  502  0.00000000000E+00 -0.00000000000E+00 -0.83310667939E+03  0.83310667939E+03  0.00000000000E+00 0.  1.
        -13    1    1    2    0    0  0.29599627880E+03 -0.44001781671E+03 -0.15418061671E+03  0.55226909185E+03  0.10566000000E+00 0.  1.
         13    1    1    2    0    0 -0.18719098548E+02  0.95199341217E+02 -0.67806357870E+02  0.11836820751E+03  0.10566000000E+00 0. -1.
          4    1    1    2  501    0 -0.27727718025E+03  0.34481847549E+03 -0.26025293295E+03  0.51333615189E+03  0.00000000000E+00 0.  1.
</event>
<event>
 5    1  0.2540860E-005  0.4885348E+03  0.7818608E-02  0.9626203E-01
          4   -1    0    0  502    0 -0.00000000000E+00  0.00000000000E+00  0.15890263882E+04  0.15890263882E+04  0.00000000000E+00 0.  1.
         21   -1    0    0  501  502  0.00000000000E+00 -0.00000000000E+00 -0.30554918072E+03  0.30554918072E+03  0.00000000000E+00 0.  1.
        -13    1    1    2    0    0 -0.43857695060E+03 -0.22869908546E+03  0.76272735354E+03  0.90906877643E+03  0.10566000000E+00 0.  1.
         13    1    1    2    0    0  0.20613816878E+03 -0.23773892764E+03  0.17431726793E+03  0.35972109113E+03  0.10566000000E+00 0. -1.
          4    1    1    2  501    0  0.23243878181E+03  0.46643801310E+03  0.34643258600E+03  0.62578570134E+03  0.00000000000E+00 0.  1.
</event>
<event>
 5    1  0.2540860E-005  0.7315213E+02  0.7818608E-02  0.1218692E+00
          4   -1    0    0  502    0 -0.00000000000E+00  0.00000000000E+00  0.40203241801E+03  0.40203241801E+03  0.00000000000E+00 0.  1.
         21   -1    0    0  501  502  0.00000000000E+00 -0.00000000000E+00 -0.25762017117E+03  0.25762017117E+03  0.00000000000E+00 0.  1.
        -13    1    1    2    0    0 -0.35449564608E+02 -0.67932716288E+02  0.33817868111E+03  0.34675114577E+03  0.10566000000E+00 0.  1.
         13    1    1    2    0    0 -0.22673593586E+01  0.65347000391E+02  0.39632899846E+02  0.76460115699E+02  0.10566000000E+00 0. -1.
          4    1    1    2  501    0  0.37716923967E+02  0.25857158975E+01 -0.23339933411E+03  0.23644132770E+03  0.00000000000E+00 0.  1.
</event>
<event>
 5    1  0.2540860E-005  0.7055338E+02  0.7818608E-02  0.1225283E+00
         21   -1    0    0  501  502  0.00000000000E+00  0.00000000000E+00  0.10321568679E+03  0.10321568679E+03  0.00000000000E+00 0. -1.
          4   -1    0    0  502    0 -0.00000000000E+00 -0.00000000000E+00 -0.76556621309E+02  0.76556621309E+02  0.00000000000E+00 0.  1.
        -13    1    1    2    0    0  0.44331689975E+02 -0.53451560896E+02 -0.21334880811E+02  0.72646792094E+02  0.10566000000E+00 0.  1.
         13    1    1    2    0    0 -0.60434166721E+02  0.43510386307E+02  0.27898519573E+02  0.79522203077E+02  0.10566000000E+00 0. -1.
          4    1    1    2  501    0  0.16102476746E+02  0.99411745896E+01  0.20095426722E+02  0.27603312930E+02  0.00000000000E+00 0.  1.
</event>
<event>
 5    1  0.2540860E-005  0.1403585E+03  0.7818608E-02  0.1111030E+00
         21   -1    0    0  501  502  0.00000000000E+00  0.00000000000E+00  0.98759354792E+02  0.98759354792E+02  0.00000000000E+00 0.  1.
         -4   -1    0    0    0  501 -0.00000000000E+00 -0.00000000000E+00 -0.26702076339E+03  0.26702076339E+03  0.00000000000E+00 0. -1.
        -13    1    1    2    0    0 -0.71057157042E+02  0.12425505865E+03 -0.82613629158E+01  0.14337608046E+03  0.10566000000E+00 0.  1.
         13    1    1    2    0    0  0.80681645800E+02 -0.11371700303E+03 -0.15101333972E+03  0.20553862091E+03  0.10566000000E+00 0. -1.
         -4    1    1    2    0  502 -0.96244887582E+01 -0.10538055623E+02 -0.89867059616E+01  0.16865416811E+02  0.00000000000E+00 0. -1.
</event>
<event>
 5    1  0.2540860E-005  0.3573926E+03  0.7818608E-02  0.9862055E-01
          4   -1    0    0  502    0 -0.00000000000E+00  0.00000000000E+00  0.28918716806E+04  0.28918716806E+04  0.00000000000E+00 0.  1.
         21   -1    0    0  501  502  0.00000000000E+00 -0.00000000000E+00 -0.18367819464E+03  0.18367819464E+03  0.00000000000E+00 0.  1.
        -13    1    1    2    0    0 -0.18493049279E+03 -0.27784426345E+03  0.15152244014E+04  0.15515481686E+04  0.10566000000E+00 0.  1.
         13    1    1    2    0    0 -0.20197868045E+03  0.29312687580E+03  0.10541931473E+04  0.11126733374E+04  0.10566000000E+00 0. -1.
          4    1    1    2  501    0  0.38690917324E+03 -0.15282612354E+02  0.13877593727E+03  0.41132836924E+03  0.00000000000E+00 0.  1.
</event>
<event>
 5    1  0.2540860E-005  0.4936987E+03  0.7818608E-02  0.9675987E-01
         21   -1    0    0  501  502  0.00000000000E+00  0.00000000000E+00  0.17149272718E+03  0.17149272718E+03  0.00000000000E+00 0.  1.
          4   -1    0    0  502    0 -0.00000000000E+00 -0.00000000000E+00 -0.28379002553E+04  0.28379002553E+04  0.00000000000E+00 0.  1.
        -13    1    1    2    0    0  0.43923265335E+03 -0.37085034965E+03 -0.75071773732E+03  0.94553288568E+03  0.10566000000E+00 0.  1.
         13    1    1    2    0    0 -0.25432548588E+03 -0.28324789272E+02 -0.11735868178E+04  0.12011618444E+04  0.10566000000E+00 0. -1.
          4    1    1    2  501    0 -0.18490716747E+03  0.39917513892E+03 -0.74210297304E+03  0.86269825241E+03  0.00000000000E+00 0.  1.
</event>
<event>
 5    1  0.2540860E-005  0.1588060E+02  0.7818608E-02  0.1576853E+00
         -4   -1    0    0    0  501 -0.00000000000E+00  0.00000000000E+00  0.16536996437E+02  0.16536996437E+02  0.00000000000E+00 0. -1.
         21   -1    0    0  501  502  0.00000000000E+00 -0.00000000000E+00 -0.10288423559E+03  0.10288423559E+03  0.00000000000E+00 0.  1.
        -13    1    1    2    0    0  0.17441669058E+02 -0.24383215450E+01 -0.45420009203E+02  0.48714942590E+02  0.10566000000E+00 0.  1.
         13    1    1    2    0    0 -0.77063374651E+01  0.14468549403E+02  0.88144852830E+01  0.18612707320E+02  0.10566000000E+00 0. -1.
         -4    1    1    2    0  502 -0.97353315925E+01 -0.12030227858E+02 -0.49741715232E+02  0.52093582117E+02  0.00000000000E+00 0. -1.
</event>
<event>
 5    1  0.2540860E-005  0.4967415E+03  0.7818608E-02  0.9705403E-01
          4   -1    0    0  502    0 -0.00000000000E+00  0.00000000000E+00  0.25308577025E+03  0.25308577025E+03  0.00000000000E+00 0.  1.
         21   -1    0    0  501  502  0.00000000000E+00 -0.00000000000E+00 -0.19265734632E+04  0.19265734632E+04  0.00000000000E+00 0.  1.
        -13    1    1    2    0    0  0.49310695783E+03  0.28610202130E+03 -0.10718237968E+04  0.12140078669E+04  0.10566000000E+00 0.  1.
         13    1    1    2    0    0 -0.58968773994E+02 -0.21891483697E+03 -0.76593827493E+01  0.22684730428E+03  0.10566000000E+00 0. -1.
          4    1    1    2  501    0 -0.43413818384E+03 -0.67187184328E+02 -0.59400451340E+03  0.73880406221E+03  0.00000000000E+00 0.  1.
</event>
<event>
 5    1  0.2540860E-005  0.4106886E+03  0.7818608E-02  0.9730416E-01
          4   -1    0    0  502    0 -0.00000000000E+00  0.00000000000E+00  0.15708629502E+04  0.15708629502E+04  0.00000000000E+00 0.  1.
         21   -1    0    0  501  502  0.00000000000E+00 -0.00000000000E+00 -0.37362075864E+03  0.37362075864E+03  0.00000000000E+00 0.  1.
        -13    1    1    2    0    0  0.20402480868E+03  0.37364567724E+03 -0.53859159782E+02  0.42911307943E+03  0.10566000000E+00 0.  1.
         13    1    1    2    0    0 -0.35922742495E+03  0.79066174676E+02  0.65186238934E+03  0.74847871621E+03  0.10566000000E+00 0. -1.
          4    1    1    2  501    0  0.15520261627E+03 -0.45271185192E+03  0.59923896204E+03  0.76689191324E+03  0.00000000000E+00 0.  1.
</event>
<event>
 5    1  0.2540860E-005  0.6365752E+03  0.7818608E-02  0.9220441E-01
         -4   -1    0    0    0  501 -0.00000000000E+00  0.00000000000E+00  0.20001749191E+04  0.20001749191E+04  0.00000000000E+00 0. -1.
         21   -1    0    0  501  502  0.00000000000E+00 -0.00000000000E+00 -0.71096186422E+03  0.71096186422E+03  0.00000000000E+00 0.  1.
        -13    1    1    2    0    0  0.50623117490E+03  0.37846014153E+03  0.13824614677E+04  0.15200992738E+04  0.10566000000E+00 0.  1.
         13    1    1    2    0    0 -0.29447853482E+03 -0.70038915236E+03 -0.21026054382E+03  0.78833500472E+03  0.10566000000E+00 0. -1.
         -4    1    1    2    0  502 -0.21175264008E+03  0.32192901082E+03  0.11701213093E+03  0.40270250481E+03  0.00000000000E+00 0. -1.
</event>
<event>
 5    1  0.2540860E-005  0.2311129E+02  0.7818608E-02  0.1470679E+00
          4   -1    0    0  502    0 -0.00000000000E+00  0.00000000000E+00  0.86069067824E+02  0.86069067824E+02  0.00000000000E+00 0.  1.
         21   -1    0    0  501  502  0.00000000000E+00 -0.00000000000E+00 -0.30000629710E+02  0.30000629710E+02  0.00000000000E+00 0.  1.
        -13    1    1    2    0    0 -0.31847369972E+02  0.22862785623E+02  0.19817758299E+02  0.43928540252E+02  0.10566000000E+00 0.  1.
         13    1    1    2    0    0  0.18372035219E+02 -0.87059933108E+01  0.46005288063E+02  0.50297352728E+02  0.10566000000E+00 0. -1.
          4    1    1    2  501    0  0.13475334753E+02 -0.14156792313E+02 -0.97546082485E+01  0.21843804554E+02  0.00000000000E+00 0.  1.
</event>
<event>
 5    1  0.2540860E-005  0.4603486E+02  0.7818608E-02  0.1345897E+00
         -4   -1    0    0    0  501 -0.00000000000E+00  0.00000000000E+00  0.32687986181E+03  0.32687986181E+03  0.00000000000E+00 0. -1.
         21   -1    0    0  501  502  0.00000000000E+00 -0.00000000000E+00 -0.47877903122E+02  0.47877903122E+02  0.00000000000E+00 0. -1.
        -13    1    1    2    0    0  0.59408870379E+01 -0.22318297430E+02  0.44107331463E+02  0.49788235475E+02  0.10566000000E+00 0.  1.
         13    1    1    2    0    0 -0.20219077379E+02  0.65003754260E+02  0.26315846789E+03  0.27182106163E+03  0.10566000000E+00 0. -1.
         -4    1    1    2    0  502  0.14278190341E+02 -0.42685456830E+02 -0.28263840660E+02  0.53148467834E+02  0.00000000000E+00 0. -1.
</event>
<event>
 5    1  0.2540860E-005  0.3797683E+03  0.7818608E-02  0.9789365E-01
         21   -1    0    0  501  502  0.00000000000E+00  0.00000000000E+00  0.92518887129E+03  0.92518887129E+03  0.00000000000E+00 0.  1.
          4   -1    0    0  502    0 -0.00000000000E+00 -0.00000000000E+00 -0.12829092489E+04  0.12829092489E+04  0.00000000000E+00 0.  1.
        -13    1    1    2    0    0 -0.29290615563E+03  0.18090095888E+03 -0.23324904141E+03  0.41584167589E+03  0.10566000000E+00 0.  1.
         13    1    1    2    0    0  0.35118294860E+03 -0.18296786508E+03 -0.91634118319E+03  0.99824239452E+03  0.10566000000E+00 0. -1.
          4    1    1    2  501    0 -0.58276792979E+02  0.20669062072E+01  0.79186984698E+03  0.79401404979E+03  0.00000000000E+00 0.  1.
</event>
<event>
 5    1  0.2540860E-005  0.6006000E+02  0.7818608E-02  0.1265094E+00
         -4   -1    0    0    0  501 -0.00000000000E+00  0.00000000000E+00  0.69551520865E+02  0.69551520865E+02  0.00000000000E+00 0. -1.
         21   -1    0    0  501  502  0.00000000000E+00 -0.00000000000E+00 -0.15663092224E+03  0.15663092224E+03  0.00000000000E+00 0.  1.
        -13    1    1    2    0    0  0.21143503577E+02 -0.44513217306E+02 -0.70807276302E+02  0.86267930309E+02  0.10566000000E+00 0.  1.
         13    1    1    2    0    0 -0.74651753145E+02  0.29621260168E+02  0.49261552673E+01  0.80464784044E+02  0.10566000000E+00 0. -1.
         -4    1    1    2    0  502  0.53508249568E+02  0.14891957138E+02 -0.21198280340E+02  0.59449728751E+02  0.00000000000E+00 0. -1.
</event>
<event>
 5    1  0.2540860E-005  0.3085428E+03  0.7818608E-02  0.1003840E+00
         21   -1    0    0  501  502  0.00000000000E+00  0.00000000000E+00  0.94566193992E+03  0.94566193992E+03  0.00000000000E+00 0. -1.
          4   -1    0    0  502    0 -0.00000000000E+00 -0.00000000000E+00 -0.21283030384E+03  0.21283030384E+03  0.00000000000E+00 0.  1.
        -13    1    1    2    0    0  0.31006463472E+03  0.72552143116E+02  0.68432240223E+03  0.75478543477E+03  0.10566000000E+00 0.  1.
         13    1    1    2    0    0 -0.30036642457E+03 -0.62165391911E+02 -0.44212843025E+02  0.30990210004E+03  0.10566000000E+00 0. -1.
          4    1    1    2  501    0 -0.96982101552E+01 -0.10386751205E+02  0.92722076871E+02  0.93804708944E+02  0.00000000000E+00 0.  1.
</event>
<event>
 5    1  0.2540860E-005  0.4922675E+03  0.7818608E-02  0.9746079E-01
          4   -1    0    0  502    0 -0.00000000000E+00  0.00000000000E+00  0.61643575823E+03  0.61643575823E+03  0.00000000000E+00 0.  1.
         21   -1    0    0  501  502  0.00000000000E+00 -0.00000000000E+00 -0.62730660549E+03  0.62730660549E+03  0.00000000000E+00 0.  1.
        -13    1    1    2    0    0 -0.16750635866E+03  0.52083602095E+03 -0.46038569067E+02  0.54904289624E+03  0.10566000000E+00 0.  1.
         13    1    1    2    0    0  0.19385422854E+03 -0.57955148428E+02  0.10147378285E+03  0.22635194039E+03  0.10566000000E+00 0. -1.
          4    1    1    2  501    0 -0.26347869882E+02 -0.46288087252E+03 -0.66306061043E+02  0.46834752708E+03  0.00000000000E+00 0.  1.
</event>
<event>
 5    1  0.2540860E-005  0.4058788E+03  0.7818608E-02  0.1003015E+00
          4   -1    0    0  502    0 -0.00000000000E+00  0.00000000000E+00  0.47810684976E+03  0.47810684976E+03  0.00000000000E+00 0.  1.
         21   -1    0    0  501  502  0.00000000000E+00 -0.00000000000E+00 -0.67238383655E+03  0.67238383655E+03  0.00000000000E+00 0.  1.
        -13    1    1    2    0    0 -0.48918402119E+03 -0.13530321640E+03  0.20822130561E+02  0.50797789247E+03  0.10566000000E+00 0.  1.
         13    1    1    2    0    0  0.13888030852E+03  0.98954214823E+01  0.86188126131E+02  0.16375000369E+03  0.10566000000E+00 0. -1.
          4    1    1    2  501    0  0.35030371267E+03  0.12540779492E+03 -0.30128724348E+03  0.47876279014E+03  0.00000000000E+00 0.  1.
</event>
<event>
 5    1  0.2540860E-005  0.3847804E+03  0.7818608E-02  0.9774059E-01
         21   -1    0    0  501  502  0.00000000000E+00  0.00000000000E+00  0.12338854511E+03  0.12338854511E+03  0.00000000000E+00 0. -1.
         -4   -1    0    0    0  501 -0.00000000000E+00 -0.00000000000E+00 -0.18991722351E+04  0.18991722351E+04  0.00000000000E+00 0. -1.
        -13    1    1    2    0    0 -0.31556367156E+02  0.31299200879E+03 -0.34232955297E+03  0.46491863361E+03  0.10566000000E+00 0.  1.
         13    1    1    2    0    0 -0.55833759304E+02 -0.42457547001E+03 -0.12752775691E+04  0.13452563428E+04  0.10566000000E+00 0. -1.
         -4    1    1    2    0  502  0.87390126460E+02  0.11158346122E+03 -0.15817656789E+03  0.21238580379E+03  0.00000000000E+00 0. -1.
</event>
<event>
 5    1  0.2540860E-005  0.2884580E+03  0.7818608E-02  0.1012187E+00
         21   -1    0    0  501  502  0.00000000000E+00  0.00000000000E+00  0.28262984568E+03  0.28262984568E+03  0.00000000000E+00 0.  1.
          4   -1    0    0  502    0 -0.00000000000E+00 -0.00000000000E+00 -0.16465629835E+04  0.16465629835E+04  0.00000000000E+00 0.  1.
        -13    1    1    2    0    0  0.17841917157E+02 -0.29331585461E+03 -0.10748483013E+04  0.11142941293E+04  0.10566000000E+00 0.  1.
         13    1    1    2    0    0 -0.12866642560E+03  0.26292709411E+03 -0.49731246736E+03  0.57706620699E+03  0.10566000000E+00 0. -1.
          4    1    1    2  501    0  0.11082450844E+03  0.30388760502E+02  0.20822763085E+03  0.23783249291E+03  0.00000000000E+00 0.  1.
</event>
<event>
 5    1  0.2540860E-005  0.4704335E+03  0.7818608E-02  0.9545242E-01
          4   -1    0    0  502    0 -0.00000000000E+00  0.00000000000E+00  0.95981610578E+03  0.95981610578E+03  0.00000000000E+00 0.  1.
         21   -1    0    0  501  502  0.00000000000E+00 -0.00000000000E+00 -0.65881183139E+03  0.65881183139E+03  0.00000000000E+00 0.  1.
        -13    1    1    2    0    0  0.10597633105E+03  0.68695288312E+03 -0.19767064933E+03  0.72264025846E+03  0.10566000000E+00 0.  1.
         13    1    1    2    0    0 -0.95794873620E+02 -0.41806522182E+03  0.45161113620E+03  0.62282246027E+03  0.10566000000E+00 0. -1.
          4    1    1    2  501    0 -0.10181457431E+02 -0.26888766130E+03  0.47063787520E+02  0.27316521845E+03  0.00000000000E+00 0.  1.
</event>
<event>
 5    1  0.2540860E-005  0.3719238E+03  0.7818608E-02  0.1006896E+00
         -4   -1    0    0    0  501 -0.00000000000E+00  0.00000000000E+00  0.15632765207E+04  0.15632765207E+04  0.00000000000E+00 0. -1.
         21   -1    0    0  501  502  0.00000000000E+00 -0.00000000000E+00 -0.22517776010E+03  0.22517776010E+03  0.00000000000E+00 0.  1.
        -13    1    1    2    0    0 -0.94334009052E+02 -0.12866448053E+03  0.17247747818E+03  0.23495094266E+03  0.10566000000E+00 0.  1.
         13    1    1    2    0    0 -0.28766122566E+03  0.47168863643E+02  0.11234375986E+04  0.11606403110E+04  0.10566000000E+00 0. -1.
         -4    1    1    2    0  502  0.38199523472E+03  0.81495616887E+02  0.42183683842E+02  0.39286302715E+03  0.00000000000E+00 0. -1.
</event>
<event>
 5    1  0.2540860E-005  0.3285029E+03  0.7818608E-02  0.9961893E-01
         -4   -1    0    0    0  501 -0.00000000000E+00  0.00000000000E+00  0.11272760846E+04  0.11272760846E+04  0.00000000000E+00 0. -1.
         21   -1    0    0  501  502  0.00000000000E+00 -0.00000000000E+00 -0.45710648430E+03  0.45710648430E+03  0.00000000000E+00 0. -1.
        -13    1    1    2    0    0  0.22411423096E+03  0.19668141050E+03  0.16499023893E+03  0.34078227046E+03  0.10566000000E+00 0.  1.
         13    1    1    2    0    0 -0.26094202078E+03 -0.21788010784E+03  0.83995507665E+03  0.90613852228E+03  0.10566000000E+00 0. -1.
         -4    1    1    2    0  502  0.36827789816E+02  0.21198697339E+02 -0.33477571524E+03  0.33746177619E+03  0.00000000000E+00 0. -1.
</event>
<event>
 5    1  0.2540860E-005  0.5046519E+03  0.7818608E-02  0.9610539E-01
         21   -1    0    0  501  502  0.00000000000E+00  0.00000000000E+00  0.45057213442E+03  0.45057213442E+03  0.00000000000E+00 0.  1.
          4   -1    0    0  502    0 -0.00000000000E+00 -0.00000000000E+00 -0.11786531350E+04  0.11786531350E+04  0.00000000000E+00 0.  1.
        -13    1    1    2    0    0  0.32897841217E+03 -0.17247023175E+03 -0.20886452317E+03  0.42614220246E+03  0.10566000000E+00 0.  1.
         13    1    1    2    0    0  0.20777618800E+03 -0.21883440308E+03 -0.44083964038E+03  0.53422751704E+03  0.10566000000E+00 0. -1.
          4    1    1    2  501    0 -0.53675460018E+03  0.39130463483E+03 -0.78376837023E+02  0.66885554990E+03  0.00000000000E+00 0.  1.
</event>
<event>
 5    1  0.2540860E-005  0.3007068E+03  0.7818608E-02  0.1007014E+00
         -4   -1    0    0    0  501 -0.00000000000E+00  0.00000000000E+00  0.84387071060E+03  0.84387071060E+03  0.00000000000E+00 0. -1.
         21   -1    0    0  501  502  0.00000000000E+00 -0.00000000000E+00 -0.42456514809E+03  0.42456514809E+03  0.00000000000E+00 0. -1.
        -13    1    1    2    0    0  0.17017824522E+03 -0.13751195821E+03  0.76782815027E+02  0.23187450409E+03  0.10566000000E+00 0.  1.
         13    1    1    2    0    0 -0.33745613080E+03  0.11694360044E+03  0.61790773132E+03  0.71369630901E+03  0.10566000000E+00 0. -1.
         -4    1    1    2    0  502  0.16727788558E+03  0.20568357774E+02 -0.27538498384E+03  0.32286504560E+03  0.00000000000E+00 0. -1.
</event>
<event>
 5    1  0.2540860E-005  0.2758559E+03  0.7818608E-02  0.1017801E+00
         21   -1    0    0  501  502  0.00000000000E+00  0.00000000000E+00  0.71081449669E+03  0.71081449669E+03  0.00000000000E+00 0.  1.
         -4   -1    0    0    0  501 -0.00000000000E+00 -0.00000000000E+00 -0.59388874034E+03  0.59388874034E+03  0.00000000000E+00 0. -1.
        -13    1    1    2    0    0 -0.92938848847E+02 -0.22790492420E+03  0.40481305874E+03  0.47376355684E+03  0.10566000000E+00 0.  1.
         13    1    1    2    0    0  0.65291367678E+02  0.27065387408E+03 -0.52186396002E+03  0.59148836521E+03  0.10566000000E+00 0. -1.
         -4    1    1    2    0  502  0.27647481169E+02 -0.42748949878E+02  0.23397665763E+03  0.23945131498E+03  0.00000000000E+00 0. -1.
</event>
<event>
 5    1  0.2540860E-005  0.1357353E+03  0.7818608E-02  0.1116099E+00
          4   -1    0    0  502    0 -0.00000000000E+00  0.00000000000E+00  0.76180094550E+03  0.76180094550E+03  0.00000000000E+00 0.  1.
         21   -1    0    0  501  502  0.00000000000E+00 -0.00000000000E+00 -0.11774752926E+03  0.11774752926E+03  0.00000000000E+00 0. -1.
        -13    1    1    2    0    0  0.43864633488E+02 -0.12819656487E+03  0.67811439321E+03  0.69151833436E+03  0.10566000000E+00 0.  1.
         13    1    1    2    0    0 -0.77369388265E+02  0.11939411344E+03 -0.42611709836E+01  0.14233462442E+03  0.10566000000E+00 0. -1.
          4    1    1    2  501    0  0.33504754777E+02  0.88024514276E+01 -0.29799805986E+02  0.45695515979E+02  0.00000000000E+00 0.  1.
</event>
<event>
 5    1  0.2540860E-005  0.4606924E+03  0.7818608E-02  0.1003300E+00
         21   -1    0    0  501  502  0.00000000000E+00  0.00000000000E+00  0.94983818417E+03  0.94983818417E+03  0.00000000000E+00 0.  1.
          4   -1    0    0  502    0 -0.00000000000E+00 -0.00000000000E+00 -0.43621278503E+03  0.43621278503E+03  0.00000000000E+00 0.  1.
        -13    1    1    2    0    0  0.31803589658E+03  0.41713735467E+03  0.19734934779E+03  0.56044373528E+03  0.10566000000E+00 0.  1.
         13    1    1    2    0    0 -0.67491846857E+02 -0.65904597277E+02 -0.15827424196E+03  0.18425339119E+03  0.10566000000E+00 0. -1.
          4    1    1    2  501    0 -0.25054404973E+03 -0.35123275739E+03  0.47455029330E+03  0.64135384273E+03  0.00000000000E+00 0.  1.
</event>
<event>
 5    1  0.2540860E-005  0.4566977E+03  0.7818608E-02  0.9693885E-01
         21   -1    0    0  501  502  0.00000000000E+00  0.00000000000E+00  0.24405403928E+03  0.24405403928E+03  0.00000000000E+00 0.  1.
          4   -1    0    0  502    0 -0.00000000000E+00 -0.00000000000E+00 -0.21954897189E+04  0.21954897189E+04  0.00000000000E+00 0.  1.
        -13    1    1    2    0    0 -0.12049528572E+03 -0.61390006659E+03 -0.71474941808E+03  0.94987322704E+03  0.10566000000E+00 0.  1.
         13    1    1    2    0    0 -0.98743631025E+02  0.28717513343E+03 -0.96464994146E+03  0.10113206132E+04  0.10566000000E+00 0. -1.
          4    1    1    2  501    0  0.21923891674E+03  0.32672493316E+03 -0.27203632007E+03  0.47834991795E+03  0.00000000000E+00 0.  1.
</event>
<event>
 5    1  0.2540860E-005  0.8442269E+02  0.7818608E-02  0.1193268E+00
          4   -1    0    0  502    0 -0.00000000000E+00  0.00000000000E+00  0.10856573923E+03  0.10856573923E+03  0.00000000000E+00 0.  1.
         21   -1    0    0  501  502  0.00000000000E+00 -0.00000000000E+00 -0.39630950249E+03  0.39630950249E+03  0.00000000000E+00 0.  1.
        -13    1    1    2    0    0  0.80374938057E+02  0.37964267552E+02  0.75071487640E+02  0.11634928319E+03  0.10566000000E+00 0.  1.
         13    1    1    2    0    0 -0.66585170061E+02 -0.75846729045E+01 -0.82762660705E+02  0.10649310450E+03  0.10566000000E+00 0. -1.
          4    1    1    2  501    0 -0.13789767997E+02 -0.30379594648E+02 -0.28005259020E+03  0.28203285403E+03  0.00000000000E+00 0.  1.
</event>
<event>
 5    1  0.2540860E-005  0.3796995E+03  0.7818608E-02  0.1003593E+00
         -4   -1    0    0    0  501 -0.00000000000E+00  0.00000000000E+00  0.40506088878E+03  0.40506088878E+03  0.00000000000E+00 0. -1.
         21   -1    0    0  501  502  0.00000000000E+00 -0.00000000000E+00 -0.11130436974E+04  0.11130436974E+04  0.00000000000E+00 0. -1.
        -13    1    1    2    0    0 -0.16598344536E+03  0.17377734036E+02  0.12400036174E+03  0.20791486395E+03  0.10566000000E+00 0.  1.
         13    1    1    2    0    0  0.42387347176E+03  0.23425799971E+03 -0.10026704640E+03  0.49456953227E+03  0.10566000000E+00 0. -1.
         -4    1    1    2    0  502 -0.25789002640E+03 -0.25163573375E+03 -0.73171612400E+03  0.81562019000E+03  0.00000000000E+00 0. -1.
</event>
<event>
 5    1  0.2540860E-005  0.2530447E+03  0.7818608E-02  0.1028827E+00
         -4   -1    0    0    0  501 -0.00000000000E+00  0.00000000000E+00  0.13853214830E+04  0.13853214830E+04  0.00000000000E+00 0. -1.
         21   -1    0    0  501  502  0.00000000000E+00 -0.00000000000E+00 -0.31751133778E+03  0.31751133778E+03  0.00000000000E+00 0. -1.
        -13    1    1    2    0    0 -0.20866863485E+03  0.11130432032E+03  0.43450427566E+03  0.49469710695E+03  0.10566000000E+00 0.  1.
         13    1    1    2    0    0  0.42993709101E+03 -0.33233111063E+02 -0.96203527086E+02  0.44182063293E+03  0.10566000000E+00 0. -1.
         -4    1    1    2    0  502 -0.22126845616E+03 -0.78071209258E+02  0.72950939666E+03  0.76631508090E+03  0.00000000000E+00 0. -1.
</event>
<event>
 5    1  0.3728195E-005  0.4740816E+03  0.7818608E-02  0.1027103E+00
         21   -1    0    0  501  502  0.00000000000E+00  0.00000000000E+00  0.39899177842E+03  0.39899177842E+03  0.00000000000E+00 0. -1.
         -4   -1    0    0    0  501 -0.00000000000E+00 -0.00000000000E+00 -0.78812785656E+03  0.78812785656E+03  0.00000000000E+00 0. -1.
        -13    1    1    2    0    0  0.39650430430E+02  0.86976534045E+01 -0.15733761117E+03  0.16248981772E+03  0.10566000000E+00 0.  1.
         13    1    1    2    0    0 -0.35724702401E+03  0.33343133004E+03 -0.26632711274E+03  0.55653574024E+03  0.10566000000E+00 0. -1.
         -4    1    1    2    0  502  0.31759659358E+03 -0.34212898344E+03  0.34528645771E+02  0.46809407703E+03  0.00000000000E+00 0. -1.
</event>
<event>
 5    1  0.2540860E-005  0.2619080E+03  0.7818608E-02  0.1024400E+00
         -4   -1    0    0    0  501 -0.00000000000E+00  0.00000000000E+00  0.17299766144E+03  0.17299766144E+03  0.00000000000E+00 0. -1.
         21   -1    0    0  501  502  0.00000000000E+00 -0.00000000000E+00 -0.48827858783E+03  0.48827858783E+03  0.00000000000E+00 0.  1.
        -13    1    1    2    0    0 -0.17114204962E+03  0.18903961363E+03 -0.18349420707E+03  0.31415873673E+03  0.10566000000E+00 0.  1.
         13    1    1    2    0    0  0.18624884838E+03 -0.19074889016E+03 -0.59376946454E+02  0.27312891746E+03  0.10566000000E+00 0. -1.
         -4    1    1    2    0  502 -0.15106798754E+02  0.17092765312E+01 -0.72409772869E+02  0.73988595079E+02  0.00000000000E+00 0. -1.
</event>
<event>
 5    1  0.2540860E-005  0.1963623E+03  0.7818608E-02  0.1062659E+00
         21   -1    0    0  501  502  0.00000000000E+00  0.00000000000E+00  0.43416017561E+02  0.43416017561E+02  0.00000000000E+00 0.  1.
         -4   -1    0    0    0  501 -0.00000000000E+00 -0.00000000000E+00 -0.15212689677E+04  0.15212689677E+04  0.00000000000E+00 0. -1.
        -13    1    1    2    0    0 -0.29802845546E+02  0.20148670774E+03 -0.36692501485E+03  0.41966543899E+03  0.10566000000E+00 0.  1.
         13    1    1    2    0    0  0.19339863560E+02 -0.19312279909E+03 -0.11144051373E+04  0.11311804750E+04  0.10566000000E+00 0. -1.
         -4    1    1    2    0  502  0.10462981986E+02 -0.83639086462E+01  0.34772019924E+01  0.13839071269E+02  0.00000000000E+00 0. -1.
</event>
<event>
 5    1  0.2540860E-005  0.4437641E+03  0.7818608E-02  0.9610558E-01
         -4   -1    0    0    0  501 -0.00000000000E+00  0.00000000000E+00  0.16750790608E+04  0.16750790608E+04  0.00000000000E+00 0. -1.
         21   -1    0    0  501  502  0.00000000000E+00 -0.00000000000E+00 -0.17418251138E+03  0.17418251138E+03  0.00000000000E+00 0.  1.
        -13    1    1    2    0    0  0.28209152571E+03  0.33333163189E+03  0.10477302631E+04  0.11350878033E+04  0.10566000000E+00 0.  1.
         13    1    1    2    0    0 -0.29630169320E+03 -0.34982827256E+03  0.49022681401E+03  0.67119062420E+03  0.10566000000E+00 0. -1.
         -4    1    1    2    0  502  0.14210167482E+02  0.16496640673E+02 -0.37060527729E+02  0.42983144707E+02  0.00000000000E+00 0. -1.
</event>
<event>
 5    1  0.2540860E-005  0.5016355E+03  0.7818608E-02  0.9670996E-01
          4   -1    0    0  502    0 -0.00000000000E+00  0.00000000000E+00  0.16621060616E+04  0.16621060616E+04  0.00000000000E+00 0.  1.
         21   -1    0    0  501  502  0.00000000000E+00 -0.00000000000E+00 -0.33211371817E+03  0.33211371817E+03  0.00000000000E+00 0.  1.
        -13    1    1    2    0    0 -0.29075275666E+03  0.51294750767E+03  0.22946105781E+03  0.63269637216E+03  0.10566000000E+00 0.  1.
         13    1    1    2    0    0  0.23397947981E+03 -0.82938000980E+02  0.78998802058E+03  0.82807378464E+03  0.10566000000E+00 0. -1.
          4    1    1    2  501    0  0.56773276849E+02 -0.43000950669E+03  0.31054326509E+03  0.53344962302E+03  0.00000000000E+00 0.  1.
</event>
<event>
 5    1  0.2540860E-005  0.4938867E+03  0.7818608E-02  0.9491473E-01
         21   -1    0    0  501  502  0.00000000000E+00  0.00000000000E+00  0.22219299060E+03  0.22219299060E+03  0.00000000000E+00 0. -1.
          4   -1    0    0  502    0 -0.00000000000E+00 -0.00000000000E+00 -0.19155870809E+04  0.19155870809E+04  0.00000000000E+00 0.  1.
        -13    1    1    2    0    0 -0.31005131067E+03 -0.35125361986E+03 -0.41568385256E+03  0.62634175747E+03  0.10566000000E+00 0.  1.
         13    1    1    2    0    0  0.30577605567E+03  0.40238016225E+03 -0.13391824230E+04  0.14313694019E+04  0.10566000000E+00 0. -1.
          4    1    1    2  501    0  0.42752550005E+01 -0.51126542392E+02  0.61472185265E+02  0.80068912216E+02  0.00000000000E+00 0.  1.
</event>
<event>
 5    1  0.2540860E-005  0.3542330E+02  0.7818608E-02  0.1365998E+00
          4   -1    0    0  502    0 -0.00000000000E+00  0.00000000000E+00  0.21809597545E+03  0.21809597545E+03  0.00000000000E+00 0.  1.
         21   -1    0    0  501  502  0.00000000000E+00 -0.00000000000E+00 -0.27364244416E+02  0.27364244416E+02  0.00000000000E+00 0. -1.
        -13    1    1    2    0    0  0.32784674027E+02 -0.57668887610E+01  0.15511557925E+03  0.15864723744E+03  0.10566000000E+00 0.  1.
         13    1    1    2    0    0 -0.45685701524E+02  0.10282873049E+02  0.48932745445E+02  0.67729945686E+02  0.10566000000E+00 0. -1.
          4    1    1    2  501    0  0.12901027497E+02 -0.45159842877E+01 -0.13316593660E+02  0.19083036742E+02  0.00000000000E+00 0.  1.
</event>
<event>
 5    1  0.2540860E-005  0.2281440E+03  0.7818608E-02  0.1042385E+00
         -4   -1    0    0    0  501 -0.00000000000E+00  0.00000000000E+00  0.19413383903E+04  0.19413383903E+04  0.00000000000E+00 0. -1.
         21   -1    0    0  501  502  0.00000000000E+00 -0.00000000000E+00 -0.10187948477E+03  0.10187948477E+03  0.00000000000E+00 0. -1.
        -13    1    1    2    0    0  0.21659400121E+03 -0.47603606822E+02  0.59161437573E+03  0.63181219162E+03  0.10566000000E+00 0.  1.
         13    1    1    2    0    0 -0.22729578142E+03  0.43231520603E+02  0.13190903656E+04  0.13392280390E+04  0.10566000000E+00 0. -1.
         -4    1    1    2    0  502  0.10701780203E+02  0.43720862192E+01 -0.71245835813E+02  0.72177644449E+02  0.00000000000E+00 0. -1.
</event>
<event>
 5    1  0.2540860E-005  0.4796597E+03  0.7818608E-02  0.1034559E+00
         21   -1    0    0  501  502  0.00000000000E+00  0.00000000000E+00  0.24663003237E+03  0.24663003237E+03  0.00000000000E+00 0.  1.
          4   -1    0    0  502    0 -0.00000000000E+00 -0.00000000000E+00 -0.10625945019E+04  0.10625945019E+04  0.00000000000E+00 0.  1.
        -13    1    1    2    0    0  0.20042039878E+02  0.46896447518E+03 -0.23827408981E+03  0.52640660652E+03  0.10566000000E+00 0.  1.
         13    1    1    2    0    0  0.16289985911E+02  0.26539868549E+02 -0.40621790934E+02  0.51184659091E+02  0.10566000000E+00 0. -1.
          4    1    1    2  501    0 -0.36332025789E+02 -0.49550434373E+03 -0.53706858878E+03  0.73163326866E+03  0.00000000000E+00 0.  1.
</event>
<event>
 5    1  0.2540860E-005  0.4060985E+03  0.7818608E-02  0.9806436E-01
         21   -1    0    0  501  502  0.00000000000E+00  0.00000000000E+00  0.20620290024E+03  0.20620290024E+03  0.00000000000E+00 0.  1.
          4   -1    0    0  502    0 -0.00000000000E+00 -0.00000000000E+00 -0.28387224080E+04  0.28387224080E+04  0.00000000000E+00 0.  1.
        -13    1    1    2    0    0 -0.54205163433E+03 -0.31678649928E+03 -0.90732940802E+03  0.11033677203E+04  0.10566000000E+00 0.  1.
         13    1    1    2    0    0  0.23180055080E+03  0.17920431208E+03 -0.15134156243E+04  0.15415163132E+04  0.10566000000E+00 0. -1.
          4    1    1    2  501    0  0.31025108352E+03  0.13758218720E+03 -0.21177447551E+03  0.40004127480E+03  0.00000000000E+00 0.  1.
</event>
<event>
 5    1  0.2540860E-005  0.1886649E+03  0.7818608E-02  0.1073560E+00
         21   -1    0    0  501  502  0.00000000000E+00  0.00000000000E+00  0.38664779166E+03  0.38664779166E+03  0.00000000000E+00 0. -1.
         -4   -1    0    0    0  501 -0.00000000000E+00 -0.00000000000E+00 -0.45150154946E+03  0.45150154946E+03  0.00000000000E+00 0. -1.
        -13    1    1    2    0    0  0.14547025646E+03  0.70961558508E+02 -0.16216277338E+03  0.22911550479E+03  0.10566000000E+00 0.  1.
         13    1    1    2    0    0 -0.29682766847E+03 -0.14641282747E+03 -0.10323357200E+03  0.34669952750E+03  0.10566000000E+00 0. -1.
         -4    1    1    2    0  502  0.15135741201E+03  0.75451268960E+02  0.20054258758E+03  0.26233430883E+03  0.00000000000E+00 0. -1.
</event>
<event>
 5    1  0.2540860E-005  0.7162801E+02  0.7818608E-02  0.1222519E+00
          4   -1    0    0  502    0 -0.00000000000E+00  0.00000000000E+00  0.23862957388E+03  0.23862957388E+03  0.00000000000E+00 0.  1.
         21   -1    0    0  501  502  0.00000000000E+00 -0.00000000000E+00 -0.26758509603E+02  0.26758509603E+02  0.00000000000E+00 0. -1.
        -13    1    1    2    0    0  0.47185557949E+01  0.69082558438E+02  0.11092538222E+03  0.13076358910E+03  0.10566000000E+00 0.  1.
         13    1    1    2    0    0  0.37391926577E+01 -0.74838549213E+02  0.99081615473E+02  0.12422547122E+03  0.10566000000E+00 0. -1.
          4    1    1    2  501    0 -0.84577484527E+01  0.57559907746E+01  0.18640665879E+01  0.10399023172E+02  0.00000000000E+00 0.  1.
</event>
<event>
 5    1  0.2540860E-005  0.5128371E+02  0.7818608E-02  0.1286649E+00
         21   -1    0    0  501  502  0.00000000000E+00  0.00000000000E+00  0.57506650201E+02  0.57506650201E+02  0.00000000000E+00 0.  1.
          4   -1    0    0  502    0 -0.00000000000E+00 -0.00000000000E+00 -0.17494791396E+03  0.17494791396E+03  0.00000000000E+00 0.  1.
        -13    1    1    2    0    0  0.59640966394E+02 -0.15963908157E+02 -0.65480105959E+02  0.89997481501E+02  0.10566000000E+00 0.  1.
         13    1    1    2    0    0 -0.40406323301E+02  0.23963092542E+02 -0.88614948198E+02  0.10029716334E+03  0.10566000000E+00 0. -1.
          4    1    1    2  501    0 -0.19234643094E+02 -0.79991843844E+01  0.36653790400E+02  0.42159919312E+02  0.00000000000E+00 0.  1.
</event>
<event>
 5    1  0.2540860E-005  0.4481916E+03  0.7818608E-02  0.9599383E-01
          4   -1    0    0  502    0 -0.00000000000E+00  0.00000000000E+00  0.15783417605E+04  0.15783417605E+04  0.00000000000E+00 0.  1.
         21   -1    0    0  501  502  0.00000000000E+00 -0.00000000000E+00 -0.39231439106E+03  0.39231439106E+03  0.00000000000E+00 0.  1.
        -13    1    1    2    0    0 -0.42898583583E+03  0.27165052208E+03  0.76495225891E+03  0.91813660370E+03  0.10566000000E+00 0.  1.
         13    1    1    2    0    0  0.87648157000E+02 -0.45362508259E+03  0.47421529560E+03  0.66207104810E+03  0.10566000000E+00 0. -1.
          4    1    1    2  501    0  0.34133767883E+03  0.18197456051E+03 -0.53140185112E+02  0.39044849972E+03  0.00000000000E+00 0.  1.
</event>
<event>
 5    1  0.2540860E-005  0.4124102E+03  0.7818608E-02  0.9693873E-01
         -4   -1    0    0    0  501 -0.00000000000E+00  0.00000000000E+00  0.78245164779E+03  0.78245164779E+03  0.00000000000E+00 0. -1.
         21   -1    0    0  501  502  0.00000000000E+00 -0.00000000000E+00 -0.65117115518E+03  0.65117115518E+03  0.00000000000E+00 0. -1.
        -13    1    1    2    0    0  0.36002698955E+03 -0.48647931283E+02  0.21156009918E+01  0.36330502522E+03  0.10566000000E+00 0.  1.
         13    1    1    2    0    0 -0.43967100340E+03  0.37008483020E+03 -0.19503236967E+03  0.60688632309E+03  0.10566000000E+00 0. -1.
         -4    1    1    2    0  502  0.79644013851E+02 -0.32143689892E+03  0.32419726129E+03  0.46343145465E+03  0.00000000000E+00 0. -1.
</event>
<event>
 5    1  0.2540860E-005  0.3407975E+03  0.7818608E-02  0.9974662E-01
         21   -1    0    0  501  502  0.00000000000E+00  0.00000000000E+00  0.45657342634E+03  0.45657342634E+03  0.00000000000E+00 0.  1.
         -4   -1    0    0    0  501 -0.00000000000E+00 -0.00000000000E+00 -0.10074498941E+04  0.10074498941E+04  0.00000000000E+00 0. -1.
        -13    1    1    2    0    0 -0.24279982704E+03  0.14358757256E+03 -0.26640422408E+03  0.38799532056E+03  0.10566000000E+00 0.  1.
         13    1    1    2    0    0 -0.44607987385E+02  0.31259903877E+03  0.18079418125E+03  0.36386065838E+03  0.10566000000E+00 0. -1.
         -4    1    1    2    0  502  0.28740781442E+03 -0.45618661132E+03 -0.46526642494E+03  0.71216734152E+03  0.00000000000E+00 0. -1.
</event>
<event>
 5    1  0.2540860E-005  0.4641105E+03  0.7818608E-02  0.1015344E+00
          4   -1    0    0  502    0 -0.00000000000E+00  0.00000000000E+00  0.10635292314E+04  0.10635292314E+04  0.00000000000E+00 0.  1.
         21   -1    0    0  501  502  0.00000000000E+00 -0.00000000000E+00 -0.31971873077E+03  0.31971873077E+03  0.00000000000E+00 0.  1.
        -13    1    1    2    0    0 -0.42231608177E+03 -0.19375456494E+03  0.25884467522E+02  0.46536192493E+03  0.10566000000E+00 0.  1.
         13    1    1    2    0    0  0.28836771688E+02 -0.55586745070E+02  0.24960155398E+03  0.25733711847E+03  0.10566000000E+00 0. -1.
          4    1    1    2  501    0  0.39347931008E+03  0.24934131001E+03  0.46832447916E+03  0.66054891879E+03  0.00000000000E+00 0.  1.
</event>
<event>
 5    1  0.2540860E-005  0.4607815E+02  0.7818608E-02  0.1308636E+00
          4   -1    0    0  502    0 -0.00000000000E+00  0.00000000000E+00  0.78816510433E+02  0.78816510433E+02  0.00000000000E+00 0.  1.
         21   -1    0    0  501  502  0.00000000000E+00 -0.00000000000E+00 -0.95914710031E+02  0.95914710031E+02  0.00000000000E+00 0.  1.
        -13    1    1    2    0    0  0.15182939035E+02 -0.45901425064E+02  0.46423597408E+02  0.67027039477E+02  0.10566000000E+00 0.  1.
         13    1    1    2    0    0  0.12195223731E+02  0.44108106379E+02 -0.89594793211E+01  0.46631877122E+02  0.10566000000E+00 0. -1.
          4    1    1    2  501    0 -0.27378162766E+02  0.17933186858E+01 -0.54562317685E+02  0.61072303866E+02  0.00000000000E+00 0.  1.
</event>
<event>
 5    1  0.2540860E-005  0.1626804E+03  0.7818608E-02  0.1089238E+00
         -4   -1    0    0    0  501 -0.00000000000E+00  0.00000000000E+00  0.61947715996E+03  0.61947715996E+03  0.00000000000E+00 0. -1.
         21   -1    0    0  501  502  0.00000000000E+00 -0.00000000000E+00 -0.79620519623E+02  0.79620519623E+02  0.00000000000E+00 0.  1.
        -13    1    1    2    0    0 -0.17233697471E+03 -0.91399066662E+02  0.22359217425E+03  0.29672764244E+03  0.10566000000E+00 0.  1.
         13    1    1    2    0    0  0.10175290002E+03  0.10987672201E+03  0.28706993284E+03  0.32378342176E+03  0.10566000000E+00 0. -1.
         -4    1    1    2    0  502  0.70584074690E+02 -0.18477655347E+02  0.29194533255E+02  0.78586615393E+02  0.00000000000E+00 0. -1.
</event>
<event>
 5    1  0.2540860E-005  0.3569451E+03  0.7818608E-02  0.9931923E-01
          4   -1    0    0  502    0 -0.00000000000E+00  0.00000000000E+00  0.23155183352E+04  0.23155183352E+04  0.00000000000E+00 0.  1.
         21   -1    0    0  501  502  0.00000000000E+00 -0.00000000000E+00 -0.20757137669E+03  0.20757137669E+03  0.00000000000E+00 0.  1.
        -13    1    1    2    0    0  0.28705409050E+02  0.40498888822E+03  0.17041243606E+04  0.17518218653E+04  0.10566000000E+00 0.  1.
         13    1    1    2    0    0  0.23624609896E+03 -0.15544540677E+03  0.24496876694E+03  0.37414596309E+03  0.10566000000E+00 0. -1.
          4    1    1    2  501    0 -0.26495150801E+03 -0.24954348144E+03  0.15885383092E+03  0.39712188346E+03  0.00000000000E+00 0.  1.
</event>
<event>
 5    1  0.2540860E-005  0.4114590E+03  0.7818608E-02  0.1002182E+00
         21   -1    0    0  501  502  0.00000000000E+00  0.00000000000E+00  0.23728728477E+03  0.23728728477E+03  0.00000000000E+00 0. -1.
         -4   -1    0    0    0  501 -0.00000000000E+00 -0.00000000000E+00 -0.17281697666E+04  0.17281697666E+04  0.00000000000E+00 0. -1.
        -13    1    1    2    0    0  0.85569365574E+02 -0.10739946652E+03 -0.69360609815E+03  0.70706873237E+03  0.10566000000E+00 0.  1.
         13    1    1    2    0    0 -0.96862664104E+02  0.49188670331E+03 -0.70108462272E+03  0.86189011130E+03  0.10566000000E+00 0. -1.
         -4    1    1    2    0  502  0.11293298530E+02 -0.38448723679E+03 -0.96191760984E+02  0.39649820772E+03  0.00000000000E+00 0. -1.
</event>
<event>
 5    1  0.2540860E-005  0.7673472E+03  0.7818608E-02  0.9030617E-01
         21   -1    0    0  501  502  0.00000000000E+00  0.00000000000E+00  0.64618343844E+03  0.64618343844E+03  0.00000000000E+00 0. -1.
         -4   -1    0    0    0  501 -0.00000000000E+00 -0.00000000000E+00 -0.16566131303E+04  0.16566131303E+04  0.00000000000E+00 0. -1.
        -13    1    1    2    0    0 -0.61762050130E+03 -0.35850212923E+03 -0.73617766089E+03  0.10256395175E+04  0.10566000000E+00 0.  1.
         13    1    1    2    0    0  0.65077313731E+03  0.58870859469E+03 -0.44947540140E+03  0.98595721678E+03  0.10566000000E+00 0. -1.
         -4    1    1    2    0  502 -0.33152636015E+02 -0.23020646545E+03  0.17522337047E+03  0.29119983442E+03  0.00000000000E+00 0. -1.
</event>
<event>
 5    1  0.2540860E-005  0.9209079E+03  0.7818608E-02  0.8852679E-01
         21   -1    0    0  501  502  0.00000000000E+00  0.00000000000E+00  0.54441325911E+03  0.54441325911E+03  0.00000000000E+00 0. -1.
         -4   -1    0    0    0  501 -0.00000000000E+00 -0.00000000000E+00 -0.28293957335E+04  0.28293957335E+04  0.00000000000E+00 0. -1.
        -13    1    1    2    0    0 -0.99191584294E+03  0.49815570591E+02 -0.11504609103E+04  0.15198483306E+04  0.10566000000E+00 0.  1.
         13    1    1    2    0    0  0.81777837142E+03  0.40190936061E+03 -0.99702768942E+03  0.13506875373E+04  0.10566000000E+00 0. -1.
         -4    1    1    2    0  502  0.17413747152E+03 -0.45172493120E+03 -0.13749387459E+03  0.50327312466E+03  0.00000000000E+00 0. -1.
</event>
<event>
 5    1  0.2540860E-005  0.4884838E+03  0.7818608E-02  0.9675570E-01
         21   -1    0    0  501  502  0.00000000000E+00  0.00000000000E+00  0.60055777687E+03  0.60055777687E+03  0.00000000000E+00 0. -1.
         -4   -1    0    0    0  501 -0.00000000000E+00 -0.00000000000E+00 -0.77666559312E+03  0.77666559312E+03  0.00000000000E+00 0. -1.
        -13    1    1    2    0    0 -0.18415352686E+03  0.18995649674E+03 -0.22230587367E+03  0.34556606422E+03  0.10566000000E+00 0.  1.
         13    1    1    2    0    0 -0.37075993178E+03  0.12527138242E+03 -0.52682704719E+01  0.39138678070E+03  0.10566000000E+00 0. -1.
         -4    1    1    2    0  502  0.55491345864E+03 -0.31522787915E+03  0.51466327888E+02  0.64027052508E+03  0.00000000000E+00 0. -1.
</event>
<event>
 5    1  0.2540860E-005  0.4043028E+03  0.7818608E-02  0.1011881E+00
         21   -1    0    0  501  502  0.00000000000E+00  0.00000000000E+00  0.31158025070E+03  0.31158025070E+03  0.00000000000E+00 0.  1.
          4   -1    0    0  502    0 -0.00000000000E+00 -0.00000000000E+00 -0.75640013624E+03  0.75640013624E+03  0.00000000000E+00 0.  1.
        -13    1    1    2    0    0  0.43773388695E+03 -0.15216830779E+03 -0.27582919987E+03  0.53930316923E+03  0.10566000000E+00 0.  1.
         13    1    1    2    0    0 -0.10399911303E+03  0.19407626814E+02  0.40027825850E+02  0.11311370163E+03  0.10566000000E+00 0. -1.
          4    1    1    2  501    0 -0.33373477392E+03  0.13276068098E+03 -0.20901851152E+03  0.41556351608E+03  0.00000000000E+00 0.  1.
</event>
<event>
 5    1  0.2540860E-005  0.2518893E+03  0.7818608E-02  0.1029418E+00
         -4   -1    0    0    0  501 -0.00000000000E+00  0.00000000000E+00  0.88728127104E+02  0.88728127104E+02  0.00000000000E+00 0. -1.
         21   -1    0    0  501  502  0.00000000000E+00 -0.00000000000E+00 -0.12220795044E+04  0.12220795044E+04  0.00000000000E+00 0.  1.
        -13    1    1    2    0    0  0.62994633551E+02  0.22575203051E+03 -0.61285557907E+03  0.65614348667E+03  0.10566000000E+00 0.  1.
         13    1    1    2    0    0 -0.82280157119E+02 -0.24551377920E+03 -0.18547915797E+03  0.31851148997E+03  0.10566000000E+00 0. -1.
         -4    1    1    2    0  502  0.19285523568E+02  0.19761748693E+02 -0.33501664022E+03  0.33615265484E+03  0.00000000000E+00 0. -1.
</event>
<event>
 5    1  0.2540860E-005  0.4034575E+03  0.7818608E-02  0.9719113E-01
         -4   -1    0    0    0  501 -0.00000000000E+00  0.00000000000E+00  0.17759595539E+04  0.17759595539E+04  0.00000000000E+00 0. -1.
         21   -1    0    0  501  502  0.00000000000E+00 -0.00000000000E+00 -0.24651775465E+03  0.24651775465E+03  0.00000000000E+00 0. -1.
        -13    1    1    2    0    0  0.51491758306E+02 -0.28223433724E+03  0.33795095574E+03  0.44330405134E+03  0.10566000000E+00 0.  1.
         13    1    1    2    0    0 -0.17228824687E+03  0.49598942774E+03  0.12236562684E+04  0.13315492581E+04  0.10566000000E+00 0. -1.
         -4    1    1    2    0  502  0.12079648857E+03 -0.21375509050E+03 -0.32165424890E+02  0.24762399909E+03  0.00000000000E+00 0. -1.
</event>
<event>
 5    1  0.2540860E-005  0.9362417E+02  0.7818608E-02  0.1175558E+00
         -4   -1    0    0    0  501 -0.00000000000E+00  0.00000000000E+00  0.30246583535E+03  0.30246583535E+03  0.00000000000E+00 0. -1.
         21   -1    0    0  501  502  0.00000000000E+00 -0.00000000000E+00 -0.19068407143E+03  0.19068407143E+03  0.00000000000E+00 0. -1.
        -13    1    1    2    0    0 -0.86874294889E+02  0.94523502788E+01  0.18577895829E+03  0.20530543721E+03  0.10566000000E+00 0.  1.
         13    1    1    2    0    0  0.10970258884E+03 -0.52448834906E+02  0.66892955915E+02  0.13878118387E+03  0.10566000000E+00 0. -1.
         -4    1    1    2    0  502 -0.22828293955E+02  0.42996484627E+02 -0.14089015029E+03  0.14906328570E+03  0.00000000000E+00 0. -1.
</event>
<event>
 5    1  0.2540860E-005  0.1435457E+03  0.7818608E-02  0.1109145E+00
          4   -1    0    0  502    0 -0.00000000000E+00  0.00000000000E+00  0.67926890748E+03  0.67926890748E+03  0.00000000000E+00 0.  1.
         21   -1    0    0  501  502  0.00000000000E+00 -0.00000000000E+00 -0.16415987367E+03  0.16415987367E+03  0.00000000000E+00 0.  1.
        -13    1    1    2    0    0  0.13248778368E+03 -0.93241478513E+02  0.22951288197E+03  0.28093266150E+03  0.10566000000E+00 0.  1.
         13    1    1    2    0    0 -0.12588473121E+03 -0.56446029228E+02  0.36693175044E+03  0.39201025550E+03  0.10566000000E+00 0. -1.
          4    1    1    2  501    0 -0.66030524734E+01  0.14968750774E+03 -0.81335598602E+02  0.17048586415E+03  0.00000000000E+00 0.  1.
</event>
<event>
 5    1  0.2540860E-005  0.3901855E+02  0.7818608E-02  0.1387276E+00
         -4   -1    0    0    0  501 -0.00000000000E+00  0.00000000000E+00  0.46575265609E+02  0.46575265609E+02  0.00000000000E+00 0. -1.
         21   -1    0    0  501  502  0.00000000000E+00 -0.00000000000E+00 -0.24051841494E+03  0.24051841494E+03  0.00000000000E+00 0. -1.
        -13    1    1    2    0    0 -0.18342231132E+02 -0.46280664446E-01 -0.72309450858E+01  0.19716422486E+02  0.10566000000E+00 0.  1.
         13    1    1    2    0    0  0.24260395256E+02 -0.38390612741E+02  0.25192544644E+02  0.51933432337E+02  0.10566000000E+00 0. -1.
         -4    1    1    2    0  502 -0.59181641241E+01  0.38436893406E+02 -0.21190474889E+03  0.21544382572E+03  0.00000000000E+00 0. -1.
</event>
<event>
 5    1  0.2540860E-005  0.5008082E+03  0.7818608E-02  0.9794091E-01
         21   -1    0    0  501  502  0.00000000000E+00  0.00000000000E+00  0.19424919810E+03  0.19424919810E+03  0.00000000000E+00 0. -1.
         -4   -1    0    0    0  501 -0.00000000000E+00 -0.00000000000E+00 -0.22694412578E+04  0.22694412578E+04  0.00000000000E+00 0. -1.
        -13    1    1    2    0    0  0.11845574711E+03 -0.11189008679E+03 -0.85508208707E+03  0.87046915071E+03  0.10566000000E+00 0.  1.
         13    1    1    2    0    0  0.29322802247E+03 -0.31564004156E+03 -0.52857493206E+03  0.68191112248E+03  0.10566000000E+00 0. -1.
         -4    1    1    2    0  502 -0.41168376958E+03  0.42753012834E+03 -0.69153504057E+03  0.91131018271E+03  0.00000000000E+00 0. -1.
</event>
<event>
 5    1  0.2540860E-005  0.1733530E+03  0.7818608E-02  0.1080117E+00
          4   -1    0    0  502    0 -0.00000000000E+00  0.00000000000E+00  0.10896699686E+03  0.10896699686E+03  0.00000000000E+00 0.  1.
         21   -1    0    0  501  502  0.00000000000E+00 -0.00000000000E+00 -0.83553670834E+03  0.83553670834E+03  0.00000000000E+00 0. -1.
        -13    1    1    2    0    0 -0.37438464090E+02 -0.16879152761E+03  0.13409969341E+02  0.17341296614E+03  0.10566000000E+00 0.  1.
         13    1    1    2    0    0  0.55746545753E+02  0.16810447259E+03 -0.50050470054E+03  0.53091596086E+03  0.10566000000E+00 0. -1.
          4    1    1    2  501    0 -0.18308081663E+02  0.68705501641E+00 -0.23947498029E+03  0.24017477820E+03  0.00000000000E+00 0.  1.
</event>
<event>
 5    1  0.2540860E-005  0.4978952E+03  0.7818608E-02  0.9610729E-01
         21   -1    0    0  501  502  0.00000000000E+00  0.00000000000E+00  0.16616142622E+04  0.16616142622E+04  0.00000000000E+00 0. -1.
         -4   -1    0    0    0  501 -0.00000000000E+00 -0.00000000000E+00 -0.28951604573E+03  0.28951604573E+03  0.00000000000E+00 0. -1.
        -13    1    1    2    0    0 -0.31297959626E+03  0.25306821399E+02  0.17464856503E+03  0.35930320805E+03  0.10566000000E+00 0.  1.
         13    1    1    2    0    0 -0.31717738742E+03 -0.10669057084E+03  0.14998834438E+03  0.36671635853E+03  0.10566000000E+00 0. -1.
         -4    1    1    2    0  502  0.63015698369E+03  0.81383749441E+02  0.10474613070E+04  0.12251107413E+04  0.00000000000E+00 0. -1.
</event>
<event>
 5    1  0.2540860E-005  0.3537563E+02  0.7818608E-02  0.1366305E+00
         -4   -1    0    0    0  501 -0.00000000000E+00  0.00000000000E+00  0.11886019476E+02  0.11886019476E+02  0.00000000000E+00 0. -1.
         21   -1    0    0  501  502  0.00000000000E+00 -0.00000000000E+00 -0.51846126653E+03  0.51846126653E+03  0.00000000000E+00 0.  1.
        -13    1    1    2    0    0 -0.32125073491E+02  0.24414191332E+02 -0.24376336133E+03  0.24708027153E+03  0.10566000000E+00 0.  1.
         13    1    1    2    0    0  0.35220945199E+02 -0.35921511359E+01 -0.22312876184E+02  0.41848466377E+02  0.10566000000E+00 0. -1.
         -4    1    1    2    0  502 -0.30958717073E+01 -0.20822040196E+02 -0.24049900953E+03  0.24141854810E+03  0.00000000000E+00 0. -1.
</event>
<event>
 5    1  0.2540860E-005  0.3051877E+03  0.7818608E-02  0.1021122E+00
         21   -1    0    0  501  502  0.00000000000E+00  0.00000000000E+00  0.78698103979E+03  0.78698103979E+03  0.00000000000E+00 0.  1.
         -4   -1    0    0    0  501 -0.00000000000E+00 -0.00000000000E+00 -0.91650506213E+03  0.91650506213E+03  0.00000000000E+00 0. -1.
        -13    1    1    2    0    0  0.18303691214E+03  0.12378160600E+02 -0.56833154338E+03  0.59720723743E+03  0.10566000000E+00 0.  1.
         13    1    1    2    0    0 -0.27228427863E+03 -0.29640454235E+03 -0.16348524948E+03  0.43442124611E+03  0.10566000000E+00 0. -1.
         -4    1    1    2    0  502  0.89247366491E+02  0.28402638175E+03  0.60229277052E+03  0.67185761838E+03  0.00000000000E+00 0. -1.
</event>
<event>
 5    1  0.2540860E-005  0.1762775E+03  0.7818608E-02  0.1077740E+00
         21   -1    0    0  501  502  0.00000000000E+00  0.00000000000E+00  0.16567400881E+03  0.16567400881E+03  0.00000000000E+00 0. -1.
         -4   -1    0    0    0  501 -0.00000000000E+00 -0.00000000000E+00 -0.42265345882E+03  0.42265345882E+03  0.00000000000E+00 0. -1.
        -13    1    1    2    0    0 -0.36816086078E+02  0.14360980834E+03 -0.13842734766E+03  0.20283328866E+03  0.10566000000E+00 0.  1.
         13    1    1    2    0    0 -0.26288536054E+00 -0.24448650671E+03 -0.13087934796E+03  0.27731414670E+03  0.10566000000E+00 0. -1.
         -4    1    1    2    0  502  0.37078971439E+02  0.10087669837E+03  0.12327245615E+02  0.10818003227E+03  0.00000000000E+00 0. -1.
</event>
<event>
 5    1  0.2540860E-005  0.5667657E+02  0.7818608E-02  0.1266761E+00
         -4   -1    0    0    0  501 -0.00000000000E+00  0.00000000000E+00  0.11436149360E+03  0.11436149360E+03  0.00000000000E+00 0. -1.
         21   -1    0    0  501  502  0.00000000000E+00 -0.00000000000E+00 -0.61694961540E+02  0.61694961540E+02  0.00000000000E+00 0.  1.
        -13    1    1    2    0    0 -0.47981088198E+01 -0.51479766276E+02  0.30946626062E+02  0.60256891828E+02  0.10566000000E+00 0.  1.
         13    1    1    2    0    0 -0.25842816179E+02  0.61887781624E+02  0.40537078066E+02  0.78365901543E+02  0.10566000000E+00 0. -1.
         -4    1    1    2    0  502  0.30640924999E+02 -0.10408015348E+02 -0.18817172073E+02  0.37433661765E+02  0.00000000000E+00 0. -1.
</event>
<event>
 5    1  0.2540860E-005  0.4210973E+03  0.7818608E-02  0.9885943E-01
         -4   -1    0    0    0  501 -0.00000000000E+00  0.00000000000E+00  0.96791145131E+03  0.96791145131E+03  0.00000000000E+00 0. -1.
         21   -1    0    0  501  502  0.00000000000E+00 -0.00000000000E+00 -0.50877667082E+03  0.50877667082E+03  0.00000000000E+00 0. -1.
        -13    1    1    2    0    0 -0.60935112286E+02 -0.19135731176E+03  0.42842952941E+03  0.47316232046E+03  0.10566000000E+00 0.  1.
         13    1    1    2    0    0 -0.22396440244E+03  0.46802043193E+03  0.22003406608E+03  0.56357624122E+03  0.10566000000E+00 0. -1.
         -4    1    1    2    0  502  0.28489951472E+03 -0.27666312017E+03 -0.18932881500E+03  0.43994956045E+03  0.00000000000E+00 0. -1.
</event>
<event>
 5    1  0.2540860E-005  0.4814247E+03  0.7818608E-02  0.9679559E-01
          4   -1    0    0  502    0 -0.00000000000E+00  0.00000000000E+00  0.27730836604E+03  0.27730836604E+03  0.00000000000E+00 0.  1.
         21   -1    0    0  501  502  0.00000000000E+00 -0.00000000000E+00 -0.26379741184E+04  0.26379741184E+04  0.00000000000E+00 0.  1.
        -13    1    1    2    0    0  0.44697531256E+03  0.47048489396E+03 -0.15757503352E+04  0.17041514298E+04  0.10566000000E+00 0.  1.
         13    1    1    2    0    0 -0.17486675439E+03 -0.20905263785E+03  0.65892225466E+02  0.28039825913E+03  0.10566000000E+00 0. -1.
          4    1    1    2  501    0 -0.27210855817E+03 -0.26143225611E+03 -0.85080764258E+03  0.93073279551E+03  0.00000000000E+00 0.  1.
</event>
<event>
 5    1  0.2540860E-005  0.1964339E+03  0.7818608E-02  0.1062608E+00
         21   -1    0    0  501  502  0.00000000000E+00  0.00000000000E+00  0.35176898999E+03  0.35176898999E+03  0.00000000000E+00 0. -1.
          4   -1    0    0  502    0 -0.00000000000E+00 -0.00000000000E+00 -0.39150110985E+03  0.39150110985E+03  0.00000000000E+00 0.  1.
        -13    1    1    2    0    0  0.36596972379E+02  0.19244917890E+03  0.51991200655E+02  0.20267984842E+03  0.10566000000E+00 0.  1.
         13    1    1    2    0    0 -0.54849475478E+02 -0.18893237070E+03 -0.28506281873E+03  0.34635924622E+03  0.10566000000E+00 0. -1.
          4    1    1    2  501    0  0.18252503099E+02 -0.35168081924E+01  0.19333949821E+03  0.19423100519E+03  0.00000000000E+00 0.  1.
</event>
<event>
 5    1  0.2540860E-005  0.2532635E+03  0.7818608E-02  0.1028715E+00
         21   -1    0    0  501  502  0.00000000000E+00  0.00000000000E+00  0.92682212053E+03  0.92682212053E+03  0.00000000000E+00 0. -1.
         -4   -1    0    0    0  501 -0.00000000000E+00 -0.00000000000E+00 -0.11421327590E+03  0.11421327590E+03  0.00000000000E+00 0. -1.
        -13    1    1    2    0    0 -0.78210642748E+02 -0.21244614495E+03  0.27179026422E+03  0.35372337785E+03  0.10566000000E+00 0.  1.
         13    1    1    2    0    0  0.97846855006E+02  0.28605341422E+03  0.53027658082E+03  0.61040464133E+03  0.10566000000E+00 0. -1.
         -4    1    1    2    0  502 -0.19636212259E+02 -0.73607269265E+02  0.10541999582E+02  0.76907377252E+02  0.00000000000E+00 0. -1.
</event>
<event>
 5    1  0.2540860E-005  0.4611710E+03  0.7818608E-02  0.1057076E+00
         -4   -1    0    0    0  501 -0.00000000000E+00  0.00000000000E+00  0.13852172578E+03  0.13852172578E+03  0.00000000000E+00 0. -1.
         21   -1    0    0  501  502  0.00000000000E+00 -0.00000000000E+00 -0.19802978576E+04  0.19802978576E+04  0.00000000000E+00 0. -1.
        -13    1    1    2    0    0 -0.21938682433E+01 -0.17705213328E+02 -0.58973313377E+01  0.18790351721E+02  0.10566000000E+00 0.  1.
         13    1    1    2    0    0  0.31029087557E+03 -0.32996405025E+03 -0.45046649831E+03  0.63880887531E+03  0.10566000000E+00 0. -1.
         -4    1    1    2    0  502 -0.30809700733E+03  0.34766926357E+03 -0.13854123022E+04  0.14612203564E+04  0.00000000000E+00 0. -1.
</event>
<event>
 5    1  0.2540860E-005  0.2210292E+03  0.7818608E-02  0.1046603E+00
         -4   -1    0    0    0  501 -0.00000000000E+00  0.00000000000E+00  0.12733077638E+04  0.12733077638E+04  0.00000000000E+00 0. -1.
         21   -1    0    0  501  502  0.00000000000E+00 -0.00000000000E+00 -0.20508639133E+03  0.20508639133E+03  0.00000000000E+00 0. -1.
        -13    1    1    2    0    0  0.16762965428E+03  0.19414718346E+03  0.51639167566E+02  0.26164755805E+03  0.10566000000E+00 0.  1.
         13    1    1    2    0    0 -0.22684285570E+03  0.43665997046E+01  0.98057843228E+03  0.10064843871E+04  0.10566000000E+00 0. -1.
         -4    1    1    2    0  502  0.59213201416E+02 -0.19851378317E+03  0.36003772638E+02  0.21026221005E+03  0.00000000000E+00 0. -1.
</event>
<event>
 5    1  0.2540860E-005  0.5173414E+03  0.7818608E-02  0.9440753E-01
          4   -1    0    0  502    0 -0.00000000000E+00  0.00000000000E+00  0.29905792350E+04  0.29905792350E+04  0.00000000000E+00 0.  1.
         21   -1    0    0  501  502  0.00000000000E+00 -0.00000000000E+00 -0.22335422453E+03  0.22335422453E+03  0.00000000000E+00 0.  1.
        -13    1    1    2    0    0 -0.17427437383E+03 -0.49283660329E+03  0.19357715268E+04  0.20051111915E+04  0.10566000000E+00 0.  1.
         13    1    1    2    0    0  0.98390479391E+02  0.50127245735E+03  0.94368736270E+03  0.10730799656E+04  0.10566000000E+00 0. -1.
          4    1    1    2  501    0  0.75883894436E+02 -0.84358540569E+01 -0.11223387904E+03  0.13574230245E+03  0.00000000000E+00 0.  1.
</event>
<event>
 5    1  0.2540860E-005  0.1402821E+03  0.7818608E-02  0.1111112E+00
         21   -1    0    0  501  502  0.00000000000E+00  0.00000000000E+00  0.17777850832E+03  0.17777850832E+03  0.00000000000E+00 0.  1.
         -4   -1    0    0    0  501 -0.00000000000E+00 -0.00000000000E+00 -0.19840096294E+03  0.19840096294E+03  0.00000000000E+00 0. -1.
        -13    1    1    2    0    0 -0.45790103200E+02  0.13529606241E+03 -0.93730667254E+02  0.17084263871E+03  0.10566000000E+00 0.  1.
         13    1    1    2    0    0  0.36429090510E+02 -0.13079465937E+03  0.43962928864E+01  0.13584424946E+03  0.10566000000E+00 0. -1.
         -4    1    1    2    0  502  0.93610126899E+01 -0.45014030343E+01  0.68711919747E+02  0.69492583081E+02  0.00000000000E+00 0. -1.
</event>
<event>
 5    1  0.2540860E-005  0.4639585E+03  0.7818608E-02  0.9884692E-01
         -4   -1    0    0    0  501 -0.00000000000E+00  0.00000000000E+00  0.27879851528E+03  0.27879851528E+03  0.00000000000E+00 0. -1.
         21   -1    0    0  501  502  0.00000000000E+00 -0.00000000000E+00 -0.12867086443E+04  0.12867086443E+04  0.00000000000E+00 0. -1.
        -13    1    1    2    0    0  0.63343750847E+02  0.13683191997E+03  0.20675569410E+02  0.15219361165E+03  0.10566000000E+00 0.  1.
         13    1    1    2    0    0 -0.47392720720E+03  0.77545308462E+02 -0.36100722668E+03  0.60078823347E+03  0.10566000000E+00 0. -1.
         -4    1    1    2    0  502  0.41058345636E+03 -0.21437722843E+03 -0.66757847173E+03  0.81252531445E+03  0.00000000000E+00 0. -1.
</event>
<event>
 5    1  0.2540860E-005  0.9608606E+02  0.7818608E-02  0.1171199E+00
         21   -1    0    0  501  502  0.00000000000E+00  0.00000000000E+00  0.16120189623E+03  0.16120189623E+03  0.00000000000E+00 0.  1.
         -4   -1    0    0    0  501 -0.00000000000E+00 -0.00000000000E+00 -0.18411665360E+03  0.18411665360E+03  0.00000000000E+00 0. -1.
        -13    1    1    2    0    0 -0.74947832970E+02  0.75632716723E+02  0.22891784307E+02  0.10891065356E+03  0.10566000000E+00 0.  1.
         13    1    1    2    0    0  0.57564147273E+02 -0.74004280335E+02 -0.12446992428E+03  0.15583015682E+03  0.10566000000E+00 0. -1.
         -4    1    1    2    0  502  0.17383685697E+02 -0.16284363880E+01  0.78663382607E+02  0.80577739461E+02  0.00000000000E+00 0. -1.
</event>
<event>
 5    1  0.2540860E-005  0.4784568E+03  0.7818608E-02  0.9709497E-01
         21   -1    0    0  501  502  0.00000000000E+00  0.00000000000E+00  0.52785505991E+03  0.52785505991E+03  0.00000000000E+00 0.  1.
          4   -1    0    0  502    0 -0.00000000000E+00 -0.00000000000E+00 -0.85521330371E+03  0.85521330371E+03  0.00000000000E+00 0.  1.
        -13    1    1    2    0    0  0.87535060367E+02  0.54687988321E+03 -0.18701788110E+03  0.58456453234E+03  0.10566000000E+00 0.  1.
         13    1    1    2    0    0 -0.22518973307E+03 -0.10887904327E+03 -0.21928635656E+03  0.33264332141E+03  0.10566000000E+00 0. -1.
          4    1    1    2  501    0  0.13765467271E+03 -0.43800083995E+03  0.78945993849E+02  0.46586050987E+03  0.00000000000E+00 0.  1.
</event>
<event>
 5    1  0.2540860E-005  0.3269831E+03  0.7818608E-02  0.1042564E+00
          4   -1    0    0  502    0 -0.00000000000E+00  0.00000000000E+00  0.73645333776E+03  0.73645333776E+03  0.00000000000E+00 0.  1.
         21   -1    0    0  501  502  0.00000000000E+00 -0.00000000000E+00 -0.27388392966E+03  0.27388392966E+03  0.00000000000E+00 0.  1.
        -13    1    1    2    0    0  0.36577173684E+03  0.15260784357E+01  0.46105756599E+03  0.58852814946E+03  0.10566000000E+00 0.  1.
         13    1    1    2    0    0 -0.52248252448E+02 -0.56664672571E+02  0.60587492314E+02  0.98038871834E+02  0.10566000000E+00 0. -1.
          4    1    1    2  501    0 -0.31352348439E+03  0.55138594136E+02 -0.59075650202E+02  0.32377024613E+03  0.00000000000E+00 0.  1.
</event>
<event>
 5    1  0.2540860E-005  0.6728044E+02  0.7818608E-02  0.1234049E+00
         21   -1    0    0  501  502  0.00000000000E+00  0.00000000000E+00  0.37320742598E+02  0.37320742598E+02  0.00000000000E+00 0. -1.
          4   -1    0    0  502    0 -0.00000000000E+00 -0.00000000000E+00 -0.19079449533E+03  0.19079449533E+03  0.00000000000E+00 0.  1.
        -13    1    1    2    0    0  0.37878502274E+01  0.68976202916E+02 -0.12308776389E+03  0.14114769981E+03  0.10566000000E+00 0.  1.
         13    1    1    2    0    0 -0.16494285207E+02 -0.62157502742E+02 -0.33047954810E+02  0.72303492812E+02  0.10566000000E+00 0. -1.
          4    1    1    2  501    0  0.12706434980E+02 -0.68187001745E+01  0.26619659676E+01  0.14664045307E+02  0.00000000000E+00 0.  1.
</event>
<event>
 5    1  0.2540860E-005  0.1268287E+03  0.7818608E-02  0.1126511E+00
         -4   -1    0    0    0  501 -0.00000000000E+00  0.00000000000E+00  0.14575071491E+03  0.14575071491E+03  0.00000000000E+00 0. -1.
         21   -1    0    0  501  502  0.00000000000E+00 -0.00000000000E+00 -0.35890160943E+03  0.35890160943E+03  0.00000000000E+00 0.  1.
        -13    1    1    2    0    0 -0.82329962092E+02  0.52565957349E+02 -0.15946105264E+03  0.18700064439E+03  0.10566000000E+00 0.  1.
         13    1    1    2    0    0  0.11976922177E+03 -0.57061481551E+02  0.95696097003E+02  0.16358005168E+03  0.10566000000E+00 0. -1.
         -4    1    1    2    0  502 -0.37439259680E+02  0.44955242021E+01 -0.14938593888E+03  0.15407162827E+03  0.00000000000E+00 0. -1.
</event>
<event>
 5    1  0.2540860E-005  0.1994617E+03  0.7818608E-02  0.1065027E+00
         21   -1    0    0  501  502  0.00000000000E+00  0.00000000000E+00  0.11707645361E+04  0.11707645361E+04  0.00000000000E+00 0. -1.
         -4   -1    0    0    0  501 -0.00000000000E+00 -0.00000000000E+00 -0.31012232135E+03  0.31012232135E+03  0.00000000000E+00 0. -1.
        -13    1    1    2    0    0  0.16831985547E+03  0.47617916887E+02  0.53795761535E+02  0.18301102392E+03  0.10566000000E+00 0.  1.
         13    1    1    2    0    0 -0.35879981761E+03 -0.17359697019E+02 -0.98286085561E+02  0.37242292354E+03  0.10566000000E+00 0. -1.
         -4    1    1    2    0  502  0.19047996214E+03 -0.30258219869E+02  0.90513253876E+03  0.92545290997E+03  0.00000000000E+00 0. -1.
</event>
<event>
 5    1  0.2540860E-005  0.4951705E+03  0.7818608E-02  0.9579844E-01
         21   -1    0    0  501  502  0.00000000000E+00  0.00000000000E+00  0.24374653684E+03  0.24374653684E+03  0.00000000000E+00 0. -1.
         -4   -1    0    0    0  501 -0.00000000000E+00 -0.00000000000E+00 -0.26052912006E+04  0.26052912006E+04  0.00000000000E+00 0. -1.
        -13    1    1    2    0    0  0.18992714703E+03  0.30148666137E+03 -0.12597678704E+04  0.13091912109E+04  0.10566000000E+00 0.  1.
         13    1    1    2    0    0 -0.21296619204E+03 -0.66931500189E+03 -0.65193872401E+03  0.95831168298E+03  0.10566000000E+00 0. -1.
         -4    1    1    2    0  502  0.23039045009E+02  0.36782834052E+03 -0.44983806934E+03  0.58153484359E+03  0.00000000000E+00 0. -1.
</event>
<event>
 5    1  0.2540860E-005  0.2139608E+03  0.7818608E-02  0.1055844E+00
         21   -1    0    0  501  502  0.00000000000E+00  0.00000000000E+00  0.64413975031E+03  0.64413975031E+03  0.00000000000E+00 0. -1.
         -4   -1    0    0    0  501 -0.00000000000E+00 -0.00000000000E+00 -0.65146650923E+03  0.65146650923E+03  0.00000000000E+00 0. -1.
        -13    1    1    2    0    0  0.10742230560E+03  0.19308661025E+03 -0.15284329792E+03  0.26866908211E+03  0.10566000000E+00 0.  1.
         13    1    1    2    0    0 -0.20452369095E+03 -0.24284364636E+01 -0.39543887865E+03  0.44520529576E+03  0.10566000000E+00 0. -1.
         -4    1    1    2    0  502  0.97101385348E+02 -0.19065817379E+03  0.54095541765E+03  0.58173188167E+03  0.00000000000E+00 0. -1.
</event>
<event>
 5    1  0.2540860E-005  0.3986214E+02  0.7818608E-02  0.1413997E+00
         -4   -1    0    0    0  501 -0.00000000000E+00  0.00000000000E+00  0.24738382891E+03  0.24738382891E+03  0.00000000000E+00 0. -1.
         21   -1    0    0  501  502  0.00000000000E+00 -0.00000000000E+00 -0.73182489417E+02  0.73182489417E+02  0.00000000000E+00 0.  1.
        -13    1    1    2    0    0 -0.10860693182E+02  0.17878547792E+01 -0.59295151018E+02  0.60308185012E+02  0.10566000000E+00 0.  1.
         13    1    1    2    0    0 -0.18026923902E+02 -0.30532019287E+02  0.21050019507E+03  0.21346549481E+03  0.10566000000E+00 0. -1.
         -4    1    1    2    0  502  0.28887617084E+02  0.28744164508E+02  0.22996295445E+02  0.46792638505E+02  0.00000000000E+00 0. -1.
</event>
<event>
 5    1  0.2540860E-005  0.5441528E+02  0.7818608E-02  0.1274786E+00
         -4   -1    0    0    0  501 -0.00000000000E+00  0.00000000000E+00  0.26458837892E+02  0.26458837892E+02  0.00000000000E+00 0. -1.
         21   -1    0    0  501  502  0.00000000000E+00 -0.00000000000E+00 -0.12781320736E+04  0.12781320736E+04  0.00000000000E+00 0. -1.
        -13    1    1    2    0    0 -0.55877788781E+02  0.52388038744E+02 -0.66143241810E+02  0.10120164763E+03  0.10566000000E+00 0.  1.
         13    1    1    2    0    0  0.39163507472E+02 -0.15703672528E+02 -0.43338343741E+02  0.60486435261E+02  0.10566000000E+00 0. -1.
         -4    1    1    2    0  502  0.16714281309E+02 -0.36684366216E+02 -0.11421916502E+04  0.11429028286E+04  0.00000000000E+00 0. -1.
</event>
<event>
 5    1  0.2540860E-005  0.4419390E+03  0.7818608E-02  0.9615205E-01
          4   -1    0    0  502    0 -0.00000000000E+00  0.00000000000E+00  0.98508190251E+03  0.98508190251E+03  0.00000000000E+00 0.  1.
         21   -1    0    0  501  502  0.00000000000E+00 -0.00000000000E+00 -0.22371235543E+03  0.22371235543E+03  0.00000000000E+00 0. -1.
        -13    1    1    2    0    0  0.41336257963E+03 -0.14002948143E+03  0.46674719370E+03  0.63900691068E+03  0.10566000000E+00 0.  1.
         13    1    1    2    0    0 -0.42546586313E+03  0.14482748732E+03  0.31269268411E+03  0.54751523050E+03  0.10566000000E+00 0. -1.
          4    1    1    2  501    0  0.12103283507E+02 -0.47980058882E+01 -0.18070330733E+02  0.22272116759E+02  0.00000000000E+00 0.  1.
</event>
<event>
 5    1  0.2540860E-005  0.2351930E+03  0.7818608E-02  0.1058959E+00
         -4   -1    0    0    0  501 -0.00000000000E+00  0.00000000000E+00  0.19547134823E+04  0.19547134823E+04  0.00000000000E+00 0. -1.
         21   -1    0    0  501  502  0.00000000000E+00 -0.00000000000E+00 -0.21723272077E+03  0.21723272077E+03  0.00000000000E+00 0. -1.
        -13    1    1    2    0    0 -0.36408835758E+02  0.12196406866E+03 -0.66948851690E+02  0.14381584500E+03  0.10566000000E+00 0.  1.
         13    1    1    2    0    0  0.26772181030E+03 -0.13805843251E+03  0.17679241742E+04  0.17934020730E+04  0.10566000000E+00 0. -1.
         -4    1    1    2    0  502 -0.23131297454E+03  0.16094363848E+02  0.36505438992E+02  0.23472828507E+03  0.00000000000E+00 0. -1.
</event>
<event>
 5    1  0.2540860E-005  0.4778144E+03  0.7818608E-02  0.9527970E-01
         -4   -1    0    0    0  501 -0.00000000000E+00  0.00000000000E+00  0.25933332608E+04  0.25933332608E+04  0.00000000000E+00 0. -1.
         21   -1    0    0  501  502  0.00000000000E+00 -0.00000000000E+00 -0.36387331675E+03  0.36387331675E+03  0.00000000000E+00 0. -1.
        -13    1    1    2    0    0  0.32955370936E+03  0.37759113445E+03  0.15952280699E+04  0.16721044579E+04  0.10566000000E+00 0.  1.
         13    1    1    2    0    0 -0.11548826644E+01 -0.51619637895E+03  0.74986796145E+03  0.91036366698E+03  0.10566000000E+00 0. -1.
         -4    1    1    2    0  502 -0.32839882670E+03  0.13860524450E+03 -0.11563608729E+03  0.37473845261E+03  0.00000000000E+00 0. -1.
</event>
<event>
 5    1  0.2540860E-005  0.4642966E+03  0.7818608E-02  0.1071354E+00
         -4   -1    0    0    0  501 -0.00000000000E+00  0.00000000000E+00  0.30894513173E+03  0.30894513173E+03  0.00000000000E+00 0. -1.
         21   -1    0    0  501  502  0.00000000000E+00 -0.00000000000E+00 -0.80165595202E+03  0.80165595202E+03  0.00000000000E+00 0. -1.
        -13    1    1    2    0    0 -0.11558171382E+02  0.35178247986E+00  0.29599914474E+01  0.11936824955E+02  0.10566000000E+00 0.  1.
         13    1    1    2    0    0 -0.43548966087E+03  0.14983400394E+03 -0.41554344645E+03  0.62030463525E+03  0.10566000000E+00 0. -1.
         -4    1    1    2    0  502  0.44704783226E+03 -0.15018578642E+03 -0.80127365284E+02  0.47835962354E+03  0.00000000000E+00 0. -1.
</event>
<event>
 5    1  0.2540860E-005  0.1413117E+03  0.7818608E-02  0.1110011E+00
          4   -1    0    0  502    0 -0.00000000000E+00  0.00000000000E+00  0.52484851727E+03  0.52484851727E+03  0.00000000000E+00 0.  1.
         21   -1    0    0  501  502  0.00000000000E+00 -0.00000000000E+00 -0.47441867797E+02  0.47441867797E+02  0.00000000000E+00 0. -1.
        -13    1    1    2    0    0 -0.31429247962E+02 -0.14030612199E+03  0.34447934684E+03  0.37328224851E+03  0.10566000000E+00 0.  1.
         13    1    1    2    0    0  0.21703876024E+02  0.13464228923E+03  0.12666884506E+03  0.18613063089E+03  0.10566000000E+00 0. -1.
          4    1    1    2  501    0  0.97253719384E+01  0.56638327599E+01  0.62584575832E+01  0.12877505667E+02  0.00000000000E+00 0.  1.
</event>
<event>
 5    1  0.2540860E-005  0.2084524E+03  0.7818608E-02  0.1054491E+00
         21   -1    0    0  501  502  0.00000000000E+00  0.00000000000E+00  0.48538882382E+03  0.48538882382E+03  0.00000000000E+00 0. -1.
         -4   -1    0    0    0  501 -0.00000000000E+00 -0.00000000000E+00 -0.13150778934E+04  0.13150778934E+04  0.00000000000E+00 0. -1.
        -13    1    1    2    0    0  0.31668220954E+02 -0.20602416962E+03 -0.12329711099E+04  0.12504665544E+04  0.10566000000E+00 0.  1.
         13    1    1    2    0    0  0.62594978110E+02  0.21979898470E+03  0.13529248539E+03  0.26558198871E+03  0.10566000000E+00 0. -1.
         -4    1    1    2    0  502 -0.94263199064E+02 -0.13774815082E+02  0.26798955491E+03  0.28441817412E+03  0.00000000000E+00 0. -1.
</event>
<event>
 5    1  0.2540860E-005  0.4897171E+03  0.7818608E-02  0.9706325E-01
         -4   -1    0    0    0  501 -0.00000000000E+00  0.00000000000E+00  0.18696269506E+04  0.18696269506E+04  0.00000000000E+00 0. -1.
         21   -1    0    0  501  502  0.00000000000E+00 -0.00000000000E+00 -0.47435425484E+03  0.47435425484E+03  0.00000000000E+00 0. -1.
        -13    1    1    2    0    0 -0.21988393028E+03 -0.85320078553E+02  0.13113574481E+04  0.13323988992E+04  0.10566000000E+00 0.  1.
         13    1    1    2    0    0  0.15298783462E+03 -0.44391444791E+03  0.90084494829E+02  0.47810097466E+03  0.10566000000E+00 0. -1.
         -4    1    1    2    0  502  0.66896095667E+02  0.52923452646E+03 -0.61692471530E+01  0.53348133165E+03  0.00000000000E+00 0. -1.
</event>
<event>
 5    1  0.2540860E-005  0.4777652E+03  0.7818608E-02  0.9726618E-01
         21   -1    0    0  501  502  0.00000000000E+00  0.00000000000E+00  0.47001564609E+03  0.47001564609E+03  0.00000000000E+00 0.  1.
          4   -1    0    0  502    0 -0.00000000000E+00 -0.00000000000E+00 -0.18937988531E+04  0.18937988531E+04  0.00000000000E+00 0.  1.
        -13    1    1    2    0    0  0.11497240503E+03 -0.41308102736E+03  0.34570903642E+02  0.43017408990E+03  0.10566000000E+00 0.  1.
         13    1    1    2    0    0  0.22492735097E+03 -0.73807661426E+02 -0.12968426876E+04  0.13182719188E+04  0.10566000000E+00 0. -1.
          4    1    1    2  501    0 -0.33989975600E+03  0.48688868878E+03 -0.16151142300E+03  0.61536849054E+03  0.00000000000E+00 0.  1.
</event>
<event>
 5    1  0.2540860E-005  0.3934259E+03  0.7818608E-02  0.1016845E+00
         21   -1    0    0  501  502  0.00000000000E+00  0.00000000000E+00  0.27562475160E+03  0.27562475160E+03  0.00000000000E+00 0.  1.
          4   -1    0    0  502    0 -0.00000000000E+00 -0.00000000000E+00 -0.11633071953E+04  0.11633071953E+04  0.00000000000E+00 0.  1.
        -13    1    1    2    0    0 -0.66909958515E+02  0.31723836429E+03 -0.79260448553E+03  0.85635214951E+03  0.10566000000E+00 0.  1.
         13    1    1    2    0    0  0.36411702199E+02  0.91000302497E+02 -0.13983399595E+03  0.17076423718E+03  0.10566000000E+00 0. -1.
          4    1    1    2  501    0  0.30498256316E+02 -0.40823866679E+03  0.44756037808E+02  0.41181556019E+03  0.00000000000E+00 0.  1.
</event>
<event>
 5    1  0.2540860E-005  0.4009467E+03  0.7818608E-02  0.9726316E-01
         21   -1    0    0  501  502  0.00000000000E+00  0.00000000000E+00  0.20897423267E+03  0.20897423267E+03  0.00000000000E+00 0.  1.
          4   -1    0    0  502    0 -0.00000000000E+00 -0.00000000000E+00 -0.10409805635E+04  0.10409805635E+04  0.00000000000E+00 0.  1.
        -13    1    1    2    0    0  0.32329033572E+03 -0.24046135269E+03 -0.50680610408E+03  0.64744941239E+03  0.10566000000E+00 0.  1.
         13    1    1    2    0    0 -0.30904344345E+03  0.25199766954E+03 -0.37626039020E+03  0.54825410878E+03  0.10566000000E+00 0. -1.
          4    1    1    2  501    0 -0.14246892273E+02 -0.11536316848E+02  0.51060163462E+02  0.54251274995E+02  0.00000000000E+00 0.  1.
</event>
<event>
 5    1  0.2540860E-005  0.3937960E+03  0.7818608E-02  0.9906226E-01
          4   -1    0    0  502    0 -0.00000000000E+00  0.00000000000E+00  0.99201660146E+03  0.99201660146E+03  0.00000000000E+00 0.  1.
         21   -1    0    0  501  502  0.00000000000E+00 -0.00000000000E+00 -0.57771186853E+03  0.57771186853E+03  0.00000000000E+00 0.  1.
        -13    1    1    2    0    0  0.12035098017E+03  0.19626282999E+03  0.58417882701E+03  0.62790793111E+03  0.10566000000E+00 0.  1.
         13    1    1    2    0    0  0.23736978218E+03 -0.36091756265E+03  0.12518024010E+03  0.44975104691E+03  0.10566000000E+00 0. -1.
          4    1    1    2  501    0 -0.35772076235E+03  0.16465473266E+03 -0.29505433418E+03  0.49206949196E+03  0.00000000000E+00 0.  1.
</event>
<event>
 5    1  0.2540860E-005  0.4981196E+03  0.7818608E-02  0.9890223E-01
         21   -1    0    0  501  502  0.00000000000E+00  0.00000000000E+00  0.62660842173E+03  0.62660842173E+03  0.00000000000E+00 0.  1.
          4   -1    0    0  502    0 -0.00000000000E+00 -0.00000000000E+00 -0.62383338244E+03  0.62383338244E+03  0.00000000000E+00 0.  1.
        -13    1    1    2    0    0 -0.50585589824E+03 -0.18153755481E+03  0.56973483169E+02  0.54045542141E+03  0.10566000000E+00 0.  1.
         13    1    1    2    0    0  0.37650625984E+02  0.11351911797E+03 -0.18393590073E+03  0.21940051623E+03  0.10566000000E+00 0. -1.
          4    1    1    2  501    0  0.46820527225E+03  0.68018436846E+02  0.12973745686E+03  0.49058586652E+03  0.00000000000E+00 0.  1.
</event>
<event>
 5    1  0.2540860E-005  0.3273296E+03  0.7818608E-02  0.1026788E+00
         21   -1    0    0  501  502  0.00000000000E+00  0.00000000000E+00  0.47865641320E+03  0.47865641320E+03  0.00000000000E+00 0. -1.
         -4   -1    0    0    0  501 -0.00000000000E+00 -0.00000000000E+00 -0.70212943455E+03  0.70212943455E+03  0.00000000000E+00 0. -1.
        -13    1    1    2    0    0 -0.59256482809E+02 -0.10954087531E+03 -0.71220106482E+02  0.14346723964E+03  0.10566000000E+00 0.  1.
         13    1    1    2    0    0  0.27007253744E+03  0.20749528075E+03  0.34723867577E+03  0.48638274654E+03  0.10566000000E+00 0. -1.
         -4    1    1    2    0  502 -0.21081605463E+03 -0.97954405448E+02 -0.49949159065E+03  0.55093586157E+03  0.00000000000E+00 0. -1.
</event>
<event>
 5    1  0.2540860E-005  0.2458067E+03  0.7818608E-02  0.1032589E+00
         21   -1    0    0  501  502  0.00000000000E+00  0.00000000000E+00  0.44631516116E+03  0.44631516116E+03  0.00000000000E+00 0. -1.
         -4   -1    0    0    0  501 -0.00000000000E+00 -0.00000000000E+00 -0.10307650797E+04  0.10307650797E+04  0.00000000000E+00 0. -1.
        -13    1    1    2    0    0 -0.27755248171E+03  0.27744555876E+02  0.19671219235E+02  0.27962851878E+03  0.10566000000E+00 0.  1.
         13    1    1    2    0    0  0.17882471568E+03 -0.17209920205E+03 -0.85575188647E+03  0.89101499238E+03  0.10566000000E+00 0. -1.
         -4    1    1    2    0  502  0.98727766036E+02  0.14435464617E+03  0.25163074867E+03  0.30643672974E+03  0.00000000000E+00 0. -1.
</event>
<event>
 5    1  0.2540860E-005  0.3838750E+03  0.7818608E-02  0.9834971E-01
         -4   -1    0    0    0  501 -0.00000000000E+00  0.00000000000E+00  0.22138097227E+03  0.22138097227E+03  0.00000000000E+00 0. -1.
         21   -1    0    0  501  502  0.00000000000E+00 -0.00000000000E+00 -0.22804075104E+04  0.22804075104E+04  0.00000000000E+00 0. -1.
        -13    1    1    2    0    0  0.25740540864E+03 -0.18124446865E+03 -0.21485956092E+03  0.38114530549E+03  0.10566000000E+00 0.  1.
         13    1    1    2    0    0 -0.59145102870E+03  0.97448393409E+02 -0.67942216376E+03  0.90604911374E+03  0.10566000000E+00 0. -1.
         -4    1    1    2    0  502  0.33404562006E+03  0.83796075246E+02 -0.11647448134E+04  0.12145940634E+04  0.00000000000E+00 0. -1.
</event>
<event>
 5    1  0.2540860E-005  0.7292901E+02  0.7818608E-02  0.1250562E+00
          4   -1    0    0  502    0 -0.00000000000E+00  0.00000000000E+00  0.32644286838E+02  0.32644286838E+02  0.00000000000E+00 0.  1.
         21   -1    0    0  501  502  0.00000000000E+00 -0.00000000000E+00 -0.37803107475E+03  0.37803107475E+03  0.00000000000E+00 0.  1.
        -13    1    1    2    0    0 -0.78262660261E+02 -0.27057159451E+02 -0.10924759423E+03  0.13708457929E+03  0.10566000000E+00 0.  1.
         13    1    1    2    0    0  0.74810503973E+01  0.36436945767E+02 -0.13156088586E+02  0.39455176629E+02  0.10566000000E+00 0. -1.
          4    1    1    2  501    0  0.70781609864E+02 -0.93797863153E+01 -0.22298310510E+03  0.23413560568E+03  0.00000000000E+00 0.  1.
</event>
<event>
 5    1  0.2540860E-005  0.4773789E+03  0.7818608E-02  0.9683825E-01
         21   -1    0    0  501  502  0.00000000000E+00  0.00000000000E+00  0.34351892808E+03  0.34351892808E+03  0.00000000000E+00 0. -1.
         -4   -1    0    0    0  501 -0.00000000000E+00 -0.00000000000E+00 -0.15176809852E+04  0.15176809852E+04  0.00000000000E+00 0. -1.
        -13    1    1    2    0    0  0.22685621410E+03 -0.15613969395E+03 -0.65269423791E+03  0.70841592675E+03  0.10566000000E+00 0.  1.
         13    1    1    2    0    0 -0.32160283136E+03  0.54182411913E+03 -0.34276883021E+03  0.71728114386E+03  0.10566000000E+00 0. -1.
         -4    1    1    2    0  502  0.94746617259E+02 -0.38568442518E+03 -0.17869898902E+03  0.43550284269E+03  0.00000000000E+00 0. -1.
</event>
<event>
 5    1  0.2540860E-005  0.5007940E+02  0.7818608E-02  0.1291466E+00
         -4   -1    0    0    0  501 -0.00000000000E+00  0.00000000000E+00  0.24462682573E+03  0.24462682573E+03  0.00000000000E+00 0. -1.
         21   -1    0    0  501  502  0.00000000000E+00 -0.00000000000E+00 -0.35805325438E+02  0.35805325438E+02  0.00000000000E+00 0.  1.
        -13    1    1    2    0    0 -0.40957555234E+02  0.49338996857E+01 -0.92942553360E+01  0.42287811993E+02  0.10566000000E+00 0.  1.
         13    1    1    2    0    0  0.49439938097E+02 -0.13001274130E+02  0.22037117957E+03  0.22622291785E+03  0.10566000000E+00 0. -1.
         -4    1    1    2    0  502 -0.84823828626E+01  0.80673744448E+01 -0.22554239404E+01  0.11921421333E+02  0.00000000000E+00 0. -1.
</event>
<event>
 5    1  0.2540860E-005  0.1529435E+03  0.7818608E-02  0.1098244E+00
         21   -1    0    0  501  502  0.00000000000E+00  0.00000000000E+00  0.19538096242E+03  0.19538096242E+03  0.00000000000E+00 0. -1.
         -4   -1    0    0    0  501 -0.00000000000E+00 -0.00000000000E+00 -0.50560622488E+03  0.50560622488E+03  0.00000000000E+00 0. -1.
        -13    1    1    2    0    0  0.36899189262E+02  0.14780658626E+03 -0.10323123259E+03  0.18402455178E+03  0.10566000000E+00 0.  1.
         13    1    1    2    0    0 -0.10107755399E+02 -0.15356124529E+03 -0.34420531740E+03  0.37704182058E+03  0.10566000000E+00 0. -1.
         -4    1    1    2    0  502 -0.26791433863E+02  0.57546590321E+01  0.13721128753E+03  0.13992081495E+03  0.00000000000E+00 0. -1.
</event>
<event>
 5    1  0.2540860E-005  0.7429977E+02  0.7818608E-02  0.1215878E+00
         -4   -1    0    0    0  501 -0.00000000000E+00  0.00000000000E+00  0.14275041918E+03  0.14275041918E+03  0.00000000000E+00 0. -1.
         21   -1    0    0  501  502  0.00000000000E+00 -0.00000000000E+00 -0.25735375867E+03  0.25735375867E+03  0.00000000000E+00 0. -1.
        -13    1    1    2    0    0 -0.11478357783E+02 -0.61462783763E+02 -0.45539602808E+02  0.77351748999E+02  0.10566000000E+00 0.  1.
         13    1    1    2    0    0 -0.38793831517E+02  0.69251852206E+02  0.11053732396E+03  0.13608560376E+03  0.10566000000E+00 0. -1.
         -4    1    1    2    0  502  0.50272189300E+02 -0.77890684425E+01 -0.17960106065E+03  0.18666682509E+03  0.00000000000E+00 0. -1.
</event>
<event>
 5    1  0.2540860E-005  0.2795244E+03  0.7818608E-02  0.1025425E+00
          4   -1    0    0  502    0 -0.00000000000E+00  0.00000000000E+00  0.86425490298E+03  0.86425490298E+03  0.00000000000E+00 0.  1.
         21   -1    0    0  501  502  0.00000000000E+00 -0.00000000000E+00 -0.44351041537E+03  0.44351041537E+03  0.00000000000E+00 0.  1.
        -13    1    1    2    0    0 -0.46936126698E+02  0.18351721977E+03  0.60949601386E+03  0.63825306268E+03  0.10566000000E+00 0.  1.
         13    1    1    2    0    0 -0.20565595109E+03 -0.35301021816E+02  0.12264096478E+03  0.24203584397E+03  0.10566000000E+00 0. -1.
          4    1    1    2  501    0  0.25259207779E+03 -0.14821619796E+03 -0.31139249103E+03  0.42747641171E+03  0.00000000000E+00 0.  1.
</event>
<event>
 5    1  0.2540860E-005  0.5370374E+03  0.7818608E-02  0.9665913E-01
          4   -1    0    0  502    0 -0.00000000000E+00  0.00000000000E+00  0.28361980548E+04  0.28361980548E+04  0.00000000000E+00 0.  1.
         21   -1    0    0  501  502  0.00000000000E+00 -0.00000000000E+00 -0.15035427242E+03  0.15035427242E+03  0.00000000000E+00 0.  1.
        -13    1    1    2    0    0  0.20330360256E+02  0.44534836316E+03  0.11980857375E+04  0.12783418688E+04  0.10566000000E+00 0.  1.
         13    1    1    2    0    0  0.11212358075E+03  0.17275721671E+03  0.32600483626E+03  0.38561109646E+03  0.10566000000E+00 0. -1.
          4    1    1    2  501    0 -0.13245394100E+03 -0.61810557987E+03  0.11617532087E+04  0.13225993620E+04  0.00000000000E+00 0.  1.
</event>
<event>
 5    1  0.2540860E-005  0.3754667E+03  0.7818608E-02  0.9828827E-01
         21   -1    0    0  501  502  0.00000000000E+00  0.00000000000E+00  0.80687781632E+03  0.80687781632E+03  0.00000000000E+00 0.  1.
          4   -1    0    0  502    0 -0.00000000000E+00 -0.00000000000E+00 -0.11999009756E+04  0.11999009756E+04  0.00000000000E+00 0.  1.
        -13    1    1    2    0    0  0.51660501126E+03  0.28565768525E+03 -0.21403917245E+01  0.59032672584E+03  0.10566000000E+00 0.  1.
         13    1    1    2    0    0 -0.17317900408E+03 -0.29667866183E+03 -0.80684251579E+03  0.87692876124E+03  0.10566000000E+00 0. -1.
          4    1    1    2  501    0 -0.34342600719E+03  0.11020976584E+02  0.41595974822E+03  0.53952330485E+03  0.00000000000E+00 0.  1.
</event>
<event>
 5    1  0.2540860E-005  0.5522746E+02  0.7818608E-02  0.1296828E+00
         21   -1    0    0  501  502  0.00000000000E+00  0.00000000000E+00  0.17370675329E+03  0.17370675329E+03  0.00000000000E+00 0.  1.
         -4   -1    0    0    0  501 -0.00000000000E+00 -0.00000000000E+00 -0.38227460817E+02  0.38227460817E+02  0.00000000000E+00 0. -1.
        -13    1    1    2    0    0 -0.33613709760E+02 -0.57057012283E+00  0.20855794321E+02  0.39562385606E+02  0.10566000000E+00 0.  1.
         13    1    1    2    0    0  0.40947136755E+02 -0.52308149448E+02  0.31348590921E+02  0.73454447271E+02  0.10566000000E+00 0. -1.
         -4    1    1    2    0  502 -0.73334269950E+01  0.52878719571E+02  0.83274907236E+02  0.98917381233E+02  0.00000000000E+00 0. -1.
</event>
<event>
 5    1  0.2540860E-005  0.4029642E+03  0.7818608E-02  0.9958388E-01
          4   -1    0    0  502    0 -0.00000000000E+00  0.00000000000E+00  0.25291902665E+04  0.25291902665E+04  0.00000000000E+00 0.  1.
         21   -1    0    0  501  502  0.00000000000E+00 -0.00000000000E+00 -0.14296643260E+03  0.14296643260E+03  0.00000000000E+00 0.  1.
        -13    1    1    2    0    0  0.35806712380E+03 -0.15273715691E+03  0.16720197907E+04  0.17167384471E+04  0.10566000000E+00 0.  1.
         13    1    1    2    0    0  0.55781410904E+02  0.17118803047E+03  0.38939119808E+03  0.42900165954E+03  0.10566000000E+00 0. -1.
          4    1    1    2  501    0 -0.41384853470E+03 -0.18450873559E+02  0.32481284510E+03  0.52641659240E+03  0.00000000000E+00 0.  1.
</event>
<event>
 5    1  0.2540860E-005  0.4805953E+03  0.7818608E-02  0.9521548E-01
         -4   -1    0    0    0  501 -0.00000000000E+00  0.00000000000E+00  0.14968320454E+04  0.14968320454E+04  0.00000000000E+00 0. -1.
         21   -1    0    0  501  502  0.00000000000E+00 -0.00000000000E+00 -0.30871423158E+03  0.30871423158E+03  0.00000000000E+00 0. -1.
        -13    1    1    2    0    0  0.20718748979E+03  0.21428721701E+03 -0.42798289723E+02  0.30112683718E+03  0.10566000000E+00 0.  1.
         13    1    1    2    0    0 -0.29485405176E+03 -0.48218889732E+03  0.95659445719E+03  0.11110886604E+04  0.10566000000E+00 0. -1.
         -4    1    1    2    0  502  0.87666561967E+02  0.26790168031E+03  0.27432164638E+03  0.39333077946E+03  0.00000000000E+00 0. -1.
</event>
<event>
 5    1  0.2540860E-005  0.7923628E+02  0.7818608E-02  0.1204386E+00
         21   -1    0    0  501  502  0.00000000000E+00  0.00000000000E+00  0.29821526763E+03  0.29821526763E+03  0.00000000000E+00 0. -1.
         -4   -1    0    0    0  501 -0.00000000000E+00 -0.00000000000E+00 -0.18786327440E+03  0.18786327440E+03  0.00000000000E+00 0. -1.
        -13    1    1    2    0    0  0.38335456932E+02 -0.10509403615E+03  0.72449316261E+02  0.13327894913E+03  0.10566000000E+00 0.  1.
         13    1    1    2    0    0 -0.30637558957E+02  0.69867474153E+02 -0.14635592471E+03  0.16504602942E+03  0.10566000000E+00 0. -1.
         -4    1    1    2    0  502 -0.76978979751E+01  0.35226561992E+02  0.18425860168E+03  0.18775356347E+03  0.00000000000E+00 0. -1.
</event>
<event>
 5    1  0.2540860E-005  0.6523629E+02  0.7818608E-02  0.1239810E+00
         21   -1    0    0  501  502  0.00000000000E+00  0.00000000000E+00  0.10446736698E+03  0.10446736698E+03  0.00000000000E+00 0.  1.
         -4   -1    0    0    0  501 -0.00000000000E+00 -0.00000000000E+00 -0.66208658017E+02  0.66208658017E+02  0.00000000000E+00 0. -1.
        -13    1    1    2    0    0 -0.47189226654E+02  0.50500881540E+02 -0.48821592727E+01  0.69289312248E+02  0.10566000000E+00 0.  1.
         13    1    1    2    0    0  0.51364501239E+02 -0.34519766658E+02  0.77996348876E+01  0.62376051062E+02  0.10566000000E+00 0. -1.
         -4    1    1    2    0  502 -0.41752745848E+01 -0.15981114882E+02  0.35341233345E+02  0.39010661685E+02  0.00000000000E+00 0. -1.
</event>
<event>
 5    1  0.2540860E-005  0.4978606E+03  0.7818608E-02  0.9496592E-01
         21   -1    0    0  501  502  0.00000000000E+00  0.00000000000E+00  0.45197515724E+03  0.45197515724E+03  0.00000000000E+00 0. -1.
         -4   -1    0    0    0  501 -0.00000000000E+00 -0.00000000000E+00 -0.13924266259E+04  0.13924266259E+04  0.00000000000E+00 0. -1.
        -13    1    1    2    0    0  0.38474171368E+03  0.27558591123E+03 -0.20119372771E+03  0.51424965527E+03  0.10566000000E+00 0.  1.
         13    1    1    2    0    0 -0.27952690061E+03  0.34319662183E+03 -0.47460204833E+03  0.64897328515E+03  0.10566000000E+00 0. -1.
         -4    1    1    2    0  502 -0.10521481307E+03 -0.61878253305E+03 -0.26465569259E+03  0.68117884268E+03  0.00000000000E+00 0. -1.
</event>
<event>
 5    1  0.2540860E-005  0.4961121E+03  0.7818608E-02  0.9506810E-01
          4   -1    0    0  502    0 -0.00000000000E+00  0.00000000000E+00  0.13653467593E+04  0.13653467593E+04  0.00000000000E+00 0.  1.
         21   -1    0    0  501  502  0.00000000000E+00 -0.00000000000E+00 -0.52530287155E+03  0.52530287155E+03  0.00000000000E+00 0.  1.
        -13    1    1    2    0    0 -0.35140814708E+03  0.98978224041E+02  0.17815934482E+03  0.40623286177E+03  0.10566000000E+00 0.  1.
         13    1    1    2    0    0 -0.33239904381E+02  0.51366482944E+03  0.54849517439E+03  0.75219905327E+03  0.10566000000E+00 0. -1.
          4    1    1    2  501    0  0.38464805146E+03 -0.61264305348E+03  0.11338936856E+03  0.73221771583E+03  0.00000000000E+00 0.  1.
</event>
<event>
 5    1  0.2540860E-005  0.4588372E+03  0.7818608E-02  0.9689277E-01
         -4   -1    0    0    0  501 -0.00000000000E+00  0.00000000000E+00  0.27882709306E+04  0.27882709306E+04  0.00000000000E+00 0. -1.
         21   -1    0    0  501  502  0.00000000000E+00 -0.00000000000E+00 -0.14726210105E+03  0.14726210105E+03  0.00000000000E+00 0. -1.
        -13    1    1    2    0    0 -0.30419853083E+03  0.79240756250E+01  0.71733127369E+03  0.77920709988E+03  0.10566000000E+00 0.  1.
         13    1    1    2    0    0  0.10671637769E+03 -0.45866430755E+03  0.11045185165E+04  0.12007174925E+04  0.10566000000E+00 0. -1.
         -4    1    1    2    0  502  0.19748215314E+03  0.45074023193E+03  0.81915903938E+03  0.95560843931E+03  0.00000000000E+00 0. -1.
</event>
<event>
 5    1  0.2540860E-005  0.8777823E+02  0.7818608E-02  0.1190430E+00
         21   -1    0    0  501  502  0.00000000000E+00  0.00000000000E+00  0.44159485982E+03  0.44159485982E+03  0.00000000000E+00 0.  1.
          4   -1    0    0  502    0 -0.00000000000E+00 -0.00000000000E+00 -0.52271740597E+03  0.52271740597E+03  0.00000000000E+00 0.  1.
        -13    1    1    2    0    0  0.11251857581E+03 -0.57493672081E+02 -0.33699753747E+03  0.35990735427E+03  0.10566000000E+00 0.  1.
         13    1    1    2    0    0 -0.26771738752E+02  0.75588411530E+02 -0.16022775289E+03  0.17917387620E+03  0.10566000000E+00 0. -1.
          4    1    1    2  501    0 -0.85746837059E+02 -0.18094739449E+02  0.41610274421E+03  0.42523103532E+03  0.00000000000E+00 0.  1.
</event>
<event>
 5    1  0.2540860E-005  0.9874721E+02  0.7818608E-02  0.1166645E+00
         21   -1    0    0  501  502  0.00000000000E+00  0.00000000000E+00  0.13146005409E+04  0.13146005409E+04  0.00000000000E+00 0.  1.
          4   -1    0    0  502    0 -0.00000000000E+00 -0.00000000000E+00 -0.19477612947E+02  0.19477612947E+02  0.00000000000E+00 0.  1.
        -13    1    1    2    0    0  0.14735760870E+02 -0.11663255601E+03  0.38839164387E+03  0.40579351395E+03  0.10566000000E+00 0.  1.
         13    1    1    2    0    0  0.68826133487E+02  0.68438153295E+02  0.56161140964E+03  0.56993701764E+03  0.10566000000E+00 0. -1.
          4    1    1    2  501    0 -0.83561894357E+02  0.48194402713E+02  0.34511987441E+03  0.35834762222E+03  0.00000000000E+00 0.  1.
</event>
<event>
 5    1  0.2540860E-005  0.3220070E+03  0.7818608E-02  0.1015552E+00
         -4   -1    0    0    0  501 -0.00000000000E+00  0.00000000000E+00  0.26867103406E+04  0.26867103406E+04  0.00000000000E+00 0. -1.
         21   -1    0    0  501  502  0.00000000000E+00 -0.00000000000E+00 -0.13891317230E+03  0.13891317230E+03  0.00000000000E+00 0. -1.
        -13    1    1    2    0    0 -0.24578203060E+01 -0.18624409220E+03  0.49770578897E+03  0.53141694205E+03  0.10566000000E+00 0.  1.
         13    1    1    2    0    0 -0.31544012673E+03  0.84566200935E+02  0.14025068566E+03  0.35542113314E+03  0.10566000000E+00 0. -1.
         -4    1    1    2    0  502  0.31789794703E+03  0.10167789126E+03  0.19098406936E+04  0.19387854377E+04  0.00000000000E+00 0. -1.
</event>
<event>
 5    1  0.3086852E-005  0.3738604E+03  0.7818608E-02  0.1015982E+00
         21   -1    0    0  501  502  0.00000000000E+00  0.00000000000E+00  0.14746985967E+03  0.14746985967E+03  0.00000000000E+00 0.  1.
          4   -1    0    0  502    0 -0.00000000000E+00 -0.00000000000E+00 -0.21802436327E+04  0.21802436327E+04  0.00000000000E+00 0.  1.
        -13    1    1    2    0    0  0.15076019826E+02  0.27828373129E+03 -0.15559293429E+04  0.15806913844E+04  0.10566000000E+00 0.  1.
         13    1    1    2    0    0 -0.25695946914E+02  0.11455011807E+03 -0.28803443736E+03  0.31103996448E+03  0.10566000000E+00 0. -1.
          4    1    1    2  501    0  0.10619927088E+02 -0.39283384936E+03 -0.18880999277E+03  0.43598214347E+03  0.00000000000E+00 0.  1.
</event>
<event>
 5    1  0.2540860E-005  0.4738692E+03  0.7818608E-02  0.9634876E-01
         21   -1    0    0  501  502  0.00000000000E+00  0.00000000000E+00  0.17973065068E+03  0.17973065068E+03  0.00000000000E+00 0.  1.
          4   -1    0    0  502    0 -0.00000000000E+00 -0.00000000000E+00 -0.30506788494E+04  0.30506788494E+04  0.00000000000E+00 0.  1.
        -13    1    1    2    0    0 -0.51107144662E+03  0.25480516093E+03 -0.77123815948E+03  0.95964993794E+03  0.10566000000E+00 0.  1.
         13    1    1    2    0    0  0.30731804658E+03  0.13178668843E+03 -0.14479284187E+04  0.14860379638E+04  0.10566000000E+00 0. -1.
          4    1    1    2  501    0  0.20375340003E+03 -0.38659184936E+03 -0.65178162045E+03  0.78472159826E+03  0.00000000000E+00 0.  1.
</event>
<event>
 5    1  0.2540860E-005  0.4107848E+03  0.7818608E-02  0.1018841E+00
          4   -1    0    0  502    0 -0.00000000000E+00  0.00000000000E+00  0.31244963312E+04  0.31244963312E+04  0.00000000000E+00 0.  1.
         21   -1    0    0  501  502  0.00000000000E+00 -0.00000000000E+00 -0.99418624689E+02  0.99418624689E+02  0.00000000000E+00 0.  1.
        -13    1    1    2    0    0 -0.18362520523E+02  0.39945269332E+03  0.49281690988E+03  0.63464017694E+03  0.10566000000E+00 0.  1.
         13    1    1    2    0    0 -0.62945808028E+02  0.50719192249E+02  0.30575841383E+03  0.31626386136E+03  0.10566000000E+00 0. -1.
          4    1    1    2  501    0  0.81308328551E+02 -0.45017188557E+03  0.22265023828E+04  0.22730109176E+04  0.00000000000E+00 0.  1.
</event>
<event>
 5    1  0.2540860E-005  0.9969865E+02  0.7818608E-02  0.1165055E+00
         21   -1    0    0  501  502  0.00000000000E+00  0.00000000000E+00  0.32359826236E+03  0.32359826236E+03  0.00000000000E+00 0.  1.
          4   -1    0    0  502    0 -0.00000000000E+00 -0.00000000000E+00 -0.43839509870E+02  0.43839509870E+02  0.00000000000E+00 0.  1.
        -13    1    1    2    0    0 -0.42455060906E+02  0.94417171181E+02  0.53048630267E+02  0.11632369813E+03  0.10566000000E+00 0.  1.
         13    1    1    2    0    0  0.39804393595E+02 -0.82422289659E+02  0.16985526009E+03  0.19294725737E+03  0.10566000000E+00 0. -1.
          4    1    1    2  501    0  0.26506673110E+01 -0.11994881522E+02  0.56854862136E+02  0.58166816730E+02  0.00000000000E+00 0.  1.
</event>
<event>
 5    1  0.2540860E-005  0.6626766E+03  0.7818608E-02  0.9178953E-01
         -4   -1    0    0    0  501 -0.00000000000E+00  0.00000000000E+00  0.25569183416E+04  0.25569183416E+04  0.00000000000E+00 0. -1.
         21   -1    0    0  501  502  0.00000000000E+00 -0.00000000000E+00 -0.27435622109E+03  0.27435622109E+03  0.00000000000E+00 0.  1.
        -13    1    1    2    0    0  0.11842502357E+03  0.66322375802E+03  0.37150583507E+03  0.76935481806E+03  0.10566000000E+00 0.  1.
         13    1    1    2    0    0 -0.12424322931E+03 -0.64783866397E+03  0.19283492168E+04  0.20380534899E+04  0.10566000000E+00 0. -1.
         -4    1    1    2    0  502  0.58182057429E+01 -0.15385094053E+02 -0.17292931401E+02  0.23866254702E+02  0.00000000000E+00 0. -1.
</event>
<event>
 5    1  0.2540860E-005  0.1040941E+03  0.7818608E-02  0.1157954E+00
         21   -1    0    0  501  502  0.00000000000E+00  0.00000000000E+00  0.11826498318E+03  0.11826498318E+03  0.00000000000E+00 0.  1.
         -4   -1    0    0    0  501 -0.00000000000E+00 -0.00000000000E+00 -0.11728737403E+03  0.11728737403E+03  0.00000000000E+00 0. -1.
        -13    1    1    2    0    0 -0.89331265442E+02 -0.39509259398E+02  0.65759013784E+00  0.97680602745E+02  0.10566000000E+00 0.  1.
         13    1    1    2    0    0  0.98924602302E+02  0.48140851941E+02 -0.21901016203E+02  0.11217523898E+03  0.10566000000E+00 0. -1.
         -4    1    1    2    0  502 -0.95933368597E+01 -0.86315925424E+01  0.22221035216E+02  0.25696515484E+02  0.00000000000E+00 0. -1.
</event>
<event>
 5    1  0.2540860E-005  0.1711316E+03  0.7818608E-02  0.1081956E+00
         21   -1    0    0  501  502  0.00000000000E+00  0.00000000000E+00  0.13756451356E+03  0.13756451356E+03  0.00000000000E+00 0.  1.
         -4   -1    0    0    0  501 -0.00000000000E+00 -0.00000000000E+00 -0.43311237208E+03  0.43311237208E+03  0.00000000000E+00 0. -1.
        -13    1    1    2    0    0 -0.15027166362E+03 -0.43381932005E+02  0.37121007697E+02  0.16075305685E+03  0.10566000000E+00 0.  1.
         13    1    1    2    0    0  0.17214969044E+03  0.28303737214E+02 -0.34018376869E+03  0.38231090110E+03  0.10566000000E+00 0. -1.
         -4    1    1    2    0  502 -0.21878026825E+02  0.15078194792E+02  0.75149024728E+01  0.27612927681E+02  0.00000000000E+00 0. -1.
</event>
<event>
 5    1  0.2540860E-005  0.5005675E+03  0.7818608E-02  0.1020169E+00
         -4   -1    0    0    0  501 -0.00000000000E+00  0.00000000000E+00  0.83486937095E+03  0.83486937095E+03  0.00000000000E+00 0. -1.
         21   -1    0    0  501  502  0.00000000000E+00 -0.00000000000E+00 -0.39583926274E+03  0.39583926274E+03  0.00000000000E+00 0. -1.
        -13    1    1    2    0    0  0.18843938448E+02 -0.38474062469E+02  0.19453588965E+03  0.19919731681E+03  0.10566000000E+00 0.  1.
         13    1    1    2    0    0 -0.48391385614E+03 -0.14011379266E+03  0.11411684429E+03  0.51655315348E+03  0.10566000000E+00 0. -1.
         -4    1    1    2    0  502  0.46506991769E+03  0.17858785513E+03  0.13037737427E+03  0.51495816341E+03  0.00000000000E+00 0. -1.
</event>
<event>
 5    1  0.2540860E-005  0.3074185E+03  0.7818608E-02  0.1004289E+00
         21   -1    0    0  501  502  0.00000000000E+00  0.00000000000E+00  0.25736844977E+03  0.25736844977E+03  0.00000000000E+00 0. -1.
          4   -1    0    0  502    0 -0.00000000000E+00 -0.00000000000E+00 -0.68669797780E+03  0.68669797780E+03  0.00000000000E+00 0.  1.
        -13    1    1    2    0    0 -0.92504777856E+02  0.29525250866E+03 -0.48615152736E+03  0.57625905330E+03  0.10566000000E+00 0.  1.
         13    1    1    2    0    0  0.71814460164E+02 -0.29269020857E+03 -0.61907293873E+01  0.30143525205E+03  0.10566000000E+00 0. -1.
          4    1    1    2  501    0  0.20690317692E+02 -0.25623000865E+01  0.63012728720E+02  0.66372122225E+02  0.00000000000E+00 0.  1.
</event>
<event>
 5    1  0.2540860E-005  0.1045585E+04  0.7818608E-02  0.8732901E-01
         -4   -1    0    0    0  501 -0.00000000000E+00  0.00000000000E+00  0.21301175309E+04  0.21301175309E+04  0.00000000000E+00 0. -1.
         21   -1    0    0  501  502  0.00000000000E+00 -0.00000000000E+00 -0.82946351857E+03  0.82946351857E+03  0.00000000000E+00 0.  1.
        -13    1    1    2    0    0 -0.51493581920E+03  0.85898306669E+03  0.11285193808E+04  0.15088296162E+04  0.10566000000E+00 0.  1.
         13    1    1    2    0    0  0.71138067576E+03 -0.90711001691E+03  0.32443423171E+03  0.11975677979E+04  0.10566000000E+00 0. -1.
         -4    1    1    2    0  502 -0.19644485657E+03  0.48126950219E+02 -0.15229960019E+03  0.25318363538E+03  0.00000000000E+00 0. -1.
</event>
<event>
 5    1  0.2540860E-005  0.4973348E+03  0.7818608E-02  0.9862146E-01
         -4   -1    0    0    0  501 -0.00000000000E+00  0.00000000000E+00  0.21692070078E+04  0.21692070078E+04  0.00000000000E+00 0. -1.
         21   -1    0    0  501  502  0.00000000000E+00 -0.00000000000E+00 -0.14924715266E+03  0.14924715266E+03  0.00000000000E+00 0. -1.
        -13    1    1    2    0    0 -0.92556945060E+02 -0.94199206815E+02  0.20320788650E+03  0.24235043830E+03  0.10566000000E+00 0.  1.
         13    1    1    2    0    0 -0.44929011258E+03 -0.20132226057E+02  0.86652325758E+03  0.97628350333E+03  0.10566000000E+00 0. -1.
         -4    1    1    2    0  502  0.54184705764E+03  0.11433143287E+03  0.95022871102E+03  0.10998202188E+04  0.00000000000E+00 0. -1.
</event>
<event>
 5    1  0.2540860E-005  0.1269138E+03  0.7818608E-02  0.1126407E+00
          4   -1    0    0  502    0 -0.00000000000E+00  0.00000000000E+00  0.82629204819E+03  0.82629204819E+03  0.00000000000E+00 0.  1.
         21   -1    0    0  501  502  0.00000000000E+00 -0.00000000000E+00 -0.64526277363E+02  0.64526277363E+02  0.00000000000E+00 0.  1.
        -13    1    1    2    0    0 -0.57493375025E+02 -0.13792255772E+03  0.78624538691E+02  0.16884889502E+03  0.10566000000E+00 0.  1.
         13    1    1    2    0    0 -0.45359027367E+02  0.12108398377E+03  0.37055147795E+03  0.39246296827E+03  0.10566000000E+00 0. -1.
          4    1    1    2  501    0  0.10285240239E+03  0.16838573948E+02  0.31258975418E+03  0.32950646226E+03  0.00000000000E+00 0.  1.
</event>
<event>
 5    1  0.2540860E-005  0.4980824E+03  0.7818608E-02  0.9589680E-01
          4   -1    0    0  502    0 -0.00000000000E+00  0.00000000000E+00  0.64191415882E+03  0.64191415882E+03  0.00000000000E+00 0.  1.
         21   -1    0    0  501  502  0.00000000000E+00 -0.00000000000E+00 -0.77166579631E+03  0.77166579631E+03  0.00000000000E+00 0.  1.
        -13    1    1    2    0    0  0.29943992099E+03  0.48768106115E+03 -0.13029713973E+03  0.58691944888E+03  0.10566000000E+00 0.  1.
         13    1    1    2    0    0 -0.33788359993E+03 -0.10070237774E+02  0.61699128305E+02  0.34361829170E+03  0.10566000000E+00 0. -1.
          4    1    1    2  501    0  0.38443678943E+02 -0.47761082337E+03 -0.61153626063E+02  0.48304221455E+03  0.00000000000E+00 0.  1.
</event>
<event>
 5    1  0.2540860E-005  0.5553717E+02  0.7818608E-02  0.1270751E+00
         21   -1    0    0  501  502  0.00000000000E+00  0.00000000000E+00  0.12061976020E+03  0.12061976020E+03  0.00000000000E+00 0.  1.
         -4   -1    0    0    0  501 -0.00000000000E+00 -0.00000000000E+00 -0.51501961369E+02  0.51501961369E+02  0.00000000000E+00 0. -1.
        -13    1    1    2    0    0 -0.55486457875E+02 -0.48468486541E+01  0.80757063074E+02  0.98101749983E+02  0.10566000000E+00 0.  1.
         13    1    1    2    0    0  0.53339354270E+02  0.16084431583E+02 -0.20692421387E+02  0.59430489820E+02  0.10566000000E+00 0. -1.
         -4    1    1    2    0  502  0.21471036046E+01 -0.11237582929E+02  0.90531571480E+01  0.14589481770E+02  0.00000000000E+00 0. -1.
</event>
<event>
 5    1  0.2540860E-005  0.5138369E+03  0.7818608E-02  0.9448150E-01
         -4   -1    0    0    0  501 -0.00000000000E+00  0.00000000000E+00  0.73129519956E+03  0.73129519956E+03  0.00000000000E+00 0. -1.
         21   -1    0    0  501  502  0.00000000000E+00 -0.00000000000E+00 -0.71213191673E+03  0.71213191673E+03  0.00000000000E+00 0.  1.
        -13    1    1    2    0    0 -0.22416869956E+02  0.51224247592E+03 -0.87195495314E+02  0.52009416048E+03  0.10566000000E+00 0.  1.
         13    1    1    2    0    0 -0.47959956586E+01 -0.51449743908E+03  0.38546452724E+03  0.64289464869E+03  0.10566000000E+00 0. -1.
         -4    1    1    2    0  502  0.27212865615E+02  0.22549631543E+01 -0.27910574910E+03  0.28043830711E+03  0.00000000000E+00 0. -1.
</event>
<event>
 5    1  0.2540860E-005  0.1500634E+03  0.7818608E-02  0.1101049E+00
         21   -1    0    0  501  502  0.00000000000E+00  0.00000000000E+00  0.19928337953E+03  0.19928337953E+03  0.00000000000E+00 0. -1.
         -4   -1    0    0    0  501 -0.00000000000E+00 -0.00000000000E+00 -0.37643214448E+03  0.37643214448E+03  0.00000000000E+00 0. -1.
        -13    1    1    2    0    0 -0.75515657333E+02  0.11444405399E+03 -0.21969309800E+03  0.25896935045E+03  0.10566000000E+00 0.  1.
         13    1    1    2    0    0  0.10604552018E+03 -0.17997878715E+03 -0.33786318222E+02  0.21161177339E+03  0.10566000000E+00 0. -1.
         -4    1    1    2    0  502 -0.30529862845E+02  0.65534733161E+02  0.76330651273E+02  0.10513440017E+03  0.00000000000E+00 0. -1.
</event>
<event>
 5    1  0.2540860E-005  0.2992243E+03  0.7818608E-02  0.1045688E+00
         -4   -1    0    0    0  501 -0.00000000000E+00  0.00000000000E+00  0.26660825274E+03  0.26660825274E+03  0.00000000000E+00 0. -1.
         21   -1    0    0  501  502  0.00000000000E+00 -0.00000000000E+00 -0.58414455978E+03  0.58414455978E+03  0.00000000000E+00 0. -1.
        -13    1    1    2    0    0  0.52849610690E+02 -0.74769864347E+02  0.16347610396E+02  0.93010050502E+02  0.10566000000E+00 0.  1.
         13    1    1    2    0    0 -0.30366176695E+03 -0.55879589658E+02 -0.35937396555E+03  0.47379600624E+03  0.10566000000E+00 0. -1.
         -4    1    1    2    0  502  0.25081215626E+03  0.13064945401E+03  0.25490048112E+02  0.28394675577E+03  0.00000000000E+00 0. -1.
</event>
<event>
 5    1  0.2540860E-005  0.4287520E+03  0.7818608E-02  0.9649503E-01
         21   -1    0    0  501  502  0.00000000000E+00  0.00000000000E+00  0.13804158703E+03  0.13804158703E+03  0.00000000000E+00 0. -1.
          4   -1    0    0  502    0 -0.00000000000E+00 -0.00000000000E+00 -0.22517093519E+04  0.22517093519E+04  0.00000000000E+00 0.  1.
        -13    1    1    2    0    0  0.28373810325E+03  0.32209231247E+03 -0.17921721659E+04  0.18428596942E+04  0.10566000000E+00 0.  1.
         13    1    1    2    0    0 -0.29148686109E+03 -0.31180276086E+03 -0.32088302426E+03  0.53399576617E+03  0.10566000000E+00 0. -1.
          4    1    1    2  501    0  0.77487578374E+01 -0.10289551607E+02 -0.61257470017E+00  0.12895478590E+02  0.00000000000E+00 0.  1.
</event>
<event>
 5    1  0.2540860E-005  0.4496263E+03  0.7818608E-02  0.9884803E-01
          4   -1    0    0  502    0 -0.00000000000E+00  0.00000000000E+00  0.30155365076E+03  0.30155365076E+03  0.00000000000E+00 0.  1.
         21   -1    0    0  501  502  0.00000000000E+00 -0.00000000000E+00 -0.13627183144E+04  0.13627183144E+04  0.00000000000E+00 0.  1.
        -13    1    1    2    0    0 -0.25024915108E+03 -0.25567297008E+03  0.58485798335E+02  0.36251055849E+03  0.10566000000E+00 0.  1.
         13    1    1    2    0    0  0.84896601608E+01 -0.16538627832E+03 -0.40732099002E+03  0.43969886907E+03  0.10566000000E+00 0. -1.
          4    1    1    2  501    0  0.24175949092E+03  0.42105924840E+03 -0.71232947199E+03  0.86206253763E+03  0.00000000000E+00 0.  1.
</event>
<event>
 5    1  0.2540860E-005  0.1515345E+03  0.7818608E-02  0.1099608E+00
         21   -1    0    0  501  502  0.00000000000E+00  0.00000000000E+00  0.82640499429E+02  0.82640499429E+02  0.00000000000E+00 0. -1.
          4   -1    0    0  502    0 -0.00000000000E+00 -0.00000000000E+00 -0.45237043046E+03  0.45237043046E+03  0.00000000000E+00 0.  1.
        -13    1    1    2    0    0 -0.99523805355E+02  0.13463837614E+03 -0.24132207127E+03  0.29371556549E+03  0.10566000000E+00 0.  1.
         13    1    1    2    0    0  0.40618934064E+02 -0.13097025252E+03 -0.11894179157E+03  0.18152208074E+03  0.10566000000E+00 0. -1.
          4    1    1    2  501    0  0.58904871292E+02 -0.36681236254E+01 -0.94660681843E+01  0.59773283662E+02  0.00000000000E+00 0.  1.
</event>
<event>
 5    1  0.2540860E-005  0.4688556E+03  0.7818608E-02  0.1010101E+00
          4   -1    0    0  502    0 -0.00000000000E+00  0.00000000000E+00  0.37142126052E+03  0.37142126052E+03  0.00000000000E+00 0.  1.
         21   -1    0    0  501  502  0.00000000000E+00 -0.00000000000E+00 -0.89652713388E+03  0.89652713388E+03  0.00000000000E+00 0.  1.
        -13    1    1    2    0    0 -0.24612973854E+03  0.43193364178E+03 -0.14105823441E+03  0.51676295896E+03  0.10566000000E+00 0.  1.
         13    1    1    2    0    0  0.70977429130E+02 -0.10977281709E+02  0.75240175846E+02  0.10401630346E+03  0.10566000000E+00 0. -1.
          4    1    1    2  501    0  0.17515230941E+03 -0.42095636007E+03 -0.45928781480E+03  0.64716913198E+03  0.00000000000E+00 0.  1.
</event>
<event>
 5    1  0.2540860E-005  0.4458145E+02  0.7818608E-02  0.1315575E+00
          4   -1    0    0  502    0 -0.00000000000E+00  0.00000000000E+00  0.26074471778E+03  0.26074471778E+03  0.00000000000E+00 0.  1.
         21   -1    0    0  501  502  0.00000000000E+00 -0.00000000000E+00 -0.12760123808E+03  0.12760123808E+03  0.00000000000E+00 0.  1.
        -13    1    1    2    0    0 -0.42475382035E+02  0.16808786032E+02  0.21842079480E+03  0.22314647237E+03  0.10566000000E+00 0.  1.
         13    1    1    2    0    0  0.41713335997E+02 -0.60880005741E+00  0.28338068951E+02  0.50432433547E+02  0.10566000000E+00 0. -1.
          4    1    1    2  501    0  0.76204603798E+00 -0.16199985974E+02 -0.11361538405E+03  0.11476704995E+03  0.00000000000E+00 0.  1.
</event>
<event>
 5    1  0.2540860E-005  0.4543857E+03  0.7818608E-02  0.9592872E-01
         21   -1    0    0  501  502  0.00000000000E+00  0.00000000000E+00  0.28491298500E+03  0.28491298500E+03  0.00000000000E+00 0. -1.
          4   -1    0    0  502    0 -0.00000000000E+00 -0.00000000000E+00 -0.33090679470E+04  0.33090679470E+04  0.00000000000E+00 0.  1.
        -13    1    1    2    0    0  0.28763596020E+03 -0.39169037962E+03 -0.13908703585E+03  0.50547108107E+03  0.10566000000E+00 0.  1.
         13    1    1    2    0    0 -0.45272863608E+03 -0.90316730818E+02 -0.21174709085E+04  0.21672109702E+04  0.10566000000E+00 0. -1.
          4    1    1    2  501    0  0.16509267588E+03  0.48200711044E+03 -0.76759701769E+03  0.92129888077E+03  0.00000000000E+00 0.  1.
</event>
<event>
 5    1  0.2540860E-005  0.1153453E+03  0.7818608E-02  0.1141398E+00
          4   -1    0    0  502    0 -0.00000000000E+00  0.00000000000E+00  0.28952420329E+03  0.28952420329E+03  0.00000000000E+00 0.  1.
         21   -1    0    0  501  502  0.00000000000E+00 -0.00000000000E+00 -0.46819754891E+03  0.46819754891E+03  0.00000000000E+00 0. -1.
        -13    1    1    2    0    0 -0.99941397142E+02  0.55783659514E+02  0.26074374360E+03  0.28475851264E+03  0.10566000000E+00 0.  1.
         13    1    1    2    0    0  0.12767568251E+03 -0.55694938447E+02 -0.29928415817E+03  0.33011213938E+03  0.10566000000E+00 0. -1.
          4    1    1    2  501    0 -0.27734285364E+02 -0.88721067205E-01 -0.14013293106E+03  0.14285110018E+03  0.00000000000E+00 0.  1.
</event>
<event>
 5    1  0.2540860E-005  0.5242852E+03  0.7818608E-02  0.9765786E-01
         21   -1    0    0  501  502  0.00000000000E+00  0.00000000000E+00  0.31661042998E+03  0.31661042998E+03  0.00000000000E+00 0.  1.
          4   -1    0    0  502    0 -0.00000000000E+00 -0.00000000000E+00 -0.13841003604E+04  0.13841003604E+04  0.00000000000E+00 0.  1.
        -13    1    1    2    0    0  0.50261414668E+03  0.34014764949E+03 -0.34684363106E+03  0.69901496369E+03  0.10566000000E+00 0.  1.
         13    1    1    2    0    0 -0.14967037261E+03 -0.45696588978E+02 -0.43068902808E+03  0.45823841911E+03  0.10566000000E+00 0. -1.
          4    1    1    2  501    0 -0.35294377407E+03 -0.29445106051E+03 -0.28995727133E+03  0.54345740761E+03  0.00000000000E+00 0.  1.
</event>
<event>
 5    1  0.2540860E-005  0.1562342E+03  0.7818608E-02  0.1095121E+00
         21   -1    0    0  501  502  0.00000000000E+00  0.00000000000E+00  0.67843146776E+02  0.67843146776E+02  0.00000000000E+00 0. -1.
         -4   -1    0    0    0  501 -0.00000000000E+00 -0.00000000000E+00 -0.73471801653E+03  0.73471801653E+03  0.00000000000E+00 0. -1.
        -13    1    1    2    0    0 -0.14002513848E+03  0.22624874632E+02 -0.27154429430E+03  0.30635802468E+03  0.10566000000E+00 0.  1.
         13    1    1    2    0    0  0.15975059810E+03 -0.65391982132E+02 -0.41163584992E+03  0.44636358389E+03  0.10566000000E+00 0. -1.
         -4    1    1    2    0  502 -0.19725459623E+02  0.42767107500E+02  0.16305274458E+02  0.49839554737E+02  0.00000000000E+00 0. -1.
</event>
<event>
 5    1  0.2540860E-005  0.2012699E+03  0.7818608E-02  0.1059269E+00
         21   -1    0    0  501  502  0.00000000000E+00  0.00000000000E+00  0.10810206811E+03  0.10810206811E+03  0.00000000000E+00 0.  1.
         -4   -1    0    0    0  501 -0.00000000000E+00 -0.00000000000E+00 -0.84305578465E+03  0.84305578465E+03  0.00000000000E+00 0. -1.
        -13    1    1    2    0    0  0.84747523106E+02  0.15779377964E+03 -0.57818738990E+02  0.18821274481E+03  0.10566000000E+00 0.  1.
         13    1    1    2    0    0 -0.98010104203E+02 -0.18157773330E+03 -0.69849539655E+03  0.72833528263E+03  0.10566000000E+00 0. -1.
         -4    1    1    2    0  502  0.13262581097E+02  0.23783953664E+02  0.21360418998E+02  0.34609825325E+02  0.00000000000E+00 0. -1.
</event>
<event>
 5    1  0.2540860E-005  0.4447881E+02  0.7818608E-02  0.1316062E+00
          4   -1    0    0  502    0 -0.00000000000E+00  0.00000000000E+00  0.16986555838E+03  0.16986555838E+03  0.00000000000E+00 0.  1.
         21   -1    0    0  501  502  0.00000000000E+00 -0.00000000000E+00 -0.12597174016E+03  0.12597174016E+03  0.00000000000E+00 0. -1.
        -13    1    1    2    0    0  0.30195145518E+02 -0.32578281404E+02  0.15780995037E+03  0.16394231557E+03  0.10566000000E+00 0.  1.
         13    1    1    2    0    0 -0.23193052605E+02  0.40774990381E+02 -0.56312956170E+02  0.73291730273E+02  0.10566000000E+00 0. -1.
          4    1    1    2  501    0 -0.70020929128E+01 -0.81967089769E+01 -0.57603175988E+02  0.58603252700E+02  0.00000000000E+00 0.  1.
</event>
<event>
 5    1  0.2540860E-005  0.5019555E+03  0.7818608E-02  0.9735217E-01
          4   -1    0    0  502    0 -0.00000000000E+00  0.00000000000E+00  0.13239126134E+04  0.13239126134E+04  0.00000000000E+00 0.  1.
         21   -1    0    0  501  502  0.00000000000E+00 -0.00000000000E+00 -0.30796297833E+03  0.30796297833E+03  0.00000000000E+00 0.  1.
        -13    1    1    2    0    0  0.31868746759E+03  0.44363359680E+03  0.20658531438E+03  0.58399484030E+03  0.10566000000E+00 0.  1.
         13    1    1    2    0    0  0.60354961081E+02 -0.18872312259E+03  0.33593443515E+03  0.39001422309E+03  0.10566000000E+00 0. -1.
          4    1    1    2  501    0 -0.37904242867E+03 -0.25491047421E+03  0.47342988554E+03  0.65786652835E+03  0.00000000000E+00 0.  1.
</event>
<event>
 5    1  0.2540860E-005  0.4084198E+03  0.7818608E-02  0.9854715E-01
         -4   -1    0    0    0  501 -0.00000000000E+00  0.00000000000E+00  0.15286333555E+04  0.15286333555E+04  0.00000000000E+00 0. -1.
         21   -1    0    0  501  502  0.00000000000E+00 -0.00000000000E+00 -0.32447618191E+03  0.32447618191E+03  0.00000000000E+00 0. -1.
        -13    1    1    2    0    0  0.10177097933E+03  0.22232037427E+03  0.59051229164E+03  0.63913101848E+03  0.10566000000E+00 0.  1.
         13    1    1    2    0    0 -0.28968719516E+03 -0.52880814891E+03  0.60530560898E+03  0.85437206229E+03  0.10566000000E+00 0. -1.
         -4    1    1    2    0  502  0.18791621584E+03  0.30648777465E+03  0.83392729738E+01  0.35960645664E+03  0.00000000000E+00 0. -1.
</event>
<event>
 5    1  0.2540860E-005  0.1675853E+03  0.7818608E-02  0.1084955E+00
         21   -1    0    0  501  502  0.00000000000E+00  0.00000000000E+00  0.23305702645E+03  0.23305702645E+03  0.00000000000E+00 0. -1.
          4   -1    0    0  502    0 -0.00000000000E+00 -0.00000000000E+00 -0.53115766278E+03  0.53115766278E+03  0.00000000000E+00 0.  1.
        -13    1    1    2    0    0 -0.16622468612E+03  0.97795905039E+01 -0.47050156207E+03  0.49909720269E+03  0.10566000000E+00 0.  1.
         13    1    1    2    0    0  0.18122892735E+03 -0.81093020081E+01  0.13925552385E+03  0.22869586129E+03  0.10566000000E+00 0. -1.
          4    1    1    2  501    0 -0.15004241225E+02 -0.16702884957E+01  0.33145401889E+02  0.36421625235E+02  0.00000000000E+00 0.  1.
</event>
<event>
 5    1  0.2540860E-005  0.1096519E+03  0.7818608E-02  0.1149504E+00
         21   -1    0    0  501  502  0.00000000000E+00  0.00000000000E+00  0.35101283856E+03  0.35101283856E+03  0.00000000000E+00 0.  1.
         -4   -1    0    0    0  501 -0.00000000000E+00 -0.00000000000E+00 -0.73251712901E+02  0.73251712901E+02  0.00000000000E+00 0. -1.
        -13    1    1    2    0    0 -0.24200186526E+02  0.99422939180E+02  0.10174203247E+03  0.14429837906E+03  0.10566000000E+00 0.  1.
         13    1    1    2    0    0  0.27386480925E+02 -0.10998719491E+03  0.10225576261E+02  0.11380586960E+03  0.10566000000E+00 0. -1.
         -4    1    1    2    0  502 -0.31862943992E+01  0.10564255734E+02  0.16579351692E+03  0.16616030280E+03  0.00000000000E+00 0. -1.
</event>
<event>
 5    1  0.2540860E-005  0.4511938E+03  0.7818608E-02  0.9591883E-01
         21   -1    0    0  501  502  0.00000000000E+00  0.00000000000E+00  0.28522506000E+04  0.28522506000E+04  0.00000000000E+00 0. -1.
         -4   -1    0    0    0  501 -0.00000000000E+00 -0.00000000000E+00 -0.34369354831E+03  0.34369354831E+03  0.00000000000E+00 0. -1.
        -13    1    1    2    0    0 -0.42654030439E+03  0.21096733239E+01 -0.44819154074E+02  0.42889375110E+03  0.10566000000E+00 0.  1.
         13    1    1    2    0    0  0.65739543954E+03 -0.26896225969E+03  0.16043421297E+04  0.17545435707E+04  0.10566000000E+00 0. -1.
         -4    1    1    2    0  502 -0.23085513515E+03  0.26685258637E+03  0.94903407611E+03  0.10125068266E+04  0.00000000000E+00 0. -1.
</event>
<event>
 5    1  0.2540860E-005  0.4383095E+03  0.7818608E-02  0.9624517E-01
         21   -1    0    0  501  502  0.00000000000E+00  0.00000000000E+00  0.18310230828E+04  0.18310230828E+04  0.00000000000E+00 0.  1.
          4   -1    0    0  502    0 -0.00000000000E+00 -0.00000000000E+00 -0.37111243625E+03  0.37111243625E+03  0.00000000000E+00 0.  1.
        -13    1    1    2    0    0  0.36679388998E+03  0.16412820825E+03  0.14773623409E+04  0.15310373359E+04  0.10566000000E+00 0.  1.
         13    1    1    2    0    0 -0.45019244676E+03 -0.67812187183E+01  0.95439869086E+02  0.46024776352E+03  0.10566000000E+00 0. -1.
          4    1    1    2  501    0  0.83398556781E+02 -0.15734698953E+03 -0.11289156339E+03  0.21085041967E+03  0.00000000000E+00 0.  1.
</event>
<event>
 5    1  0.2540860E-005  0.1115945E+03  0.7818608E-02  0.1146678E+00
         21   -1    0    0  501  502  0.00000000000E+00  0.00000000000E+00  0.62825171285E+03  0.62825171285E+03  0.00000000000E+00 0. -1.
          4   -1    0    0  502    0 -0.00000000000E+00 -0.00000000000E+00 -0.66439688160E+02  0.66439688160E+02  0.00000000000E+00 0.  1.
        -13    1    1    2    0    0 -0.56576270914E+02 -0.10447794922E+03  0.54136315372E+02  0.13056518720E+03  0.10566000000E+00 0.  1.
         13    1    1    2    0    0  0.47128966390E+02  0.92798409351E+02  0.68290059361E+02  0.12448384483E+03  0.10566000000E+00 0. -1.
          4    1    1    2  501    0  0.94473045240E+01  0.11679539867E+02  0.43938564996E+03  0.43964236898E+03  0.00000000000E+00 0.  1.
</event>
<event>
 5    1  0.2540860E-005  0.4681415E+03  0.7818608E-02  0.9606576E-01
         21   -1    0    0  501  502  0.00000000000E+00  0.00000000000E+00  0.29728523016E+03  0.29728523016E+03  0.00000000000E+00 0.  1.
          4   -1    0    0  502    0 -0.00000000000E+00 -0.00000000000E+00 -0.25639733114E+04  0.25639733114E+04  0.00000000000E+00 0.  1.
        -13    1    1    2    0    0  0.45169586848E+03 -0.49231407755E+03 -0.51204281348E+03  0.84177797699E+03  0.10566000000E+00 0.  1.
         13    1    1    2    0    0 -0.36661949008E+03  0.11208492814E+03 -0.15134185758E+04  0.15612202530E+04  0.10566000000E+00 0. -1.
          4    1    1    2  501    0 -0.85076378393E+02  0.38022914941E+03 -0.24122669189E+03  0.45826031151E+03  0.00000000000E+00 0.  1.
</event>
<event>
 5    1  0.2540860E-005  0.4994032E+03  0.7818608E-02  0.9971538E-01
          4   -1    0    0  502    0 -0.00000000000E+00  0.00000000000E+00  0.21461714041E+03  0.21461714041E+03  0.00000000000E+00 0.  1.
         21   -1    0    0  501  502  0.00000000000E+00 -0.00000000000E+00 -0.16043189094E+04  0.16043189094E+04  0.00000000000E+00 0.  1.
        -13    1    1    2    0    0  0.89055569843E+02 -0.51961586829E+03 -0.78347309911E+03  0.94433132602E+03  0.10566000000E+00 0.  1.
         13    1    1    2    0    0  0.58862052576E+02  0.68832998027E+02  0.16172305508E+02  0.92001508033E+02  0.10566000000E+00 0. -1.
          4    1    1    2  501    0 -0.14791762242E+03  0.45078287026E+03 -0.62240097535E+03  0.78260321572E+03  0.00000000000E+00 0.  1.
</event>
<event>
 5    1  0.2540860E-005  0.4084808E+03  0.7818608E-02  0.9704868E-01
         -4   -1    0    0    0  501 -0.00000000000E+00  0.00000000000E+00  0.21695345089E+04  0.21695345089E+04  0.00000000000E+00 0. -1.
         21   -1    0    0  501  502  0.00000000000E+00 -0.00000000000E+00 -0.14227521953E+03  0.14227521953E+03  0.00000000000E+00 0.  1.
        -13    1    1    2    0    0 -0.40643429463E+03  0.11762799547E+03  0.33957659142E+03  0.54252875848E+03  0.10566000000E+00 0.  1.
         13    1    1    2    0    0  0.37550618819E+03 -0.15286808678E+03  0.16710523873E+04  0.17195318088E+04  0.10566000000E+00 0. -1.
         -4    1    1    2    0  502  0.30928106435E+02  0.35240091308E+02  0.16630310683E+02  0.49749161163E+02  0.00000000000E+00 0. -1.
</event>
<event>
 5    1  0.2784818E-005  0.4814011E+03  0.7818608E-02  0.1019885E+00
         21   -1    0    0  501  502  0.00000000000E+00  0.00000000000E+00  0.23437552097E+03  0.23437552097E+03  0.00000000000E+00 0. -1.
         -4   -1    0    0    0  501 -0.00000000000E+00 -0.00000000000E+00 -0.12886394789E+04  0.12886394789E+04  0.00000000000E+00 0. -1.
        -13    1    1    2    0    0  0.28259728230E+02  0.39536188924E+02 -0.19602696198E+03  0.20196114345E+03  0.10566000000E+00 0.  1.
         13    1    1    2    0    0  0.46099848623E+03 -0.11297507294E+03 -0.24820387506E+03  0.53561940422E+03  0.10566000000E+00 0. -1.
         -4    1    1    2    0  502 -0.48925821446E+03  0.73438884019E+02 -0.61003312085E+03  0.78543445216E+03  0.00000000000E+00 0. -1.
</event>
<event>
 5    1  0.2540860E-005  0.6779274E+02  0.7818608E-02  0.1232641E+00
         21   -1    0    0  501  502  0.00000000000E+00  0.00000000000E+00  0.30627495102E+03  0.30627495102E+03  0.00000000000E+00 0.  1.
         -4   -1    0    0    0  501 -0.00000000000E+00 -0.00000000000E+00 -0.21528243840E+03  0.21528243840E+03  0.00000000000E+00 0. -1.
        -13    1    1    2    0    0  0.11197370575E+03 -0.51084357819E+02  0.23600960801E+03  0.26617338077E+03  0.10566000000E+00 0.  1.
         13    1    1    2    0    0 -0.59999283373E+02  0.28608128394E+02 -0.17789315744E+03  0.18990609691E+03  0.10566000000E+00 0. -1.
         -4    1    1    2    0  502 -0.51974422377E+02  0.22476229425E+02  0.32876062049E+02  0.65477911744E+02  0.00000000000E+00 0. -1.
</event>
<event>
 5    1  0.2540860E-005  0.1600767E+03  0.7818608E-02  0.1091578E+00
         -4   -1    0    0    0  501 -0.00000000000E+00  0.00000000000E+00  0.79544758494E+02  0.79544758494E+02  0.00000000000E+00 0. -1.
         21   -1    0    0  501  502  0.00000000000E+00 -0.00000000000E+00 -0.53328594683E+03  0.53328594683E+03  0.00000000000E+00 0.  1.
        -13    1    1    2    0    0 -0.13968466077E+03 -0.59078461316E+02 -0.23832501082E+03  0.28249051487E+03  0.10566000000E+00 0.  1.
         13    1    1    2    0    0  0.13771247282E+03  0.90565687059E+02 -0.65863690115E+02  0.17749621315E+03  0.10566000000E+00 0. -1.
         -4    1    1    2    0  502  0.19721879481E+01 -0.31487225743E+02 -0.14955248740E+03  0.15284397730E+03  0.00000000000E+00 0. -1.
</event>
<event>
 5    1  0.2540860E-005  0.4953245E+03  0.7818608E-02  0.9840009E-01
         -4   -1    0    0    0  501 -0.00000000000E+00  0.00000000000E+00  0.22847721838E+04  0.22847721838E+04  0.00000000000E+00 0. -1.
         21   -1    0    0  501  502  0.00000000000E+00 -0.00000000000E+00 -0.15556283755E+03  0.15556283755E+03  0.00000000000E+00 0. -1.
        -13    1    1    2    0    0  0.47258715634E+02  0.13608611825E+03  0.55508695728E+03  0.57347568308E+03  0.10566000000E+00 0.  1.
         13    1    1    2    0    0  0.26750668140E+03  0.33884870533E+03  0.73961106307E+03  0.85638940061E+03  0.10566000000E+00 0. -1.
         -4    1    1    2    0  502 -0.31476539704E+03 -0.47493482358E+03  0.83451132588E+03  0.10104699376E+04  0.00000000000E+00 0. -1.
</event>
<event>
 5    1  0.2540860E-005  0.6233302E+03  0.7818608E-02  0.9242299E-01
         -4   -1    0    0    0  501 -0.00000000000E+00  0.00000000000E+00  0.16218553192E+04  0.16218553192E+04  0.00000000000E+00 0. -1.
         21   -1    0    0  501  502  0.00000000000E+00 -0.00000000000E+00 -0.46070065716E+03  0.46070065716E+03  0.00000000000E+00 0.  1.
        -13    1    1    2    0    0 -0.47650619272E+03  0.32546250611E+03  0.33150116835E+03  0.66549006782E+03  0.10566000000E+00 0.  1.
         13    1    1    2    0    0  0.54949600574E+03 -0.44019574500E+03  0.14475561375E+03  0.71879924396E+03  0.10566000000E+00 0. -1.
         -4    1    1    2    0  502 -0.72989813012E+02  0.11473323889E+03  0.68489787996E+03  0.69826666460E+03  0.00000000000E+00 0. -1.
</event>
<event>
 5    1  0.2540860E-005  0.3967274E+03  0.7818608E-02  0.9949491E-01
          4   -1    0    0  502    0 -0.00000000000E+00  0.00000000000E+00  0.52558739037E+03  0.52558739037E+03  0.00000000000E+00 0.  1.
         21   -1    0    0  501  502  0.00000000000E+00 -0.00000000000E+00 -0.73794957402E+03  0.73794957402E+03  0.00000000000E+00 0.  1.
        -13    1    1    2    0    0  0.14112862263E+02  0.31306076756E+03  0.22645682426E+03  0.38663797212E+03  0.10566000000E+00 0.  1.
         13    1    1    2    0    0  0.18440354878E+03  0.61249490598E+02  0.77321017943E+02  0.20912847697E+03  0.10566000000E+00 0. -1.
          4    1    1    2  501    0 -0.19851641104E+03 -0.37431025816E+03 -0.51614002585E+03  0.66777051530E+03  0.00000000000E+00 0.  1.
</event>
<event>
 5    1  0.2540860E-005  0.4575089E+03  0.7818608E-02  0.1005546E+00
          4   -1    0    0  502    0 -0.00000000000E+00  0.00000000000E+00  0.14775256671E+04  0.14775256671E+04  0.00000000000E+00 0.  1.
         21   -1    0    0  501  502  0.00000000000E+00 -0.00000000000E+00 -0.21136074069E+03  0.21136074069E+03  0.00000000000E+00 0.  1.
        -13    1    1    2    0    0 -0.39411262335E+03 -0.26903254585E+03  0.21830648401E+03  0.52474851380E+03  0.10566000000E+00 0.  1.
         13    1    1    2    0    0  0.88735755355E+02 -0.11959833404E+02  0.23492775922E+03  0.25141228114E+03  0.10566000000E+00 0. -1.
          4    1    1    2  501    0  0.30537686799E+03  0.28099237925E+03  0.81293068317E+03  0.91272561285E+03  0.00000000000E+00 0.  1.
</event>
<event>
 5    1  0.2540860E-005  0.4678385E+03  0.7818608E-02  0.9790084E-01
         21   -1    0    0  501  502  0.00000000000E+00  0.00000000000E+00  0.21572263883E+03  0.21572263883E+03  0.00000000000E+00 0. -1.
         -4   -1    0    0    0  501 -0.00000000000E+00 -0.00000000000E+00 -0.24336249031E+04  0.24336249031E+04  0.00000000000E+00 0. -1.
        -13    1    1    2    0    0  0.77499908765E+02  0.18723124913E+03 -0.11820453972E+04  0.11992885844E+04  0.10566000000E+00 0.  1.
         13    1    1    2    0    0 -0.39824896772E+03 -0.34485667475E+03 -0.24254678895E+03  0.57996320780E+03  0.10566000000E+00 0. -1.
         -4    1    1    2    0  502  0.32074905895E+03  0.15762542561E+03 -0.79331007817E+03  0.87009574976E+03  0.00000000000E+00 0. -1.
</event>
<event>
 5    1  0.2540860E-005  0.2598905E+03  0.7818608E-02  0.1035332E+00
         -4   -1    0    0    0  501 -0.00000000000E+00  0.00000000000E+00  0.28638331096E+03  0.28638331096E+03  0.00000000000E+00 0. -1.
         21   -1    0    0  501  502  0.00000000000E+00 -0.00000000000E+00 -0.62808303829E+03  0.62808303829E+03  0.00000000000E+00 0.  1.
        -13    1    1    2    0    0  0.17446626099E+03  0.78216533909E+02 -0.24697287405E+03  0.31233301792E+03  0.10566000000E+00 0.  1.
         13    1    1    2    0    0 -0.38065358812E+03 -0.52055917234E+02 -0.34498163659E+02  0.38574228071E+03  0.10566000000E+00 0. -1.
         -4    1    1    2    0  502  0.20618732713E+03 -0.26160616675E+02 -0.60228689610E+02  0.21639105062E+03  0.00000000000E+00 0. -1.
</event>
<event>
 5    1  0.2540860E-005  0.5078360E+03  0.7818608E-02  0.9987160E-01
         -4   -1    0    0    0  501 -0.00000000000E+00  0.00000000000E+00  0.49367358995E+03  0.49367358995E+03  0.00000000000E+00 0. -1.
         21   -1    0    0  501  502  0.00000000000E+00 -0.00000000000E+00 -0.61577472275E+03  0.61577472275E+03  0.00000000000E+00 0. -1.
        -13    1    1    2    0    0 -0.38493325509E+02  0.72193552202E+02 -0.23943758645E+02  0.85246465207E+02  0.10566000000E+00 0.  1.
         13    1    1    2    0    0  0.51351861702E+03  0.81925633407E+02 -0.43930401562E+02  0.52186499287E+03  0.10566000000E+00 0. -1.
         -4    1    1    2    0  502 -0.47502529152E+03 -0.15411918561E+03 -0.54226972586E+02  0.50233685462E+03  0.00000000000E+00 0. -1.
</event>
<event>
 5    1  0.2540860E-005  0.6700151E+03  0.7818608E-02  0.9167648E-01
         -4   -1    0    0    0  501 -0.00000000000E+00  0.00000000000E+00  0.21288585752E+04  0.21288585752E+04  0.00000000000E+00 0. -1.
         21   -1    0    0  501  502  0.00000000000E+00 -0.00000000000E+00 -0.44341909128E+03  0.44341909128E+03  0.00000000000E+00 0. -1.
        -13    1    1    2    0    0  0.39925564419E+03  0.53058607048E+03  0.91363421188E+03  0.11294485964E+04  0.10566000000E+00 0.  1.
         13    1    1    2    0    0 -0.54913826207E+03 -0.41665444698E+03  0.95655930911E+03  0.11790502458E+04  0.10566000000E+00 0. -1.
         -4    1    1    2    0  502  0.14988261789E+03 -0.11393162350E+03 -0.18475403703E+03  0.26377882435E+03  0.00000000000E+00 0. -1.
</event>
<event>
 5    1  0.2540860E-005  0.4231725E+02  0.7818608E-02  0.1405205E+00
         -4   -1    0    0    0  501 -0.00000000000E+00  0.00000000000E+00  0.16038882084E+03  0.16038882084E+03  0.00000000000E+00 0. -1.
         21   -1    0    0  501  502  0.00000000000E+00 -0.00000000000E+00 -0.42844946694E+02  0.42844946694E+02  0.00000000000E+00 0. -1.
        -13    1    1    2    0    0 -0.27435579939E+01  0.10276096885E+02 -0.23028933954E+02  0.25366675792E+02  0.10566000000E+00 0.  1.
         13    1    1    2    0    0 -0.38175990357E+02 -0.20925909243E+02  0.12573152748E+03  0.13305535722E+03  0.10566000000E+00 0. -1.
         -4    1    1    2    0  502  0.40919548351E+02  0.10649812358E+02  0.14841280614E+02  0.44811734521E+02  0.00000000000E+00 0. -1.
</event>
<event>
 5    1  0.2540860E-005  0.1082207E+03  0.7818608E-02  0.1175534E+00
          4   -1    0    0  502    0 -0.00000000000E+00  0.00000000000E+00  0.60202738581E+03  0.60202738581E+03  0.00000000000E+00 0.  1.
         21   -1    0    0  501  502  0.00000000000E+00 -0.00000000000E+00 -0.41876496809E+02  0.41876496809E+02  0.00000000000E+00 0.  1.
        -13    1    1    2    0    0 -0.14580173007E+03  0.21462821235E+02  0.24427900976E+03  0.28529115471E+03  0.10566000000E+00 0.  1.
         13    1    1    2    0    0  0.59988603166E+02  0.89670776747E+01  0.21189847470E+03  0.22040874696E+03  0.10566000000E+00 0. -1.
          4    1    1    2  501    0  0.85813126902E+02 -0.30429898909E+02  0.10397340454E+03  0.13820398094E+03  0.00000000000E+00 0.  1.
</event>
<event>
 5    1  0.2540860E-005  0.9367288E+02  0.7818608E-02  0.1175471E+00
         21   -1    0    0  501  502  0.00000000000E+00  0.00000000000E+00  0.18037193803E+03  0.18037193803E+03  0.00000000000E+00 0.  1.
         -4   -1    0    0    0  501 -0.00000000000E+00 -0.00000000000E+00 -0.13432933372E+03  0.13432933372E+03  0.00000000000E+00 0. -1.
        -13    1    1    2    0    0  0.43247388637E+02  0.10326156768E+03  0.10128824751E+02  0.11240948464E+03  0.10566000000E+00 0.  1.
         13    1    1    2    0    0 -0.61360765063E+02 -0.63493230823E+02 -0.53167381867E+02  0.10306946933E+03  0.10566000000E+00 0. -1.
         -4    1    1    2    0  502  0.18113376426E+02 -0.39768336855E+02  0.89081161428E+02  0.99222317767E+02  0.00000000000E+00 0. -1.
</event>
<event>
 5    1  0.2540860E-005  0.5782991E+03  0.7818608E-02  0.9321120E-01
         -4   -1    0    0    0  501 -0.00000000000E+00  0.00000000000E+00  0.92961352295E+03  0.92961352295E+03  0.00000000000E+00 0. -1.
         21   -1    0    0  501  502  0.00000000000E+00 -0.00000000000E+00 -0.82583104711E+03  0.82583104711E+03  0.00000000000E+00 0.  1.
        -13    1    1    2    0    0 -0.54321940461E+03 -0.19702752112E+03  0.57778510980E+03  0.81715531565E+03  0.10566000000E+00 0.  1.
         13    1    1    2    0    0  0.53350436077E+03  0.22849192068E+03 -0.13263649714E+03  0.59533848550E+03  0.10566000000E+00 0. -1.
         -4    1    1    2    0  502  0.97150438377E+01 -0.31464399562E+02 -0.34136613683E+03  0.34295076890E+03  0.00000000000E+00 0. -1.
</event>
<event>
 5    1  0.2540860E-005  0.4811583E+03  0.7818608E-02  0.9747904E-01
         21   -1    0    0  501  502  0.00000000000E+00  0.00000000000E+00  0.39903472420E+03  0.39903472420E+03  0.00000000000E+00 0. -1.
         -4   -1    0    0    0  501 -0.00000000000E+00 -0.00000000000E+00 -0.96377301343E+03  0.96377301343E+03  0.00000000000E+00 0. -1.
        -13    1    1    2    0    0 -0.14128588315E+03 -0.16247495640E+03 -0.23255291760E+03  0.31692378088E+03  0.10566000000E+00 0.  1.
         13    1    1    2    0    0 -0.41220354094E+02 -0.39735560649E+03 -0.17703941990E+03  0.43695945232E+03  0.10566000000E+00 0. -1.
         -4    1    1    2    0  502  0.18250623725E+03  0.55983056289E+03 -0.15514595172E+03  0.60892450445E+03  0.00000000000E+00 0. -1.
</event>
<event>
 5    1  0.2540860E-005  0.1109669E+03  0.7818608E-02  0.1147584E+00
         21   -1    0    0  501  502  0.00000000000E+00  0.00000000000E+00  0.72576823622E+02  0.72576823622E+02  0.00000000000E+00 0.  1.
         -4   -1    0    0    0  501 -0.00000000000E+00 -0.00000000000E+00 -0.64580205469E+03  0.64580205469E+03  0.00000000000E+00 0. -1.
        -13    1    1    2    0    0  0.64518716943E+02 -0.10126803881E+03 -0.35328014915E+01  0.12012648488E+03  0.10566000000E+00 0.  1.
         13    1    1    2    0    0 -0.60632584623E+02  0.91963480111E+02 -0.57594740825E+03  0.58638640863E+03  0.10566000000E+00 0. -1.
         -4    1    1    2    0  502 -0.38861323200E+01  0.93045586974E+01  0.62549786748E+01  0.11865984796E+02  0.00000000000E+00 0. -1.
</event>
<event>
 5    1  0.2540860E-005  0.5309074E+03  0.7818608E-02  0.9412686E-01
         -4   -1    0    0    0  501 -0.00000000000E+00  0.00000000000E+00  0.39760839707E+03  0.39760839707E+03  0.00000000000E+00 0. -1.
         21   -1    0    0  501  502  0.00000000000E+00 -0.00000000000E+00 -0.14377455040E+04  0.14377455040E+04  0.00000000000E+00 0. -1.
        -13    1    1    2    0    0  0.29696454847E+03 -0.30842265346E+03 -0.38451438866E+03  0.57546833316E+03  0.10566000000E+00 0.  1.
         13    1    1    2    0    0 -0.61115270931E+03  0.36119056097E+03 -0.61398797538E+03  0.93858803556E+03  0.10566000000E+00 0. -1.
         -4    1    1    2    0  502  0.31418816084E+03 -0.52767907508E+02 -0.41634742881E+02  0.32129753235E+03  0.00000000000E+00 0. -1.
</event>
<event>
 5    1  0.2540860E-005  0.4410667E+03  0.7818608E-02  0.9665014E-01
         21   -1    0    0  501  502  0.00000000000E+00  0.00000000000E+00  0.23353719688E+03  0.23353719688E+03  0.00000000000E+00 0.  1.
         -4   -1    0    0    0  501 -0.00000000000E+00 -0.00000000000E+00 -0.21174557064E+04  0.21174557064E+04  0.00000000000E+00 0. -1.
        -13    1    1    2    0    0  0.26759632200E+03  0.25976223513E+03 -0.86588856962E+03  0.94278695181E+03  0.10566000000E+00 0.  1.
         13    1    1    2    0    0 -0.49887694793E+03  0.99748136137E+02 -0.35895340619E+03  0.62263589587E+03  0.10566000000E+00 0. -1.
         -4    1    1    2    0  502  0.23128062594E+03 -0.35951037127E+03 -0.65907653371E+03  0.78557005561E+03  0.00000000000E+00 0. -1.
</event>
<event>
 5    1  0.2540860E-005  0.5171719E+03  0.7818608E-02  0.9441109E-01
         21   -1    0    0  501  502  0.00000000000E+00  0.00000000000E+00  0.26400500545E+03  0.26400500545E+03  0.00000000000E+00 0.  1.
         -4   -1    0    0    0  501 -0.00000000000E+00 -0.00000000000E+00 -0.13589227275E+04  0.13589227275E+04  0.00000000000E+00 0. -1.
        -13    1    1    2    0    0 -0.14205334563E+02 -0.51247659910E+03 -0.54034074560E+03  0.74485044719E+03  0.10566000000E+00 0.  1.
         13    1    1    2    0    0  0.77409680162E+01  0.52131089005E+03 -0.62095178738E+03  0.81080583378E+03  0.10566000000E+00 0. -1.
         -4    1    1    2    0  502  0.64643665473E+01 -0.88342909503E+01  0.66374810911E+02  0.67271452005E+02  0.00000000000E+00 0. -1.
</event>
<event>
 5    1  0.2540860E-005  0.4193630E+03  0.7818608E-02  0.9674732E-01
          4   -1    0    0  502    0 -0.00000000000E+00  0.00000000000E+00  0.21662847999E+04  0.21662847999E+04  0.00000000000E+00 0.  1.
         21   -1    0    0  501  502  0.00000000000E+00 -0.00000000000E+00 -0.26563266415E+03  0.26563266415E+03  0.00000000000E+00 0.  1.
        -13    1    1    2    0    0  0.26655545551E+03  0.32111902509E+03  0.58703863828E+03  0.72026634875E+03  0.10566000000E+00 0.  1.
         13    1    1    2    0    0 -0.25927406866E+03 -0.33080285441E+03  0.14832156431E+04  0.15416167572E+04  0.10566000000E+00 0. -1.
          4    1    1    2  501    0 -0.72813868512E+01  0.96838293283E+01 -0.16960214559E+03  0.17003435810E+03  0.00000000000E+00 0.  1.
</event>
<event>
 5    1  0.2540860E-005  0.2341689E+03  0.7818608E-02  0.1038940E+00
         -4   -1    0    0    0  501 -0.00000000000E+00  0.00000000000E+00  0.10681307837E+04  0.10681307837E+04  0.00000000000E+00 0. -1.
         21   -1    0    0  501  502  0.00000000000E+00 -0.00000000000E+00 -0.94247163596E+02  0.94247163596E+02  0.00000000000E+00 0.  1.
        -13    1    1    2    0    0 -0.75718479028E+01 -0.19308409722E+03  0.36039136591E+03  0.40892633721E+03  0.10566000000E+00 0.  1.
         13    1    1    2    0    0 -0.29347486206E+02  0.30537774952E+03  0.51562613443E+03  0.59998930534E+03  0.10566000000E+00 0. -1.
         -4    1    1    2    0  502  0.36919334109E+02 -0.11229365230E+03  0.97866119739E+02  0.15346230472E+03  0.00000000000E+00 0. -1.
</event>
<event>
 5    1  0.2540860E-005  0.1105560E+03  0.7818608E-02  0.1148181E+00
          4   -1    0    0  502    0 -0.00000000000E+00  0.00000000000E+00  0.45897162260E+02  0.45897162260E+02  0.00000000000E+00 0.  1.
         21   -1    0    0  501  502  0.00000000000E+00 -0.00000000000E+00 -0.92831002504E+03  0.92831002504E+03  0.00000000000E+00 0.  1.
        -13    1    1    2    0    0  0.11514054331E+03  0.40798113737E+02 -0.88291254877E+02  0.15072222016E+03  0.10566000000E+00 0.  1.
         13    1    1    2    0    0 -0.96792908123E+02 -0.49434068978E+01 -0.15309539742E+03  0.18119469145E+03  0.10566000000E+00 0. -1.
          4    1    1    2  501    0 -0.18347635187E+02 -0.35854706839E+02 -0.64102621048E+03  0.64229027569E+03  0.00000000000E+00 0.  1.
</event>
<event>
 5    1  0.2540860E-005  0.2105382E+02  0.7818608E-02  0.1495704E+00
         -4   -1    0    0    0  501 -0.00000000000E+00  0.00000000000E+00  0.99233448548E+01  0.99233448548E+01  0.00000000000E+00 0. -1.
         21   -1    0    0  501  502  0.00000000000E+00 -0.00000000000E+00 -0.11011176056E+03  0.11011176056E+03  0.00000000000E+00 0.  1.
        -13    1    1    2    0    0 -0.24613925406E+02  0.15988951925E+02 -0.71332127199E+02  0.77134787498E+02  0.10566000000E+00 0.  1.
         13    1    1    2    0    0  0.15798289103E+02 -0.10991338845E+02 -0.10478026682E+02  0.21913367504E+02  0.10566000000E+00 0. -1.
         -4    1    1    2    0  502  0.88156363032E+01 -0.49976130808E+01 -0.18378261822E+02  0.20986950410E+02  0.00000000000E+00 0. -1.
</event>
<event>
 5    1  0.2540860E-005  0.8430976E+02  0.7818608E-02  0.1193501E+00
         -4   -1    0    0    0  501 -0.00000000000E+00  0.00000000000E+00  0.33549182495E+03  0.33549182495E+03  0.00000000000E+00 0. -1.
         21   -1    0    0  501  502  0.00000000000E+00 -0.00000000000E+00 -0.75702524724E+02  0.75702524724E+02  0.00000000000E+00 0.  1.
        -13    1    1    2    0    0 -0.91061263164E+02 -0.92949953663E+01  0.16228566993E+02  0.92961971464E+02  0.10566000000E+00 0.  1.
         13    1    1    2    0    0  0.82002688816E+02  0.13911479385E+02  0.27389193741E+03  0.28624251043E+03  0.10566000000E+00 0. -1.
         -4    1    1    2    0  502  0.90585743482E+01 -0.46164840192E+01 -0.30331204179E+02  0.31989867784E+02  0.00000000000E+00 0. -1.
</event>
<event>
 5    1  0.2540860E-005  0.4081239E+03  0.7818608E-02  0.9705872E-01
          4   -1    0    0  502    0 -0.00000000000E+00  0.00000000000E+00  0.18235259308E+04  0.18235259308E+04  0.00000000000E+00 0.  1.
         21   -1    0    0  501  502  0.00000000000E+00 -0.00000000000E+00 -0.34472282671E+03  0.34472282671E+03  0.00000000000E+00 0.  1.
        -13    1    1    2    0    0  0.25848950602E+03  0.46456965107E+03 -0.48509632149E+02  0.53384921185E+03  0.10566000000E+00 0.  1.
         13    1    1    2    0    0 -0.21138925275E+03 -0.32597612309E+03  0.76327630422E+03  0.85646749895E+03  0.10566000000E+00 0. -1.
          4    1    1    2  501    0 -0.47100253265E+02 -0.13859352797E+03  0.76403643202E+03  0.77793204672E+03  0.00000000000E+00 0.  1.
</event>
<event>
 5    1  0.2540860E-005  0.2723691E+03  0.7818608E-02  0.1019411E+00
          4   -1    0    0  502    0 -0.00000000000E+00  0.00000000000E+00  0.65884291387E+03  0.65884291387E+03  0.00000000000E+00 0.  1.
         21   -1    0    0  501  502  0.00000000000E+00 -0.00000000000E+00 -0.60477326742E+03  0.60477326742E+03  0.00000000000E+00 0.  1.
        -13    1    1    2    0    0  0.29114631679E+03 -0.72826998619E+02  0.48430032252E+03  0.56975149238E+03  0.10566000000E+00 0.  1.
         13    1    1    2    0    0 -0.21354981803E+03  0.24116815129E+02  0.36710495870E+02  0.21802022205E+03  0.10566000000E+00 0. -1.
          4    1    1    2  501    0 -0.77596498764E+02  0.48710183491E+02 -0.46694117194E+03  0.47584446687E+03  0.00000000000E+00 0.  1.
</event>
<event>
 5    1  0.2540860E-005  0.4728591E+03  0.7818608E-02  0.9770847E-01
         21   -1    0    0  501  502  0.00000000000E+00  0.00000000000E+00  0.14572575722E+03  0.14572575722E+03  0.00000000000E+00 0.  1.
          4   -1    0    0  502    0 -0.00000000000E+00 -0.00000000000E+00 -0.30951035909E+04  0.30951035909E+04  0.00000000000E+00 0.  1.
        -13    1    1    2    0    0 -0.52085746900E+03  0.32111086860E+03 -0.18869253984E+04  0.19836562613E+04  0.10566000000E+00 0.  1.
         13    1    1    2    0    0  0.16508334806E+03 -0.12919074419E+03 -0.14579731680E+03  0.25534218011E+03  0.10566000000E+00 0. -1.
          4    1    1    2  501    0  0.35577412094E+03 -0.19192012441E+03 -0.91665511849E+03  0.10018309067E+04  0.00000000000E+00 0.  1.
</event>
<event>
 5    1  0.2540860E-005  0.1426463E+03  0.7818608E-02  0.1108599E+00
         -4   -1    0    0    0  501 -0.00000000000E+00  0.00000000000E+00  0.25930219833E+02  0.25930219833E+02  0.00000000000E+00 0. -1.
         21   -1    0    0  501  502  0.00000000000E+00 -0.00000000000E+00 -0.19846078660E+04  0.19846078660E+04  0.00000000000E+00 0.  1.
        -13    1    1    2    0    0 -0.15153780763E+03 -0.21568933178E+02 -0.90302508287E+03  0.91590569246E+03  0.10566000000E+00 0.  1.
         13    1    1    2    0    0  0.13743532095E+03  0.25573375963E+02 -0.23209137677E+03  0.27094073768E+03  0.10566000000E+00 0. -1.
         -4    1    1    2    0  502  0.14102486681E+02 -0.40044427849E+01 -0.82356118654E+03  0.82369165570E+03  0.00000000000E+00 0. -1.
</event>
<event>
 5    1  0.2540860E-005  0.4965843E+03  0.7818608E-02  0.9485490E-01
         21   -1    0    0  501  502  0.00000000000E+00  0.00000000000E+00  0.46495206190E+03  0.46495206190E+03  0.00000000000E+00 0.  1.
         -4   -1    0    0    0  501 -0.00000000000E+00 -0.00000000000E+00 -0.11886753828E+04  0.11886753828E+04  0.00000000000E+00 0. -1.
        -13    1    1    2    0    0  0.40349874199E+03  0.16841850631E+02 -0.12755884748E+03  0.42351641462E+03  0.10566000000E+00 0.  1.
         13    1    1    2    0    0 -0.66965737555E+03  0.83510321783E+02 -0.13490480176E+03  0.68819640450E+03  0.10566000000E+00 0. -1.
         -4    1    1    2    0  502  0.26615863356E+03 -0.10035217241E+03 -0.46125967168E+03  0.54191462561E+03  0.00000000000E+00 0. -1.
</event>
<event>
 5    1  0.2540860E-005  0.5608160E+03  0.7818608E-02  0.9353790E-01
          4   -1    0    0  502    0 -0.00000000000E+00  0.00000000000E+00  0.13455553283E+04  0.13455553283E+04  0.00000000000E+00 0.  1.
         21   -1    0    0  501  502  0.00000000000E+00 -0.00000000000E+00 -0.46406005650E+03  0.46406005650E+03  0.00000000000E+00 0. -1.
        -13    1    1    2    0    0  0.17366487444E+03  0.74004081302E+03  0.46474102345E+03  0.89095685844E+03  0.10566000000E+00 0.  1.
         13    1    1    2    0    0 -0.24167279535E+03 -0.38218997179E+03  0.26447652038E+03  0.52385375397E+03  0.10566000000E+00 0. -1.
          4    1    1    2  501    0  0.68007920910E+02 -0.35785084123E+03  0.15227772797E+03  0.39480477240E+03  0.00000000000E+00 0.  1.
</event>
<event>
 5    1  0.2540860E-005  0.4978205E+03  0.7818608E-02  0.9734534E-01
          4   -1    0    0  502    0 -0.00000000000E+00  0.00000000000E+00  0.62742530172E+03  0.62742530172E+03  0.00000000000E+00 0.  1.
         21   -1    0    0  501  502  0.00000000000E+00 -0.00000000000E+00 -0.62553854763E+03  0.62553854763E+03  0.00000000000E+00 0.  1.
        -13    1    1    2    0    0 -0.11020809213E+03  0.40838837326E+03  0.53777757139E+02  0.42640232799E+03  0.10566000000E+00 0.  1.
         13    1    1    2    0    0 -0.18519098170E+03  0.84595814554E+02  0.10739162992E+03  0.23018497971E+03  0.10566000000E+00 0. -1.
          4    1    1    2  501    0  0.29539907383E+03 -0.49298418782E+03 -0.15928263297E+03  0.59637654165E+03  0.00000000000E+00 0.  1.
</event>
<event>
 5    1  0.2540860E-005  0.3171556E+03  0.7818608E-02  0.1014531E+00
         -4   -1    0    0    0  501 -0.00000000000E+00  0.00000000000E+00  0.58571160564E+03  0.58571160564E+03  0.00000000000E+00 0. -1.
         21   -1    0    0  501  502  0.00000000000E+00 -0.00000000000E+00 -0.94483625377E+03  0.94483625377E+03  0.00000000000E+00 0. -1.
        -13    1    1    2    0    0  0.20104839761E+03  0.11453365661E+02  0.23006111794E+03  0.30574461062E+03  0.10566000000E+00 0.  1.
         13    1    1    2    0    0 -0.23489381070E+02 -0.28567279228E+03  0.21400725948E+03  0.35771470971E+03  0.10566000000E+00 0. -1.
         -4    1    1    2    0  502 -0.17755901654E+03  0.27421942662E+03 -0.80319302556E+03  0.86708853908E+03  0.00000000000E+00 0. -1.
</event>
<event>
 5    1  0.2540860E-005  0.8295293E+03  0.7818608E-02  0.8953728E-01
         -4   -1    0    0    0  501 -0.00000000000E+00  0.00000000000E+00  0.34484000015E+04  0.34484000015E+04  0.00000000000E+00 0. -1.
         21   -1    0    0  501  502  0.00000000000E+00 -0.00000000000E+00 -0.29253031326E+03  0.29253031326E+03  0.00000000000E+00 0.  1.
        -13    1    1    2    0    0 -0.67385787386E+03  0.27288476316E+03  0.75353519923E+03  0.10470748950E+04  0.10566000000E+00 0.  1.
         13    1    1    2    0    0  0.91597254606E+03 -0.10419775675E+03  0.17533108480E+04  0.19808992449E+04  0.10566000000E+00 0. -1.
         -4    1    1    2    0  502 -0.24211467220E+03 -0.16868700641E+03  0.64902364096E+03  0.71295617478E+03  0.00000000000E+00 0. -1.
</event>
<event>
 5    1  0.2540860E-005  0.4089353E+03  0.7818608E-02  0.9836797E-01
         21   -1    0    0  501  502  0.00000000000E+00  0.00000000000E+00  0.11015437045E+04  0.11015437045E+04  0.00000000000E+00 0. -1.
         -4   -1    0    0    0  501 -0.00000000000E+00 -0.00000000000E+00 -0.54516335241E+03  0.54516335241E+03  0.00000000000E+00 0. -1.
        -13    1    1    2    0    0  0.15475700748E+03 -0.20743498931E+03 -0.27104595922E+03  0.37475982886E+03  0.10566000000E+00 0.  1.
         13    1    1    2    0    0  0.36336126644E+03  0.11876372769E+03  0.57083091706E+03  0.68701104795E+03  0.10566000000E+00 0. -1.
         -4    1    1    2    0  502 -0.51811827392E+03  0.88671261625E+02  0.25659539422E+03  0.58493618006E+03  0.00000000000E+00 0. -1.
</event>
<event>
 5    1  0.2540860E-005  0.8523260E+02  0.7818608E-02  0.1191611E+00
         21   -1    0    0  501  502  0.00000000000E+00  0.00000000000E+00  0.47221149675E+02  0.47221149675E+02  0.00000000000E+00 0.  1.
          4   -1    0    0  502    0 -0.00000000000E+00 -0.00000000000E+00 -0.28605601722E+03  0.28605601722E+03  0.00000000000E+00 0.  1.
        -13    1    1    2    0    0  0.95073780288E+01 -0.89618282022E+02 -0.19181850088E+03  0.21193436521E+03  0.10566000000E+00 0.  1.
         13    1    1    2    0    0  0.60843542500E+00  0.76699846464E+02 -0.62379048198E+02  0.98865532211E+02  0.10566000000E+00 0. -1.
          4    1    1    2  501    0 -0.10115813454E+02  0.12918435557E+02  0.15362681539E+02  0.22477269477E+02  0.00000000000E+00 0.  1.
</event>
<event>
 5    1  0.2540860E-005  0.5416219E+02  0.7818608E-02  0.1275712E+00
         21   -1    0    0  501  502  0.00000000000E+00  0.00000000000E+00  0.34678876042E+03  0.34678876042E+03  0.00000000000E+00 0.  1.
          4   -1    0    0  502    0 -0.00000000000E+00 -0.00000000000E+00 -0.92823699434E+02  0.92823699434E+02  0.00000000000E+00 0.  1.
        -13    1    1    2    0    0 -0.12732049091E+02  0.53076800223E+02 -0.67278261992E+02  0.86635024653E+02  0.10566000000E+00 0.  1.
         13    1    1    2    0    0 -0.19331644420E+01 -0.53758897749E+02  0.30450478563E+02  0.61814229921E+02  0.10566000000E+00 0. -1.
          4    1    1    2  501    0  0.14665213533E+02  0.68209752653E+00  0.29079284441E+03  0.29116320528E+03  0.00000000000E+00 0.  1.
</event>
<event>
 5    1  0.2540860E-005  0.3626201E+03  0.7818608E-02  0.9969978E-01
          4   -1    0    0  502    0 -0.00000000000E+00  0.00000000000E+00  0.63222128571E+03  0.63222128571E+03  0.00000000000E+00 0.  1.
         21   -1    0    0  501  502  0.00000000000E+00 -0.00000000000E+00 -0.10943618610E+04  0.10943618610E+04  0.00000000000E+00 0.  1.
        -13    1    1    2    0    0 -0.51997558984E+03 -0.14783884652E+03 -0.41588855361E+03  0.68205149275E+03  0.10566000000E+00 0.  1.
         13    1    1    2    0    0  0.22665547666E+03  0.71944212841E+02  0.42341288451E+03  0.48562038342E+03  0.10566000000E+00 0. -1.
          4    1    1    2  501    0  0.29332011319E+03  0.75894633684E+02 -0.46966490618E+03  0.55891127052E+03  0.00000000000E+00 0.  1.
</event>
<event>
 5    1  0.2540860E-005  0.3427897E+03  0.7818608E-02  0.9910612E-01
         21   -1    0    0  501  502  0.00000000000E+00  0.00000000000E+00  0.75011817700E+02  0.75011817700E+02  0.00000000000E+00 0. -1.
          4   -1    0    0  502    0 -0.00000000000E+00 -0.00000000000E+00 -0.24097856602E+04  0.24097856602E+04  0.00000000000E+00 0.  1.
        -13    1    1    2    0    0 -0.85999802018E+02  0.33278162721E+03 -0.17113799762E+04  0.17455546429E+04  0.10566000000E+00 0.  1.
         13    1    1    2    0    0  0.10063906750E+03 -0.32553660986E+03 -0.63400338450E+03  0.71976566255E+03  0.10566000000E+00 0. -1.
          4    1    1    2  501    0 -0.14639265477E+02 -0.72450173570E+01  0.10609518179E+02  0.19477172439E+02  0.00000000000E+00 0.  1.
</event>
<event>
 5    1  0.2540860E-005  0.5402196E+02  0.7818608E-02  0.1294597E+00
         21   -1    0    0  501  502  0.00000000000E+00  0.00000000000E+00  0.38085789983E+02  0.38085789983E+02  0.00000000000E+00 0. -1.
          4   -1    0    0  502    0 -0.00000000000E+00 -0.00000000000E+00 -0.25731540510E+03  0.25731540510E+03  0.00000000000E+00 0.  1.
        -13    1    1    2    0    0  0.21163279963E+02  0.81886177525E+01 -0.13656704421E+03  0.13843954135E+03  0.10566000000E+00 0.  1.
         13    1    1    2    0    0  0.14340034273E+02 -0.63216824200E+02 -0.24255996752E+02  0.69212484332E+02  0.10566000000E+00 0. -1.
          4    1    1    2  501    0 -0.35503314236E+02  0.55028206448E+02 -0.58406574151E+02  0.87749169402E+02  0.00000000000E+00 0.  1.
</event>
<event>
 5    1  0.2540860E-005  0.2636886E+02  0.7818608E-02  0.1436681E+00
         -4   -1    0    0    0  501 -0.00000000000E+00  0.00000000000E+00  0.70848300453E+02  0.70848300453E+02  0.00000000000E+00 0. -1.
         21   -1    0    0  501  502  0.00000000000E+00 -0.00000000000E+00 -0.24874663340E+02  0.24874663340E+02  0.00000000000E+00 0. -1.
        -13    1    1    2    0    0  0.43240953697E+01  0.27266514835E+02  0.17065997921E+02  0.32456433585E+02  0.10566000000E+00 0.  1.
         13    1    1    2    0    0  0.68942424338E+01 -0.25630632399E+02  0.39607016003E+02  0.47677948536E+02  0.10566000000E+00 0. -1.
         -4    1    1    2    0  502 -0.11218337804E+02 -0.16358824361E+01 -0.10699376810E+02  0.15588581672E+02  0.00000000000E+00 0. -1.
</event>
<event>
 5    1  0.2540860E-005  0.2503039E+02  0.7818608E-02  0.1449923E+00
         21   -1    0    0  501  502  0.00000000000E+00  0.00000000000E+00  0.36356185955E+02  0.36356185955E+02  0.00000000000E+00 0. -1.
          4   -1    0    0  502    0 -0.00000000000E+00 -0.00000000000E+00 -0.49188936910E+02  0.49188936910E+02  0.00000000000E+00 0.  1.
        -13    1    1    2    0    0  0.23831759517E+02  0.20776043709E+01  0.21689215880E+02  0.32290903535E+02  0.10566000000E+00 0.  1.
         13    1    1    2    0    0 -0.24530269794E+02  0.81150459167E+01 -0.11929195319E+02  0.28458829410E+02  0.10566000000E+00 0. -1.
          4    1    1    2  501    0  0.69851027652E+00 -0.10192650288E+02 -0.22592771517E+02  0.24795389920E+02  0.00000000000E+00 0.  1.
</event>
<event>
 5    1  0.2540860E-005  0.4475867E+03  0.7818608E-02  0.9886871E-01
          4   -1    0    0  502    0 -0.00000000000E+00  0.00000000000E+00  0.83596160066E+03  0.83596160066E+03  0.00000000000E+00 0.  1.
         21   -1    0    0  501  502  0.00000000000E+00 -0.00000000000E+00 -0.43534128390E+03  0.43534128390E+03  0.00000000000E+00 0.  1.
        -13    1    1    2    0    0  0.51689142944E+03  0.19437949391E+03  0.33654741499E+03  0.64670264510E+03  0.10566000000E+00 0.  1.
         13    1    1    2    0    0 -0.16541606187E+03  0.20792247870E+02  0.12451345878E+03  0.20808268472E+03  0.10566000000E+00 0. -1.
          4    1    1    2  501    0 -0.35147536757E+03 -0.21517174178E+03 -0.60440557022E+02  0.41651755473E+03  0.00000000000E+00 0.  1.
</event>
<event>
 5    1  0.2540860E-005  0.2037314E+03  0.7818608E-02  0.1065935E+00
         -4   -1    0    0    0  501 -0.00000000000E+00  0.00000000000E+00  0.13117710325E+04  0.13117710325E+04  0.00000000000E+00 0. -1.
         21   -1    0    0  501  502  0.00000000000E+00 -0.00000000000E+00 -0.28976845077E+03  0.28976845077E+03  0.00000000000E+00 0. -1.
        -13    1    1    2    0    0 -0.59001773328E+02  0.14862515979E+03  0.38502820267E+03  0.41691411033E+03  0.10566000000E+00 0.  1.
         13    1    1    2    0    0  0.20481715521E+03 -0.31738203780E+02 -0.22307905865E+03  0.30450231234E+03  0.10566000000E+00 0. -1.
         -4    1    1    2    0  502 -0.14581538188E+03 -0.11688695601E+03  0.86005343773E+03  0.88012306062E+03  0.00000000000E+00 0. -1.
</event>
<event>
 5    1  0.2540860E-005  0.6500533E+02  0.7818608E-02  0.1262687E+00
         -4   -1    0    0    0  501 -0.00000000000E+00  0.00000000000E+00  0.39855650910E+02  0.39855650910E+02  0.00000000000E+00 0. -1.
         21   -1    0    0  501  502  0.00000000000E+00 -0.00000000000E+00 -0.30983427112E+03  0.30983427112E+03  0.00000000000E+00 0. -1.
        -13    1    1    2    0    0 -0.71051333349E+01 -0.40211199174E+02  0.58001321105E+01  0.41244104491E+02  0.10566000000E+00 0.  1.
         13    1    1    2    0    0  0.68497264134E+02  0.14244177262E+02 -0.11828772620E+03  0.13742914215E+03  0.10566000000E+00 0. -1.
         -4    1    1    2    0  502 -0.61392130799E+02  0.25967021912E+02 -0.15749102612E+03  0.17101667539E+03  0.00000000000E+00 0. -1.
</event>
<event>
 5    1  0.2540860E-005  0.3604033E+02  0.7818608E-02  0.1362077E+00
          4   -1    0    0  502    0 -0.00000000000E+00  0.00000000000E+00  0.10252870530E+02  0.10252870530E+02  0.00000000000E+00 0.  1.
         21   -1    0    0  501  502  0.00000000000E+00 -0.00000000000E+00 -0.40839714528E+03  0.40839714528E+03  0.00000000000E+00 0. -1.
        -13    1    1    2    0    0  0.13449055359E+02  0.31159754031E+02 -0.33043193174E+02  0.47367405887E+02  0.10566000000E+00 0.  1.
         13    1    1    2    0    0 -0.21883511239E+02 -0.39976887154E+02 -0.17656130083E+03  0.18234841289E+03  0.10566000000E+00 0. -1.
          4    1    1    2  501    0  0.84344558801E+01  0.88171331234E+01 -0.18853978074E+03  0.18893419702E+03  0.00000000000E+00 0.  1.
</event>
<event>
 5    1  0.2540860E-005  0.4625875E+03  0.7818608E-02  0.9563972E-01
         -4   -1    0    0    0  501 -0.00000000000E+00  0.00000000000E+00  0.23262784469E+04  0.23262784469E+04  0.00000000000E+00 0. -1.
         21   -1    0    0  501  502  0.00000000000E+00 -0.00000000000E+00 -0.25745432045E+03  0.25745432045E+03  0.00000000000E+00 0. -1.
        -13    1    1    2    0    0 -0.41960387432E+03 -0.32058356022E+02  0.87373307255E+03  0.96979618620E+03  0.10566000000E+00 0.  1.
         13    1    1    2    0    0  0.61941510436E+03  0.15055431394E+03  0.32922170758E+03  0.71744589821E+03  0.10566000000E+00 0. -1.
         -4    1    1    2    0  502 -0.19981123004E+03 -0.11849595792E+03  0.86586934637E+03  0.89649068298E+03  0.00000000000E+00 0. -1.
</event>
<event>
 5    1  0.2540860E-005  0.3761450E+03  0.7818608E-02  0.1048433E+00
          4   -1    0    0  502    0 -0.00000000000E+00  0.00000000000E+00  0.18836910724E+04  0.18836910724E+04  0.00000000000E+00 0.  1.
         21   -1    0    0  501  502  0.00000000000E+00 -0.00000000000E+00 -0.92031120486E+02  0.92031120486E+02  0.00000000000E+00 0.  1.
        -13    1    1    2    0    0  0.24022553436E+03 -0.27593188880E+03  0.56506551473E+03  0.67316102214E+03  0.10566000000E+00 0.  1.
         13    1    1    2    0    0 -0.46885109050E+01 -0.42200960575E+02  0.12351714492E+03  0.13061163601E+03  0.10566000000E+00 0. -1.
          4    1    1    2  501    0 -0.23553702345E+03  0.31813284938E+03  0.11030772922E+04  0.11719495347E+04  0.00000000000E+00 0.  1.
</event>
<event>
 5    1  0.2540860E-005  0.4652300E+03  0.7818608E-02  0.9868578E-01
          4   -1    0    0  502    0 -0.00000000000E+00  0.00000000000E+00  0.85633849014E+03  0.85633849014E+03  0.00000000000E+00 0.  1.
         21   -1    0    0  501  502  0.00000000000E+00 -0.00000000000E+00 -0.71466688987E+03  0.71466688987E+03  0.00000000000E+00 0.  1.
        -13    1    1    2    0    0 -0.43749437677E+03 -0.25993599625E+03 -0.44540943638E+03  0.67628221109E+03  0.10566000000E+00 0.  1.
         13    1    1    2    0    0  0.83304355334E+02  0.13410587572E+03  0.47791260235E+03  0.50331348896E+03  0.10566000000E+00 0. -1.
          4    1    1    2  501    0  0.35419002144E+03  0.12583012053E+03  0.10916843429E+03  0.39140967996E+03  0.00000000000E+00 0.  1.
</event>
<event>
 5    1  0.2540860E-005  0.6573760E+03  0.7818608E-02  0.9187215E-01
         21   -1    0    0  501  502  0.00000000000E+00  0.00000000000E+00  0.26002902386E+03  0.26002902386E+03  0.00000000000E+00 0.  1.
         -4   -1    0    0    0  501 -0.00000000000E+00 -0.00000000000E+00 -0.19656673217E+04  0.19656673217E+04  0.00000000000E+00 0. -1.
        -13    1    1    2    0    0  0.64613290991E+01  0.64617355896E+03 -0.87942454527E+03  0.10913155177E+04  0.10566000000E+00 0.  1.
         13    1    1    2    0    0  0.41355757923E+01 -0.66951262903E+03 -0.86130699381E+03  0.10909234676E+04  0.10566000000E+00 0. -1.
         -4    1    1    2    0  502 -0.10596904891E+02  0.23339070069E+02  0.35093241230E+02  0.43457360309E+02  0.00000000000E+00 0. -1.
</event>
<event>
 5    1  0.2540860E-005  0.2361283E+02  0.7818608E-02  0.1465036E+00
         -4   -1    0    0    0  501 -0.00000000000E+00  0.00000000000E+00  0.22154630324E+03  0.22154630324E+03  0.00000000000E+00 0. -1.
         21   -1    0    0  501  502  0.00000000000E+00 -0.00000000000E+00 -0.48647465019E+01  0.48647465019E+01  0.00000000000E+00 0.  1.
        -13    1    1    2    0    0 -0.74839920911E+01 -0.14855813387E+02  0.26048511643E+02  0.30906980633E+02  0.10566000000E+00 0.  1.
         13    1    1    2    0    0  0.21615340813E+02  0.18132441520E+02  0.14097713121E+03  0.14377263676E+03  0.10566000000E+00 0. -1.
         -4    1    1    2    0  502 -0.14131348721E+02 -0.32766281325E+01  0.49655913883E+02  0.51731432342E+02  0.00000000000E+00 0. -1.
</event>
<event>
 5    1  0.2540860E-005  0.4235545E+03  0.7818608E-02  0.9693305E-01
          4   -1    0    0  502    0 -0.00000000000E+00  0.00000000000E+00  0.19009934696E+04  0.19009934696E+04  0.00000000000E+00 0.  1.
         21   -1    0    0  501  502  0.00000000000E+00 -0.00000000000E+00 -0.28962304782E+03  0.28962304782E+03  0.00000000000E+00 0.  1.
        -13    1    1    2    0    0  0.66796707251E+02 -0.16992022190E+03  0.86480094429E+03  0.88386388450E+03  0.10566000000E+00 0.  1.
         13    1    1    2    0    0  0.36766655453E+03 -0.10165381342E+03  0.69371296436E+03  0.79167536351E+03  0.10566000000E+00 0. -1.
          4    1    1    2  501    0 -0.43446326178E+03  0.27157403532E+03  0.52856513132E+02  0.51507726942E+03  0.00000000000E+00 0.  1.
</event>
<event>
 5    1  0.2540860E-005  0.2896398E+03  0.7818608E-02  0.1011676E+00
          4   -1    0    0  502    0 -0.00000000000E+00  0.00000000000E+00  0.10377149546E+03  0.10377149546E+03  0.00000000000E+00 0.  1.
         21   -1    0    0  501  502  0.00000000000E+00 -0.00000000000E+00 -0.16012874524E+04  0.16012874524E+04  0.00000000000E+00 0. -1.
        -13    1    1    2    0    0 -0.25163977779E+03  0.14903307765E+03 -0.16267095520E+03  0.33465696889E+03  0.10566000000E+00 0.  1.
         13    1    1    2    0    0  0.25168743679E+03 -0.11603462473E+03 -0.11929734969E+04  0.12247433917E+04  0.10566000000E+00 0. -1.
          4    1    1    2  501    0 -0.47658995390E-01 -0.32998452913E+02 -0.14187150485E+03  0.14565858730E+03  0.00000000000E+00 0.  1.
</event>
<event>
 5    1  0.2540860E-005  0.4925977E+03  0.7818608E-02  0.9726912E-01
         21   -1    0    0  501  502  0.00000000000E+00  0.00000000000E+00  0.11017879153E+04  0.11017879153E+04  0.00000000000E+00 0.  1.
          4   -1    0    0  502    0 -0.00000000000E+00 -0.00000000000E+00 -0.55645205388E+03  0.55645205388E+03  0.00000000000E+00 0.  1.
        -13    1    1    2    0    0 -0.17893755220E+03 -0.36573828416E+03  0.32106299984E+03  0.51852155318E+03  0.10566000000E+00 0.  1.
         13    1    1    2    0    0 -0.95258558954E+02 -0.19359352646E+03 -0.26921564389E+03  0.34500684141E+03  0.10566000000E+00 0. -1.
          4    1    1    2  501    0  0.27419611115E+03  0.55933181062E+03  0.49348850548E+03  0.79471157459E+03  0.00000000000E+00 0.  1.
</event>
<event>
 5    1  0.2540860E-005  0.3681677E+03  0.7818608E-02  0.9881199E-01
         21   -1    0    0  501  502  0.00000000000E+00  0.00000000000E+00  0.14715482464E+03  0.14715482464E+03  0.00000000000E+00 0.  1.
          4   -1    0    0  502    0 -0.00000000000E+00 -0.00000000000E+00 -0.33075262818E+04  0.33075262818E+04  0.00000000000E+00 0.  1.
        -13    1    1    2    0    0 -0.17638014724E+03 -0.57183603592E+03 -0.17831584423E+04  0.18808935243E+04  0.10566000000E+00 0.  1.
         13    1    1    2    0    0 -0.15656440019E+02  0.30491089839E+03 -0.11065385833E+04  0.11478865047E+04  0.10566000000E+00 0. -1.
          4    1    1    2  501    0  0.19203658726E+03  0.26692513753E+03 -0.27067443158E+03  0.42590107748E+03  0.00000000000E+00 0.  1.
</event>
<event>
 5    1  0.2540860E-005  0.2198570E+03  0.7818608E-02  0.1047314E+00
         21   -1    0    0  501  502  0.00000000000E+00  0.00000000000E+00  0.17412102524E+03  0.17412102524E+03  0.00000000000E+00 0. -1.
          4   -1    0    0  502    0 -0.00000000000E+00 -0.00000000000E+00 -0.75138684082E+03  0.75138684082E+03  0.00000000000E+00 0.  1.
        -13    1    1    2    0    0  0.20410450463E+03 -0.99319455145E+02 -0.55550807862E+03  0.60009352568E+03  0.10566000000E+00 0.  1.
         13    1    1    2    0    0 -0.21100755123E+03 -0.13700314349E+02 -0.14928283229E+02  0.21197818306E+03  0.10566000000E+00 0. -1.
          4    1    1    2  501    0  0.69030466057E+01  0.11301976949E+03 -0.68294537338E+01  0.11343615732E+03  0.00000000000E+00 0.  1.
</event>
<event>
 5    1  0.2540860E-005  0.3360302E+03  0.7818608E-02  0.1011077E+00
         21   -1    0    0  501  502  0.00000000000E+00  0.00000000000E+00  0.47264522929E+03  0.47264522929E+03  0.00000000000E+00 0. -1.
         -4   -1    0    0    0  501 -0.00000000000E+00 -0.00000000000E+00 -0.71235667837E+03  0.71235667837E+03  0.00000000000E+00 0. -1.
        -13    1    1    2    0    0  0.18036364298E+03  0.56721470890E+02 -0.88317221652E+02  0.20868232262E+03  0.10566000000E+00 0.  1.
         13    1    1    2    0    0 -0.42691493234E+03 -0.24385280914E+03 -0.35448139439E+03  0.60611683866E+03  0.10566000000E+00 0. -1.
         -4    1    1    2    0  502  0.24655128935E+03  0.18713133825E+03  0.20308716696E+03  0.37020274637E+03  0.00000000000E+00 0. -1.
</event>
<event>
 5    1  0.2540860E-005  0.1608287E+03  0.7818608E-02  0.1090897E+00
         21   -1    0    0  501  502  0.00000000000E+00  0.00000000000E+00  0.43646769179E+03  0.43646769179E+03  0.00000000000E+00 0.  1.
         -4   -1    0    0    0  501 -0.00000000000E+00 -0.00000000000E+00 -0.16269707827E+03  0.16269707827E+03  0.00000000000E+00 0. -1.
        -13    1    1    2    0    0  0.70155899399E+02 -0.13673257514E+03  0.25226168777E+03  0.29538723331E+03  0.10566000000E+00 0.  1.
         13    1    1    2    0    0 -0.88975880499E+02  0.13559388148E+03 -0.93520965539E+02  0.18721268698E+03  0.10566000000E+00 0. -1.
         -4    1    1    2    0  502  0.18819981101E+02  0.11386936586E+01  0.11502989129E+03  0.11656484977E+03  0.00000000000E+00 0. -1.
</event>
<event>
 5    1  0.2540860E-005  0.4590689E+03  0.7818608E-02  0.9652424E-01
         21   -1    0    0  501  502  0.00000000000E+00  0.00000000000E+00  0.32605404057E+03  0.32605404057E+03  0.00000000000E+00 0. -1.
         -4   -1    0    0    0  501 -0.00000000000E+00 -0.00000000000E+00 -0.15692496938E+04  0.15692496938E+04  0.00000000000E+00 0. -1.
        -13    1    1    2    0    0  0.33400846142E+03  0.89230604069E+02 -0.40938597477E+03  0.53583639341E+03  0.10566000000E+00 0.  1.
         13    1    1    2    0    0 -0.48135102334E+03  0.32592640821E+03 -0.67588781931E+03  0.89148818651E+03  0.10566000000E+00 0. -1.
         -4    1    1    2    0  502  0.14734256192E+03 -0.41515701228E+03 -0.15792185914E+03  0.46797915444E+03  0.00000000000E+00 0. -1.
</event>
<event>
 5    1  0.2540860E-005  0.1132740E+03  0.7818608E-02  0.1144286E+00
         21   -1    0    0  501  502  0.00000000000E+00  0.00000000000E+00  0.41935486571E+03  0.41935486571E+03  0.00000000000E+00 0.  1.
         -4   -1    0    0    0  501 -0.00000000000E+00 -0.00000000000E+00 -0.14096625979E+03  0.14096625979E+03  0.00000000000E+00 0. -1.
        -13    1    1    2    0    0  0.14551894037E+03 -0.14416663502E+02  0.18044560938E+03  0.23225897464E+03  0.10566000000E+00 0.  1.
         13    1    1    2    0    0 -0.10896760994E+03  0.52630463967E+01 -0.86864295114E+02  0.13945270382E+03  0.10566000000E+00 0. -1.
         -4    1    1    2    0  502 -0.36551330431E+02  0.91536171054E+01  0.18480729166E+03  0.18860944704E+03  0.00000000000E+00 0. -1.
</event>
<event>
 5    1  0.2540860E-005  0.1276830E+03  0.7818608E-02  0.1125473E+00
         -4   -1    0    0    0  501 -0.00000000000E+00  0.00000000000E+00  0.13342432494E+03  0.13342432494E+03  0.00000000000E+00 0. -1.
         21   -1    0    0  501  502  0.00000000000E+00 -0.00000000000E+00 -0.49307226753E+03  0.49307226753E+03  0.00000000000E+00 0. -1.
        -13    1    1    2    0    0  0.11977668494E+03 -0.20213085429E+02 -0.22219480639E+03  0.25323026325E+03  0.10566000000E+00 0.  1.
         13    1    1    2    0    0 -0.12423229845E+03  0.33521458384E+02  0.82509298456E+02  0.15285662447E+03  0.10566000000E+00 0. -1.
         -4    1    1    2    0  502  0.44556135082E+01 -0.13308372955E+02 -0.21996243466E+03  0.22040970474E+03  0.00000000000E+00 0. -1.
</event>
<event>
 5    1  0.2540860E-005  0.4477256E+03  0.7818608E-02  0.9754840E-01
         -4   -1    0    0    0  501 -0.00000000000E+00  0.00000000000E+00  0.37280238052E+03  0.37280238052E+03  0.00000000000E+00 0. -1.
         21   -1    0    0  501  502  0.00000000000E+00 -0.00000000000E+00 -0.18335619832E+04  0.18335619832E+04  0.00000000000E+00 0. -1.
        -13    1    1    2    0    0  0.38257916145E+03  0.28312973527E+03 -0.77594899641E+03  0.91028902990E+03  0.10566000000E+00 0.  1.
         13    1    1    2    0    0  0.64394287735E+02 -0.25718867300E+03  0.18122857597E+03  0.32114863494E+03  0.10566000000E+00 0. -1.
         -4    1    1    2    0  502 -0.44697344919E+03 -0.25941062270E+02 -0.86603918222E+03  0.97492669885E+03  0.00000000000E+00 0. -1.
</event>
<event>
 5    1  0.2540860E-005  0.5012178E+03  0.7818608E-02  0.9715724E-01
         21   -1    0    0  501  502  0.00000000000E+00  0.00000000000E+00  0.19375113167E+03  0.19375113167E+03  0.00000000000E+00 0. -1.
         -4   -1    0    0    0  501 -0.00000000000E+00 -0.00000000000E+00 -0.20121049525E+04  0.20121049525E+04  0.00000000000E+00 0. -1.
        -13    1    1    2    0    0 -0.13995236615E+03 -0.16046488947E+03 -0.42410899754E+03  0.47455673897E+03  0.10566000000E+00 0.  1.
         13    1    1    2    0    0  0.55989380832E+03 -0.96618815183E+01 -0.63052199126E+03  0.84328667793E+03  0.10566000000E+00 0. -1.
         -4    1    1    2    0  502 -0.41994144217E+03  0.17012677099E+03 -0.76372283202E+03  0.88801266726E+03  0.00000000000E+00 0. -1.
</event>
<event>
 5    1  0.2540860E-005  0.4920881E+03  0.7818608E-02  0.9556076E-01
         21   -1    0    0  501  502  0.00000000000E+00  0.00000000000E+00  0.22844761722E+03  0.22844761722E+03  0.00000000000E+00 0. -1.
         -4   -1    0    0    0  501 -0.00000000000E+00 -0.00000000000E+00 -0.26075098158E+04  0.26075098158E+04  0.00000000000E+00 0. -1.
        -13    1    1    2    0    0  0.27624913359E+03  0.28278105843E+03 -0.10847165117E+04  0.11545079613E+04  0.10566000000E+00 0.  1.
         13    1    1    2    0    0  0.28137986341E+03 -0.38043855575E+03 -0.80200024651E+03  0.93118877184E+03  0.10566000000E+00 0. -1.
         -4    1    1    2    0  502 -0.55762899700E+03  0.97657497326E+02 -0.49234544032E+03  0.75026069982E+03  0.00000000000E+00 0. -1.
</event>
<event>
 5    1  0.2540860E-005  0.3551714E+03  0.7818608E-02  0.9876673E-01
          4   -1    0    0  502    0 -0.00000000000E+00  0.00000000000E+00  0.17158981174E+04  0.17158981174E+04  0.00000000000E+00 0.  1.
         21   -1    0    0  501  502  0.00000000000E+00 -0.00000000000E+00 -0.86252137924E+03  0.86252137924E+03  0.00000000000E+00 0.  1.
        -13    1    1    2    0    0  0.12939757821E+02  0.23752727114E+03  0.29864707192E+03  0.38180718511E+03  0.10566000000E+00 0.  1.
         13    1    1    2    0    0  0.28149359043E+03 -0.44505941993E+03  0.12814924176E+04  0.13854744156E+04  0.10566000000E+00 0. -1.
          4    1    1    2  501    0 -0.29443334825E+03  0.20753214879E+03 -0.72676275140E+03  0.81113789590E+03  0.00000000000E+00 0.  1.
</event>
<event>
 5    1  0.2540860E-005  0.4189506E+03  0.7818608E-02  0.9675857E-01
          4   -1    0    0  502    0 -0.00000000000E+00  0.00000000000E+00  0.13274982816E+04  0.13274982816E+04  0.00000000000E+00 0.  1.
         21   -1    0    0  501  502  0.00000000000E+00 -0.00000000000E+00 -0.43328707008E+03  0.43328707008E+03  0.00000000000E+00 0. -1.
        -13    1    1    2    0    0  0.26383062710E+03  0.32771178185E+03  0.11329398388E+04  0.12085339471E+04  0.10566000000E+00 0.  1.
         13    1    1    2    0    0 -0.20746192942E+03 -0.35321433714E+03 -0.13469657269E+03  0.43121224238E+03  0.10566000000E+00 0. -1.
          4    1    1    2  501    0 -0.56368697673E+02  0.25502555293E+02 -0.10403205459E+03  0.12103916220E+03  0.00000000000E+00 0.  1.
</event>
<event>
 5    1  0.2540860E-005  0.4925970E+03  0.7818608E-02  0.9700419E-01
         21   -1    0    0  501  502  0.00000000000E+00  0.00000000000E+00  0.25256473670E+03  0.25256473670E+03  0.00000000000E+00 0.  1.
          4   -1    0    0  502    0 -0.00000000000E+00 -0.00000000000E+00 -0.19460688009E+04  0.19460688009E+04  0.00000000000E+00 0.  1.
        -13    1    1    2    0    0  0.89420325798E+02 -0.35648632301E+03 -0.62829110368E+03  0.72789299714E+03  0.10566000000E+00 0.  1.
         13    1    1    2    0    0 -0.76016939336E+02 -0.22400987755E+03 -0.79657529951E+03  0.83095801293E+03  0.10566000000E+00 0. -1.
          4    1    1    2  501    0 -0.13403386462E+02  0.58049620056E+03 -0.26863766103E+03  0.63978252755E+03  0.00000000000E+00 0.  1.
</event>
<event>
 5    1  0.2540860E-005  0.2194640E+03  0.7818608E-02  0.1063501E+00
         -4   -1    0    0    0  501 -0.00000000000E+00  0.00000000000E+00  0.10437426428E+04  0.10437426428E+04  0.00000000000E+00 0. -1.
         21   -1    0    0  501  502  0.00000000000E+00 -0.00000000000E+00 -0.34400520596E+03  0.34400520596E+03  0.00000000000E+00 0. -1.
        -13    1    1    2    0    0  0.10100233151E+03 -0.92938681833E+02  0.26993190116E+03  0.30282389598E+03  0.10566000000E+00 0.  1.
         13    1    1    2    0    0  0.11250070746E+03  0.19003756143E+03 -0.26886491449E+03  0.34793539248E+03  0.10566000000E+00 0. -1.
         -4    1    1    2    0  502 -0.21350303897E+03 -0.97098879601E+02  0.69867045014E+03  0.73698856027E+03  0.00000000000E+00 0. -1.
</event>
<event>
 5    1  0.2540860E-005  0.2872451E+03  0.7818608E-02  0.1019909E+00
         -4   -1    0    0    0  501 -0.00000000000E+00  0.00000000000E+00  0.35066907453E+03  0.35066907453E+03  0.00000000000E+00 0. -1.
         21   -1    0    0  501  502  0.00000000000E+00 -0.00000000000E+00 -0.18511324287E+04  0.18511324287E+04  0.00000000000E+00 0. -1.
        -13    1    1    2    0    0 -0.16557507886E+03 -0.15759554344E+03  0.13399909965E+03  0.26496647320E+03  0.10566000000E+00 0.  1.
         13    1    1    2    0    0 -0.13328625668E+03  0.18486245565E+03  0.43696895270E+02  0.23205340668E+03  0.10566000000E+00 0. -1.
         -4    1    1    2    0  502  0.29886133554E+03 -0.27266912214E+02 -0.16781593491E+04  0.17047816233E+04  0.00000000000E+00 0. -1.
</event>
<event>
 5    1  0.2540860E-005  0.4253377E+03  0.7818608E-02  0.9746026E-01
         21   -1    0    0  501  502  0.00000000000E+00  0.00000000000E+00  0.19236410203E+03  0.19236410203E+03  0.00000000000E+00 0.  1.
          4   -1    0    0  502    0 -0.00000000000E+00 -0.00000000000E+00 -0.29003125618E+04  0.29003125618E+04  0.00000000000E+00 0.  1.
        -13    1    1    2    0    0  0.23609709809E+03  0.38652392354E+03 -0.11528830192E+04  0.12386613138E+04  0.10566000000E+00 0.  1.
         13    1    1    2    0    0 -0.30954873480E+03  0.51009851809E+02 -0.13102698892E+04  0.13473045751E+04  0.10566000000E+00 0. -1.
          4    1    1    2  501    0  0.73451636701E+02 -0.43753377535E+03 -0.24479555133E+03  0.50671077495E+03  0.00000000000E+00 0.  1.
</event>
<event>
 5    1  0.2540860E-005  0.3333570E+03  0.7818608E-02  0.1001313E+00
         21   -1    0    0  501  502  0.00000000000E+00  0.00000000000E+00  0.53043463233E+03  0.53043463233E+03  0.00000000000E+00 0.  1.
          4   -1    0    0  502    0 -0.00000000000E+00 -0.00000000000E+00 -0.97076973488E+03  0.97076973488E+03  0.00000000000E+00 0.  1.
        -13    1    1    2    0    0 -0.74918638991E+02  0.96917913574E+02 -0.45923956257E+03  0.47529661416E+03  0.10566000000E+00 0.  1.
         13    1    1    2    0    0  0.15314731021E+02  0.26520993721E+03 -0.39291228380E+03  0.47428991735E+03  0.10566000000E+00 0. -1.
          4    1    1    2  501    0  0.59603907969E+02 -0.36212785078E+03  0.41181674383E+03  0.55161783569E+03  0.00000000000E+00 0.  1.
</event>
<event>
 5    1  0.2540860E-005  0.1195726E+03  0.7818608E-02  0.1135706E+00
         -4   -1    0    0    0  501 -0.00000000000E+00  0.00000000000E+00  0.55918768326E+02  0.55918768326E+02  0.00000000000E+00 0. -1.
         21   -1    0    0  501  502  0.00000000000E+00 -0.00000000000E+00 -0.11415250876E+04  0.11415250876E+04  0.00000000000E+00 0.  1.
        -13    1    1    2    0    0 -0.32572628485E+01  0.14699283174E+03 -0.77849751760E+03  0.79225999421E+03  0.10566000000E+00 0.  1.
         13    1    1    2    0    0  0.86326823984E+02 -0.84413477433E+02 -0.55415295740E+02  0.13284886856E+03  0.10566000000E+00 0. -1.
         -4    1    1    2    0  502 -0.83069561135E+02 -0.62579354309E+02 -0.25169350598E+03  0.27233499321E+03  0.00000000000E+00 0. -1.
</event>
<event>
 5    1  0.2540860E-005  0.6231877E+02  0.7818608E-02  0.1250298E+00
          4   -1    0    0  502    0 -0.00000000000E+00  0.00000000000E+00  0.15857701424E+04  0.15857701424E+04  0.00000000000E+00 0.  1.
         21   -1    0    0  501  502  0.00000000000E+00 -0.00000000000E+00 -0.20275930665E+03  0.20275930665E+03  0.00000000000E+00 0.  1.
        -13    1    1    2    0    0 -0.18467289377E+02 -0.59278545019E+02 -0.19230019710E+03  0.20207514357E+03  0.10566000000E+00 0.  1.
         13    1    1    2    0    0 -0.43305795929E+01 -0.59788532005E+02  0.34342352270E+03  0.34861604895E+03  0.10566000000E+00 0. -1.
          4    1    1    2  501    0  0.22797868970E+02  0.11906707702E+03  0.12318875101E+04  0.12378382565E+04  0.00000000000E+00 0.  1.
</event>
<event>
 5    1  0.2540860E-005  0.2570085E+03  0.7818608E-02  0.1026824E+00
         -4   -1    0    0    0  501 -0.00000000000E+00  0.00000000000E+00  0.70388589281E+03  0.70388589281E+03  0.00000000000E+00 0. -1.
         21   -1    0    0  501  502  0.00000000000E+00 -0.00000000000E+00 -0.14749347001E+03  0.14749347001E+03  0.00000000000E+00 0. -1.
        -13    1    1    2    0    0 -0.22151283176E+03 -0.95301475751E+02  0.27742129230E+03  0.36757705383E+03  0.10566000000E+00 0.  1.
         13    1    1    2    0    0  0.23942532977E+03  0.13720246877E+03  0.31995338772E+03  0.42251531032E+03  0.10566000000E+00 0. -1.
         -4    1    1    2    0  502 -0.17912498008E+02 -0.41900993019E+02 -0.40982257216E+02  0.61286998681E+02  0.00000000000E+00 0. -1.
</event>
<event>
 5    1  0.2540860E-005  0.4934381E+03  0.7818608E-02  0.9599441E-01
         21   -1    0    0  501  502  0.00000000000E+00  0.00000000000E+00  0.86718507681E+03  0.86718507681E+03  0.00000000000E+00 0.  1.
          4   -1    0    0  502    0 -0.00000000000E+00 -0.00000000000E+00 -0.58359925877E+03  0.58359925877E+03  0.00000000000E+00 0.  1.
        -13    1    1    2    0    0 -0.29216266957E+03 -0.28482204290E+03 -0.58067668615E+02  0.41213406425E+03  0.10566000000E+00 0.  1.
         13    1    1    2    0    0 -0.31038904280E+03  0.12811572164E+03  0.22769981641E+03  0.40571198353E+03  0.10566000000E+00 0. -1.
          4    1    1    2  501    0  0.60255171237E+03  0.15670632127E+03  0.11395367024E+03  0.63293828780E+03  0.00000000000E+00 0.  1.
</event>
<event>
 5    1  0.2540860E-005  0.4589628E+02  0.7818608E-02  0.1338229E+00
         -4   -1    0    0    0  501 -0.00000000000E+00  0.00000000000E+00  0.23787592343E+03  0.23787592343E+03  0.00000000000E+00 0. -1.
         21   -1    0    0  501  502  0.00000000000E+00 -0.00000000000E+00 -0.37048273750E+02  0.37048273750E+02  0.00000000000E+00 0. -1.
        -13    1    1    2    0    0 -0.22281808234E+02  0.14884733559E+02  0.99460580925E+01  0.28582678442E+02  0.10566000000E+00 0.  1.
         13    1    1    2    0    0  0.18151671452E+02 -0.59261345727E+02  0.19200337612E+03  0.20175900941E+03  0.10566000000E+00 0. -1.
         -4    1    1    2    0  502  0.41301367816E+01  0.44376612168E+02 -0.11217845307E+01  0.44582509327E+02  0.00000000000E+00 0. -1.
</event>
<event>
 5    1  0.2540860E-005  0.5750473E+02  0.7818608E-02  0.1283557E+00
          4   -1    0    0  502    0 -0.00000000000E+00  0.00000000000E+00  0.11521030194E+03  0.11521030194E+03  0.00000000000E+00 0.  1.
         21   -1    0    0  501  502  0.00000000000E+00 -0.00000000000E+00 -0.17411879190E+03  0.17411879190E+03  0.00000000000E+00 0.  1.
        -13    1    1    2    0    0 -0.77369685835E+02  0.51887993307E+02  0.74410666857E+02  0.11922831309E+03  0.10566000000E+00 0.  1.
         13    1    1    2    0    0  0.34968544981E+02 -0.16527961223E+02 -0.18880487210E+02  0.43040174274E+02  0.10566000000E+00 0. -1.
          4    1    1    2  501    0  0.42401140855E+02 -0.35360032085E+02 -0.11443866961E+03  0.12706060647E+03  0.00000000000E+00 0.  1.
</event>
<event>
 5    1  0.2540860E-005  0.7726031E+02  0.7818608E-02  0.1233314E+00
         21   -1    0    0  501  502  0.00000000000E+00  0.00000000000E+00  0.22624823448E+03  0.22624823448E+03  0.00000000000E+00 0. -1.
         -4   -1    0    0    0  501 -0.00000000000E+00 -0.00000000000E+00 -0.92490075626E+02  0.92490075626E+02  0.00000000000E+00 0. -1.
        -13    1    1    2    0    0 -0.20971291510E+02 -0.39972816288E+02  0.21596302561E+02  0.50040309332E+02  0.10566000000E+00 0.  1.
         13    1    1    2    0    0 -0.47390376614E+02  0.75608082007E+02 -0.40256107389E+02  0.97892774026E+02  0.10566000000E+00 0. -1.
         -4    1    1    2    0  502  0.68361668124E+02 -0.35635265718E+02  0.15241796368E+03  0.17080522675E+03  0.00000000000E+00 0. -1.
</event>
<event>
 5    1  0.2540860E-005  0.2393379E+03  0.7818608E-02  0.1036071E+00
          4   -1    0    0  502    0 -0.00000000000E+00  0.00000000000E+00  0.11368229617E+04  0.11368229617E+04  0.00000000000E+00 0.  1.
         21   -1    0    0  501  502  0.00000000000E+00 -0.00000000000E+00 -0.65308806175E+02  0.65308806175E+02  0.00000000000E+00 0. -1.
        -13    1    1    2    0    0  0.22908185994E+03  0.10979282030E+03  0.48836229857E+03  0.55048225019E+03  0.10566000000E+00 0.  1.
         13    1    1    2    0    0 -0.20793369040E+03 -0.96139704644E+02  0.58309016285E+03  0.62647698409E+03  0.10566000000E+00 0. -1.
          4    1    1    2  501    0 -0.21148169534E+02 -0.13653115656E+02  0.61694103385E-01  0.25172533601E+02  0.00000000000E+00 0.  1.
</event>
<event>
 5    1  0.2540860E-005  0.4511445E+03  0.7818608E-02  0.9607697E-01
          4   -1    0    0  502    0 -0.00000000000E+00  0.00000000000E+00  0.32645740525E+04  0.32645740525E+04  0.00000000000E+00 0.  1.
         21   -1    0    0  501  502  0.00000000000E+00 -0.00000000000E+00 -0.16470921039E+03  0.16470921039E+03  0.00000000000E+00 0.  1.
        -13    1    1    2    0    0  0.14676561495E+03 -0.14098935846E+03  0.12209360413E+04  0.12377814722E+04  0.10566000000E+00 0.  1.
         13    1    1    2    0    0  0.14641446760E+03 -0.40074142577E+03  0.12058746545E+04  0.12791264911E+04  0.10566000000E+00 0. -1.
          4    1    1    2  501    0 -0.29318008254E+03  0.54173078423E+03  0.67305414634E+03  0.91237529958E+03  0.00000000000E+00 0.  1.
</event>
<event>
 5    1  0.2540860E-005  0.3203464E+03  0.7818608E-02  0.1022446E+00
         -4   -1    0    0    0  501 -0.00000000000E+00  0.00000000000E+00  0.21300697962E+03  0.21300697962E+03  0.00000000000E+00 0. -1.
         21   -1    0    0  501  502  0.00000000000E+00 -0.00000000000E+00 -0.16145315000E+04  0.16145315000E+04  0.00000000000E+00 0. -1.
        -13    1    1    2    0    0  0.23457450085E+02  0.15034432282E+03 -0.11352889541E+03  0.18984859395E+03  0.10566000000E+00 0.  1.
         13    1    1    2    0    0  0.23341031927E+03  0.19902103410E+03 -0.11383643105E+04  0.11789669477E+04  0.10566000000E+00 0. -1.
         -4    1    1    2    0  502 -0.25686776936E+03 -0.34936535692E+03 -0.14963131447E+03  0.45872293797E+03  0.00000000000E+00 0. -1.
</event>
<event>
 5    1  0.2540860E-005  0.4364285E+03  0.7818608E-02  0.1014518E+00
         -4   -1    0    0    0  501 -0.00000000000E+00  0.00000000000E+00  0.15367046863E+04  0.15367046863E+04  0.00000000000E+00 0. -1.
         21   -1    0    0  501  502  0.00000000000E+00 -0.00000000000E+00 -0.18945756675E+03  0.18945756675E+03  0.00000000000E+00 0. -1.
        -13    1    1    2    0    0 -0.59815161923E+02 -0.48988943572E+02  0.19335777259E+03  0.20824266992E+03  0.10566000000E+00 0.  1.
         13    1    1    2    0    0  0.28802933261E+03  0.39737493294E+03  0.91363889411E+03  0.10371131924E+04  0.10566000000E+00 0. -1.
         -4    1    1    2    0  502 -0.22821417069E+03 -0.34838598937E+03  0.24025045280E+03  0.48080639073E+03  0.00000000000E+00 0. -1.
</event>
<event>
 5    1  0.2540860E-005  0.6016610E+02  0.7818608E-02  0.1255170E+00
         21   -1    0    0  501  502  0.00000000000E+00  0.00000000000E+00  0.18611090744E+04  0.18611090744E+04  0.00000000000E+00 0. -1.
         -4   -1    0    0    0  501 -0.00000000000E+00 -0.00000000000E+00 -0.12695861233E+02  0.12695861233E+02  0.00000000000E+00 0. -1.
        -13    1    1    2    0    0 -0.71509093186E+02 -0.15631254854E+02  0.19335498085E+03  0.20674633327E+03  0.10566000000E+00 0.  1.
         13    1    1    2    0    0  0.48985459256E+02  0.19759225037E+02  0.11200116684E+03  0.12383163865E+03  0.10566000000E+00 0. -1.
         -4    1    1    2    0  502  0.22523633930E+02 -0.41279701822E+01  0.15430570655E+04  0.15432269637E+04  0.00000000000E+00 0. -1.
</event>
<event>
 5    1  0.2540860E-005  0.4287796E+03  0.7818608E-02  0.9736056E-01
         21   -1    0    0  501  502  0.00000000000E+00  0.00000000000E+00  0.34786237935E+03  0.34786237935E+03  0.00000000000E+00 0.  1.
          4   -1    0    0  502    0 -0.00000000000E+00 -0.00000000000E+00 -0.19251728499E+04  0.19251728499E+04  0.00000000000E+00 0.  1.
        -13    1    1    2    0    0 -0.29154551006E+03 -0.14448832562E+03 -0.12820203993E+04  0.13226685058E+04  0.10566000000E+00 0.  1.
         13    1    1    2    0    0  0.13039629346E+02  0.47050427479E+03 -0.19831662441E+03  0.51075806328E+03  0.10566000000E+00 0. -1.
          4    1    1    2  501    0  0.27850588071E+03 -0.32601594917E+03 -0.96973446756E+02  0.43960866015E+03  0.00000000000E+00 0.  1.
</event>
<event>
 5    1  0.2540860E-005  0.9446816E+02  0.7818608E-02  0.1174047E+00
         21   -1    0    0  501  502  0.00000000000E+00  0.00000000000E+00  0.27741402147E+03  0.27741402147E+03  0.00000000000E+00 0.  1.
         -4   -1    0    0    0  501 -0.00000000000E+00 -0.00000000000E+00 -0.11333915788E+03  0.11333915788E+03  0.00000000000E+00 0. -1.
        -13    1    1    2    0    0  0.17806897444E+02  0.94569125469E+02 -0.69569901373E+02  0.11874505223E+03  0.10566000000E+00 0.  1.
         13    1    1    2    0    0 -0.25675523488E+02 -0.83779185007E+02  0.82747651855E+02  0.12052124045E+03  0.10566000000E+00 0. -1.
         -4    1    1    2    0  502  0.78686260442E+01 -0.10789940462E+02  0.15089711311E+03  0.15148688668E+03  0.00000000000E+00 0. -1.
</event>
<event>
 5    1  0.5010741E-005  0.5673199E+03  0.7818608E-02  0.9341491E-01
         21   -1    0    0  501  502  0.00000000000E+00  0.00000000000E+00  0.52593916364E+03  0.52593916364E+03  0.00000000000E+00 0. -1.
          4   -1    0    0  502    0 -0.00000000000E+00 -0.00000000000E+00 -0.17871275833E+04  0.17871275833E+04  0.00000000000E+00 0.  1.
        -13    1    1    2    0    0 -0.51851138443E+03 -0.93063798710E+02 -0.90265746306E+03  0.10451341699E+04  0.10566000000E+00 0.  1.
         13    1    1    2    0    0  0.68495104342E+03 -0.17613274466E+03 -0.55185505057E+03  0.89706448131E+03  0.10566000000E+00 0. -1.
          4    1    1    2  501    0 -0.16643965898E+03  0.26919654337E+03  0.19332409400E+03  0.37086809565E+03  0.00000000000E+00 0.  1.
</event>
<event>
 5    1  0.2540860E-005  0.4363252E+03  0.7818608E-02  0.9659058E-01
         21   -1    0    0  501  502  0.00000000000E+00  0.00000000000E+00  0.49301940956E+03  0.49301940956E+03  0.00000000000E+00 0.  1.
          4   -1    0    0  502    0 -0.00000000000E+00 -0.00000000000E+00 -0.26745680431E+04  0.26745680431E+04  0.00000000000E+00 0.  1.
        -13    1    1    2    0    0  0.39060596305E+03 -0.30215045362E+02 -0.42503049572E+03  0.57804576012E+03  0.10566000000E+00 0.  1.
         13    1    1    2    0    0 -0.21193100757E+03 -0.40774229758E+03 -0.20037885979E+04  0.20558057519E+04  0.10566000000E+00 0. -1.
          4    1    1    2  501    0 -0.17867495548E+03  0.43795734295E+03  0.24727046007E+03  0.53373594068E+03  0.00000000000E+00 0.  1.
</event>
<event>
 5    1  0.2540860E-005  0.1033353E+03  0.7818608E-02  0.1159152E+00
         21   -1    0    0  501  502  0.00000000000E+00  0.00000000000E+00  0.11864405913E+03  0.11864405913E+03  0.00000000000E+00 0.  1.
         -4   -1    0    0    0  501 -0.00000000000E+00 -0.00000000000E+00 -0.17523980157E+03  0.17523980157E+03  0.00000000000E+00 0. -1.
        -13    1    1    2    0    0  0.10536482818E+03 -0.16163754157E+02 -0.10393118853E+03  0.14887819545E+03  0.10566000000E+00 0.  1.
         13    1    1    2    0    0 -0.85081553722E+02  0.49088502304E+02  0.37131756618E+02  0.10501109635E+03  0.10566000000E+00 0. -1.
         -4    1    1    2    0  502 -0.20283274458E+02 -0.32924748147E+02  0.10203689466E+02  0.39994568906E+02  0.00000000000E+00 0. -1.
</event>
<event>
 5    1  0.2540860E-005  0.4446576E+03  0.7818608E-02  0.9608292E-01
         21   -1    0    0  501  502  0.00000000000E+00  0.00000000000E+00  0.35555315114E+03  0.35555315114E+03  0.00000000000E+00 0. -1.
         -4   -1    0    0    0  501 -0.00000000000E+00 -0.00000000000E+00 -0.15908326206E+04  0.15908326206E+04  0.00000000000E+00 0. -1.
        -13    1    1    2    0    0 -0.38173664169E+03  0.25498898235E+02 -0.58824082018E+03  0.70171242765E+03  0.10566000000E+00 0.  1.
         13    1    1    2    0    0  0.53609603749E+03  0.13741850403E+03 -0.80021902163E+03  0.97295082116E+03  0.10566000000E+00 0. -1.
         -4    1    1    2    0  502 -0.15435939580E+03 -0.16291740226E+03  0.15318037231E+03  0.27172252298E+03  0.00000000000E+00 0. -1.
</event>
<event>
 5    1  0.2540860E-005  0.4236641E+03  0.7818608E-02  0.9694416E-01
         -4   -1    0    0    0  501 -0.00000000000E+00  0.00000000000E+00  0.17947116466E+04  0.17947116466E+04  0.00000000000E+00 0. -1.
         21   -1    0    0  501  502  0.00000000000E+00 -0.00000000000E+00 -0.32022975668E+03  0.32022975668E+03  0.00000000000E+00 0. -1.
        -13    1    1    2    0    0 -0.29089783876E+03  0.24401602195E+03  0.72002717779E+03  0.81400523308E+03  0.10566000000E+00 0.  1.
         13    1    1    2    0    0 -0.14138759333E+03  0.35177027122E+02  0.77239592575E+03  0.78601739934E+03  0.10566000000E+00 0. -1.
         -4    1    1    2    0  502  0.43228543209E+03 -0.27919304907E+03 -0.17941213608E+02  0.51491877087E+03  0.00000000000E+00 0. -1.
</event>
<event>
 5    1  0.2540860E-005  0.6111248E+03  0.7818608E-02  0.9262954E-01
         21   -1    0    0  501  502  0.00000000000E+00  0.00000000000E+00  0.47598317414E+03  0.47598317414E+03  0.00000000000E+00 0.  1.
         -4   -1    0    0    0  501 -0.00000000000E+00 -0.00000000000E+00 -0.14723372709E+04  0.14723372709E+04  0.00000000000E+00 0. -1.
        -13    1    1    2    0    0  0.49148633532E+03 -0.53157377800E+02 -0.64470480596E+02  0.49853884368E+03  0.10566000000E+00 0.  1.
         13    1    1    2    0    0 -0.73430313091E+03 -0.92256471483E+02 -0.38553608133E+03  0.83447613853E+03  0.10566000000E+00 0. -1.
         -4    1    1    2    0  502  0.24281679559E+03  0.14541384928E+03 -0.54634753484E+03  0.61530546284E+03  0.00000000000E+00 0. -1.
</event>
<event>
 5    1  0.2540860E-005  0.1061295E+03  0.7818608E-02  0.1154794E+00
          4   -1    0    0  502    0 -0.00000000000E+00  0.00000000000E+00  0.18138557939E+03  0.18138557939E+03  0.00000000000E+00 0.  1.
         21   -1    0    0  501  502  0.00000000000E+00 -0.00000000000E+00 -0.23193365138E+03  0.23193365138E+03  0.00000000000E+00 0. -1.
        -13    1    1    2    0    0 -0.19788208339E+02 -0.10397888103E+03  0.13310941440E+03  0.17006265979E+03  0.10566000000E+00 0.  1.
         13    1    1    2    0    0 -0.21523593720E+02  0.11388091160E+03 -0.14663321806E+03  0.18690489270E+03  0.10566000000E+00 0. -1.
          4    1    1    2  501    0  0.41311802059E+02 -0.99020305698E+01 -0.37024268330E+02  0.56351678273E+02  0.00000000000E+00 0.  1.
</event>
<event>
 5    1  0.2540860E-005  0.3836765E+02  0.7818608E-02  0.1377961E+00
          4   -1    0    0  502    0 -0.00000000000E+00  0.00000000000E+00  0.76451469511E+02  0.76451469511E+02  0.00000000000E+00 0.  1.
         21   -1    0    0  501  502  0.00000000000E+00 -0.00000000000E+00 -0.62157316390E+02  0.62157316390E+02  0.00000000000E+00 0.  1.
        -13    1    1    2    0    0 -0.30633208035E+02  0.87444598934E+01 -0.16732938133E+02  0.35984182580E+02  0.10566000000E+00 0.  1.
         13    1    1    2    0    0 -0.22465587312E+02 -0.27569032032E+01  0.42335008034E+02  0.48005907947E+02  0.10566000000E+00 0. -1.
          4    1    1    2  501    0  0.53098795347E+02 -0.59875566903E+01 -0.11307916779E+02  0.54618695374E+02  0.00000000000E+00 0.  1.
</event>
<event>
 5    1  0.2540860E-005  0.5034787E+03  0.7818608E-02  0.9816857E-01
          4   -1    0    0  502    0 -0.00000000000E+00  0.00000000000E+00  0.15895855211E+04  0.15895855211E+04  0.00000000000E+00 0.  1.
         21   -1    0    0  501  502  0.00000000000E+00 -0.00000000000E+00 -0.21547861501E+03  0.21547861501E+03  0.00000000000E+00 0.  1.
        -13    1    1    2    0    0 -0.53233659066E+03 -0.20985567666E+03  0.63153446230E+03  0.85220739202E+03  0.10566000000E+00 0.  1.
         13    1    1    2    0    0  0.94056760206E+02  0.11476918387E+03  0.19623779010E+03  0.24602422876E+03  0.10566000000E+00 0. -1.
          4    1    1    2  501    0  0.43827983045E+03  0.95086492784E+02  0.54633465366E+03  0.70683251529E+03  0.00000000000E+00 0.  1.
</event>
<event>
 5    1  0.2540860E-005  0.3734413E+03  0.7818608E-02  0.1002392E+00
         21   -1    0    0  501  502  0.00000000000E+00  0.00000000000E+00  0.23594779739E+03  0.23594779739E+03  0.00000000000E+00 0. -1.
          4   -1    0    0  502    0 -0.00000000000E+00 -0.00000000000E+00 -0.30922792782E+04  0.30922792782E+04  0.00000000000E+00 0.  1.
        -13    1    1    2    0    0 -0.14759130669E+03  0.21744301647E+03 -0.14885792664E+04  0.15115994518E+04  0.10566000000E+00 0.  1.
         13    1    1    2    0    0  0.53172245214E+03  0.15394684663E+03 -0.10706071104E+04  0.12052501789E+04  0.10566000000E+00 0. -1.
          4    1    1    2  501    0 -0.38413114545E+03 -0.37138986310E+03 -0.29714510408E+03  0.61137744495E+03  0.00000000000E+00 0.  1.
</event>
<event>
 5    1  0.2540860E-005  0.8684378E+02  0.7818608E-02  0.1188374E+00
          4   -1    0    0  502    0 -0.00000000000E+00  0.00000000000E+00  0.87864278534E+02  0.87864278534E+02  0.00000000000E+00 0.  1.
         21   -1    0    0  501  502  0.00000000000E+00 -0.00000000000E+00 -0.11930125360E+03  0.11930125360E+03  0.00000000000E+00 0. -1.
        -13    1    1    2    0    0 -0.67159242442E+02 -0.58717772481E+02 -0.70238590546E+01  0.89484559621E+02  0.10566000000E+00 0.  1.
         13    1    1    2    0    0  0.70824396736E+02  0.47388311468E+02  0.55922136778E+01  0.85399246218E+02  0.10566000000E+00 0. -1.
          4    1    1    2  501    0 -0.36651542943E+01  0.11329461013E+02 -0.30005329693E+02  0.32281726299E+02  0.00000000000E+00 0.  1.
</event>
<event>
 5    1  0.2540860E-005  0.4840715E+03  0.7818608E-02  0.9875529E-01
         21   -1    0    0  501  502  0.00000000000E+00  0.00000000000E+00  0.34882960714E+03  0.34882960714E+03  0.00000000000E+00 0. -1.
         -4   -1    0    0    0  501 -0.00000000000E+00 -0.00000000000E+00 -0.10098602595E+04  0.10098602595E+04  0.00000000000E+00 0. -1.
        -13    1    1    2    0    0 -0.32225464623E+02  0.13306091443E+03 -0.21852640493E+03  0.25787106921E+03  0.10566000000E+00 0.  1.
         13    1    1    2    0    0 -0.31861696466E+03 -0.40364470643E+03 -0.64226413919E+02  0.51823822959E+03  0.10566000000E+00 0. -1.
         -4    1    1    2    0  502  0.35084242928E+03  0.27058379200E+03 -0.37827783346E+03  0.58258056779E+03  0.00000000000E+00 0. -1.
</event>
<event>
 5    1  0.2540860E-005  0.1200494E+03  0.7818608E-02  0.1135080E+00
          4   -1    0    0  502    0 -0.00000000000E+00  0.00000000000E+00  0.38288598686E+03  0.38288598686E+03  0.00000000000E+00 0.  1.
         21   -1    0    0  501  502  0.00000000000E+00 -0.00000000000E+00 -0.70692472087E+02  0.70692472087E+02  0.00000000000E+00 0. -1.
        -13    1    1    2    0    0 -0.11842745014E+03 -0.75218190736E+01  0.29215317433E+03  0.31533335876E+03  0.10566000000E+00 0.  1.
         13    1    1    2    0    0  0.12667679048E+03  0.17184802152E+01  0.19002614126E+02  0.12810570998E+03  0.10566000000E+00 0. -1.
          4    1    1    2  501    0 -0.82493403409E+01  0.58033388584E+01  0.10377263113E+01  0.10139390212E+02  0.00000000000E+00 0.  1.
</event>
<event>
 5    1  0.2540860E-005  0.5121302E+03  0.7818608E-02  0.9451775E-01
         21   -1    0    0  501  502  0.00000000000E+00  0.00000000000E+00  0.71119973306E+03  0.71119973306E+03  0.00000000000E+00 0.  1.
          4   -1    0    0  502    0 -0.00000000000E+00 -0.00000000000E+00 -0.53233444919E+03  0.53233444919E+03  0.00000000000E+00 0.  1.
        -13    1    1    2    0    0  0.51747601432E+03 -0.17870062505E+02 -0.15550613175E+03  0.54063197529E+03  0.10566000000E+00 0.  1.
         13    1    1    2    0    0 -0.50242591322E+03 -0.22703237259E+02  0.16686680561E+03  0.52989789322E+03  0.10566000000E+00 0. -1.
          4    1    1    2  501    0 -0.15050101094E+02  0.40573299764E+02  0.16750461001E+03  0.17300431374E+03  0.00000000000E+00 0.  1.
</event>
<event>
 5    1  0.2540860E-005  0.1050243E+03  0.7818608E-02  0.1156500E+00
          4   -1    0    0  502    0 -0.00000000000E+00  0.00000000000E+00  0.34899038828E+03  0.34899038828E+03  0.00000000000E+00 0.  1.
         21   -1    0    0  501  502  0.00000000000E+00 -0.00000000000E+00 -0.83524684057E+02  0.83524684057E+02  0.00000000000E+00 0. -1.
        -13    1    1    2    0    0 -0.93687193810E+02 -0.32313050313E+02  0.23335483441E+03  0.25352694809E+03  0.10566000000E+00 0.  1.
         13    1    1    2    0    0  0.12629925810E+03  0.37121911263E+02  0.50789037620E+02  0.14109952657E+03  0.10566000000E+00 0. -1.
          4    1    1    2  501    0 -0.32612064287E+02 -0.48088609502E+01 -0.18678167809E+02  0.37888597670E+02  0.00000000000E+00 0.  1.
</event>
<event>
 5    1  0.2540860E-005  0.7859276E+03  0.7818608E-02  0.9006863E-01
          4   -1    0    0  502    0 -0.00000000000E+00  0.00000000000E+00  0.12427450596E+04  0.12427450596E+04  0.00000000000E+00 0.  1.
         21   -1    0    0  501  502  0.00000000000E+00 -0.00000000000E+00 -0.76895316103E+03  0.76895316103E+03  0.00000000000E+00 0. -1.
        -13    1    1    2    0    0 -0.84923699484E+03  0.10912113712E+03  0.46687715969E+03  0.97523596600E+03  0.10566000000E+00 0.  1.
         13    1    1    2    0    0  0.68644534707E+03 -0.21099096639E+03  0.21857644136E+03  0.75066642012E+03  0.10566000000E+00 0. -1.
          4    1    1    2  501    0  0.16279164778E+03  0.10186982927E+03 -0.21166170251E+03  0.28579583449E+03  0.00000000000E+00 0.  1.
</event>
<event>
 5    1  0.2540860E-005  0.1635767E+03  0.7818608E-02  0.1147493E+00
          4   -1    0    0  502    0 -0.00000000000E+00  0.00000000000E+00  0.10579522990E+04  0.10579522990E+04  0.00000000000E+00 0.  1.
         21   -1    0    0  501  502  0.00000000000E+00 -0.00000000000E+00 -0.93803262066E+02  0.93803262066E+02  0.00000000000E+00 0.  1.
        -13    1    1    2    0    0 -0.52069361642E+02  0.14611490547E+03  0.93713695202E+03  0.94988760494E+03  0.10566000000E+00 0.  1.
         13    1    1    2    0    0  0.30165598774E+02  0.17192754168E+02 -0.99031355467E+00  0.34735371457E+02  0.10566000000E+00 0. -1.
          4    1    1    2  501    0  0.21903762868E+02 -0.16330765964E+03  0.28002398430E+02  0.16713258463E+03  0.00000000000E+00 0.  1.
</event>
<event>
 5    1  0.2540860E-005  0.4461506E+03  0.7818608E-02  0.9754865E-01
          4   -1    0    0  502    0 -0.00000000000E+00  0.00000000000E+00  0.95950569781E+03  0.95950569781E+03  0.00000000000E+00 0.  1.
         21   -1    0    0  501  502  0.00000000000E+00 -0.00000000000E+00 -0.51060758912E+03  0.51060758912E+03  0.00000000000E+00 0. -1.
        -13    1    1    2    0    0  0.43806387387E+03  0.19975674941E+03  0.14699480901E+03  0.50339865074E+03  0.10566000000E+00 0.  1.
         13    1    1    2    0    0  0.11043098462E+02 -0.26344274718E+03  0.42189399048E+03  0.49751239325E+03  0.10566000000E+00 0. -1.
          4    1    1    2  501    0 -0.44910697233E+03  0.63685997768E+02 -0.11999069079E+03  0.46920224294E+03  0.00000000000E+00 0.  1.
</event>
<event>
 5    1  0.2540860E-005  0.4820295E+03  0.7818608E-02  0.9684874E-01
         21   -1    0    0  501  502  0.00000000000E+00  0.00000000000E+00  0.49582897108E+03  0.49582897108E+03  0.00000000000E+00 0.  1.
          4   -1    0    0  502    0 -0.00000000000E+00 -0.00000000000E+00 -0.11138780492E+04  0.11138780492E+04  0.00000000000E+00 0.  1.
        -13    1    1    2    0    0  0.36007528595E+03  0.84539087991E+02 -0.26825359335E+03  0.45690378687E+03  0.10566000000E+00 0.  1.
         13    1    1    2    0    0  0.89937114691E+02  0.25089114011E+03 -0.50452401843E+03  0.57059578084E+03  0.10566000000E+00 0. -1.
          4    1    1    2  501    0 -0.45001240064E+03 -0.33543022810E+03  0.15472853369E+03  0.58220745253E+03  0.00000000000E+00 0.  1.
</event>
<event>
 5    1  0.2540860E-005  0.4655691E+03  0.7818608E-02  0.9594342E-01
         -4   -1    0    0    0  501 -0.00000000000E+00  0.00000000000E+00  0.11125436697E+04  0.11125436697E+04  0.00000000000E+00 0. -1.
         21   -1    0    0  501  502  0.00000000000E+00 -0.00000000000E+00 -0.11489517526E+04  0.11489517526E+04  0.00000000000E+00 0. -1.
        -13    1    1    2    0    0  0.32313854878E+03 -0.24760483423E+03  0.80042834002E+03  0.89800457366E+03  0.10566000000E+00 0.  1.
         13    1    1    2    0    0  0.24400377463E+03  0.12040757809E+03  0.74926078047E+02  0.28222288219E+03  0.10566000000E+00 0. -1.
         -4    1    1    2    0  502 -0.56714232340E+03  0.12719725614E+03 -0.91176250104E+03  0.10812679664E+04  0.00000000000E+00 0. -1.
</event>
<event>
 5    1  0.2540860E-005  0.1679692E+03  0.7818608E-02  0.1108579E+00
         -4   -1    0    0    0  501 -0.00000000000E+00  0.00000000000E+00  0.12990299429E+03  0.12990299429E+03  0.00000000000E+00 0. -1.
         21   -1    0    0  501  502  0.00000000000E+00 -0.00000000000E+00 -0.65397254233E+03  0.65397254233E+03  0.00000000000E+00 0. -1.
        -13    1    1    2    0    0 -0.71049265656E+02  0.50925479019E+02 -0.81874186191E+02  0.11976976285E+03  0.10566000000E+00 0.  1.
         13    1    1    2    0    0  0.22203703549E+03  0.47623079988E+01 -0.33158724848E+02  0.22454985394E+03  0.10566000000E+00 0. -1.
         -4    1    1    2    0  502 -0.15098776983E+03 -0.55687787017E+02 -0.40903663700E+03  0.43955591984E+03  0.00000000000E+00 0. -1.
</event>
<event>
 5    1  0.2540860E-005  0.3464928E+03  0.7818608E-02  0.1028476E+00
         21   -1    0    0  501  502  0.00000000000E+00  0.00000000000E+00  0.88535554060E+02  0.88535554060E+02  0.00000000000E+00 0.  1.
          4   -1    0    0  502    0 -0.00000000000E+00 -0.00000000000E+00 -0.35788363219E+04  0.35788363219E+04  0.00000000000E+00 0.  1.
        -13    1    1    2    0    0  0.53990411649E+02  0.34091621127E+03 -0.34804320638E+03  0.49017640940E+03  0.10566000000E+00 0.  1.
         13    1    1    2    0    0 -0.96912220145E+02  0.23153478802E+02 -0.52282239323E+03  0.53223240039E+03  0.10566000000E+00 0. -1.
          4    1    1    2  501    0  0.42921808495E+02 -0.36406969007E+03 -0.26194351682E+04  0.26449630661E+04  0.00000000000E+00 0.  1.
</event>
<event>
 5    1  0.2540860E-005  0.4641457E+02  0.7818608E-02  0.1307118E+00
         21   -1    0    0  501  502  0.00000000000E+00  0.00000000000E+00  0.96432910373E+02  0.96432910373E+02  0.00000000000E+00 0. -1.
          4   -1    0    0  502    0 -0.00000000000E+00 -0.00000000000E+00 -0.67644697012E+02  0.67644697012E+02  0.00000000000E+00 0.  1.
        -13    1    1    2    0    0 -0.32646033477E+02 -0.28171236956E+02 -0.33721422833E+02  0.54740548183E+02  0.10566000000E+00 0.  1.
         13    1    1    2    0    0  0.39520740954E+02  0.44943987667E+02  0.19963689723E+02  0.63090499003E+02  0.10566000000E+00 0. -1.
          4    1    1    2  501    0 -0.68747074777E+01 -0.16772750710E+02  0.42545946470E+02  0.46246560200E+02  0.00000000000E+00 0.  1.
</event>
<event>
 5    1  0.2540860E-005  0.4738924E+03  0.7818608E-02  0.1005014E+00
         21   -1    0    0  501  502  0.00000000000E+00  0.00000000000E+00  0.49276987247E+03  0.49276987247E+03  0.00000000000E+00 0. -1.
         -4   -1    0    0    0  501 -0.00000000000E+00 -0.00000000000E+00 -0.58062674005E+03  0.58062674005E+03  0.00000000000E+00 0. -1.
        -13    1    1    2    0    0 -0.44934289150E+02 -0.68558929270E+02  0.44504012640E+02  0.93273980450E+02  0.10566000000E+00 0.  1.
         13    1    1    2    0    0 -0.31062196640E+03  0.37373905684E+03 -0.15757264299E+03  0.51087771296E+03  0.10566000000E+00 0. -1.
         -4    1    1    2    0  502  0.35555625555E+03 -0.30518012757E+03  0.25211762774E+02  0.46924491910E+03  0.00000000000E+00 0. -1.
</event>
<event>
 5    1  0.2540860E-005  0.3931901E+03  0.7818608E-02  0.9868438E-01
          4   -1    0    0  502    0 -0.00000000000E+00  0.00000000000E+00  0.10745444298E+04  0.10745444298E+04  0.00000000000E+00 0.  1.
         21   -1    0    0  501  502  0.00000000000E+00 -0.00000000000E+00 -0.31475327943E+03  0.31475327943E+03  0.00000000000E+00 0.  1.
        -13    1    1    2    0    0  0.33260500928E+03 -0.18725179795E+03  0.36207711535E+03  0.52610757138E+03  0.10566000000E+00 0.  1.
         13    1    1    2    0    0 -0.16156562981E+03 -0.20580010443E+03  0.34248795172E+03  0.43099320640E+03  0.10566000000E+00 0. -1.
          4    1    1    2  501    0 -0.17103937947E+03  0.39305190239E+03  0.55226083321E+02  0.43219693148E+03  0.00000000000E+00 0.  1.
</event>
<event>
 5    1  0.2540860E-005  0.2793168E+03  0.7818608E-02  0.1016228E+00
         -4   -1    0    0    0  501 -0.00000000000E+00  0.00000000000E+00  0.14106184184E+04  0.14106184184E+04  0.00000000000E+00 0. -1.
         21   -1    0    0  501  502  0.00000000000E+00 -0.00000000000E+00 -0.12022829426E+03  0.12022829426E+03  0.00000000000E+00 0.  1.
        -13    1    1    2    0    0 -0.42897195762E+02  0.33072120573E+03  0.88438088898E+03  0.94516995999E+03  0.10566000000E+00 0.  1.
         13    1    1    2    0    0 -0.24797687995E+02 -0.22768120862E+03  0.40159297740E+03  0.46231005694E+03  0.10566000000E+00 0. -1.
         -4    1    1    2    0  502  0.67694883757E+02 -0.10303999711E+03  0.44162578075E+01  0.12336669577E+03  0.00000000000E+00 0. -1.
</event>
<event>
 5    1  0.2540860E-005  0.1628227E+03  0.7818608E-02  0.1089111E+00
         -4   -1    0    0    0  501 -0.00000000000E+00  0.00000000000E+00  0.67816327689E+03  0.67816327689E+03  0.00000000000E+00 0. -1.
         21   -1    0    0  501  502  0.00000000000E+00 -0.00000000000E+00 -0.17299903825E+03  0.17299903825E+03  0.00000000000E+00 0. -1.
        -13    1    1    2    0    0 -0.11543047060E+03 -0.62185819345E+02  0.87130999993E+02  0.15742646536E+03  0.10566000000E+00 0.  1.
         13    1    1    2    0    0  0.17930720038E+03  0.14365605976E+02  0.52803919598E+03  0.55783765236E+03  0.10566000000E+00 0. -1.
         -4    1    1    2    0  502 -0.63876729773E+02  0.47820213369E+02 -0.11000595733E+03  0.13589819742E+03  0.00000000000E+00 0. -1.
</event>
<event>
 5    1  0.2540860E-005  0.5360343E+02  0.7818608E-02  0.1277774E+00
         21   -1    0    0  501  502  0.00000000000E+00  0.00000000000E+00  0.17621198555E+03  0.17621198555E+03  0.00000000000E+00 0.  1.
         -4   -1    0    0    0  501 -0.00000000000E+00 -0.00000000000E+00 -0.34297278111E+02  0.34297278111E+02  0.00000000000E+00 0. -1.
        -13    1    1    2    0    0 -0.19103450314E+02  0.44210285318E+02  0.11101355620E+03  0.12101037958E+03  0.10566000000E+00 0.  1.
         13    1    1    2    0    0  0.30895332958E+02 -0.45531800579E+02 -0.14467801771E+01  0.55043353817E+02  0.10566000000E+00 0. -1.
         -4    1    1    2    0  502 -0.11791882643E+02  0.13215152610E+01  0.32347931411E+02  0.34455530259E+02  0.00000000000E+00 0. -1.
</event>
<event>
 5    1  0.2540860E-005  0.4289077E+03  0.7818608E-02  0.1008524E+00
         21   -1    0    0  501  502  0.00000000000E+00  0.00000000000E+00  0.18179026813E+03  0.18179026813E+03  0.00000000000E+00 0. -1.
         -4   -1    0    0    0  501 -0.00000000000E+00 -0.00000000000E+00 -0.16311692017E+04  0.16311692017E+04  0.00000000000E+00 0. -1.
        -13    1    1    2    0    0  0.39643754813E+02 -0.90389149869E+02 -0.22242771308E+03  0.24334322349E+03  0.10566000000E+00 0.  1.
         13    1    1    2    0    0  0.99952700136E+02 -0.39066542692E+03 -0.25762674925E+03  0.47852018886E+03  0.10566000000E+00 0. -1.
         -4    1    1    2    0  502 -0.13959645495E+03  0.48105457679E+03 -0.96932447126E+03  0.10910960575E+04  0.00000000000E+00 0. -1.
</event>
<event>
 5    1  0.2540860E-005  0.5931564E+02  0.7818608E-02  0.1257912E+00
         21   -1    0    0  501  502  0.00000000000E+00  0.00000000000E+00  0.49911977643E+03  0.49911977643E+03  0.00000000000E+00 0. -1.
         -4   -1    0    0    0  501 -0.00000000000E+00 -0.00000000000E+00 -0.40997946269E+02  0.40997946269E+02  0.00000000000E+00 0. -1.
        -13    1    1    2    0    0 -0.37208566184E+02 -0.24201022204E+02  0.17969130167E+03  0.18509225249E+03  0.10566000000E+00 0.  1.
         13    1    1    2    0    0  0.48582112045E+02  0.37478961222E+02 -0.13289931000E+02  0.62781586274E+02  0.10566000000E+00 0. -1.
         -4    1    1    2    0  502 -0.11373545861E+02 -0.13277939019E+02  0.29172045949E+03  0.29224388393E+03  0.00000000000E+00 0. -1.
</event>
<event>
 5    1  0.2540860E-005  0.3306267E+03  0.7818608E-02  0.9954095E-01
         -4   -1    0    0    0  501 -0.00000000000E+00  0.00000000000E+00  0.33070202763E+04  0.33070202763E+04  0.00000000000E+00 0. -1.
         21   -1    0    0  501  502  0.00000000000E+00 -0.00000000000E+00 -0.15761789475E+03  0.15761789475E+03  0.00000000000E+00 0. -1.
        -13    1    1    2    0    0 -0.41733686221E+00 -0.36405306991E+03  0.11019398498E+04  0.11605198213E+04  0.10566000000E+00 0.  1.
         13    1    1    2    0    0  0.76375481406E+02  0.18744754370E+03 -0.41255545232E+02  0.20657160254E+03  0.10566000000E+00 0. -1.
         -4    1    1    2    0  502 -0.75958144544E+02  0.17660552621E+03  0.20887180770E+04  0.20975467472E+04  0.00000000000E+00 0. -1.
</event>
<event>
 5    1  0.2540860E-005  0.2051049E+03  0.7818608E-02  0.1056691E+00
         21   -1    0    0  501  502  0.00000000000E+00  0.00000000000E+00  0.16648252426E+03  0.16648252426E+03  0.00000000000E+00 0. -1.
         -4   -1    0    0    0  501 -0.00000000000E+00 -0.00000000000E+00 -0.67048636045E+03  0.67048636045E+03  0.00000000000E+00 0. -1.
        -13    1    1    2    0    0 -0.12293578565E+03  0.15108544819E+03 -0.38381158209E+03  0.43040836627E+03  0.10566000000E+00 0.  1.
         13    1    1    2    0    0  0.13232175703E+03 -0.18495499431E+03 -0.21035811947E+03  0.30978693790E+03  0.10566000000E+00 0. -1.
         -4    1    1    2    0  502 -0.93859713774E+01  0.33869546127E+02  0.90165865366E+02  0.96773580541E+02  0.00000000000E+00 0. -1.
</event>
<event>
 5    1  0.2540860E-005  0.4998062E+03  0.7818608E-02  0.9674654E-01
         21   -1    0    0  501  502  0.00000000000E+00  0.00000000000E+00  0.26559189994E+03  0.26559189994E+03  0.00000000000E+00 0.  1.
          4   -1    0    0  502    0 -0.00000000000E+00 -0.00000000000E+00 -0.18270658955E+04  0.18270658955E+04  0.00000000000E+00 0.  1.
        -13    1    1    2    0    0 -0.12800779466E+03  0.45237034429E+03 -0.36599204600E+03  0.59579787914E+03  0.10566000000E+00 0.  1.
         13    1    1    2    0    0  0.22371229271E+03  0.10653731293E+03 -0.70445853856E+03  0.74676584862E+03  0.10566000000E+00 0. -1.
          4    1    1    2  501    0 -0.95704498048E+02 -0.55890765721E+03 -0.49102341104E+03  0.75009406772E+03  0.00000000000E+00 0.  1.
</event>
<event>
 5    1  0.2540860E-005  0.4245785E+03  0.7818608E-02  0.9745053E-01
         21   -1    0    0  501  502  0.00000000000E+00  0.00000000000E+00  0.29424882679E+03  0.29424882679E+03  0.00000000000E+00 0.  1.
          4   -1    0    0  502    0 -0.00000000000E+00 -0.00000000000E+00 -0.21123443303E+04  0.21123443303E+04  0.00000000000E+00 0.  1.
        -13    1    1    2    0    0  0.29595398406E+03  0.20567761269E+03 -0.12175258478E+03  0.38041522592E+03  0.10566000000E+00 0.  1.
         13    1    1    2    0    0  0.31062486607E+03 -0.60543760777E+02 -0.11637761019E+04  0.12060382170E+04  0.10566000000E+00 0. -1.
          4    1    1    2  501    0 -0.60657885013E+03 -0.14513385192E+03 -0.53256681690E+03  0.82013971423E+03  0.00000000000E+00 0.  1.
</event>
<event>
 5    1  0.2540860E-005  0.3988334E+03  0.7818608E-02  0.9820506E-01
         21   -1    0    0  501  502  0.00000000000E+00  0.00000000000E+00  0.23162912900E+04  0.23162912900E+04  0.00000000000E+00 0. -1.
         -4   -1    0    0    0  501 -0.00000000000E+00 -0.00000000000E+00 -0.19778901993E+03  0.19778901993E+03  0.00000000000E+00 0. -1.
        -13    1    1    2    0    0  0.29456640298E+03  0.12513311543E+02  0.22960086860E+03  0.37368772893E+03  0.10566000000E+00 0.  1.
         13    1    1    2    0    0 -0.17295945919E+03  0.38501757057E+03  0.35614592539E+03  0.55226210762E+03  0.10566000000E+00 0. -1.
         -4    1    1    2    0  502 -0.12160694379E+03 -0.39753088211E+03  0.15327554761E+04  0.15881304734E+04  0.00000000000E+00 0. -1.
</event>
<event>
 5    1  0.2540860E-005  0.3998355E+03  0.7818608E-02  0.9924318E-01
         21   -1    0    0  501  502  0.00000000000E+00  0.00000000000E+00  0.13693330127E+03  0.13693330127E+03  0.00000000000E+00 0.  1.
          4   -1    0    0  502    0 -0.00000000000E+00 -0.00000000000E+00 -0.29693941204E+04  0.29693941204E+04  0.00000000000E+00 0.  1.
        -13    1    1    2    0    0  0.90471465100E+02 -0.55515409244E+03 -0.16913756557E+04  0.17824513380E+04  0.10566000000E+00 0.  1.
         13    1    1    2    0    0 -0.69090237695E+02  0.19444972571E+03 -0.80280562216E+03  0.82890351363E+03  0.10566000000E+00 0. -1.
          4    1    1    2  501    0 -0.21381227405E+02  0.36070436674E+03 -0.33827954119E+03  0.49497257001E+03  0.00000000000E+00 0.  1.
</event>
<event>
 5    1  0.2540860E-005  0.1307798E+03  0.7818608E-02  0.1121781E+00
         21   -1    0    0  501  502  0.00000000000E+00  0.00000000000E+00  0.94789831000E+03  0.94789831000E+03  0.00000000000E+00 0. -1.
         -4   -1    0    0    0  501 -0.00000000000E+00 -0.00000000000E+00 -0.93162923031E+02  0.93162923031E+02  0.00000000000E+00 0. -1.
        -13    1    1    2    0    0  0.11804543421E+03 -0.11529022540E+02  0.15919108957E+03  0.19851815297E+03  0.10566000000E+00 0.  1.
         13    1    1    2    0    0 -0.13473760184E+03  0.87663601267E+01 -0.11301638860E+02  0.13549468117E+03  0.10566000000E+00 0. -1.
         -4    1    1    2    0  502  0.16692167633E+02  0.27626624132E+01  0.70684593626E+03  0.70704839889E+03  0.00000000000E+00 0. -1.
</event>
<event>
 5    1  0.2540860E-005  0.3614323E+03  0.7818608E-02  0.9847563E-01
          4   -1    0    0  502    0 -0.00000000000E+00  0.00000000000E+00  0.24581971370E+04  0.24581971370E+04  0.00000000000E+00 0.  1.
         21   -1    0    0  501  502  0.00000000000E+00 -0.00000000000E+00 -0.11068293341E+03  0.11068293341E+03  0.00000000000E+00 0. -1.
        -13    1    1    2    0    0  0.28882490479E+03  0.22332545876E+03  0.20340429051E+04  0.20665489680E+04  0.10566000000E+00 0.  1.
         13    1    1    2    0    0 -0.24513961004E+03 -0.24244616063E+03  0.27264330269E+03  0.43955426386E+03  0.10566000000E+00 0. -1.
          4    1    1    2  501    0 -0.43685294751E+02  0.19120701874E+02  0.40827995796E+02  0.62776838550E+02  0.00000000000E+00 0.  1.
</event>
<event>
 5    1  0.2540860E-005  0.4971905E+03  0.7818608E-02  0.9637769E-01
         21   -1    0    0  501  502  0.00000000000E+00  0.00000000000E+00  0.23334813236E+03  0.23334813236E+03  0.00000000000E+00 0.  1.
          4   -1    0    0  502    0 -0.00000000000E+00 -0.00000000000E+00 -0.21605888956E+04  0.21605888956E+04  0.00000000000E+00 0.  1.
        -13    1    1    2    0    0 -0.56654422675E+03  0.17600758335E+03 -0.33813672308E+03  0.68285246204E+03  0.10566000000E+00 0.  1.
         13    1    1    2    0    0  0.21931368682E+03 -0.18444027311E+03 -0.75498715987E+03  0.80754091556E+03  0.10566000000E+00 0. -1.
          4    1    1    2  501    0  0.34723053993E+03  0.84326897518E+01 -0.83411688028E+03  0.90354365035E+03  0.00000000000E+00 0.  1.
</event>
<event>
 5    1  0.2540860E-005  0.4064737E+03  0.7818608E-02  0.1002967E+00
          4   -1    0    0  502    0 -0.00000000000E+00  0.00000000000E+00  0.56547064872E+03  0.56547064872E+03  0.00000000000E+00 0.  1.
         21   -1    0    0  501  502  0.00000000000E+00 -0.00000000000E+00 -0.80460988829E+03  0.80460988829E+03  0.00000000000E+00 0.  1.
        -13    1    1    2    0    0 -0.28898792901E+03  0.83164872906E+02  0.37009806600E+03  0.47686791548E+03  0.10566000000E+00 0.  1.
         13    1    1    2    0    0 -0.13240506506E+03 -0.41772283990E+02  0.14220789044E+02  0.13956456201E+03  0.10566000000E+00 0. -1.
          4    1    1    2  501    0  0.42139299407E+03 -0.41392588916E+02 -0.62345809462E+03  0.75364805951E+03  0.00000000000E+00 0.  1.
</event>
<event>
 5    1  0.2540860E-005  0.5235365E+03  0.7818608E-02  0.9480820E-01
         -4   -1    0    0    0  501 -0.00000000000E+00  0.00000000000E+00  0.22250079153E+04  0.22250079153E+04  0.00000000000E+00 0. -1.
         21   -1    0    0  501  502  0.00000000000E+00 -0.00000000000E+00 -0.59128291794E+03  0.59128291794E+03  0.00000000000E+00 0.  1.
        -13    1    1    2    0    0  0.43429726271E+03  0.37985012153E+03  0.15610498992E+04  0.16642647104E+04  0.10566000000E+00 0.  1.
         13    1    1    2    0    0  0.16494593639E+03 -0.83123606099E+02  0.37511650106E+03  0.41812569444E+03  0.10566000000E+00 0. -1.
         -4    1    1    2    0  502 -0.59924319910E+03 -0.29672651543E+03 -0.30244140292E+03  0.73390042841E+03  0.00000000000E+00 0. -1.
</event>
<event>
 5    1  0.2540860E-005  0.4991064E+03  0.7818608E-02  0.9684691E-01
         21   -1    0    0  501  502  0.00000000000E+00  0.00000000000E+00  0.42211939511E+03  0.42211939511E+03  0.00000000000E+00 0. -1.
         -4   -1    0    0    0  501 -0.00000000000E+00 -0.00000000000E+00 -0.11359320984E+04  0.11359320984E+04  0.00000000000E+00 0. -1.
        -13    1    1    2    0    0 -0.37884595307E+02 -0.23723930141E+03 -0.43044151370E+03  0.49294790453E+03  0.10566000000E+00 0.  1.
         13    1    1    2    0    0  0.36492418933E+02 -0.38029095786E+03 -0.22845592155E+03  0.44513484308E+03  0.10566000000E+00 0. -1.
         -4    1    1    2    0  502  0.13921763745E+01  0.61753025927E+03 -0.54915268070E+02  0.61996874594E+03  0.00000000000E+00 0. -1.
</event>
<event>
 5    1  0.2540860E-005  0.7827710E+02  0.7818608E-02  0.1206545E+00
          4   -1    0    0  502    0 -0.00000000000E+00  0.00000000000E+00  0.36541941672E+03  0.36541941672E+03  0.00000000000E+00 0.  1.
         21   -1    0    0  501  502  0.00000000000E+00 -0.00000000000E+00 -0.71761459285E+02  0.71761459285E+02  0.00000000000E+00 0.  1.
        -13    1    1    2    0    0 -0.45759911489E+02  0.65392956291E+02  0.28721133729E+03  0.29809490379E+03  0.10566000000E+00 0.  1.
         13    1    1    2    0    0  0.50364179486E+02 -0.53619378786E+02  0.53115549515E+02  0.90735115148E+02  0.10566000000E+00 0. -1.
          4    1    1    2  501    0 -0.46042679964E+01 -0.11773577504E+02 -0.46668929369E+02  0.48350857071E+02  0.00000000000E+00 0.  1.
</event>
<event>
 5    1  0.2540860E-005  0.1682826E+03  0.7818608E-02  0.1087375E+00
         21   -1    0    0  501  502  0.00000000000E+00  0.00000000000E+00  0.52548603817E+03  0.52548603817E+03  0.00000000000E+00 0. -1.
         -4   -1    0    0    0  501 -0.00000000000E+00 -0.00000000000E+00 -0.84352324014E+03  0.84352324014E+03  0.00000000000E+00 0. -1.
        -13    1    1    2    0    0 -0.12683080655E+03 -0.88655992150E+02 -0.34899072603E+03  0.38175971035E+03  0.10566000000E+00 0.  1.
         13    1    1    2    0    0 -0.44847971892E+02  0.98962938224E+02 -0.45707035053E+03  0.46980668389E+03  0.10566000000E+00 0. -1.
         -4    1    1    2    0  502  0.17167877844E+03 -0.10306946074E+02  0.48802387459E+03  0.51744288407E+03  0.00000000000E+00 0. -1.
</event>
<event>
 5    1  0.2540860E-005  0.3696387E+03  0.7818608E-02  0.9930658E-01
         21   -1    0    0  501  502  0.00000000000E+00  0.00000000000E+00  0.44378423469E+03  0.44378423469E+03  0.00000000000E+00 0.  1.
          4   -1    0    0  502    0 -0.00000000000E+00 -0.00000000000E+00 -0.14392399133E+04  0.14392399133E+04  0.00000000000E+00 0.  1.
        -13    1    1    2    0    0 -0.23644692166E+03 -0.16636245174E+03  0.15288453180E+03  0.32704327441E+03  0.10566000000E+00 0.  1.
         13    1    1    2    0    0  0.12270047397E+03 -0.42712959549E+03 -0.52434872302E+03  0.68734030302E+03  0.10566000000E+00 0. -1.
          4    1    1    2  501    0  0.11374644769E+03  0.59349204723E+03 -0.62399148738E+03  0.86864057055E+03  0.00000000000E+00 0.  1.
</event>
<event>
 5    1  0.2540860E-005  0.4092006E+03  0.7818608E-02  0.9945994E-01
         21   -1    0    0  501  502  0.00000000000E+00  0.00000000000E+00  0.21390943509E+03  0.21390943509E+03  0.00000000000E+00 0. -1.
         -4   -1    0    0    0  501 -0.00000000000E+00 -0.00000000000E+00 -0.17861217562E+04  0.17861217562E+04  0.00000000000E+00 0. -1.
        -13    1    1    2    0    0 -0.10245500988E+03 -0.14694968962E+03 -0.11999173574E+03  0.21561370119E+03  0.10566000000E+00 0.  1.
         13    1    1    2    0    0  0.47759026640E+03  0.22161325215E+03 -0.12396500115E+04  0.13468248061E+04  0.10566000000E+00 0. -1.
         -4    1    1    2    0  502 -0.37513525652E+03 -0.74663562528E+02 -0.21257057390E+03  0.43759268406E+03  0.00000000000E+00 0. -1.
</event>
<event>
 5    1  0.2540860E-005  0.1194661E+03  0.7818608E-02  0.1135846E+00
         21   -1    0    0  501  502  0.00000000000E+00  0.00000000000E+00  0.28370392364E+03  0.28370392364E+03  0.00000000000E+00 0.  1.
          4   -1    0    0  502    0 -0.00000000000E+00 -0.00000000000E+00 -0.15897375065E+03  0.15897375065E+03  0.00000000000E+00 0.  1.
        -13    1    1    2    0    0 -0.10515705444E+03 -0.62377300728E+02 -0.92332825139E+02  0.15321323541E+03  0.10566000000E+00 0.  1.
         13    1    1    2    0    0  0.86744705004E+02  0.71331660025E+02  0.53098996019E+02  0.12422706674E+03  0.10566000000E+00 0. -1.
          4    1    1    2  501    0  0.18412349433E+02 -0.89543592977E+01  0.16396400212E+03  0.16523737214E+03  0.00000000000E+00 0.  1.
</event>
<event>
 5    1  0.2540860E-005  0.2256847E+03  0.7818608E-02  0.1043824E+00
         -4   -1    0    0    0  501 -0.00000000000E+00  0.00000000000E+00  0.22131812466E+04  0.22131812466E+04  0.00000000000E+00 0. -1.
         21   -1    0    0  501  502  0.00000000000E+00 -0.00000000000E+00 -0.11047931422E+03  0.11047931422E+03  0.00000000000E+00 0. -1.
        -13    1    1    2    0    0 -0.18723358559E+03 -0.53455508967E+02  0.91131251620E+03  0.93188219232E+03  0.10566000000E+00 0.  1.
         13    1    1    2    0    0  0.29035146697E+03 -0.49852808293E+02  0.12093468752E+04  0.12447124778E+04  0.10566000000E+00 0. -1.
         -4    1    1    2    0  502 -0.10311788137E+03  0.10330831726E+03 -0.17957458952E+02  0.14706589070E+03  0.00000000000E+00 0. -1.
</event>
<event>
 5    1  0.2540860E-005  0.1032815E+03  0.7818608E-02  0.1159238E+00
          4   -1    0    0  502    0 -0.00000000000E+00  0.00000000000E+00  0.78286008111E+03  0.78286008111E+03  0.00000000000E+00 0.  1.
         21   -1    0    0  501  502  0.00000000000E+00 -0.00000000000E+00 -0.23317819433E+02  0.23317819433E+02  0.00000000000E+00 0. -1.
        -13    1    1    2    0    0 -0.81001944109E+02  0.41160435417E+02  0.31864606537E+03  0.33134698208E+03  0.10566000000E+00 0.  1.
         13    1    1    2    0    0  0.12251302112E+03 -0.26573521090E+02  0.37663212082E+03  0.39694755064E+03  0.10566000000E+00 0. -1.
          4    1    1    2  501    0 -0.41511077011E+02 -0.14586914327E+02  0.64264075484E+02  0.77883367814E+02  0.00000000000E+00 0.  1.
</event>
<event>
 5    1  0.2540860E-005  0.5074888E+03  0.7818608E-02  0.9815282E-01
         21   -1    0    0  501  502  0.00000000000E+00  0.00000000000E+00  0.26368056245E+03  0.26368056245E+03  0.00000000000E+00 0.  1.
          4   -1    0    0  502    0 -0.00000000000E+00 -0.00000000000E+00 -0.17374673106E+04  0.17374673106E+04  0.00000000000E+00 0.  1.
        -13    1    1    2    0    0 -0.27249511129E+03 -0.48979863193E+03 -0.38625183138E+03  0.68069580131E+03  0.10566000000E+00 0.  1.
         13    1    1    2    0    0  0.13836497649E+03  0.45568598921E+02 -0.70258318937E+03  0.71752666367E+03  0.10566000000E+00 0. -1.
          4    1    1    2  501    0  0.13413013480E+03  0.44423003301E+03 -0.38495172745E+03  0.60292540811E+03  0.00000000000E+00 0.  1.
</event>
<event>
 5    1  0.2540860E-005  0.1518849E+03  0.7818608E-02  0.1099267E+00
         21   -1    0    0  501  502  0.00000000000E+00  0.00000000000E+00  0.20275213217E+03  0.20275213217E+03  0.00000000000E+00 0.  1.
         -4   -1    0    0    0  501 -0.00000000000E+00 -0.00000000000E+00 -0.20562573658E+03  0.20562573658E+03  0.00000000000E+00 0. -1.
        -13    1    1    2    0    0  0.13011456166E+03  0.87555332510E+02  0.32375136557E+02  0.16013711637E+03  0.10566000000E+00 0.  1.
         13    1    1    2    0    0 -0.11032140928E+03 -0.10214975647E+03 -0.98927823244E+02  0.17997808608E+03  0.10566000000E+00 0. -1.
         -4    1    1    2    0  502 -0.19793152385E+02  0.14594423963E+02  0.63679082275E+02  0.68262666308E+02  0.00000000000E+00 0. -1.
</event>
<event>
 5    1  0.2540860E-005  0.5046809E+03  0.7818608E-02  0.9870012E-01
         -4   -1    0    0    0  501 -0.00000000000E+00  0.00000000000E+00  0.75654218882E+03  0.75654218882E+03  0.00000000000E+00 0. -1.
         21   -1    0    0  501  502  0.00000000000E+00 -0.00000000000E+00 -0.44532992679E+03  0.44532992679E+03  0.00000000000E+00 0. -1.
        -13    1    1    2    0    0  0.10705799486E+03  0.60709690774E+02  0.93849057694E+02  0.15477318118E+03  0.10566000000E+00 0.  1.
         13    1    1    2    0    0  0.38671983871E+03 -0.28466158171E+03  0.70244111789E+02  0.48530268509E+03  0.10566000000E+00 0. -1.
         -4    1    1    2    0  502 -0.49377783358E+03  0.22395189093E+03  0.14711909254E+03  0.56179624934E+03  0.00000000000E+00 0. -1.
</event>
<event>
 5    1  0.2540860E-005  0.3517202E+03  0.7818608E-02  0.9950544E-01
         21   -1    0    0  501  502  0.00000000000E+00  0.00000000000E+00  0.27809958385E+03  0.27809958385E+03  0.00000000000E+00 0.  1.
          4   -1    0    0  502    0 -0.00000000000E+00 -0.00000000000E+00 -0.19531429533E+04  0.19531429533E+04  0.00000000000E+00 0.  1.
        -13    1    1    2    0    0 -0.70530385260E+02  0.27704298400E+03 -0.12233671114E+04  0.12563257740E+04  0.10566000000E+00 0.  1.
         13    1    1    2    0    0 -0.28116382528E+03 -0.28131701432E+03 -0.47844995708E+03  0.62217901908E+03  0.10566000000E+00 0. -1.
          4    1    1    2  501    0  0.35169421054E+03  0.42740303269E+01  0.26773699023E+02  0.35273774397E+03  0.00000000000E+00 0.  1.
</event>
<event>
 5    1  0.2540860E-005  0.4403227E+03  0.7818608E-02  0.9619340E-01
         -4   -1    0    0    0  501 -0.00000000000E+00  0.00000000000E+00  0.12286470142E+03  0.12286470142E+03  0.00000000000E+00 0. -1.
         21   -1    0    0  501  502  0.00000000000E+00 -0.00000000000E+00 -0.21429998574E+04  0.21429998574E+04  0.00000000000E+00 0.  1.
        -13    1    1    2    0    0  0.40211248650E+02  0.41914199558E+03 -0.14456827072E+04  0.15057541160E+04  0.10566000000E+00 0.  1.
         13    1    1    2    0    0 -0.59667698969E+02 -0.44361796598E+03 -0.46151830962E+03  0.64292790833E+03  0.10566000000E+00 0. -1.
         -4    1    1    2    0  502  0.19456450319E+02  0.24475970391E+02 -0.11293413917E+03  0.11718253443E+03  0.00000000000E+00 0. -1.
</event>
<event>
 5    1  0.2540860E-005  0.1292808E+03  0.7818608E-02  0.1123554E+00
         21   -1    0    0  501  502  0.00000000000E+00  0.00000000000E+00  0.45577056815E+03  0.45577056815E+03  0.00000000000E+00 0.  1.
         -4   -1    0    0    0  501 -0.00000000000E+00 -0.00000000000E+00 -0.76925589485E+02  0.76925589485E+02  0.00000000000E+00 0. -1.
        -13    1    1    2    0    0 -0.14612024535E+03  0.47017210450E+02  0.18317864548E+03  0.23898989832E+03  0.10566000000E+00 0.  1.
         13    1    1    2    0    0  0.10731788968E+03 -0.55538129647E+02  0.31602773469E+02  0.12490140009E+03  0.10566000000E+00 0. -1.
         -4    1    1    2    0  502  0.38802355671E+02  0.85209191968E+01  0.16406355972E+03  0.16880485923E+03  0.00000000000E+00 0. -1.
</event>
<event>
 5    1  0.2540860E-005  0.2535789E+03  0.7818608E-02  0.1028555E+00
          4   -1    0    0  502    0 -0.00000000000E+00  0.00000000000E+00  0.10126156015E+03  0.10126156015E+03  0.00000000000E+00 0.  1.
         21   -1    0    0  501  502  0.00000000000E+00 -0.00000000000E+00 -0.81444655568E+03  0.81444655568E+03  0.00000000000E+00 0. -1.
        -13    1    1    2    0    0  0.25345912583E+03  0.56773689592E+02 -0.34177399526E+03  0.42927177324E+03  0.10566000000E+00 0.  1.
         13    1    1    2    0    0 -0.24330782307E+03 -0.54101648800E+02 -0.21353472196E+03  0.32821147728E+03  0.10566000000E+00 0. -1.
          4    1    1    2  501    0 -0.10151302759E+02 -0.26720407919E+01 -0.15787627831E+03  0.15822486531E+03  0.00000000000E+00 0.  1.
</event>
<event>
 5    1  0.2540860E-005  0.2753264E+03  0.7818608E-02  0.1018044E+00
          4   -1    0    0  502    0 -0.00000000000E+00  0.00000000000E+00  0.70949661430E+03  0.70949661430E+03  0.00000000000E+00 0.  1.
         21   -1    0    0  501  502  0.00000000000E+00 -0.00000000000E+00 -0.58070756736E+03  0.58070756736E+03  0.00000000000E+00 0.  1.
        -13    1    1    2    0    0  0.26435182080E+03  0.32585969327E+03 -0.34111679762E+03  0.54076529626E+03  0.10566000000E+00 0.  1.
         13    1    1    2    0    0 -0.42358005695E+02 -0.24521844304E+03  0.30676146697E+02  0.25073356894E+03  0.10566000000E+00 0. -1.
          4    1    1    2  501    0 -0.22199381510E+03 -0.80641250235E+02  0.43922969787E+03  0.49870531647E+03  0.00000000000E+00 0.  1.
</event>
<event>
 5    1  0.2540860E-005  0.6624817E+02  0.7818608E-02  0.1236929E+00
         21   -1    0    0  501  502  0.00000000000E+00  0.00000000000E+00  0.75032599962E+02  0.75032599962E+02  0.00000000000E+00 0. -1.
          4   -1    0    0  502    0 -0.00000000000E+00 -0.00000000000E+00 -0.18512264279E+03  0.18512264279E+03  0.00000000000E+00 0.  1.
        -13    1    1    2    0    0 -0.63399838470E+02  0.45694689466E+02 -0.88306173666E+02  0.11792173521E+03  0.10566000000E+00 0.  1.
         13    1    1    2    0    0  0.20126343850E+02 -0.58282411566E+02 -0.57821426018E+02  0.84529507780E+02  0.10566000000E+00 0. -1.
          4    1    1    2  501    0  0.43273494620E+02  0.12587722100E+02  0.36037556857E+02  0.57703999762E+02  0.00000000000E+00 0.  1.
</event>
<event>
 5    1  0.2540860E-005  0.6271149E+02  0.7818608E-02  0.1252069E+00
         -4   -1    0    0    0  501 -0.00000000000E+00  0.00000000000E+00  0.25230734359E+04  0.25230734359E+04  0.00000000000E+00 0. -1.
         21   -1    0    0  501  502  0.00000000000E+00 -0.00000000000E+00 -0.12895072372E+03  0.12895072372E+03  0.00000000000E+00 0. -1.
        -13    1    1    2    0    0  0.64891345276E+02 -0.11833300036E+02  0.38583237157E+03  0.39143012632E+03  0.10566000000E+00 0.  1.
         13    1    1    2    0    0  0.92339808945E+01 -0.58828502838E+02 -0.11782264642E+03  0.13201608358E+03  0.10566000000E+00 0. -1.
         -4    1    1    2    0  502 -0.74125326170E+02  0.70661802873E+02  0.21261129871E+04  0.21285779498E+04  0.00000000000E+00 0. -1.
</event>
<event>
 5    1  0.2540860E-005  0.4971120E+03  0.7818608E-02  0.9600377E-01
          4   -1    0    0  502    0 -0.00000000000E+00  0.00000000000E+00  0.18428146582E+04  0.18428146582E+04  0.00000000000E+00 0.  1.
         21   -1    0    0  501  502  0.00000000000E+00 -0.00000000000E+00 -0.30129010891E+03  0.30129010891E+03  0.00000000000E+00 0.  1.
        -13    1    1    2    0    0  0.51492040094E+02  0.61365654023E+03  0.29154377221E+03  0.68133953492E+03  0.10566000000E+00 0.  1.
         13    1    1    2    0    0 -0.21141712174E+03 -0.24986696729E+03  0.78867211576E+03  0.85389368076E+03  0.10566000000E+00 0. -1.
          4    1    1    2  501    0  0.15992508164E+03 -0.36378957295E+03  0.46130866129E+03  0.60887155140E+03  0.00000000000E+00 0.  1.
</event>
<event>
 5    1  0.2540860E-005  0.4876492E+03  0.7818608E-02  0.9795443E-01
         -4   -1    0    0    0  501 -0.00000000000E+00  0.00000000000E+00  0.13821791137E+04  0.13821791137E+04  0.00000000000E+00 0. -1.
         21   -1    0    0  501  502  0.00000000000E+00 -0.00000000000E+00 -0.31354488929E+03  0.31354488929E+03  0.00000000000E+00 0. -1.
        -13    1    1    2    0    0  0.20830996646E+02 -0.17444201671E+03  0.51278647660E+03  0.54204605834E+03  0.10566000000E+00 0.  1.
         13    1    1    2    0    0  0.20723213331E+03 -0.33060650513E+03  0.43899977999E+03  0.58733860447E+03  0.10566000000E+00 0. -1.
         -4    1    1    2    0  502 -0.22806312995E+03  0.50504852184E+03  0.11684796783E+03  0.56633934019E+03  0.00000000000E+00 0. -1.
</event>
<event>
 5    1  0.2540860E-005  0.2775468E+03  0.7818608E-02  0.1017029E+00
          4   -1    0    0  502    0 -0.00000000000E+00  0.00000000000E+00  0.27538936022E+04  0.27538936022E+04  0.00000000000E+00 0.  1.
         21   -1    0    0  501  502  0.00000000000E+00 -0.00000000000E+00 -0.46871459568E+02  0.46871459568E+02  0.00000000000E+00 0. -1.
        -13    1    1    2    0    0  0.13763772273E+03  0.23299182761E+03  0.11119257418E+04  0.11443811432E+04  0.10566000000E+00 0.  1.
         13    1    1    2    0    0 -0.22083299167E+03 -0.18897585463E+03  0.14772108499E+04  0.15055334569E+04  0.10566000000E+00 0. -1.
          4    1    1    2  501    0  0.83195268936E+02 -0.44015972984E+02  0.11788555099E+03  0.15085046166E+03  0.00000000000E+00 0.  1.
</event>
<event>
 5    1  0.2540860E-005  0.1779827E+03  0.7818608E-02  0.1094474E+00
         21   -1    0    0  501  502  0.00000000000E+00  0.00000000000E+00  0.25163364709E+03  0.25163364709E+03  0.00000000000E+00 0.  1.
          4   -1    0    0  502    0 -0.00000000000E+00 -0.00000000000E+00 -0.14282278070E+04  0.14282278070E+04  0.00000000000E+00 0.  1.
        -13    1    1    2    0    0 -0.17763040749E+03 -0.17377195132E+02  0.20091623984E+03  0.26874127924E+03  0.10566000000E+00 0.  1.
         13    1    1    2    0    0  0.58169750530E+01  0.10740382568E+03 -0.38021487318E+03  0.39513640673E+03  0.10566000000E+00 0. -1.
          4    1    1    2  501    0  0.17181343243E+03 -0.90026630553E+02 -0.99729552654E+03  0.10159837681E+04  0.00000000000E+00 0.  1.
</event>
<event>
 5    1  0.2540860E-005  0.8534226E+03  0.7818608E-02  0.8926040E-01
          4   -1    0    0  502    0 -0.00000000000E+00  0.00000000000E+00  0.18811067022E+04  0.18811067022E+04  0.00000000000E+00 0.  1.
         21   -1    0    0  501  502  0.00000000000E+00 -0.00000000000E+00 -0.96082104717E+03  0.96082104717E+03  0.00000000000E+00 0. -1.
        -13    1    1    2    0    0  0.77603753914E+02  0.72696234599E+03  0.51017224786E+03  0.89150004417E+03  0.10566000000E+00 0.  1.
         13    1    1    2    0    0  0.42018986377E+03 -0.10532327447E+04  0.65191537641E+03  0.13079955678E+04  0.10566000000E+00 0. -1.
          4    1    1    2  501    0 -0.49779361769E+03  0.32627039870E+03 -0.24180196925E+03  0.64243213744E+03  0.00000000000E+00 0.  1.
</event>
<event>
 5    1  0.2540860E-005  0.4278551E+03  0.7818608E-02  0.9651883E-01
         21   -1    0    0  501  502  0.00000000000E+00  0.00000000000E+00  0.14947759745E+03  0.14947759745E+03  0.00000000000E+00 0. -1.
         -4   -1    0    0    0  501 -0.00000000000E+00 -0.00000000000E+00 -0.39028934968E+04  0.39028934968E+04  0.00000000000E+00 0. -1.
        -13    1    1    2    0    0  0.39062425833E+03 -0.87158505658E+02 -0.14208949529E+04  0.14761864363E+04  0.10566000000E+00 0.  1.
         13    1    1    2    0    0 -0.45515335791E+03 -0.18194551649E+02 -0.23948649199E+04  0.24378009797E+04  0.10566000000E+00 0. -1.
         -4    1    1    2    0  502  0.64529099576E+02  0.10535305731E+03  0.62343973477E+02  0.13838367825E+03  0.00000000000E+00 0. -1.
</event>
<event>
 5    1  0.2540860E-005  0.8740584E+02  0.7818608E-02  0.1235449E+00
          4   -1    0    0  502    0 -0.00000000000E+00  0.00000000000E+00  0.26842988145E+03  0.26842988145E+03  0.00000000000E+00 0.  1.
         21   -1    0    0  501  502  0.00000000000E+00 -0.00000000000E+00 -0.17935844056E+03  0.17935844056E+03  0.00000000000E+00 0.  1.
        -13    1    1    2    0    0  0.51574939634E+02 -0.29097591939E+02  0.23738152408E+03  0.24465617383E+03  0.10566000000E+00 0.  1.
         13    1    1    2    0    0  0.27540482780E+02 -0.11318083175E+02  0.54578707696E+00  0.29780635421E+02  0.10566000000E+00 0. -1.
          4    1    1    2  501    0 -0.79115422413E+02  0.40415675114E+02 -0.14885587027E+03  0.17335151275E+03  0.00000000000E+00 0.  1.
</event>
<event>
 5    1  0.2540860E-005  0.4908045E+03  0.7818608E-02  0.9768370E-01
         21   -1    0    0  501  502  0.00000000000E+00  0.00000000000E+00  0.87269866552E+03  0.87269866552E+03  0.00000000000E+00 0. -1.
         -4   -1    0    0    0  501 -0.00000000000E+00 -0.00000000000E+00 -0.53157592693E+03  0.53157592693E+03  0.00000000000E+00 0. -1.
        -13    1    1    2    0    0  0.94934454002E+01  0.18882579682E+03 -0.17709170510E+03  0.25904978330E+03  0.10566000000E+00 0.  1.
         13    1    1    2    0    0  0.44205918710E+03 -0.31499717533E+03  0.19951175582E+03  0.57831176474E+03  0.10566000000E+00 0. -1.
         -4    1    1    2    0  502 -0.45155263250E+03  0.12617137851E+03  0.31870268786E+03  0.56691304441E+03  0.00000000000E+00 0. -1.
</event>
<event>
 5    1  0.2540860E-005  0.4019039E+03  0.7818608E-02  0.9723564E-01
         -4   -1    0    0    0  501 -0.00000000000E+00  0.00000000000E+00  0.25689398627E+03  0.25689398627E+03  0.00000000000E+00 0. -1.
         21   -1    0    0  501  502  0.00000000000E+00 -0.00000000000E+00 -0.17349566888E+04  0.17349566888E+04  0.00000000000E+00 0. -1.
        -13    1    1    2    0    0  0.27992472754E+03 -0.12627033568E+03 -0.32010482098E+03  0.44358669766E+03  0.10566000000E+00 0.  1.
         13    1    1    2    0    0 -0.49224833997E+03  0.46773882812E+02 -0.15233265150E+03  0.51739875550E+03  0.10566000000E+00 0. -1.
         -4    1    1    2    0  502  0.21232361243E+03  0.79496452870E+02 -0.10056252301E+04  0.10308652219E+04  0.00000000000E+00 0. -1.
</event>
<event>
 5    1  0.2540860E-005  0.9642106E+02  0.7818608E-02  0.1170617E+00
         -4   -1    0    0    0  501 -0.00000000000E+00  0.00000000000E+00  0.28312525389E+03  0.28312525389E+03  0.00000000000E+00 0. -1.
         21   -1    0    0  501  502  0.00000000000E+00 -0.00000000000E+00 -0.14457567172E+03  0.14457567172E+03  0.00000000000E+00 0.  1.
        -13    1    1    2    0    0  0.83064136828E+02  0.64004079520E+02 -0.54350299257E+02  0.11811070746E+03  0.10566000000E+00 0.  1.
         13    1    1    2    0    0 -0.50721314276E+02 -0.81683867843E+02  0.23483611931E+03  0.25375760104E+03  0.10566000000E+00 0. -1.
         -4    1    1    2    0  502 -0.32342822553E+02  0.17679788323E+02 -0.41936237887E+02  0.55832617115E+02  0.00000000000E+00 0. -1.
</event>
<event>
 5    1  0.2540860E-005  0.4342419E+03  0.7818608E-02  0.9889094E-01
         21   -1    0    0  501  502  0.00000000000E+00  0.00000000000E+00  0.37088234781E+03  0.37088234781E+03  0.00000000000E+00 0. -1.
         -4   -1    0    0    0  501 -0.00000000000E+00 -0.00000000000E+00 -0.16219821159E+04  0.16219821159E+04  0.00000000000E+00 0. -1.
        -13    1    1    2    0    0  0.43362765808E+03 -0.13802959538E+03 -0.40651374482E+03  0.61019550223E+03  0.10566000000E+00 0.  1.
         13    1    1    2    0    0 -0.10589580066E+03 -0.14685264121E+03 -0.92370223061E+03  0.94127862019E+03  0.10566000000E+00 0. -1.
         -4    1    1    2    0  502 -0.32773185742E+03  0.28488223659E+03  0.79116207376E+02  0.44139034126E+03  0.00000000000E+00 0. -1.
</event>
<event>
 5    1  0.2540860E-005  0.1507782E+03  0.7818608E-02  0.1100347E+00
         21   -1    0    0  501  502  0.00000000000E+00  0.00000000000E+00  0.54234539257E+03  0.54234539257E+03  0.00000000000E+00 0. -1.
         -4   -1    0    0    0  501 -0.00000000000E+00 -0.00000000000E+00 -0.24112592692E+03  0.24112592692E+03  0.00000000000E+00 0. -1.
        -13    1    1    2    0    0 -0.13214167297E+03 -0.44825672226E+02 -0.38166375055E+02  0.14466321569E+03  0.10566000000E+00 0.  1.
         13    1    1    2    0    0  0.15148695455E+03  0.50847898572E+02 -0.10677717616E+03  0.19218528222E+03  0.10566000000E+00 0. -1.
         -4    1    1    2    0  502 -0.19345281587E+02 -0.60222263459E+01  0.44616301687E+03  0.44662282157E+03  0.00000000000E+00 0. -1.
</event>
<event>
 5    1  0.2540860E-005  0.4255264E+03  0.7818608E-02  0.9658092E-01
         -4   -1    0    0    0  501 -0.00000000000E+00  0.00000000000E+00  0.47431774643E+03  0.47431774643E+03  0.00000000000E+00 0. -1.
         21   -1    0    0  501  502  0.00000000000E+00 -0.00000000000E+00 -0.10418394416E+04  0.10418394416E+04  0.00000000000E+00 0.  1.
        -13    1    1    2    0    0  0.36819702269E+03 -0.15889983180E+03 -0.11720107009E+03  0.41779696751E+03  0.10566000000E+00 0.  1.
         13    1    1    2    0    0 -0.39779991659E+03  0.31224202839E+03 -0.66340418569E+03  0.83417323302E+03  0.10566000000E+00 0. -1.
         -4    1    1    2    0  502  0.29602893894E+02 -0.15334219659E+03  0.21308356059E+03  0.26418698753E+03  0.00000000000E+00 0. -1.
</event>
<event>
 5    1  0.2540860E-005  0.4535478E+03  0.7818608E-02  0.9760120E-01
         -4   -1    0    0    0  501 -0.00000000000E+00  0.00000000000E+00  0.58193510193E+03  0.58193510193E+03  0.00000000000E+00 0. -1.
         21   -1    0    0  501  502  0.00000000000E+00 -0.00000000000E+00 -0.77184940781E+03  0.77184940781E+03  0.00000000000E+00 0. -1.
        -13    1    1    2    0    0 -0.15005451245E+03 -0.19554334077E+03  0.15409134325E+03  0.29068489479E+03  0.10566000000E+00 0.  1.
         13    1    1    2    0    0  0.45402031063E+03  0.42037387769E+03 -0.14360949457E+03  0.63519472416E+03  0.10566000000E+00 0. -1.
         -4    1    1    2    0  502 -0.30396579817E+03 -0.22483053692E+03 -0.20039615456E+03  0.42790489078E+03  0.00000000000E+00 0. -1.
</event>
<event>
 5    1  0.2540860E-005  0.3955151E+03  0.7818608E-02  0.9808321E-01
         21   -1    0    0  501  502  0.00000000000E+00  0.00000000000E+00  0.15063636118E+03  0.15063636118E+03  0.00000000000E+00 0.  1.
          4   -1    0    0  502    0 -0.00000000000E+00 -0.00000000000E+00 -0.31364800568E+04  0.31364800568E+04  0.00000000000E+00 0.  1.
        -13    1    1    2    0    0  0.62380644341E+03  0.29283219894E+02 -0.19109509198E+04  0.20104042914E+04  0.10566000000E+00 0.  1.
         13    1    1    2    0    0 -0.28938408738E+03 -0.12472554892E+03 -0.68651445319E+03  0.75538183602E+03  0.10566000000E+00 0. -1.
          4    1    1    2  501    0 -0.33442235604E+03  0.95442329029E+02 -0.38837832266E+03  0.52133029060E+03  0.00000000000E+00 0.  1.
</event>
<event>
 5    1  0.2540860E-005  0.2780694E+03  0.7818608E-02  0.1031511E+00
         21   -1    0    0  501  502  0.00000000000E+00  0.00000000000E+00  0.27276411017E+03  0.27276411017E+03  0.00000000000E+00 0. -1.
         -4   -1    0    0    0  501 -0.00000000000E+00 -0.00000000000E+00 -0.13036979822E+04  0.13036979822E+04  0.00000000000E+00 0. -1.
        -13    1    1    2    0    0  0.16931895169E+03 -0.46239709058E+02 -0.82817083454E+02  0.19407652762E+03  0.10566000000E+00 0.  1.
         13    1    1    2    0    0  0.76387119594E+02  0.19689120375E+03 -0.10542922987E+04  0.10752364393E+04  0.10566000000E+00 0. -1.
         -4    1    1    2    0  502 -0.24570607129E+03 -0.15065149469E+03  0.10617551012E+03  0.30714912546E+03  0.00000000000E+00 0. -1.
</event>
<event>
 5    1  0.2540860E-005  0.4362475E+02  0.7818608E-02  0.1329456E+00
          4   -1    0    0  502    0 -0.00000000000E+00  0.00000000000E+00  0.19840331521E+03  0.19840331521E+03  0.00000000000E+00 0.  1.
         21   -1    0    0  501  502  0.00000000000E+00 -0.00000000000E+00 -0.21635179588E+03  0.21635179588E+03  0.00000000000E+00 0. -1.
        -13    1    1    2    0    0  0.66180870300E+01  0.35735196523E+02  0.18105226411E+03  0.18466384825E+03  0.10566000000E+00 0.  1.
         13    1    1    2    0    0  0.22860482978E+02 -0.67893128342E+02 -0.13075310371E+03  0.14909213209E+03  0.10566000000E+00 0. -1.
          4    1    1    2  501    0 -0.29478570008E+02  0.32157931819E+02 -0.68247641079E+02  0.80999130745E+02  0.00000000000E+00 0.  1.
</event>
<event>
 5    1  0.2540860E-005  0.2972240E+03  0.7818608E-02  0.1008458E+00
         21   -1    0    0  501  502  0.00000000000E+00  0.00000000000E+00  0.18506721936E+03  0.18506721936E+03  0.00000000000E+00 0. -1.
          4   -1    0    0  502    0 -0.00000000000E+00 -0.00000000000E+00 -0.70732491814E+03  0.70732491814E+03  0.00000000000E+00 0.  1.
        -13    1    1    2    0    0  0.61590493028E+02 -0.27407815659E+03 -0.22643172095E+03  0.36080958990E+03  0.10566000000E+00 0.  1.
         13    1    1    2    0    0 -0.44408207064E+01  0.31578879359E+03 -0.32669298020E+03  0.45439035809E+03  0.10566000000E+00 0. -1.
          4    1    1    2  501    0 -0.57149672322E+02 -0.41710637004E+02  0.30867002366E+02  0.77192189507E+02  0.00000000000E+00 0.  1.
</event>
<event>
 5    1  0.2540860E-005  0.4214706E+03  0.7818608E-02  0.1024877E+00
         -4   -1    0    0    0  501 -0.00000000000E+00  0.00000000000E+00  0.64737765024E+03  0.64737765024E+03  0.00000000000E+00 0. -1.
         21   -1    0    0  501  502  0.00000000000E+00 -0.00000000000E+00 -0.50591565619E+03  0.50591565619E+03  0.00000000000E+00 0. -1.
        -13    1    1    2    0    0  0.53613102410E+02 -0.30976624684E+02  0.11266040911E+03  0.12855463808E+03  0.10566000000E+00 0.  1.
         13    1    1    2    0    0  0.14162718108E+03  0.39933931608E+03 -0.27830127153E+03  0.50693368076E+03  0.10566000000E+00 0. -1.
         -4    1    1    2    0  502 -0.19524028349E+03 -0.36836269140E+03  0.30710285648E+03  0.51780498759E+03  0.00000000000E+00 0. -1.
</event>
<event>
 5    1  0.2540860E-005  0.4466784E+03  0.7818608E-02  0.9603187E-01
          4   -1    0    0  502    0 -0.00000000000E+00  0.00000000000E+00  0.10324201692E+04  0.10324201692E+04  0.00000000000E+00 0.  1.
         21   -1    0    0  501  502  0.00000000000E+00 -0.00000000000E+00 -0.60790414023E+03  0.60790414023E+03  0.00000000000E+00 0.  1.
        -13    1    1    2    0    0 -0.59501943458E+03  0.32820314900E+03  0.51213813037E+01  0.67955255444E+03  0.10566000000E+00 0.  1.
         13    1    1    2    0    0  0.20888198021E+03 -0.34715439416E+03  0.40654349462E+03  0.57395599066E+03  0.10566000000E+00 0. -1.
          4    1    1    2  501    0  0.38613745437E+03  0.18951245160E+02  0.12851152994E+02  0.38681576428E+03  0.00000000000E+00 0.  1.
</event>
<event>
 5    1  0.2540860E-005  0.4356834E+03  0.7818608E-02  0.9857275E-01
          4   -1    0    0  502    0 -0.00000000000E+00  0.00000000000E+00  0.13458454318E+04  0.13458454318E+04  0.00000000000E+00 0.  1.
         21   -1    0    0  501  502  0.00000000000E+00 -0.00000000000E+00 -0.47877552170E+03  0.47877552170E+03  0.00000000000E+00 0. -1.
        -13    1    1    2    0    0 -0.89065240715E+02  0.47340189765E+03 -0.26881759127E+03  0.55163836192E+03  0.10566000000E+00 0.  1.
         13    1    1    2    0    0  0.10877459358E+03 -0.16745809936E+03  0.77079675924E+03  0.79624228880E+03  0.10566000000E+00 0. -1.
          4    1    1    2  501    0 -0.19709352866E+02 -0.30594379829E+03  0.36509074216E+03  0.47674030280E+03  0.00000000000E+00 0.  1.
</event>
<event>
 5    1  0.2540860E-005  0.4815852E+03  0.7818608E-02  0.9575065E-01
         21   -1    0    0  501  502  0.00000000000E+00  0.00000000000E+00  0.20576647065E+03  0.20576647065E+03  0.00000000000E+00 0. -1.
         -4   -1    0    0    0  501 -0.00000000000E+00 -0.00000000000E+00 -0.37241091752E+04  0.37241091752E+04  0.00000000000E+00 0. -1.
        -13    1    1    2    0    0  0.19626576280E+03 -0.34164887089E+03 -0.20019520667E+04  0.20403569024E+04  0.10566000000E+00 0.  1.
         13    1    1    2    0    0  0.18181165671E+03  0.60063152329E+03 -0.11189435855E+04  0.12829062569E+04  0.10566000000E+00 0. -1.
         -4    1    1    2    0  502 -0.37807741951E+03 -0.25898265240E+03 -0.39744705228E+03  0.60661248648E+03  0.00000000000E+00 0. -1.
</event>
<event>
 5    1  0.2540860E-005  0.4914126E+02  0.7818608E-02  0.1295325E+00
         21   -1    0    0  501  502  0.00000000000E+00  0.00000000000E+00  0.12800381281E+03  0.12800381281E+03  0.00000000000E+00 0. -1.
         -4   -1    0    0    0  501 -0.00000000000E+00 -0.00000000000E+00 -0.43929252772E+02  0.43929252772E+02  0.00000000000E+00 0. -1.
        -13    1    1    2    0    0  0.31684482212E+02  0.19356861599E+02  0.17460687019E+02  0.41030248101E+02  0.10566000000E+00 0.  1.
         13    1    1    2    0    0 -0.45811736795E+02 -0.47918067964E+02  0.11562117494E+02  0.67294503421E+02  0.10566000000E+00 0. -1.
         -4    1    1    2    0  502  0.14127254584E+02  0.28561206366E+02  0.55051755521E+02  0.63608314056E+02  0.00000000000E+00 0. -1.
</event>
<event>
 5    1  0.2540860E-005  0.4643344E+02  0.7818608E-02  0.1322990E+00
         21   -1    0    0  501  502  0.00000000000E+00  0.00000000000E+00  0.98334008287E+02  0.98334008287E+02  0.00000000000E+00 0.  1.
          4   -1    0    0  502    0 -0.00000000000E+00 -0.00000000000E+00 -0.29166739196E+03  0.29166739196E+03  0.00000000000E+00 0.  1.
        -13    1    1    2    0    0  0.43184262225E+02 -0.16401175325E+02 -0.18826720173E+03  0.19385156555E+03  0.10566000000E+00 0.  1.
         13    1    1    2    0    0  0.74177559019E-01  0.34314577228E+02 -0.91569658782E+02  0.97788083559E+02  0.10566000000E+00 0. -1.
          4    1    1    2  501    0 -0.43258439784E+02 -0.17913401904E+02  0.86503476841E+02  0.98361751133E+02  0.00000000000E+00 0.  1.
</event>
<event>
 5    1  0.2540860E-005  0.3681922E+03  0.7818608E-02  0.9825690E-01
         21   -1    0    0  501  502  0.00000000000E+00  0.00000000000E+00  0.22882988656E+03  0.22882988656E+03  0.00000000000E+00 0.  1.
          4   -1    0    0  502    0 -0.00000000000E+00 -0.00000000000E+00 -0.21336825985E+04  0.21336825985E+04  0.00000000000E+00 0.  1.
        -13    1    1    2    0    0  0.20952721184E+02 -0.42486955577E+03 -0.12580073974E+04  0.13279818444E+04  0.10566000000E+00 0.  1.
         13    1    1    2    0    0 -0.19563172799E+03  0.27530893973E+03 -0.71828908389E+03  0.79372917579E+03  0.10566000000E+00 0. -1.
          4    1    1    2  501    0  0.17467900681E+03  0.14956061604E+03  0.71443769396E+02  0.24080146485E+03  0.00000000000E+00 0.  1.
</event>
<event>
 5    1  0.2540860E-005  0.6108656E+03  0.7818608E-02  0.9401928E-01
          4   -1    0    0  502    0 -0.00000000000E+00  0.00000000000E+00  0.20391237095E+04  0.20391237095E+04  0.00000000000E+00 0.  1.
         21   -1    0    0  501  502  0.00000000000E+00 -0.00000000000E+00 -0.55717288938E+03  0.55717288938E+03  0.00000000000E+00 0.  1.
        -13    1    1    2    0    0 -0.74777910027E+01 -0.32066705718E+03  0.90991759605E+03  0.96479703652E+03  0.10566000000E+00 0.  1.
         13    1    1    2    0    0 -0.50507086962E+03  0.65300823200E+03  0.59912594816E+03  0.10200334540E+04  0.10566000000E+00 0. -1.
          4    1    1    2  501    0  0.51254866062E+03 -0.33234117482E+03 -0.27092724065E+02  0.61146610837E+03  0.00000000000E+00 0.  1.
</event>
<event>
 5    1  0.2540860E-005  0.2518965E+03  0.7818608E-02  0.1062979E+00
         21   -1    0    0  501  502  0.00000000000E+00  0.00000000000E+00  0.49775002364E+03  0.49775002364E+03  0.00000000000E+00 0. -1.
          4   -1    0    0  502    0 -0.00000000000E+00 -0.00000000000E+00 -0.22299050136E+03  0.22299050136E+03  0.00000000000E+00 0.  1.
        -13    1    1    2    0    0 -0.16196779665E+03  0.17040062081E+03  0.43017691083E+02  0.23899889463E+03  0.10566000000E+00 0.  1.
         13    1    1    2    0    0  0.43229212617E+02  0.81387834474E+02  0.17478685539E+03  0.19759352319E+03  0.10566000000E+00 0. -1.
          4    1    1    2  501    0  0.11873858403E+03 -0.25178845528E+03  0.56954975800E+02  0.28414810719E+03  0.00000000000E+00 0.  1.
</event>
<event>
 5    1  0.2540860E-005  0.1125240E+03  0.7818608E-02  0.1145349E+00
         21   -1    0    0  501  502  0.00000000000E+00  0.00000000000E+00  0.26167509783E+03  0.26167509783E+03  0.00000000000E+00 0. -1.
         -4   -1    0    0    0  501 -0.00000000000E+00 -0.00000000000E+00 -0.19631132322E+03  0.19631132322E+03  0.00000000000E+00 0. -1.
        -13    1    1    2    0    0  0.47577214536E+01  0.98513974316E+02  0.57806468003E+01  0.98798107727E+02  0.10566000000E+00 0.  1.
         13    1    1    2    0    0 -0.57160845012E+02 -0.10853962324E+03 -0.12014614904E+03  0.17170707705E+03  0.10566000000E+00 0. -1.
         -4    1    1    2    0  502  0.52403123558E+02  0.10025648928E+02  0.17972927685E+03  0.18748123627E+03  0.00000000000E+00 0. -1.
</event>
<event>
 5    1  0.2540860E-005  0.1310989E+03  0.7818608E-02  0.1121407E+00
         21   -1    0    0  501  502  0.00000000000E+00  0.00000000000E+00  0.36608519925E+03  0.36608519925E+03  0.00000000000E+00 0.  1.
         -4   -1    0    0    0  501 -0.00000000000E+00 -0.00000000000E+00 -0.26254233302E+03  0.26254233302E+03  0.00000000000E+00 0. -1.
        -13    1    1    2    0    0 -0.43387143469E+02  0.13746801591E+03  0.28175707369E+03  0.31649164184E+03  0.10566000000E+00 0.  1.
         13    1    1    2    0    0  0.72598383211E+01 -0.13036804969E+03 -0.22038112887E+03  0.25615695727E+03  0.10566000000E+00 0. -1.
         -4    1    1    2    0  502  0.36127305148E+02 -0.70999662135E+01  0.42166921400E+02  0.55978933161E+02  0.00000000000E+00 0. -1.
</event>
<event>
 5    1  0.2540860E-005  0.8363254E+02  0.7818608E-02  0.1194904E+00
         -4   -1    0    0    0  501 -0.00000000000E+00  0.00000000000E+00  0.56183901787E+03  0.56183901787E+03  0.00000000000E+00 0. -1.
         21   -1    0    0  501  502  0.00000000000E+00 -0.00000000000E+00 -0.29230477057E+02  0.29230477057E+02  0.00000000000E+00 0. -1.
        -13    1    1    2    0    0  0.76888336747E+02  0.36378801554E+02  0.16105625729E+03  0.18213830653E+03  0.10566000000E+00 0.  1.
         13    1    1    2    0    0 -0.81304398745E+02 -0.19329802814E+02  0.38022439678E+03  0.38930020498E+03  0.10566000000E+00 0. -1.
         -4    1    1    2    0  502  0.44160619987E+01 -0.17048998740E+02 -0.86721132507E+01  0.19630983415E+02  0.00000000000E+00 0. -1.
</event>
<event>
 5    1  0.2540860E-005  0.3644991E+03  0.7818608E-02  0.9837577E-01
         21   -1    0    0  501  502  0.00000000000E+00  0.00000000000E+00  0.67621775102E+03  0.67621775102E+03  0.00000000000E+00 0. -1.
          4   -1    0    0  502    0 -0.00000000000E+00 -0.00000000000E+00 -0.21831560079E+03  0.21831560079E+03  0.00000000000E+00 0.  1.
        -13    1    1    2    0    0  0.28202332534E+03 -0.22693977937E+03  0.30849602258E+03  0.47561394703E+03  0.10566000000E+00 0.  1.
         13    1    1    2    0    0 -0.27421009395E+03  0.24283779690E+03  0.12157659640E+03  0.38593037090E+03  0.10566000000E+00 0. -1.
          4    1    1    2  501    0 -0.78132313921E+01 -0.15898017535E+02  0.27829531252E+02  0.32989033875E+02  0.00000000000E+00 0.  1.
</event>
<event>
 5    1  0.2540860E-005  0.4890062E+03  0.7818608E-02  0.9502399E-01
         -4   -1    0    0    0  501 -0.00000000000E+00  0.00000000000E+00  0.13656443241E+04  0.13656443241E+04  0.00000000000E+00 0. -1.
         21   -1    0    0  501  502  0.00000000000E+00 -0.00000000000E+00 -0.48629163127E+03  0.48629163127E+03  0.00000000000E+00 0.  1.
        -13    1    1    2    0    0 -0.48032637110E+03  0.31663659794E+01 -0.20304306022E+03  0.52148820132E+03  0.10566000000E+00 0.  1.
         13    1    1    2    0    0  0.49011928228E+03 -0.90188569198E+01  0.11561695437E+04  0.12557970678E+04  0.10566000000E+00 0. -1.
         -4    1    1    2    0  502 -0.97929111876E+01  0.58524909403E+01 -0.73773790668E+02  0.74650686194E+02  0.00000000000E+00 0. -1.
</event>
<event>
 5    1  0.2540860E-005  0.3827893E+03  0.7818608E-02  0.1018494E+00
         21   -1    0    0  501  502  0.00000000000E+00  0.00000000000E+00  0.18383691193E+04  0.18383691193E+04  0.00000000000E+00 0. -1.
         -4   -1    0    0    0  501 -0.00000000000E+00 -0.00000000000E+00 -0.24544501277E+03  0.24544501277E+03  0.00000000000E+00 0. -1.
        -13    1    1    2    0    0  0.59266160532E+01  0.10082677711E+03 -0.84703786084E+02  0.13181770102E+03  0.10566000000E+00 0.  1.
         13    1    1    2    0    0 -0.15985295586E+03 -0.36662301256E+03  0.15798024361E+04  0.16296444855E+04  0.10566000000E+00 0. -1.
         -4    1    1    2    0  502  0.15392633981E+03  0.26579623545E+03  0.97825456528E+02  0.32235194557E+03  0.00000000000E+00 0. -1.
</event>
<event>
 5    1  0.2540860E-005  0.1006307E+03  0.7818608E-02  0.1163516E+00
         21   -1    0    0  501  502  0.00000000000E+00  0.00000000000E+00  0.32253257278E+02  0.32253257278E+02  0.00000000000E+00 0. -1.
          4   -1    0    0  502    0 -0.00000000000E+00 -0.00000000000E+00 -0.46836638078E+03  0.46836638078E+03  0.00000000000E+00 0.  1.
        -13    1    1    2    0    0  0.56069475522E+01  0.10583710027E+03 -0.21679610036E+03  0.24131616181E+03  0.10566000000E+00 0.  1.
         13    1    1    2    0    0  0.27159090802E+02 -0.94371026563E+02 -0.18995293482E+03  0.21383553371E+03  0.10566000000E+00 0. -1.
          4    1    1    2  501    0 -0.32766038354E+02 -0.11466073708E+02 -0.29364088328E+02  0.45467942542E+02  0.00000000000E+00 0.  1.
</event>
<event>
 5    1  0.2540860E-005  0.3217251E+03  0.7818608E-02  0.9987204E-01
         -4   -1    0    0    0  501 -0.00000000000E+00  0.00000000000E+00  0.44926224985E+03  0.44926224985E+03  0.00000000000E+00 0. -1.
         21   -1    0    0  501  502  0.00000000000E+00 -0.00000000000E+00 -0.11581059767E+04  0.11581059767E+04  0.00000000000E+00 0. -1.
        -13    1    1    2    0    0  0.89819906461E+02 -0.30799549754E+03  0.22070686219E+03  0.38941028785E+03  0.10566000000E+00 0.  1.
         13    1    1    2    0    0  0.14811734931E+03  0.38008353872E+03 -0.87210092585E+03  0.96278880425E+03  0.10566000000E+00 0. -1.
         -4    1    1    2    0  502 -0.23793725577E+03 -0.72088041170E+02 -0.57449663167E+02  0.25516913442E+03  0.00000000000E+00 0. -1.
</event>
<event>
 5    1  0.2540860E-005  0.4558899E+03  0.7818608E-02  0.9909940E-01
          4   -1    0    0  502    0 -0.00000000000E+00  0.00000000000E+00  0.20367420650E+04  0.20367420650E+04  0.00000000000E+00 0.  1.
         21   -1    0    0  501  502  0.00000000000E+00 -0.00000000000E+00 -0.18305699416E+03  0.18305699416E+03  0.00000000000E+00 0.  1.
        -13    1    1    2    0    0 -0.36007276811E+03  0.14741691037E+03  0.96004901406E+03  0.10358949099E+04  0.10566000000E+00 0.  1.
         13    1    1    2    0    0 -0.12392882365E+03 -0.77282672105E+02  0.59100763213E+03  0.60878649553E+03  0.10566000000E+00 0. -1.
          4    1    1    2  501    0  0.48400159177E+03 -0.70134238267E+02  0.30262842463E+03  0.57511765371E+03  0.00000000000E+00 0.  1.
</event>
<event>
 5    1  0.2540860E-005  0.2122464E+03  0.7818608E-02  0.1052050E+00
          4   -1    0    0  502    0 -0.00000000000E+00  0.00000000000E+00  0.12342338140E+04  0.12342338140E+04  0.00000000000E+00 0.  1.
         21   -1    0    0  501  502  0.00000000000E+00 -0.00000000000E+00 -0.12170222605E+03  0.12170222605E+03  0.00000000000E+00 0. -1.
        -13    1    1    2    0    0 -0.20725686683E+03 -0.23162888769E+02  0.10320991100E+04  0.10529579822E+04  0.10566000000E+00 0.  1.
         13    1    1    2    0    0  0.24385647740E+03  0.44494216995E+02  0.56195729427E+02  0.25417255573E+03  0.10566000000E+00 0. -1.
          4    1    1    2  501    0 -0.36599610573E+02 -0.21331328226E+02  0.24236748535E+02  0.48805502124E+02  0.00000000000E+00 0.  1.
</event>
<event>
 5    1  0.2540860E-005  0.5007286E+03  0.7818608E-02  0.9651404E-01
         21   -1    0    0  501  502  0.00000000000E+00  0.00000000000E+00  0.59373540517E+03  0.59373540517E+03  0.00000000000E+00 0. -1.
         -4   -1    0    0    0  501 -0.00000000000E+00 -0.00000000000E+00 -0.73599347213E+03  0.73599347213E+03  0.00000000000E+00 0. -1.
        -13    1    1    2    0    0  0.10412419660E+02  0.26716670526E+03 -0.11436143483E+03  0.29080064619E+03  0.10566000000E+00 0.  1.
         13    1    1    2    0    0 -0.37881130419E+03 -0.47596565094E+03  0.41931891237E+02  0.60975372055E+03  0.10566000000E+00 0. -1.
         -4    1    1    2    0  502  0.36839888453E+03  0.20879894569E+03 -0.69828523357E+02  0.42917451056E+03  0.00000000000E+00 0. -1.
</event>
<event>
 5    1  0.2540860E-005  0.5894231E+02  0.7818608E-02  0.1259132E+00
         21   -1    0    0  501  502  0.00000000000E+00  0.00000000000E+00  0.69522958521E+02  0.69522958521E+02  0.00000000000E+00 0. -1.
         -4   -1    0    0    0  501 -0.00000000000E+00 -0.00000000000E+00 -0.25301649518E+03  0.25301649518E+03  0.00000000000E+00 0. -1.
        -13    1    1    2    0    0 -0.54674111240E+02 -0.63626314659E+01 -0.55839624740E+02  0.78408012182E+02  0.10566000000E+00 0.  1.
         13    1    1    2    0    0  0.52528888817E+02 -0.43922191908E+02 -0.16684047821E+03  0.18034466844E+03  0.10566000000E+00 0. -1.
         -4    1    1    2    0  502  0.21452224231E+01  0.50284823374E+02  0.39186566295E+02  0.63786773072E+02  0.00000000000E+00 0. -1.
</event>
<event>
 5    1  0.2540860E-005  0.4935507E+03  0.7818608E-02  0.9531299E-01
          4   -1    0    0  502    0 -0.00000000000E+00  0.00000000000E+00  0.10463637365E+04  0.10463637365E+04  0.00000000000E+00 0.  1.
         21   -1    0    0  501  502  0.00000000000E+00 -0.00000000000E+00 -0.12134459334E+04  0.12134459334E+04  0.00000000000E+00 0.  1.
        -13    1    1    2    0    0  0.43793401484E+03  0.83470481291E+02 -0.59629718493E+02  0.44978799127E+03  0.10566000000E+00 0.  1.
         13    1    1    2    0    0 -0.28516022240E+03  0.44647382122E+03  0.67166777734E+03  0.85544891125E+03  0.10566000000E+00 0. -1.
          4    1    1    2  501    0 -0.15277379244E+03 -0.52994430251E+03 -0.77912025575E+03  0.95457276744E+03  0.00000000000E+00 0.  1.
</event>
<event>
 5    1  0.2540860E-005  0.4957154E+03  0.7818608E-02  0.1000568E+00
         -4   -1    0    0    0  501 -0.00000000000E+00  0.00000000000E+00  0.19354892514E+04  0.19354892514E+04  0.00000000000E+00 0. -1.
         21   -1    0    0  501  502  0.00000000000E+00 -0.00000000000E+00 -0.16060501047E+03  0.16060501047E+03  0.00000000000E+00 0. -1.
        -13    1    1    2    0    0  0.66835918104E+02  0.48842829320E+02  0.31183607188E+03  0.32263665138E+03  0.10566000000E+00 0.  1.
         13    1    1    2    0    0 -0.33745454799E+03 -0.40977029648E+03  0.61123422483E+03  0.80956442400E+03  0.10566000000E+00 0. -1.
         -4    1    1    2    0  502  0.27061862988E+03  0.36092746716E+03  0.85181394424E+03  0.96389318650E+03  0.00000000000E+00 0. -1.
</event>
<event>
 5    1  0.2540860E-005  0.1209241E+03  0.7818608E-02  0.1133940E+00
         -4   -1    0    0    0  501 -0.00000000000E+00  0.00000000000E+00  0.51770240962E+03  0.51770240962E+03  0.00000000000E+00 0. -1.
         21   -1    0    0  501  502  0.00000000000E+00 -0.00000000000E+00 -0.25285372715E+03  0.25285372715E+03  0.00000000000E+00 0. -1.
        -13    1    1    2    0    0 -0.29065505178E+02  0.11778702539E+03  0.27333166347E+03  0.29904647860E+03  0.10566000000E+00 0.  1.
         13    1    1    2    0    0  0.42970009080E+02 -0.11303659527E+03  0.21546471226E+03  0.24708044630E+03  0.10566000000E+00 0. -1.
         -4    1    1    2    0  502 -0.13904503902E+02 -0.47504301195E+01 -0.22394769327E+03  0.22442921186E+03  0.00000000000E+00 0. -1.
</event>
<event>
 5    1  0.2540860E-005  0.1381087E+03  0.7818608E-02  0.1113470E+00
         -4   -1    0    0    0  501 -0.00000000000E+00  0.00000000000E+00  0.59025921311E+03  0.59025921311E+03  0.00000000000E+00 0. -1.
         21   -1    0    0  501  502  0.00000000000E+00 -0.00000000000E+00 -0.64779203982E+02  0.64779203982E+02  0.00000000000E+00 0. -1.
        -13    1    1    2    0    0 -0.10679120030E+03 -0.54322274802E+02  0.86368479374E+02  0.14769832563E+03  0.10566000000E+00 0.  1.
         13    1    1    2    0    0  0.14194502262E+03  0.34364402472E+02  0.44326365360E+03  0.46670330979E+03  0.10566000000E+00 0. -1.
         -4    1    1    2    0  502 -0.35153822323E+02  0.19957872330E+02 -0.41521238455E+01  0.40636781668E+02  0.00000000000E+00 0. -1.
</event>
<event>
 5    1  0.2540860E-005  0.9278796E+02  0.7818608E-02  0.1177073E+00
          4   -1    0    0  502    0 -0.00000000000E+00  0.00000000000E+00  0.36114440804E+03  0.36114440804E+03  0.00000000000E+00 0.  1.
         21   -1    0    0  501  502  0.00000000000E+00 -0.00000000000E+00 -0.46623353333E+02  0.46623353333E+02  0.00000000000E+00 0. -1.
        -13    1    1    2    0    0 -0.86051667564E+02 -0.13748286066E+02  0.18982615963E+03  0.20887289652E+03  0.10566000000E+00 0.  1.
         13    1    1    2    0    0  0.10397089865E+03 -0.67049230850E+00  0.13764407480E+03  0.17250014439E+03  0.10566000000E+00 0. -1.
          4    1    1    2  501    0 -0.17919231082E+02  0.14418778375E+02 -0.12949179717E+02  0.26394720452E+02  0.00000000000E+00 0.  1.
</event>
<event>
 5    1  0.2540860E-005  0.4055042E+03  0.7818608E-02  0.1014226E+00
          4   -1    0    0  502    0 -0.00000000000E+00  0.00000000000E+00  0.16045521411E+04  0.16045521411E+04  0.00000000000E+00 0.  1.
         21   -1    0    0  501  502  0.00000000000E+00 -0.00000000000E+00 -0.18874653212E+03  0.18874653212E+03  0.00000000000E+00 0.  1.
        -13    1    1    2    0    0 -0.34273834731E+03  0.32330111010E+03  0.10533033892E+04  0.11538809398E+04  0.10566000000E+00 0.  1.
         13    1    1    2    0    0  0.30266391601E+02 -0.92459337184E+02  0.19182686212E+03  0.21508681895E+03  0.10566000000E+00 0. -1.
          4    1    1    2  501    0  0.31247195571E+03 -0.23084177291E+03  0.17067535770E+03  0.42433091444E+03  0.00000000000E+00 0.  1.
</event>
<event>
 5    1  0.2540860E-005  0.8206230E+02  0.7818608E-02  0.1198216E+00
         21   -1    0    0  501  502  0.00000000000E+00  0.00000000000E+00  0.15971977519E+03  0.15971977519E+03  0.00000000000E+00 0.  1.
          4   -1    0    0  502    0 -0.00000000000E+00 -0.00000000000E+00 -0.18508388490E+03  0.18508388490E+03  0.00000000000E+00 0.  1.
        -13    1    1    2    0    0  0.25005307688E+02  0.78127839194E+02 -0.40383156548E+02  0.91433227913E+02  0.10566000000E+00 0.  1.
         13    1    1    2    0    0  0.19283579382E+02 -0.84544068977E+02 -0.98569603042E+02  0.13128417209E+03  0.10566000000E+00 0. -1.
          4    1    1    2  501    0 -0.44288887070E+02  0.64162297827E+01  0.11358864988E+03  0.12208626009E+03  0.00000000000E+00 0.  1.
</event>
<event>
 5    1  0.2540860E-005  0.3180462E+03  0.7818608E-02  0.1009519E+00
         21   -1    0    0  501  502  0.00000000000E+00  0.00000000000E+00  0.52793405451E+03  0.52793405451E+03  0.00000000000E+00 0. -1.
         -4   -1    0    0    0  501 -0.00000000000E+00 -0.00000000000E+00 -0.73082676673E+03  0.73082676673E+03  0.00000000000E+00 0. -1.
        -13    1    1    2    0    0 -0.12289524916E+02  0.23411836803E+03 -0.72992536236E+02  0.24554096233E+03  0.10566000000E+00 0.  1.
         13    1    1    2    0    0  0.10604713624E+03  0.27216458424E+03  0.24097262308E+03  0.37866525092E+03  0.10566000000E+00 0. -1.
         -4    1    1    2    0  502 -0.93757611325E+02 -0.50628295227E+03 -0.37087279906E+03  0.63455460799E+03  0.00000000000E+00 0. -1.
</event>
<event>
 5    1  0.2540860E-005  0.2388402E+03  0.7818608E-02  0.1039601E+00
         21   -1    0    0  501  502  0.00000000000E+00  0.00000000000E+00  0.59016465473E+03  0.59016465473E+03  0.00000000000E+00 0. -1.
          4   -1    0    0  502    0 -0.00000000000E+00 -0.00000000000E+00 -0.18008925710E+04  0.18008925710E+04  0.00000000000E+00 0.  1.
        -13    1    1    2    0    0 -0.36639952053E+03  0.19388251635E+03 -0.16396467524E+04  0.16912363888E+04  0.10566000000E+00 0.  1.
         13    1    1    2    0    0  0.21519246773E+03 -0.22019417464E+02  0.41799221669E+03  0.47064865589E+03  0.10566000000E+00 0. -1.
          4    1    1    2  501    0  0.15120705280E+03 -0.17186309889E+03  0.10926619430E+02  0.22917218109E+03  0.00000000000E+00 0.  1.
</event>
<event>
 5    1  0.2540860E-005  0.5189733E+03  0.7818608E-02  0.9437329E-01
         -4   -1    0    0    0  501 -0.00000000000E+00  0.00000000000E+00  0.43402223317E+04  0.43402223317E+04  0.00000000000E+00 0. -1.
         21   -1    0    0  501  502  0.00000000000E+00 -0.00000000000E+00 -0.18648101452E+03  0.18648101452E+03  0.00000000000E+00 0. -1.
        -13    1    1    2    0    0  0.53373319259E+03 -0.11588353959E+03  0.24131722270E+04  0.24742070092E+04  0.10566000000E+00 0.  1.
         13    1    1    2    0    0 -0.31010616196E+03  0.49361037079E+03  0.13270185773E+04  0.14494120689E+04  0.10566000000E+00 0. -1.
         -4    1    1    2    0  502 -0.22362703063E+03 -0.37772683120E+03  0.41355051283E+03  0.60308426816E+03  0.00000000000E+00 0. -1.
</event>
<event>
 5    1  0.2540860E-005  0.3506025E+03  0.7818608E-02  0.9936059E-01
         21   -1    0    0  501  502  0.00000000000E+00  0.00000000000E+00  0.11878611907E+04  0.11878611907E+04  0.00000000000E+00 0.  1.
          4   -1    0    0  502    0 -0.00000000000E+00 -0.00000000000E+00 -0.38996206716E+03  0.38996206716E+03  0.00000000000E+00 0.  1.
        -13    1    1    2    0    0 -0.14942298785E+03 -0.52148356854E+03  0.16852538947E+03  0.56804327266E+03  0.10566000000E+00 0.  1.
         13    1    1    2    0    0 -0.70566603584E+02  0.28577004192E+03 -0.91214912168E+01  0.29449511909E+03  0.10566000000E+00 0. -1.
          4    1    1    2  501    0  0.21998959144E+03  0.23571352661E+03  0.63849522527E+03  0.71528486610E+03  0.00000000000E+00 0.  1.
</event>
<event>
 5    1  0.2540860E-005  0.5846359E+03  0.7818608E-02  0.9309579E-01
          4   -1    0    0  502    0 -0.00000000000E+00  0.00000000000E+00  0.36973587540E+03  0.36973587540E+03  0.00000000000E+00 0.  1.
         21   -1    0    0  501  502  0.00000000000E+00 -0.00000000000E+00 -0.14844934243E+04  0.14844934243E+04  0.00000000000E+00 0.  1.
        -13    1    1    2    0    0 -0.46538921966E+03  0.38125142250E+03 -0.42507164209E+03  0.73663130873E+03  0.10566000000E+00 0.  1.
         13    1    1    2    0    0  0.43931900979E+03 -0.36849333055E+03 -0.17135802921E+03  0.59845811246E+03  0.10566000000E+00 0. -1.
          4    1    1    2  501    0  0.26070209865E+02 -0.12758091947E+02 -0.51832787760E+03  0.51913987850E+03  0.00000000000E+00 0.  1.
</event>
<event>
 5    1  0.2540860E-005  0.3684563E+03  0.7818608E-02  0.1028002E+00
         21   -1    0    0  501  502  0.00000000000E+00  0.00000000000E+00  0.13767728579E+04  0.13767728579E+04  0.00000000000E+00 0. -1.
         -4   -1    0    0    0  501 -0.00000000000E+00 -0.00000000000E+00 -0.21157741241E+03  0.21157741241E+03  0.00000000000E+00 0. -1.
        -13    1    1    2    0    0  0.14931081748E+02  0.82752967403E+02  0.13268813217E+03  0.15708959991E+03  0.10566000000E+00 0.  1.
         13    1    1    2    0    0  0.24684768605E+03  0.25744163153E+03  0.92116008205E+03  0.98779850257E+03  0.10566000000E+00 0. -1.
         -4    1    1    2    0  502 -0.26177876780E+03 -0.34019459893E+03  0.11134723129E+03  0.44346216787E+03  0.00000000000E+00 0. -1.
</event>
<event>
 5    1  0.2540860E-005  0.4800020E+03  0.7818608E-02  0.9792856E-01
         21   -1    0    0  501  502  0.00000000000E+00  0.00000000000E+00  0.25350151840E+03  0.25350151840E+03  0.00000000000E+00 0. -1.
         -4   -1    0    0    0  501 -0.00000000000E+00 -0.00000000000E+00 -0.14799273187E+04  0.14799273187E+04  0.00000000000E+00 0. -1.
        -13    1    1    2    0    0  0.57358454801E+02  0.17677581703E+03 -0.37452383296E+03  0.41810022057E+03  0.10566000000E+00 0.  1.
         13    1    1    2    0    0 -0.31007349152E+03  0.28532305164E+03 -0.59561059502E+03  0.72959358961E+03  0.10566000000E+00 0. -1.
         -4    1    1    2    0  502  0.25271503672E+03 -0.46209886867E+03 -0.25629137228E+03  0.58573502688E+03  0.00000000000E+00 0. -1.
</event>
<event>
 5    1  0.2540860E-005  0.4318360E+03  0.7818608E-02  0.1009561E+00
         -4   -1    0    0    0  501 -0.00000000000E+00  0.00000000000E+00  0.68843401817E+03  0.68843401817E+03  0.00000000000E+00 0. -1.
         21   -1    0    0  501  502  0.00000000000E+00 -0.00000000000E+00 -0.50194446964E+03  0.50194446964E+03  0.00000000000E+00 0. -1.
        -13    1    1    2    0    0  0.83275019752E+02  0.42583547610E+02  0.91798939534E+02  0.13105397325E+03  0.10566000000E+00 0.  1.
         13    1    1    2    0    0  0.24626328051E+03 -0.33237584270E+03  0.35841745600E+03  0.54734119895E+03  0.10566000000E+00 0. -1.
         -4    1    1    2    0  502 -0.32953830026E+03  0.28979229509E+03 -0.26372684701E+03  0.51198331561E+03  0.00000000000E+00 0. -1.
</event>
<event>
 5    1  0.2540860E-005  0.7600620E+02  0.7818608E-02  0.1220668E+00
         -4   -1    0    0    0  501 -0.00000000000E+00  0.00000000000E+00  0.45401914145E+03  0.45401914145E+03  0.00000000000E+00 0. -1.
         21   -1    0    0  501  502  0.00000000000E+00 -0.00000000000E+00 -0.15874195147E+03  0.15874195147E+03  0.00000000000E+00 0. -1.
        -13    1    1    2    0    0 -0.62406824998E+02  0.19794085654E+01 -0.36435291867E+02  0.72291572967E+02  0.10566000000E+00 0.  1.
         13    1    1    2    0    0  0.13331668317E+03 -0.23065325627E+02  0.41060267261E+03  0.43231922600E+03  0.10566000000E+00 0. -1.
         -4    1    1    2    0  502 -0.70909858173E+02  0.21085917062E+02 -0.78890190758E+02  0.10815029395E+03  0.00000000000E+00 0. -1.
</event>
<event>
 5    1  0.2540860E-005  0.1280141E+03  0.7818608E-02  0.1125073E+00
         -4   -1    0    0    0  501 -0.00000000000E+00  0.00000000000E+00  0.16249415424E+04  0.16249415424E+04  0.00000000000E+00 0. -1.
         21   -1    0    0  501  502  0.00000000000E+00 -0.00000000000E+00 -0.24360812472E+02  0.24360812472E+02  0.00000000000E+00 0. -1.
        -13    1    1    2    0    0  0.10532680499E+03 -0.35548056477E+02  0.54887276895E+03  0.56001672102E+03  0.10566000000E+00 0.  1.
         13    1    1    2    0    0 -0.11070604655E+03  0.14000628892E+03  0.69558950297E+03  0.71812419364E+03  0.10566000000E+00 0. -1.
         -4    1    1    2    0  502  0.53792415575E+01 -0.10445823245E+03  0.35611845801E+03  0.37116144021E+03  0.00000000000E+00 0. -1.
</event>
<event>
 5    1  0.2540860E-005  0.3649780E+03  0.7818608E-02  0.9836027E-01
         21   -1    0    0  501  502  0.00000000000E+00  0.00000000000E+00  0.60598982769E+02  0.60598982769E+02  0.00000000000E+00 0.  1.
         -4   -1    0    0    0  501 -0.00000000000E+00 -0.00000000000E+00 -0.23844659269E+04  0.23844659269E+04  0.00000000000E+00 0. -1.
        -13    1    1    2    0    0  0.15607165254E+03  0.32338112419E+03 -0.10334958186E+04  0.10940965819E+04  0.10566000000E+00 0.  1.
         13    1    1    2    0    0 -0.16576967376E+03 -0.33088037026E+03 -0.12856098227E+04  0.13378168901E+04  0.10566000000E+00 0. -1.
         -4    1    1    2    0  502  0.96980212213E+01  0.74992460769E+01 -0.47613027863E+01  0.13151437623E+02  0.00000000000E+00 0. -1.
</event>
<event>
 5    1  0.2540860E-005  0.5027075E+03  0.7818608E-02  0.9520864E-01
          4   -1    0    0  502    0 -0.00000000000E+00  0.00000000000E+00  0.73441055927E+03  0.73441055927E+03  0.00000000000E+00 0.  1.
         21   -1    0    0  501  502  0.00000000000E+00 -0.00000000000E+00 -0.90135566405E+03  0.90135566405E+03  0.00000000000E+00 0.  1.
        -13    1    1    2    0    0 -0.19707291535E+03 -0.28904648709E+03  0.20817497711E+02  0.35045539665E+03  0.10566000000E+00 0.  1.
         13    1    1    2    0    0 -0.41980793230E+03 -0.31189021108E+02  0.22460913975E+03  0.47713806375E+03  0.10566000000E+00 0. -1.
          4    1    1    2  501    0  0.61688084765E+03  0.32023550820E+03 -0.41237174224E+03  0.80817276291E+03  0.00000000000E+00 0.  1.
</event>
<event>
 5    1  0.2540860E-005  0.2515486E+03  0.7818608E-02  0.1033551E+00
         21   -1    0    0  501  502  0.00000000000E+00  0.00000000000E+00  0.55487775948E+03  0.55487775948E+03  0.00000000000E+00 0. -1.
         -4   -1    0    0    0  501 -0.00000000000E+00 -0.00000000000E+00 -0.15983555755E+04  0.15983555755E+04  0.00000000000E+00 0. -1.
        -13    1    1    2    0    0 -0.26651143887E+03 -0.21255458187E+02 -0.10909294754E+04  0.11232129242E+04  0.10566000000E+00 0.  1.
         13    1    1    2    0    0 -0.17113374471E+03 -0.14349390199E+03  0.39063975441E+03  0.44997409634E+03  0.10566000000E+00 0. -1.
         -4    1    1    2    0  502  0.43764518357E+03  0.16474936018E+03 -0.34318809505E+03  0.58004631450E+03  0.00000000000E+00 0. -1.
</event>
<event>
 5    1  0.2540860E-005  0.2116588E+03  0.7818608E-02  0.1052424E+00
         21   -1    0    0  501  502  0.00000000000E+00  0.00000000000E+00  0.10377573434E+03  0.10377573434E+03  0.00000000000E+00 0. -1.
         -4   -1    0    0    0  501 -0.00000000000E+00 -0.00000000000E+00 -0.93855464500E+03  0.93855464500E+03  0.00000000000E+00 0. -1.
        -13    1    1    2    0    0 -0.12303799811E+03 -0.15805922524E+03 -0.29708985053E+03  0.35830637465E+03  0.10566000000E+00 0.  1.
         13    1    1    2    0    0  0.14163866048E+03  0.16708172288E+03 -0.58915825276E+03  0.62855808819E+03  0.10566000000E+00 0. -1.
         -4    1    1    2    0  502 -0.18600662367E+02 -0.90224976371E+01  0.51469192632E+02  0.55465916510E+02  0.00000000000E+00 0. -1.
</event>
<event>
 5    1  0.2540860E-005  0.1174395E+03  0.7818608E-02  0.1138545E+00
          4   -1    0    0  502    0 -0.00000000000E+00  0.00000000000E+00  0.39258247516E+03  0.39258247516E+03  0.00000000000E+00 0.  1.
         21   -1    0    0  501  502  0.00000000000E+00 -0.00000000000E+00 -0.11620883512E+03  0.11620883512E+03  0.00000000000E+00 0.  1.
        -13    1    1    2    0    0  0.16348727906E+03 -0.55527038928E+02  0.19174967343E+03  0.25802963180E+03  0.10566000000E+00 0.  1.
         13    1    1    2    0    0 -0.85752433428E+02  0.35144550444E+02  0.12909452946E+03  0.15891515965E+03  0.10566000000E+00 0. -1.
          4    1    1    2  501    0 -0.77734845631E+02  0.20382488484E+02 -0.44470562847E+02  0.91846518834E+02  0.00000000000E+00 0.  1.
</event>
<event>
 5    1  0.2540860E-005  0.5565126E+02  0.7818608E-02  0.1270347E+00
         21   -1    0    0  501  502  0.00000000000E+00  0.00000000000E+00  0.48696821672E+03  0.48696821672E+03  0.00000000000E+00 0. -1.
          4   -1    0    0  502    0 -0.00000000000E+00 -0.00000000000E+00 -0.17384352670E+02  0.17384352670E+02  0.00000000000E+00 0.  1.
        -13    1    1    2    0    0 -0.44080111490E+02 -0.41747008594E+02  0.54013595457E+02  0.81260990726E+02  0.10566000000E+00 0.  1.
         13    1    1    2    0    0  0.42264815639E+02  0.17382850088E+02  0.16126201934E+03  0.16761243440E+03  0.10566000000E+00 0. -1.
          4    1    1    2  501    0  0.18152958511E+01  0.24364158507E+02  0.25430824925E+03  0.25547914427E+03  0.00000000000E+00 0.  1.
</event>
<event>
 5    1  0.2540860E-005  0.3927787E+03  0.7818608E-02  0.9750136E-01
         -4   -1    0    0    0  501 -0.00000000000E+00  0.00000000000E+00  0.18383370115E+04  0.18383370115E+04  0.00000000000E+00 0. -1.
         21   -1    0    0  501  502  0.00000000000E+00 -0.00000000000E+00 -0.33306795390E+03  0.33306795390E+03  0.00000000000E+00 0. -1.
        -13    1    1    2    0    0 -0.40844200156E+03 -0.56841548569E+02  0.41866125387E+03  0.58765048025E+03  0.10566000000E+00 0.  1.
         13    1    1    2    0    0  0.38705893853E+03 -0.40216034903E+02  0.12953611254E+04  0.13525503347E+04  0.10566000000E+00 0. -1.
         -4    1    1    2    0  502  0.21383063028E+02  0.97057583471E+02 -0.20875332168E+03  0.23120415050E+03  0.00000000000E+00 0. -1.
</event>
<event>
 5    1  0.2540860E-005  0.3509164E+03  0.7818608E-02  0.9882616E-01
         21   -1    0    0  501  502  0.00000000000E+00  0.00000000000E+00  0.14867221010E+03  0.14867221010E+03  0.00000000000E+00 0.  1.
         -4   -1    0    0    0  501 -0.00000000000E+00 -0.00000000000E+00 -0.11949716026E+04  0.11949716026E+04  0.00000000000E+00 0. -1.
        -13    1    1    2    0    0  0.34398778571E+03  0.61900368257E+02 -0.39055072549E+03  0.52410793989E+03  0.10566000000E+00 0.  1.
         13    1    1    2    0    0 -0.34369825241E+03 -0.75527077579E+02 -0.69444152812E+03  0.77851260446E+03  0.10566000000E+00 0. -1.
         -4    1    1    2    0  502 -0.28953329936E+00  0.13626709323E+02  0.38692861165E+02  0.41023268295E+02  0.00000000000E+00 0. -1.
</event>
<event>
 5    1  0.2540860E-005  0.5088331E+03  0.7818608E-02  0.9602814E-01
          4   -1    0    0  502    0 -0.00000000000E+00  0.00000000000E+00  0.76102212387E+03  0.76102212387E+03  0.00000000000E+00 0.  1.
         21   -1    0    0  501  502  0.00000000000E+00 -0.00000000000E+00 -0.62067944454E+03  0.62067944454E+03  0.00000000000E+00 0. -1.
        -13    1    1    2    0    0  0.51347359799E+03  0.23606342845E+03  0.74023356401E+01  0.56518659204E+03  0.10566000000E+00 0.  1.
         13    1    1    2    0    0 -0.20993348373E+02 -0.30184305778E+03  0.99600014895E+02  0.31854375890E+03  0.10566000000E+00 0. -1.
          4    1    1    2  501    0 -0.49248024962E+03  0.65779629332E+02  0.33340328792E+02  0.49797121747E+03  0.00000000000E+00 0.  1.
</event>
<event>
 5    1  0.2540860E-005  0.6137315E+02  0.7818608E-02  0.1251364E+00
         21   -1    0    0  501  502  0.00000000000E+00  0.00000000000E+00  0.19926644057E+03  0.19926644057E+03  0.00000000000E+00 0. -1.
         -4   -1    0    0    0  501 -0.00000000000E+00 -0.00000000000E+00 -0.63739649895E+02  0.63739649895E+02  0.00000000000E+00 0. -1.
        -13    1    1    2    0    0  0.51726034019E+02 -0.23583466146E+01  0.19719993415E+02  0.55407884804E+02  0.10566000000E+00 0.  1.
         13    1    1    2    0    0 -0.67506442597E+02  0.73339812871E+01 -0.19999460736E+02  0.70787687258E+02  0.10566000000E+00 0. -1.
         -4    1    1    2    0  502  0.15780408578E+02 -0.49756346725E+01  0.13580625800E+03  0.13681051841E+03  0.00000000000E+00 0. -1.
</event>
<event>
 5    1  0.2540860E-005  0.1674676E+02  0.7818608E-02  0.1560906E+00
          4   -1    0    0  502    0 -0.00000000000E+00  0.00000000000E+00  0.12932308092E+02  0.12932308092E+02  0.00000000000E+00 0.  1.
         21   -1    0    0  501  502  0.00000000000E+00 -0.00000000000E+00 -0.49605635280E+02  0.49605635280E+02  0.00000000000E+00 0. -1.
        -13    1    1    2    0    0 -0.22970046947E+01 -0.12306130078E+02 -0.12712823955E+02  0.17842200677E+02  0.10566000000E+00 0.  1.
         13    1    1    2    0    0  0.14486371146E+02  0.18946124006E+02 -0.15091107627E+02  0.28223452257E+02  0.10566000000E+00 0. -1.
          4    1    1    2  501    0 -0.12189366451E+02 -0.66399939283E+01 -0.88693956058E+01  0.16472290438E+02  0.00000000000E+00 0.  1.
</event>
<event>
 5    1  0.2540860E-005  0.2910615E+03  0.7818608E-02  0.1025151E+00
          4   -1    0    0  502    0 -0.00000000000E+00  0.00000000000E+00  0.30530978462E+04  0.30530978462E+04  0.00000000000E+00 0.  1.
         21   -1    0    0  501  502  0.00000000000E+00 -0.00000000000E+00 -0.11639346823E+03  0.11639346823E+03  0.00000000000E+00 0. -1.
        -13    1    1    2    0    0 -0.25998519821E+03 -0.88899330977E+02  0.20530397969E+03  0.34299435794E+03  0.10566000000E+00 0.  1.
         13    1    1    2    0    0 -0.12210052878E+03 -0.14085312836E+03  0.29015826536E+03  0.34487675048E+03  0.10566000000E+00 0. -1.
          4    1    1    2  501    0  0.38208572700E+03  0.22975245934E+03  0.24412421329E+04  0.24816202060E+04  0.00000000000E+00 0.  1.
</event>
<event>
 5    1  0.2540860E-005  0.4992917E+03  0.7818608E-02  0.9796003E-01
         21   -1    0    0  501  502  0.00000000000E+00  0.00000000000E+00  0.26613339677E+03  0.26613339677E+03  0.00000000000E+00 0. -1.
         -4   -1    0    0    0  501 -0.00000000000E+00 -0.00000000000E+00 -0.15337886297E+04  0.15337886297E+04  0.00000000000E+00 0. -1.
        -13    1    1    2    0    0 -0.32357185271E+02 -0.16012672146E+03 -0.48395368938E+03  0.51078247718E+03  0.10566000000E+00 0.  1.
         13    1    1    2    0    0 -0.44515353181E+03 -0.92576391539E+02 -0.51087450681E+03  0.68390410733E+03  0.10566000000E+00 0. -1.
         -4    1    1    2    0  502  0.47751071708E+03  0.25270311300E+03 -0.27282703676E+03  0.60523544199E+03  0.00000000000E+00 0. -1.
</event>
<event>
 5    1  0.2540860E-005  0.4474690E+03  0.7818608E-02  0.9945880E-01
         21   -1    0    0  501  502  0.00000000000E+00  0.00000000000E+00  0.13071308857E+03  0.13071308857E+03  0.00000000000E+00 0.  1.
          4   -1    0    0  502    0 -0.00000000000E+00 -0.00000000000E+00 -0.28746763349E+04  0.28746763349E+04  0.00000000000E+00 0.  1.
        -13    1    1    2    0    0  0.30963092418E+03 -0.31078598793E+03 -0.46522417603E+03  0.63944724929E+03  0.10566000000E+00 0.  1.
         13    1    1    2    0    0 -0.74571220023E+02 -0.11498520218E+03 -0.72584944966E+03  0.73867441969E+03  0.10566000000E+00 0. -1.
          4    1    1    2  501    0 -0.23505970416E+03  0.42577119011E+03 -0.15528896206E+04  0.16272677545E+04  0.00000000000E+00 0.  1.
</event>
<event>
 5    1  0.2540860E-005  0.3940854E+03  0.7818608E-02  0.9746284E-01
         21   -1    0    0  501  502  0.00000000000E+00  0.00000000000E+00  0.42140792208E+03  0.42140792208E+03  0.00000000000E+00 0.  1.
          4   -1    0    0  502    0 -0.00000000000E+00 -0.00000000000E+00 -0.13455319780E+04  0.13455319780E+04  0.00000000000E+00 0.  1.
        -13    1    1    2    0    0 -0.17882687622E+03 -0.45065986040E+03 -0.63106908350E+03  0.79581502922E+03  0.10566000000E+00 0.  1.
         13    1    1    2    0    0  0.20204397356E+03  0.27950658090E+03 -0.55733190513E+03  0.65541174818E+03  0.10566000000E+00 0. -1.
          4    1    1    2  501    0 -0.23217097343E+02  0.17115327950E+03  0.26427693268E+03  0.31571312269E+03  0.00000000000E+00 0.  1.
</event>
<event>
 5    1  0.2540860E-005  0.1347788E+03  0.7818608E-02  0.1123389E+00
         21   -1    0    0  501  502  0.00000000000E+00  0.00000000000E+00  0.20579764368E+03  0.20579764368E+03  0.00000000000E+00 0.  1.
          4   -1    0    0  502    0 -0.00000000000E+00 -0.00000000000E+00 -0.18366851225E+04  0.18366851225E+04  0.00000000000E+00 0.  1.
        -13    1    1    2    0    0  0.12908172215E+03  0.31022729039E+02  0.16441522372E+03  0.21132173969E+03  0.10566000000E+00 0.  1.
         13    1    1    2    0    0  0.11458493139E+03  0.58177413793E+00 -0.53590420757E+03  0.54801767838E+03  0.10566000000E+00 0. -1.
          4    1    1    2  501    0 -0.24366665354E+03 -0.31604503177E+02 -0.12593984950E+04  0.12831433481E+04  0.00000000000E+00 0.  1.
</event>
<event>
 5    1  0.2540860E-005  0.8469787E+02  0.7818608E-02  0.1192703E+00
         21   -1    0    0  501  502  0.00000000000E+00  0.00000000000E+00  0.64221891216E+02  0.64221891216E+02  0.00000000000E+00 0.  1.
          4   -1    0    0  502    0 -0.00000000000E+00 -0.00000000000E+00 -0.53707663982E+03  0.53707663982E+03  0.00000000000E+00 0.  1.
        -13    1    1    2    0    0  0.75855208093E+02 -0.52582310716E+02 -0.42806998589E+03  0.43790733721E+03  0.10566000000E+00 0.  1.
         13    1    1    2    0    0 -0.62052496039E+02  0.27377438361E+02 -0.88239786749E+02  0.11129378925E+03  0.10566000000E+00 0. -1.
          4    1    1    2  501    0 -0.13802712054E+02  0.25204872355E+02  0.43455024034E+02  0.52097404582E+02  0.00000000000E+00 0.  1.
</event>
<event>
 5    1  0.2540860E-005  0.4996194E+03  0.7818608E-02  0.9685887E-01
          4   -1    0    0  502    0 -0.00000000000E+00  0.00000000000E+00  0.15787338297E+04  0.15787338297E+04  0.00000000000E+00 0.  1.
         21   -1    0    0  501  502  0.00000000000E+00 -0.00000000000E+00 -0.25513729282E+03  0.25513729282E+03  0.00000000000E+00 0.  1.
        -13    1    1    2    0    0 -0.39744009909E+03  0.41718518930E+03  0.52849833904E+03  0.78186483491E+03  0.10566000000E+00 0.  1.
         13    1    1    2    0    0  0.23842816925E+03 -0.61454430364E+01  0.19868151335E+03  0.31041925403E+03  0.10566000000E+00 0. -1.
          4    1    1    2  501    0  0.15901192985E+03 -0.41103974627E+03  0.59641668450E+03  0.74158703360E+03  0.00000000000E+00 0.  1.
</event>
<event>
 5    1  0.2540860E-005  0.4904534E+03  0.7818608E-02  0.1014941E+00
         21   -1    0    0  501  502  0.00000000000E+00  0.00000000000E+00  0.10349141445E+03  0.10349141445E+03  0.00000000000E+00 0. -1.
         -4   -1    0    0    0  501 -0.00000000000E+00 -0.00000000000E+00 -0.26972136913E+04  0.26972136913E+04  0.00000000000E+00 0. -1.
        -13    1    1    2    0    0  0.78134686419E+01 -0.53177134113E+02 -0.16283517447E+03  0.17147642139E+03  0.10566000000E+00 0.  1.
         13    1    1    2    0    0  0.37716875371E+03  0.33960819896E+03 -0.14708077773E+04  0.15559130845E+04  0.10566000000E+00 0. -1.
         -4    1    1    2    0  502 -0.38498222235E+03 -0.28643106484E+03 -0.96007932503E+03  0.10733155998E+04  0.00000000000E+00 0. -1.
</event>
<event>
 5    1  0.2540860E-005  0.3422270E+03  0.7818608E-02  0.9912581E-01
         21   -1    0    0  501  502  0.00000000000E+00  0.00000000000E+00  0.16971031678E+03  0.16971031678E+03  0.00000000000E+00 0.  1.
          4   -1    0    0  502    0 -0.00000000000E+00 -0.00000000000E+00 -0.13129213268E+04  0.13129213268E+04  0.00000000000E+00 0.  1.
        -13    1    1    2    0    0 -0.30139885287E+03 -0.26746330736E+03 -0.52276198344E+03  0.66004393171E+03  0.10566000000E+00 0.  1.
         13    1    1    2    0    0  0.30323039663E+03  0.93437300667E+02 -0.54973489198E+03  0.63473432649E+03  0.10566000000E+00 0. -1.
          4    1    1    2  501    0 -0.18315437675E+01  0.17402600669E+03 -0.70714134559E+02  0.18785338534E+03  0.00000000000E+00 0.  1.
</event>
<event>
 5    1  0.2540860E-005  0.4897614E+03  0.7818608E-02  0.9900751E-01
         21   -1    0    0  501  502  0.00000000000E+00  0.00000000000E+00  0.10366116248E+03  0.10366116248E+03  0.00000000000E+00 0. -1.
         -4   -1    0    0    0  501 -0.00000000000E+00 -0.00000000000E+00 -0.31471961081E+04  0.31471961081E+04  0.00000000000E+00 0. -1.
        -13    1    1    2    0    0  0.29226938227E+02 -0.11790116740E+03 -0.64986087161E+03  0.66111577111E+03  0.10566000000E+00 0.  1.
         13    1    1    2    0    0 -0.18305919162E+03 -0.40385657224E+03 -0.11361250979E+04  0.12195864249E+04  0.10566000000E+00 0. -1.
         -4    1    1    2    0  502  0.15383225340E+03  0.52175773964E+03 -0.12575489761E+04  0.13701550746E+04  0.00000000000E+00 0. -1.
</event>
<event>
 5    1  0.2540860E-005  0.4558781E+03  0.7818608E-02  0.9580304E-01
         -4   -1    0    0    0  501 -0.00000000000E+00  0.00000000000E+00  0.19642438328E+04  0.19642438328E+04  0.00000000000E+00 0. -1.
         21   -1    0    0  501  502  0.00000000000E+00 -0.00000000000E+00 -0.47748834438E+03  0.47748834438E+03  0.00000000000E+00 0.  1.
        -13    1    1    2    0    0 -0.53552740676E+03  0.42866685216E+03  0.72318216801E+03  0.99676342871E+03  0.10566000000E+00 0.  1.
         13    1    1    2    0    0  0.40225293648E+03 -0.50858091051E+02  0.92738574505E+03  0.10121453955E+04  0.10566000000E+00 0. -1.
         -4    1    1    2    0  502  0.13327447028E+03 -0.37780876111E+03 -0.16381242464E+03  0.43282335296E+03  0.00000000000E+00 0. -1.
</event>
<event>
 5    1  0.2540860E-005  0.3267786E+03  0.7818608E-02  0.9968270E-01
         21   -1    0    0  501  502  0.00000000000E+00  0.00000000000E+00  0.13415518683E+04  0.13415518683E+04  0.00000000000E+00 0. -1.
         -4   -1    0    0    0  501 -0.00000000000E+00 -0.00000000000E+00 -0.28299108800E+03  0.28299108800E+03  0.00000000000E+00 0. -1.
        -13    1    1    2    0    0  0.27177513784E+03 -0.19887301998E+03  0.44608505531E+02  0.33970889531E+03  0.10566000000E+00 0.  1.
         13    1    1    2    0    0 -0.26103117570E+03  0.18017962198E+03  0.50538756638E+02  0.32117930810E+03  0.10566000000E+00 0. -1.
         -4    1    1    2    0  502 -0.10743962134E+02  0.18693398000E+02  0.96341351810E+03  0.96365475286E+03  0.00000000000E+00 0. -1.
</event>
<event>
 5    1  0.2540860E-005  0.1005198E+03  0.7818608E-02  0.1173627E+00
         21   -1    0    0  501  502  0.00000000000E+00  0.00000000000E+00  0.63276593601E+03  0.63276593601E+03  0.00000000000E+00 0.  1.
          4   -1    0    0  502    0 -0.00000000000E+00 -0.00000000000E+00 -0.37519067704E+02  0.37519067704E+02  0.00000000000E+00 0.  1.
        -13    1    1    2    0    0  0.10501316220E+03 -0.49440918464E+02  0.18343120338E+03  0.21706954230E+03  0.10566000000E+00 0.  1.
         13    1    1    2    0    0 -0.66347343624E+02 -0.43254033438E+02  0.25479617577E+03  0.26682200765E+03  0.10566000000E+00 0. -1.
          4    1    1    2  501    0 -0.38665818576E+02  0.92694951902E+02  0.15701948915E+03  0.18639345377E+03  0.00000000000E+00 0.  1.
</event>
<event>
 5    1  0.2540860E-005  0.4938697E+03  0.7818608E-02  0.9678193E-01
         21   -1    0    0  501  502  0.00000000000E+00  0.00000000000E+00  0.23131359901E+03  0.23131359901E+03  0.00000000000E+00 0.  1.
          4   -1    0    0  502    0 -0.00000000000E+00 -0.00000000000E+00 -0.17535434444E+04  0.17535434444E+04  0.00000000000E+00 0.  1.
        -13    1    1    2    0    0 -0.16762899466E+03 -0.49453380106E+03 -0.58396156127E+03  0.78337365059E+03  0.10566000000E+00 0.  1.
         13    1    1    2    0    0 -0.19805727488E+03  0.15849234021E+03 -0.30513836500E+03  0.39680718113E+03  0.10566000000E+00 0. -1.
          4    1    1    2  501    0  0.36568626953E+03  0.33604146085E+03 -0.63312991908E+03  0.80467621163E+03  0.00000000000E+00 0.  1.
</event>
<event>
 5    1  0.2540860E-005  0.4627642E+03  0.7818608E-02  0.9575711E-01
          4   -1    0    0  502    0 -0.00000000000E+00  0.00000000000E+00  0.44533843499E+03  0.44533843499E+03  0.00000000000E+00 0.  1.
         21   -1    0    0  501  502  0.00000000000E+00 -0.00000000000E+00 -0.13329801746E+04  0.13329801746E+04  0.00000000000E+00 0.  1.
        -13    1    1    2    0    0 -0.31411262508E+03 -0.20694446304E+03 -0.27518717033E+03  0.46606946037E+03  0.10566000000E+00 0.  1.
         13    1    1    2    0    0  0.99858453425E+01 -0.44292950657E+03 -0.23300967027E+03  0.50057944675E+03  0.10566000000E+00 0. -1.
          4    1    1    2  501    0  0.30412677973E+03  0.64987396961E+03 -0.37944489901E+03  0.81166970247E+03  0.00000000000E+00 0.  1.
</event>
<event>
 5    1  0.2540860E-005  0.8619962E+03  0.7818608E-02  0.8916335E-01
         21   -1    0    0  501  502  0.00000000000E+00  0.00000000000E+00  0.13811764794E+04  0.13811764794E+04  0.00000000000E+00 0. -1.
          4   -1    0    0  502    0 -0.00000000000E+00 -0.00000000000E+00 -0.82574040045E+03  0.82574040045E+03  0.00000000000E+00 0.  1.
        -13    1    1    2    0    0  0.15959356380E+03  0.91512410369E+03 -0.13755158847E+03  0.93906479085E+03  0.10566000000E+00 0.  1.
         13    1    1    2    0    0 -0.34205119336E+03 -0.68042976634E+03  0.53945222916E+03  0.93326973834E+03  0.10566000000E+00 0. -1.
          4    1    1    2  501    0  0.18245762956E+03 -0.23469433735E+03  0.15353543823E+03  0.33458235065E+03  0.00000000000E+00 0.  1.
</event>
<event>
 5    1  0.2540860E-005  0.2224862E+03  0.7818608E-02  0.1045726E+00
         21   -1    0    0  501  502  0.00000000000E+00  0.00000000000E+00  0.72593559747E+03  0.72593559747E+03  0.00000000000E+00 0. -1.
          4   -1    0    0  502    0 -0.00000000000E+00 -0.00000000000E+00 -0.19763263087E+03  0.19763263087E+03  0.00000000000E+00 0.  1.
        -13    1    1    2    0    0 -0.22824355344E+03 -0.18146140902E+02 -0.85582337268E+02  0.24443557379E+03  0.10566000000E+00 0.  1.
         13    1    1    2    0    0  0.18000422689E+03  0.90461557240E+02  0.38989064678E+03  0.43886164408E+03  0.10566000000E+00 0. -1.
          4    1    1    2  501    0  0.48239326553E+02 -0.72315416338E+02  0.22399465709E+03  0.24027101047E+03  0.00000000000E+00 0.  1.
</event>
<event>
 5    1  0.2540860E-005  0.4250949E+03  0.7818608E-02  0.9682272E-01
          4   -1    0    0  502    0 -0.00000000000E+00  0.00000000000E+00  0.24477582433E+04  0.24477582433E+04  0.00000000000E+00 0.  1.
         21   -1    0    0  501  502  0.00000000000E+00 -0.00000000000E+00 -0.40419771849E+03  0.40419771849E+03  0.00000000000E+00 0. -1.
        -13    1    1    2    0    0 -0.10385218428E+03  0.50620474524E+02  0.60775461238E+03  0.61863833429E+03  0.10566000000E+00 0.  1.
         13    1    1    2    0    0  0.98411640070E+01  0.44248354684E+03  0.16345568402E+04  0.16934180266E+04  0.10566000000E+00 0. -1.
          4    1    1    2  501    0  0.94011020278E+02 -0.49310402136E+03 -0.19875092774E+03  0.53989960094E+03  0.00000000000E+00 0.  1.
</event>
<event>
 5    1  0.2540860E-005  0.1860041E+03  0.7818608E-02  0.1070179E+00
         21   -1    0    0  501  502  0.00000000000E+00  0.00000000000E+00  0.22031564207E+03  0.22031564207E+03  0.00000000000E+00 0.  1.
          4   -1    0    0  502    0 -0.00000000000E+00 -0.00000000000E+00 -0.48634361539E+03  0.48634361539E+03  0.00000000000E+00 0.  1.
        -13    1    1    2    0    0  0.18976853637E+03  0.10178188888E+02 -0.25089086937E+03  0.31474105614E+03  0.10566000000E+00 0.  1.
         13    1    1    2    0    0 -0.18029440871E+03 -0.15585585316E+02 -0.16306035884E+03  0.24359325949E+03  0.10566000000E+00 0. -1.
          4    1    1    2  501    0 -0.94741276626E+01  0.54073964282E+01  0.14792325488E+03  0.14832494182E+03  0.00000000000E+00 0.  1.
</event>
<event>
 5    1  0.2540860E-005  0.3867788E+03  0.7818608E-02  0.9768024E-01
         -4   -1    0    0    0  501 -0.00000000000E+00  0.00000000000E+00  0.47218334725E+03  0.47218334725E+03  0.00000000000E+00 0. -1.
         21   -1    0    0  501  502  0.00000000000E+00 -0.00000000000E+00 -0.87248753140E+03  0.87248753140E+03  0.00000000000E+00 0.  1.
        -13    1    1    2    0    0  0.15713899370E+02 -0.38234191796E+03  0.36399130971E+02  0.38439195720E+03  0.10566000000E+00 0.  1.
         13    1    1    2    0    0 -0.47017429509E+02  0.38795189716E+03  0.11523387710E+03  0.40742627650E+03  0.10566000000E+00 0. -1.
         -4    1    1    2    0  502  0.31303530139E+02 -0.56099792021E+01 -0.55193719222E+03  0.55285264494E+03  0.00000000000E+00 0. -1.
</event>
<event>
 5    1  0.2540860E-005  0.2814860E+03  0.7818608E-02  0.1037832E+00
         21   -1    0    0  501  502  0.00000000000E+00  0.00000000000E+00  0.13655945750E+04  0.13655945750E+04  0.00000000000E+00 0.  1.
          4   -1    0    0  502    0 -0.00000000000E+00 -0.00000000000E+00 -0.24446637204E+03  0.24446637204E+03  0.00000000000E+00 0.  1.
        -13    1    1    2    0    0 -0.20384440717E+03  0.19019781472E+03  0.10766473902E+04  0.11121588758E+04  0.10566000000E+00 0.  1.
         13    1    1    2    0    0 -0.11364728022E+03 -0.80780313049E+02  0.79098805736E+02  0.16030531966E+03  0.10566000000E+00 0. -1.
          4    1    1    2  501    0  0.31749168739E+03 -0.10941750167E+03 -0.34617992970E+02  0.33759675157E+03  0.00000000000E+00 0.  1.
</event>
<event>
 5    1  0.2540860E-005  0.4573799E+03  0.7818608E-02  0.9641192E-01
         21   -1    0    0  501  502  0.00000000000E+00  0.00000000000E+00  0.22037586735E+03  0.22037586735E+03  0.00000000000E+00 0.  1.
          4   -1    0    0  502    0 -0.00000000000E+00 -0.00000000000E+00 -0.22720800939E+04  0.22720800939E+04  0.00000000000E+00 0.  1.
        -13    1    1    2    0    0 -0.41361752496E+03  0.38797487655E+03 -0.10339739805E+04  0.11792820550E+04  0.10566000000E+00 0.  1.
         13    1    1    2    0    0 -0.31741603833E+02 -0.36228364766E+03 -0.60239325947E+03  0.70365802844E+03  0.10566000000E+00 0. -1.
          4    1    1    2  501    0  0.44535912879E+03 -0.25691228883E+02 -0.41533698660E+03  0.60951587779E+03  0.00000000000E+00 0.  1.
</event>
<event>
 5    1  0.2540860E-005  0.5013774E+03  0.7818608E-02  0.9560514E-01
         21   -1    0    0  501  502  0.00000000000E+00  0.00000000000E+00  0.71246326667E+03  0.71246326667E+03  0.00000000000E+00 0. -1.
         -4   -1    0    0    0  501 -0.00000000000E+00 -0.00000000000E+00 -0.95648390995E+03  0.95648390995E+03  0.00000000000E+00 0. -1.
        -13    1    1    2    0    0  0.34316198213E+03  0.13247985301E+03 -0.44988754918E+03  0.58112810593E+03  0.10566000000E+00 0.  1.
         13    1    1    2    0    0 -0.32298067221E+03 -0.54563581768E+03  0.22741002106E+03  0.67360989378E+03  0.10566000000E+00 0. -1.
         -4    1    1    2    0  502 -0.20181309923E+02  0.41315596467E+03 -0.21543115163E+02  0.41420917690E+03  0.00000000000E+00 0. -1.
</event>
<event>
 5    1  0.2540860E-005  0.6967533E+02  0.7818608E-02  0.1236906E+00
         -4   -1    0    0    0  501 -0.00000000000E+00  0.00000000000E+00  0.18120637157E+03  0.18120637157E+03  0.00000000000E+00 0. -1.
         21   -1    0    0  501  502  0.00000000000E+00 -0.00000000000E+00 -0.67373184891E+02  0.67373184891E+02  0.00000000000E+00 0.  1.
        -13    1    1    2    0    0 -0.62104649362E+02  0.34659161297E+02  0.49634739766E+02  0.86728677436E+02  0.10566000000E+00 0.  1.
         13    1    1    2    0    0  0.52873685490E+02  0.34401981519E+02  0.67125772304E+02  0.92114078300E+02  0.10566000000E+00 0. -1.
         -4    1    1    2    0  502  0.92309638719E+01 -0.69061142816E+02 -0.29273253930E+01  0.69736800722E+02  0.00000000000E+00 0. -1.
</event>
<event>
 5    1  0.2540860E-005  0.7668505E+02  0.7818608E-02  0.1213227E+00
         21   -1    0    0  501  502  0.00000000000E+00  0.00000000000E+00  0.76339366711E+02  0.76339366711E+02  0.00000000000E+00 0. -1.
          4   -1    0    0  502    0 -0.00000000000E+00 -0.00000000000E+00 -0.24480914406E+03  0.24480914406E+03  0.00000000000E+00 0.  1.
        -13    1    1    2    0    0  0.72159086883E+02 -0.13011135853E+02 -0.11427802704E+03  0.13577813559E+03  0.10566000000E+00 0.  1.
         13    1    1    2    0    0 -0.69568937568E+02 -0.63630118913E+02 -0.53063779681E+01  0.94428798141E+02  0.10566000000E+00 0. -1.
          4    1    1    2  501    0 -0.25901493154E+01  0.76641254766E+02 -0.48885372340E+02  0.90941577039E+02  0.00000000000E+00 0.  1.
</event>
<event>
 5    1  0.2540860E-005  0.1912219E+03  0.7818608E-02  0.1066326E+00
         21   -1    0    0  501  502  0.00000000000E+00  0.00000000000E+00  0.15591678474E+03  0.15591678474E+03  0.00000000000E+00 0. -1.
         -4   -1    0    0    0  501 -0.00000000000E+00 -0.00000000000E+00 -0.23071425966E+04  0.23071425966E+04  0.00000000000E+00 0. -1.
        -13    1    1    2    0    0  0.11385363378E+03  0.92709086954E+02 -0.76268569680E+03  0.77668984029E+03  0.10566000000E+00 0.  1.
         13    1    1    2    0    0 -0.25100249562E+03 -0.11474475930E+03 -0.14893696751E+04  0.15147246129E+04  0.10566000000E+00 0. -1.
         -4    1    1    2    0  502  0.13714886184E+03  0.22035672348E+02  0.10082956009E+03  0.17164492812E+03  0.00000000000E+00 0. -1.
</event>
<event>
 5    1  0.2540860E-005  0.3643626E+03  0.7818608E-02  0.9926605E-01
          4   -1    0    0  502    0 -0.00000000000E+00  0.00000000000E+00  0.19945030186E+04  0.19945030186E+04  0.00000000000E+00 0.  1.
         21   -1    0    0  501  502  0.00000000000E+00 -0.00000000000E+00 -0.24382879616E+03  0.24382879616E+03  0.00000000000E+00 0.  1.
        -13    1    1    2    0    0  0.32549892045E+03  0.45060082136E+03  0.92995132685E+03  0.10834205688E+04  0.10566000000E+00 0.  1.
         13    1    1    2    0    0 -0.48250803831E+02 -0.26628468113E+03  0.77247716221E+03  0.81850879578E+03  0.10566000000E+00 0. -1.
          4    1    1    2  501    0 -0.27724811662E+03 -0.18431614023E+03  0.48245733427E+02  0.33640245022E+03  0.00000000000E+00 0.  1.
</event>
<event>
 5    1  0.2540860E-005  0.3943254E+03  0.7818608E-02  0.9754827E-01
         21   -1    0    0  501  502  0.00000000000E+00  0.00000000000E+00  0.91764785562E+03  0.91764785562E+03  0.00000000000E+00 0.  1.
          4   -1    0    0  502    0 -0.00000000000E+00 -0.00000000000E+00 -0.23999349409E+04  0.23999349409E+04  0.00000000000E+00 0.  1.
        -13    1    1    2    0    0  0.33776610623E+03  0.96350323492E+01  0.40572807639E+03  0.52800952596E+03  0.10566000000E+00 0.  1.
         13    1    1    2    0    0  0.28584070839E+03 -0.25333848914E+03 -0.20625874266E+04  0.20976539763E+04  0.10566000000E+00 0. -1.
          4    1    1    2  501    0 -0.62360681462E+03  0.24370345679E+03  0.17457226496E+03  0.69191929427E+03  0.00000000000E+00 0.  1.
</event>
<event>
 5    1  0.2540860E-005  0.4229195E+03  0.7818608E-02  0.1008692E+00
         21   -1    0    0  501  502  0.00000000000E+00  0.00000000000E+00  0.19029934546E+03  0.19029934546E+03  0.00000000000E+00 0.  1.
          4   -1    0    0  502    0 -0.00000000000E+00 -0.00000000000E+00 -0.16144890256E+04  0.16144890256E+04  0.00000000000E+00 0.  1.
        -13    1    1    2    0    0  0.30259838522E+03  0.26602390671E+03 -0.21021077946E+03  0.45444810996E+03  0.10566000000E+00 0.  1.
         13    1    1    2    0    0  0.18808993728E+02  0.10065456852E+03 -0.24685843318E+03  0.26725309653E+03  0.10566000000E+00 0. -1.
          4    1    1    2  501    0 -0.32140737895E+03 -0.36667847522E+03 -0.96712046754E+03  0.10830871646E+04  0.00000000000E+00 0.  1.
</event>
<event>
 5    1  0.2540860E-005  0.2774631E+03  0.7818608E-02  0.1017067E+00
         21   -1    0    0  501  502  0.00000000000E+00  0.00000000000E+00  0.11286527261E+03  0.11286527261E+03  0.00000000000E+00 0. -1.
         -4   -1    0    0    0  501 -0.00000000000E+00 -0.00000000000E+00 -0.18234730309E+04  0.18234730309E+04  0.00000000000E+00 0. -1.
        -13    1    1    2    0    0  0.28312885939E+03  0.60320647853E+02 -0.12485362658E+04  0.12816564866E+04  0.10566000000E+00 0.  1.
         13    1    1    2    0    0 -0.25845764753E+03 -0.38449270797E+01 -0.51318948436E+03  0.57461169241E+03  0.10566000000E+00 0. -1.
         -4    1    1    2    0  502 -0.24671211858E+02 -0.56475720773E+02  0.51117991896E+02  0.80070124434E+02  0.00000000000E+00 0. -1.
</event>
<event>
 5    1  0.2540860E-005  0.4060348E+03  0.7818608E-02  0.9864648E-01
         -4   -1    0    0    0  501 -0.00000000000E+00  0.00000000000E+00  0.20373604258E+04  0.20373604258E+04  0.00000000000E+00 0. -1.
         21   -1    0    0  501  502  0.00000000000E+00 -0.00000000000E+00 -0.15778170547E+03  0.15778170547E+03  0.00000000000E+00 0.  1.
        -13    1    1    2    0    0 -0.15040363287E+03  0.18784970460E+03  0.71497991712E+03  0.75439052045E+03  0.10566000000E+00 0.  1.
         13    1    1    2    0    0  0.44377277319E+03 -0.27848116004E+03  0.58839007981E+03  0.78783813560E+03  0.10566000000E+00 0. -1.
         -4    1    1    2    0  502 -0.29336914032E+03  0.90631455442E+02  0.57620872338E+03  0.65291347521E+03  0.00000000000E+00 0. -1.
</event>
<event>
 5    1  0.2833394E-005  0.4650222E+03  0.7818608E-02  0.9915548E-01
         -4   -1    0    0    0  501 -0.00000000000E+00  0.00000000000E+00  0.21394862715E+04  0.21394862715E+04  0.00000000000E+00 0. -1.
         21   -1    0    0  501  502  0.00000000000E+00 -0.00000000000E+00 -0.60859661798E+03  0.60859661798E+03  0.00000000000E+00 0.  1.
        -13    1    1    2    0    0  0.62609827592E+03  0.63888279060E+03  0.36874774416E+03  0.96754595820E+03  0.10566000000E+00 0.  1.
         13    1    1    2    0    0  0.12415141055E+03 -0.21267020051E+03  0.81340659899E+03  0.84986616203E+03  0.10566000000E+00 0. -1.
         -4    1    1    2    0  502 -0.75024968647E+03 -0.42621259009E+03  0.34873531033E+03  0.93067076921E+03  0.00000000000E+00 0. -1.
</event>
<event>
 5    1  0.2540860E-005  0.2770080E+03  0.7818608E-02  0.1017275E+00
         -4   -1    0    0    0  501 -0.00000000000E+00  0.00000000000E+00  0.56528591822E+03  0.56528591822E+03  0.00000000000E+00 0. -1.
         21   -1    0    0  501  502  0.00000000000E+00 -0.00000000000E+00 -0.10366612569E+04  0.10366612569E+04  0.00000000000E+00 0. -1.
        -13    1    1    2    0    0  0.26928778785E+03 -0.91332204130E+01  0.21574003333E+03  0.34517111922E+03  0.10566000000E+00 0.  1.
         13    1    1    2    0    0 -0.38363608476E+03  0.10505465766E+03 -0.90736493281E+03  0.99071906163E+03  0.10566000000E+00 0. -1.
         -4    1    1    2    0  502  0.11434829690E+03 -0.95921437246E+02  0.22024956084E+03  0.26605699423E+03  0.00000000000E+00 0. -1.
</event>
<event>
 5    1  0.2540860E-005  0.3267166E+03  0.7818608E-02  0.9968500E-01
         21   -1    0    0  501  502  0.00000000000E+00  0.00000000000E+00  0.34948240284E+03  0.34948240284E+03  0.00000000000E+00 0.  1.
          4   -1    0    0  502    0 -0.00000000000E+00 -0.00000000000E+00 -0.83793533844E+03  0.83793533844E+03  0.00000000000E+00 0.  1.
        -13    1    1    2    0    0 -0.10183165015E+03  0.38681318959E+03 -0.53229876689E+03  0.66583490221E+03  0.10566000000E+00 0.  1.
         13    1    1    2    0    0  0.34109433568E+02 -0.24520396432E+03 -0.13633037715E+03  0.28262062996E+03  0.10566000000E+00 0. -1.
          4    1    1    2  501    0  0.67722216578E+02 -0.14160922526E+03  0.18017620844E+03  0.23896220912E+03  0.00000000000E+00 0.  1.
</event>
<event>
 5    1  0.2540860E-005  0.5515193E+02  0.7818608E-02  0.1272124E+00
          4   -1    0    0  502    0 -0.00000000000E+00  0.00000000000E+00  0.22695145931E+02  0.22695145931E+02  0.00000000000E+00 0.  1.
         21   -1    0    0  501  502  0.00000000000E+00 -0.00000000000E+00 -0.38222010892E+03  0.38222010892E+03  0.00000000000E+00 0. -1.
        -13    1    1    2    0    0 -0.54187861018E+02 -0.12989263145E+01 -0.20476344875E+02  0.57942241541E+02  0.10566000000E+00 0.  1.
         13    1    1    2    0    0  0.61688695676E+02  0.95243537105E+01 -0.27846302864E+03  0.28537322574E+03  0.10566000000E+00 0. -1.
          4    1    1    2  501    0 -0.75008346578E+01 -0.82254273960E+01 -0.60585589478E+02  0.61599787571E+02  0.00000000000E+00 0.  1.
</event>
<event>
 5    1  0.2540860E-005  0.3529466E+03  0.7818608E-02  0.1026043E+00
         -4   -1    0    0    0  501 -0.00000000000E+00  0.00000000000E+00  0.43355099932E+03  0.43355099932E+03  0.00000000000E+00 0. -1.
         21   -1    0    0  501  502  0.00000000000E+00 -0.00000000000E+00 -0.13553845767E+04  0.13553845767E+04  0.00000000000E+00 0. -1.
        -13    1    1    2    0    0 -0.72783753881E+02  0.70996947728E+02  0.24713003439E+03  0.26722894019E+03  0.10566000000E+00 0.  1.
         13    1    1    2    0    0 -0.33679773874E+02 -0.39973578012E+03 -0.12215274346E+03  0.41933796033E+03  0.10566000000E+00 0. -1.
         -4    1    1    2    0  502  0.10646352776E+03  0.32873883240E+03 -0.10468108683E+04  0.11023686755E+04  0.00000000000E+00 0. -1.
</event>
<event>
 5    1  0.2540860E-005  0.1122937E+03  0.7818608E-02  0.1145677E+00
         -4   -1    0    0    0  501 -0.00000000000E+00  0.00000000000E+00  0.28996160258E+03  0.28996160258E+03  0.00000000000E+00 0. -1.
         21   -1    0    0  501  502  0.00000000000E+00 -0.00000000000E+00 -0.15938328051E+04  0.15938328051E+04  0.00000000000E+00 0. -1.
        -13    1    1    2    0    0  0.39033931233E+02 -0.10890833840E+03  0.10273759736E+03  0.15472459092E+03  0.10566000000E+00 0.  1.
         13    1    1    2    0    0  0.15693381994E+01  0.11285786683E+03  0.14117541279E+03  0.18074808234E+03  0.10566000000E+00 0. -1.
         -4    1    1    2    0  502 -0.40603269433E+02 -0.39495284348E+01 -0.15477842127E+04  0.15483217344E+04  0.00000000000E+00 0. -1.
</event>
<event>
 5    1  0.2540860E-005  0.4544088E+03  0.7818608E-02  0.9836312E-01
         -4   -1    0    0    0  501 -0.00000000000E+00  0.00000000000E+00  0.25242325895E+04  0.25242325895E+04  0.00000000000E+00 0. -1.
         21   -1    0    0  501  502  0.00000000000E+00 -0.00000000000E+00 -0.15480504659E+03  0.15480504659E+03  0.00000000000E+00 0. -1.
        -13    1    1    2    0    0  0.51920350874E+02 -0.18165889007E+03  0.66689444169E+03  0.69314059374E+03  0.10566000000E+00 0.  1.
         13    1    1    2    0    0  0.32339294868E+03  0.40629431861E+03  0.12640217183E+04  0.13665317370E+04  0.10566000000E+00 0. -1.
         -4    1    1    2    0  502 -0.37531329955E+03 -0.22463542854E+03  0.43851138289E+03  0.61936530538E+03  0.00000000000E+00 0. -1.
</event>
<event>
 5    1  0.2540860E-005  0.2479837E+03  0.7818608E-02  0.1037582E+00
         21   -1    0    0  501  502  0.00000000000E+00  0.00000000000E+00  0.75823634657E+02  0.75823634657E+02  0.00000000000E+00 0.  1.
          4   -1    0    0  502    0 -0.00000000000E+00 -0.00000000000E+00 -0.29148862602E+04  0.29148862602E+04  0.00000000000E+00 0.  1.
        -13    1    1    2    0    0 -0.14439121272E+03 -0.39691897831E+03 -0.17749311451E+04  0.18244928278E+04  0.10566000000E+00 0.  1.
         13    1    1    2    0    0  0.82947893495E+02  0.18799748911E+03 -0.78906930355E+03  0.81538566698E+03  0.10566000000E+00 0. -1.
          4    1    1    2  501    0  0.61443319223E+02  0.20892148920E+03 -0.27506217688E+03  0.35083140007E+03  0.00000000000E+00 0.  1.
</event>
<event>
 5    1  0.2540860E-005  0.4938432E+03  0.7818608E-02  0.9744873E-01
         -4   -1    0    0    0  501 -0.00000000000E+00  0.00000000000E+00  0.62377852874E+03  0.62377852874E+03  0.00000000000E+00 0. -1.
         21   -1    0    0  501  502  0.00000000000E+00 -0.00000000000E+00 -0.73747319142E+03  0.73747319142E+03  0.00000000000E+00 0. -1.
        -13    1    1    2    0    0 -0.71943599722E+02  0.18793826628E+03  0.21208162297E+03  0.29236159022E+03  0.10566000000E+00 0.  1.
         13    1    1    2    0    0  0.94442241841E+02 -0.59836564773E+03 -0.21966987598E+03  0.64437229224E+03  0.10566000000E+00 0. -1.
         -4    1    1    2    0  502 -0.22498642119E+02  0.41042738145E+03 -0.10610640968E+03  0.42451783769E+03  0.00000000000E+00 0. -1.
</event>
<event>
 5    1  0.2804285E-005  0.1258666E+03  0.7818608E-02  0.1134667E+00
         21   -1    0    0  501  502  0.00000000000E+00  0.00000000000E+00  0.61127496140E+03  0.61127496140E+03  0.00000000000E+00 0.  1.
          4   -1    0    0  502    0 -0.00000000000E+00 -0.00000000000E+00 -0.53710798341E+03  0.53710798341E+03  0.00000000000E+00 0.  1.
        -13    1    1    2    0    0 -0.13052584790E+03 -0.13536808711E+01 -0.41694752867E+03  0.43690282930E+03  0.10566000000E+00 0.  1.
         13    1    1    2    0    0  0.47395858588E+02 -0.93988413184E+02 -0.76382929742E+02  0.13005595851E+03  0.10566000000E+00 0. -1.
          4    1    1    2  501    0  0.83129989312E+02  0.95342094055E+02  0.56749743640E+03  0.58142415700E+03  0.00000000000E+00 0.  1.
</event>
<event>
 5    1  0.2540860E-005  0.4635331E+03  0.7818608E-02  0.9582927E-01
          4   -1    0    0  502    0 -0.00000000000E+00  0.00000000000E+00  0.26540066998E+04  0.26540066998E+04  0.00000000000E+00 0.  1.
         21   -1    0    0  501  502  0.00000000000E+00 -0.00000000000E+00 -0.23233701102E+03  0.23233701102E+03  0.00000000000E+00 0.  1.
        -13    1    1    2    0    0 -0.83820356306E+02  0.34003306490E+03  0.48083421939E+03  0.59485283479E+03  0.10566000000E+00 0.  1.
         13    1    1    2    0    0 -0.45219647401E+03  0.16535516995E+03  0.77701536523E+03  0.91409894011E+03  0.10566000000E+00 0. -1.
          4    1    1    2  501    0  0.53601683032E+03 -0.50538823485E+03  0.11638201041E+04  0.13773919359E+04  0.00000000000E+00 0.  1.
</event>
<event>
 5    1  0.2540860E-005  0.4873800E+03  0.7818608E-02  0.9710713E-01
         -4   -1    0    0    0  501 -0.00000000000E+00  0.00000000000E+00  0.15349452513E+04  0.15349452513E+04  0.00000000000E+00 0. -1.
         21   -1    0    0  501  502  0.00000000000E+00 -0.00000000000E+00 -0.64586483343E+03  0.64586483343E+03  0.00000000000E+00 0. -1.
        -13    1    1    2    0    0 -0.11707321724E+03  0.20450380662E+03  0.11205352109E+04  0.11450445909E+04  0.10566000000E+00 0.  1.
         13    1    1    2    0    0 -0.31802442222E+03 -0.41515170520E+03 -0.79057086910E+02  0.52890500623E+03  0.10566000000E+00 0. -1.
         -4    1    1    2    0  502  0.43509763947E+03  0.21064789859E+03 -0.15239770613E+03  0.50686048759E+03  0.00000000000E+00 0. -1.
</event>
<event>
 5    1  0.2540860E-005  0.6109739E+02  0.7818608E-02  0.1292856E+00
         21   -1    0    0  501  502  0.00000000000E+00  0.00000000000E+00  0.87591031149E+02  0.87591031149E+02  0.00000000000E+00 0.  1.
          4   -1    0    0  502    0 -0.00000000000E+00 -0.00000000000E+00 -0.24742005030E+03  0.24742005030E+03  0.00000000000E+00 0.  1.
        -13    1    1    2    0    0 -0.35530628370E+02 -0.11003084745E+02 -0.21878882915E+03  0.22192804318E+03  0.10566000000E+00 0.  1.
         13    1    1    2    0    0 -0.23007349734E+02 -0.13813293920E+02  0.37225095536E+02  0.45889695275E+02  0.10566000000E+00 0. -1.
          4    1    1    2  501    0  0.58537978104E+02  0.24816378665E+02  0.21734714458E+02  0.67193342997E+02  0.00000000000E+00 0.  1.
</event>
<event>
 5    1  0.2540860E-005  0.5103914E+03  0.7818608E-02  0.9455483E-01
         21   -1    0    0  501  502  0.00000000000E+00  0.00000000000E+00  0.21888956104E+03  0.21888956104E+03  0.00000000000E+00 0.  1.
          4   -1    0    0  502    0 -0.00000000000E+00 -0.00000000000E+00 -0.25710848493E+04  0.25710848493E+04  0.00000000000E+00 0.  1.
        -13    1    1    2    0    0 -0.55155045383E+03  0.44418711601E+03 -0.13251365643E+04  0.15024969292E+04  0.10566000000E+00 0.  1.
         13    1    1    2    0    0  0.37185754232E+03 -0.15731205861E+03 -0.74281439964E+03  0.84545748506E+03  0.10566000000E+00 0. -1.
          4    1    1    2  501    0  0.17969291150E+03 -0.28687505740E+03 -0.28424432433E+03  0.44201999606E+03  0.00000000000E+00 0.  1.
</event>
<event>
 5    1  0.2540860E-005  0.3302913E+02  0.7818608E-02  0.1382117E+00
         21   -1    0    0  501  502  0.00000000000E+00  0.00000000000E+00  0.49605920393E+02  0.49605920393E+02  0.00000000000E+00 0. -1.
         -4   -1    0    0    0  501 -0.00000000000E+00 -0.00000000000E+00 -0.10979923086E+03  0.10979923086E+03  0.00000000000E+00 0. -1.
        -13    1    1    2    0    0  0.61159066671E+01  0.33165842254E+02 -0.88990239766E+02  0.95166440221E+02  0.10566000000E+00 0.  1.
         13    1    1    2    0    0  0.16692212448E+02 -0.28843400589E+02  0.22418393198E+02  0.40164253156E+02  0.10566000000E+00 0. -1.
         -4    1    1    2    0  502 -0.22808119115E+02 -0.43224416645E+01  0.63785360961E+01  0.24074457880E+02  0.00000000000E+00 0. -1.
</event>
<event>
 5    1  0.2540860E-005  0.4380812E+03  0.7818608E-02  0.1018158E+00
         21   -1    0    0  501  502  0.00000000000E+00  0.00000000000E+00  0.10477017971E+04  0.10477017971E+04  0.00000000000E+00 0.  1.
          4   -1    0    0  502    0 -0.00000000000E+00 -0.00000000000E+00 -0.38477756020E+03  0.38477756020E+03  0.00000000000E+00 0.  1.
        -13    1    1    2    0    0 -0.11417252445E+03  0.41659560858E+03  0.69359386937E+03  0.81710448121E+03  0.10566000000E+00 0.  1.
         13    1    1    2    0    0 -0.67863108319E+02  0.56920351102E+01 -0.12831773980E+03  0.14526959161E+03  0.10566000000E+00 0. -1.
          4    1    1    2  501    0  0.18203563277E+03 -0.42228764369E+03  0.97648107302E+02  0.47010528445E+03  0.00000000000E+00 0.  1.
</event>
<event>
 5    1  0.2540860E-005  0.4149921E+02  0.7818608E-02  0.1330881E+00
         -4   -1    0    0    0  501 -0.00000000000E+00  0.00000000000E+00  0.17756091743E+03  0.17756091743E+03  0.00000000000E+00 0. -1.
         21   -1    0    0  501  502  0.00000000000E+00 -0.00000000000E+00 -0.61077296151E+02  0.61077296151E+02  0.00000000000E+00 0.  1.
        -13    1    1    2    0    0  0.21114584403E+02 -0.19932286146E+02 -0.31899819290E+02  0.43136195246E+02  0.10566000000E+00 0.  1.
         13    1    1    2    0    0 -0.39726134085E+02  0.15233194309E+02  0.16482487071E+03  0.17022768608E+03  0.10566000000E+00 0. -1.
         -4    1    1    2    0  502  0.18611549682E+02  0.46990918364E+01 -0.16441430146E+02  0.25274332254E+02  0.00000000000E+00 0. -1.
</event>
<event>
 5    1  0.2540860E-005  0.3753588E+03  0.7818608E-02  0.1005810E+00
         -4   -1    0    0    0  501 -0.00000000000E+00  0.00000000000E+00  0.19112965121E+04  0.19112965121E+04  0.00000000000E+00 0. -1.
         21   -1    0    0  501  502  0.00000000000E+00 -0.00000000000E+00 -0.21552758265E+03  0.21552758265E+03  0.00000000000E+00 0. -1.
        -13    1    1    2    0    0  0.30617568546E+02 -0.15780970696E+03  0.68763198648E+03  0.70617214552E+03  0.10566000000E+00 0.  1.
         13    1    1    2    0    0  0.96096728714E+02 -0.33377779141E+03  0.70516540094E+02  0.35442176697E+03  0.10566000000E+00 0. -1.
         -4    1    1    2    0  502 -0.12671429726E+03  0.49158749837E+03  0.93762040285E+03  0.10662301822E+04  0.00000000000E+00 0. -1.
</event>
<event>
 5    1  0.2540860E-005  0.4870557E+03  0.7818608E-02  0.9656493E-01
         21   -1    0    0  501  502  0.00000000000E+00  0.00000000000E+00  0.92212950809E+03  0.92212950809E+03  0.00000000000E+00 0.  1.
          4   -1    0    0  502    0 -0.00000000000E+00 -0.00000000000E+00 -0.51080456374E+03  0.51080456374E+03  0.00000000000E+00 0.  1.
        -13    1    1    2    0    0 -0.60300816736E+03 -0.90769346192E+02  0.51489867469E+03  0.79810937876E+03  0.10566000000E+00 0.  1.
         13    1    1    2    0    0  0.28474547271E+03 -0.18893018523E+02 -0.84674114017E+02  0.29766868684E+03  0.10566000000E+00 0. -1.
          4    1    1    2  501    0  0.31826269464E+03  0.10966236472E+03 -0.18899616317E+02  0.33715600623E+03  0.00000000000E+00 0.  1.
</event>
<event>
 5    1  0.2540860E-005  0.9345187E+02  0.7818608E-02  0.1175869E+00
          4   -1    0    0  502    0 -0.00000000000E+00  0.00000000000E+00  0.24334634377E+03  0.24334634377E+03  0.00000000000E+00 0.  1.
         21   -1    0    0  501  502  0.00000000000E+00 -0.00000000000E+00 -0.22648138802E+03  0.22648138802E+03  0.00000000000E+00 0. -1.
        -13    1    1    2    0    0 -0.89939132451E+02 -0.21700581979E+02  0.21243565896E+03  0.23170861695E+03  0.10566000000E+00 0.  1.
         13    1    1    2    0    0  0.10579098746E+03  0.18085028940E+02 -0.12075348787E+03  0.16155561673E+03  0.10566000000E+00 0. -1.
          4    1    1    2  501    0 -0.15851855006E+02  0.36155530393E+01 -0.74817215344E+02  0.76563498109E+02  0.00000000000E+00 0.  1.
</event>
<event>
 5    1  0.2540860E-005  0.1008008E+03  0.7818608E-02  0.1178349E+00
         21   -1    0    0  501  502  0.00000000000E+00  0.00000000000E+00  0.45469002994E+03  0.45469002994E+03  0.00000000000E+00 0. -1.
         -4   -1    0    0    0  501 -0.00000000000E+00 -0.00000000000E+00 -0.10028741416E+03  0.10028741416E+03  0.00000000000E+00 0. -1.
        -13    1    1    2    0    0  0.80934846710E+01 -0.69753582202E+02  0.23215053426E+03  0.24253855043E+03  0.10566000000E+00 0.  1.
         13    1    1    2    0    0 -0.38361012917E+00 -0.41624034283E+02 -0.75003476111E+02  0.85780184072E+02  0.10566000000E+00 0. -1.
         -4    1    1    2    0  502 -0.77098745418E+01  0.11137761648E+03  0.19725555763E+03  0.22665870960E+03  0.00000000000E+00 0. -1.
</event>
<event>
 5    1  0.2540860E-005  0.2933519E+03  0.7818608E-02  0.1010088E+00
          4   -1    0    0  502    0 -0.00000000000E+00  0.00000000000E+00  0.80929797327E+03  0.80929797327E+03  0.00000000000E+00 0.  1.
         21   -1    0    0  501  502  0.00000000000E+00 -0.00000000000E+00 -0.14005182176E+03  0.14005182176E+03  0.00000000000E+00 0. -1.
        -13    1    1    2    0    0  0.12339930974E+03 -0.27329651806E+03  0.47261576682E+03  0.55971783127E+03  0.10566000000E+00 0.  1.
         13    1    1    2    0    0 -0.90113532663E+02  0.26890274232E+03  0.21062336390E+03  0.35325818629E+03  0.10566000000E+00 0. -1.
          4    1    1    2  501    0 -0.33285777074E+02  0.43937757432E+01 -0.13992979199E+02  0.36373777471E+02  0.00000000000E+00 0.  1.
</event>
<event>
 5    1  0.2540860E-005  0.5334498E+03  0.7818608E-02  0.9407524E-01
         21   -1    0    0  501  502  0.00000000000E+00  0.00000000000E+00  0.49209590023E+03  0.49209590023E+03  0.00000000000E+00 0. -1.
          4   -1    0    0  502    0 -0.00000000000E+00 -0.00000000000E+00 -0.68765704455E+03  0.68765704455E+03  0.00000000000E+00 0.  1.
        -13    1    1    2    0    0 -0.21904843140E+03  0.49040173231E+03 -0.29048407579E+03  0.61062024516E+03  0.10566000000E+00 0.  1.
         13    1    1    2    0    0  0.18649799317E+03 -0.49268016793E+03  0.99718605434E+02  0.53615208735E+03  0.10566000000E+00 0. -1.
          4    1    1    2  501    0  0.32550438225E+02  0.22784356254E+01 -0.47956739594E+01  0.32980612278E+02  0.00000000000E+00 0.  1.
</event>
<event>
 5    1  0.2540860E-005  0.4569657E+03  0.7818608E-02  0.9659047E-01
         21   -1    0    0  501  502  0.00000000000E+00  0.00000000000E+00  0.30512692232E+03  0.30512692232E+03  0.00000000000E+00 0. -1.
         -4   -1    0    0    0  501 -0.00000000000E+00 -0.00000000000E+00 -0.15974548664E+04  0.15974548664E+04  0.00000000000E+00 0. -1.
        -13    1    1    2    0    0  0.41180121208E+02 -0.33996640799E+03 -0.49959972060E+03  0.60570029960E+03  0.10566000000E+00 0.  1.
         13    1    1    2    0    0  0.42210218887E+03  0.30831833491E+03 -0.59550124829E+03  0.79237125223E+03  0.10566000000E+00 0. -1.
         -4    1    1    2    0  502 -0.46328231008E+03  0.31648073084E+02 -0.19722697515E+03  0.50451023685E+03  0.00000000000E+00 0. -1.
</event>
<event>
 5    1  0.2540860E-005  0.1840492E+02  0.7818608E-02  0.1546536E+00
         21   -1    0    0  501  502  0.00000000000E+00  0.00000000000E+00  0.44062174953E+02  0.44062174953E+02  0.00000000000E+00 0. -1.
          4   -1    0    0  502    0 -0.00000000000E+00 -0.00000000000E+00 -0.36107529173E+02  0.36107529173E+02  0.00000000000E+00 0.  1.
        -13    1    1    2    0    0  0.14280579493E+02 -0.67562337331E+01 -0.22784344263E+02  0.27725784974E+02  0.10566000000E+00 0.  1.
         13    1    1    2    0    0 -0.17668572228E+02 -0.11334162871E+02  0.64319524981E+01  0.21955019233E+02  0.10566000000E+00 0. -1.
          4    1    1    2  501    0  0.33879927347E+01  0.18090396604E+02  0.24307037544E+02  0.30488899919E+02  0.00000000000E+00 0.  1.
</event>
<event>
 5    1  0.2540860E-005  0.5967181E+02  0.7818608E-02  0.1284954E+00
         -4   -1    0    0    0  501 -0.00000000000E+00  0.00000000000E+00  0.94893995318E+02  0.94893995318E+02  0.00000000000E+00 0. -1.
         21   -1    0    0  501  502  0.00000000000E+00 -0.00000000000E+00 -0.21869259798E+03  0.21869259798E+03  0.00000000000E+00 0. -1.
        -13    1    1    2    0    0 -0.88956930227E+02 -0.14714935173E+01 -0.59475885802E+02  0.10701818950E+03  0.10566000000E+00 0.  1.
         13    1    1    2    0    0  0.29823749048E+02  0.94709541236E+01  0.60557282985E+02  0.68164145016E+02  0.10566000000E+00 0. -1.
         -4    1    1    2    0  502  0.59133181179E+02 -0.79994606063E+01 -0.12487999984E+03  0.13840425877E+03  0.00000000000E+00 0. -1.
</event>
<event>
 5    1  0.2540860E-005  0.4838204E+03  0.7818608E-02  0.9991499E-01
         21   -1    0    0  501  502  0.00000000000E+00  0.00000000000E+00  0.10560159391E+04  0.10560159391E+04  0.00000000000E+00 0. -1.
         -4   -1    0    0    0  501 -0.00000000000E+00 -0.00000000000E+00 -0.32053458730E+03  0.32053458730E+03  0.00000000000E+00 0. -1.
        -13    1    1    2    0    0  0.25930983498E+02 -0.89597098733E+02 -0.37068362038E+02  0.10036996879E+03  0.10566000000E+00 0.  1.
         13    1    1    2    0    0  0.46332077071E+03 -0.23416555504E+01  0.16753392926E+03  0.49268575029E+03  0.10566000000E+00 0. -1.
         -4    1    1    2    0  502 -0.48925175421E+03  0.91938754284E+02  0.60501578462E+03  0.78349480737E+03  0.00000000000E+00 0. -1.
</event>
<event>
 5    1  0.2540860E-005  0.6838731E+02  0.7818608E-02  0.1269038E+00
         -4   -1    0    0    0  501 -0.00000000000E+00  0.00000000000E+00  0.41011971907E+03  0.41011971907E+03  0.00000000000E+00 0. -1.
         21   -1    0    0  501  502  0.00000000000E+00 -0.00000000000E+00 -0.68868046844E+03  0.68868046844E+03  0.00000000000E+00 0. -1.
        -13    1    1    2    0    0 -0.22142234964E+02 -0.21406215150E+02 -0.40333834743E+02  0.50747748772E+02  0.10566000000E+00 0.  1.
         13    1    1    2    0    0  0.55563744391E+02 -0.38298510348E+02  0.40026035250E+03  0.40590943144E+03  0.10566000000E+00 0. -1.
         -4    1    1    2    0  502 -0.33421509427E+02  0.59704725498E+02 -0.63848726713E+03  0.64214300730E+03  0.00000000000E+00 0. -1.
</event>
<event>
 5    1  0.2540860E-005  0.3472424E+03  0.7818608E-02  0.9895172E-01
         -4   -1    0    0    0  501 -0.00000000000E+00  0.00000000000E+00  0.42792628840E+04  0.42792628840E+04  0.00000000000E+00 0. -1.
         21   -1    0    0  501  502  0.00000000000E+00 -0.00000000000E+00 -0.12446203580E+03  0.12446203580E+03  0.00000000000E+00 0. -1.
        -13    1    1    2    0    0  0.31557310959E+03  0.26088037504E+01  0.15923551060E+04  0.16233262112E+04  0.10566000000E+00 0.  1.
         13    1    1    2    0    0 -0.32766618666E+03 -0.31788173159E+03  0.23639918848E+04  0.24076693227E+04  0.10566000000E+00 0. -1.
         -4    1    1    2    0  502  0.12093077071E+02  0.31527292784E+03  0.19845385746E+03  0.37272938586E+03  0.00000000000E+00 0. -1.
</event>
<event>
 5    1  0.2540860E-005  0.1473892E+03  0.7818608E-02  0.1103715E+00
          4   -1    0    0  502    0 -0.00000000000E+00  0.00000000000E+00  0.12610452141E+03  0.12610452141E+03  0.00000000000E+00 0.  1.
         21   -1    0    0  501  502  0.00000000000E+00 -0.00000000000E+00 -0.22760063696E+03  0.22760063696E+03  0.00000000000E+00 0. -1.
        -13    1    1    2    0    0 -0.47309864129E+02  0.13584521192E+03  0.16355129102E+02  0.14477446687E+03  0.10566000000E+00 0.  1.
         13    1    1    2    0    0  0.58434034655E+02 -0.14367712515E+03 -0.93698790092E+02  0.18121017390E+03  0.10566000000E+00 0. -1.
          4    1    1    2  501    0 -0.11124170526E+02  0.78319132271E+01 -0.24152454566E+02  0.27720517604E+02  0.00000000000E+00 0.  1.
</event>
<event>
 5    1  0.2540860E-005  0.1510557E+03  0.7818608E-02  0.1100075E+00
         21   -1    0    0  501  502  0.00000000000E+00  0.00000000000E+00  0.84158339405E+02  0.84158339405E+02  0.00000000000E+00 0.  1.
          4   -1    0    0  502    0 -0.00000000000E+00 -0.00000000000E+00 -0.18059829634E+04  0.18059829634E+04  0.00000000000E+00 0.  1.
        -13    1    1    2    0    0  0.12114658036E+03  0.11976968840E+03 -0.99102158558E+03  0.10055570926E+04  0.10566000000E+00 0.  1.
         13    1    1    2    0    0 -0.97919230668E+02 -0.94121338832E+02 -0.79774687656E+03  0.80922623065E+03  0.10566000000E+00 0. -1.
          4    1    1    2  501    0 -0.23227349695E+02 -0.25648349566E+02  0.66943838178E+02  0.75357979533E+02  0.00000000000E+00 0.  1.
</event>
<event>
 5    1  0.2540860E-005  0.4900465E+03  0.7818608E-02  0.9729550E-01
         21   -1    0    0  501  502  0.00000000000E+00  0.00000000000E+00  0.20146962865E+03  0.20146962865E+03  0.00000000000E+00 0. -1.
         -4   -1    0    0    0  501 -0.00000000000E+00 -0.00000000000E+00 -0.21033252710E+04  0.21033252710E+04  0.00000000000E+00 0. -1.
        -13    1    1    2    0    0  0.18947744102E+03 -0.10608824734E+03 -0.63451110165E+03  0.67064205517E+03  0.10566000000E+00 0.  1.
         13    1    1    2    0    0 -0.51651627910E+03  0.34944407570E+03 -0.78795823676E+03  0.10048773172E+04  0.10566000000E+00 0. -1.
         -4    1    1    2    0  502  0.32703883808E+03 -0.24335582836E+03 -0.47938630394E+03  0.62927552726E+03  0.00000000000E+00 0. -1.
</event>
<event>
 5    1  0.2540860E-005  0.6463001E+02  0.7818608E-02  0.1241563E+00
         21   -1    0    0  501  502  0.00000000000E+00  0.00000000000E+00  0.38102010141E+03  0.38102010141E+03  0.00000000000E+00 0.  1.
          4   -1    0    0  502    0 -0.00000000000E+00 -0.00000000000E+00 -0.88847611289E+02  0.88847611289E+02  0.00000000000E+00 0.  1.
        -13    1    1    2    0    0 -0.59060428434E+02 -0.38488170638E+02  0.59341167102E+01  0.70743892959E+02  0.10566000000E+00 0.  1.
         13    1    1    2    0    0  0.38113116079E+02  0.50401007575E+02 -0.38169130129E+02  0.73822522584E+02  0.10566000000E+00 0. -1.
          4    1    1    2  501    0  0.20947312355E+02 -0.11912836937E+02  0.32440750354E+03  0.32530129716E+03  0.00000000000E+00 0.  1.
</event>
<event>
 5    1  0.2540860E-005  0.5491929E+02  0.7818608E-02  0.1272960E+00
         -4   -1    0    0    0  501 -0.00000000000E+00  0.00000000000E+00  0.34617843638E+02  0.34617843638E+02  0.00000000000E+00 0. -1.
         21   -1    0    0  501  502  0.00000000000E+00 -0.00000000000E+00 -0.32541228304E+03  0.32541228304E+03  0.00000000000E+00 0.  1.
        -13    1    1    2    0    0 -0.61069316853E+02  0.40352359183E+02 -0.16418577237E+03  0.17976304783E+03  0.10566000000E+00 0.  1.
         13    1    1    2    0    0  0.40369535585E+02 -0.33049976213E+02 -0.41081218863E+00  0.52174517359E+02  0.10566000000E+00 0. -1.
         -4    1    1    2    0  502  0.20699781268E+02 -0.73023829700E+01 -0.12619785484E+03  0.12809256148E+03  0.00000000000E+00 0. -1.
</event>
<event>
 5    1  0.2540860E-005  0.4542146E+03  0.7818608E-02  0.9736110E-01
         -4   -1    0    0    0  501 -0.00000000000E+00  0.00000000000E+00  0.42377716133E+03  0.42377716133E+03  0.00000000000E+00 0. -1.
         21   -1    0    0  501  502  0.00000000000E+00 -0.00000000000E+00 -0.17100192685E+04  0.17100192685E+04  0.00000000000E+00 0. -1.
        -13    1    1    2    0    0 -0.12288172661E+03  0.23657861604E+03  0.19323900111E+03  0.32925777594E+03  0.10566000000E+00 0.  1.
         13    1    1    2    0    0 -0.85033361671E+02  0.36853853739E+03 -0.70402931689E+03  0.79919247766E+03  0.10566000000E+00 0. -1.
         -4    1    1    2    0  502  0.20791508829E+03 -0.60511715343E+03 -0.77545179144E+03  0.10053461763E+04  0.00000000000E+00 0. -1.
</event>
<event>
 5    1  0.2540860E-005  0.4537601E+03  0.7818608E-02  0.9680860E-01
         21   -1    0    0  501  502  0.00000000000E+00  0.00000000000E+00  0.67218333876E+03  0.67218333876E+03  0.00000000000E+00 0. -1.
         -4   -1    0    0    0  501 -0.00000000000E+00 -0.00000000000E+00 -0.79928675745E+03  0.79928675745E+03  0.00000000000E+00 0. -1.
        -13    1    1    2    0    0  0.31578034560E+03 -0.72601234912E+02 -0.26061109762E+03  0.41582005885E+03  0.10566000000E+00 0.  1.
         13    1    1    2    0    0  0.34590159744E+03  0.13689931780E+03  0.11940956216E+03  0.39070192350E+03  0.10566000000E+00 0. -1.
         -4    1    1    2    0  502 -0.66168194305E+03 -0.64298082883E+02  0.14098116766E+02  0.66494811385E+03  0.00000000000E+00 0. -1.
</event>
<event>
 5    1  0.2540860E-005  0.1629921E+03  0.7818608E-02  0.1088961E+00
         -4   -1    0    0    0  501 -0.00000000000E+00  0.00000000000E+00  0.57258131264E+03  0.57258131264E+03  0.00000000000E+00 0. -1.
         21   -1    0    0  501  502  0.00000000000E+00 -0.00000000000E+00 -0.17902155187E+03  0.17902155187E+03  0.00000000000E+00 0.  1.
        -13    1    1    2    0    0  0.14429757983E+03 -0.68987742985E+02 -0.38955284908E+02  0.16461660188E+03  0.10566000000E+00 0.  1.
         13    1    1    2    0    0 -0.15309461556E+03  0.57271445741E+02  0.49578857355E+03  0.52203860072E+03  0.10566000000E+00 0. -1.
         -4    1    1    2    0  502  0.87970357301E+01  0.11716297245E+02 -0.63273527874E+02  0.64947661917E+02  0.00000000000E+00 0. -1.
</event>
<event>
 5    1  0.2540860E-005  0.4847900E+03  0.7818608E-02  0.9789990E-01
         -4   -1    0    0    0  501 -0.00000000000E+00  0.00000000000E+00  0.45773345478E+03  0.45773345478E+03  0.00000000000E+00 0. -1.
         21   -1    0    0  501  502  0.00000000000E+00 -0.00000000000E+00 -0.11722964388E+04  0.11722964388E+04  0.00000000000E+00 0. -1.
        -13    1    1    2    0    0 -0.55832154036E+02 -0.17340698431E+03  0.19732846348E+03  0.26856236761E+03  0.10566000000E+00 0.  1.
         13    1    1    2    0    0 -0.18919355022E+03  0.50395396130E+03 -0.74110878029E+03  0.91597272336E+03  0.10566000000E+00 0. -1.
         -4    1    1    2    0  502  0.24502570425E+03 -0.33054697698E+03 -0.17078266722E+03  0.44549480262E+03  0.00000000000E+00 0. -1.
</event>
<event>
 5    1  0.2540860E-005  0.4768972E+03  0.7818608E-02  0.9922209E-01
         -4   -1    0    0    0  501 -0.00000000000E+00  0.00000000000E+00  0.18155595073E+04  0.18155595073E+04  0.00000000000E+00 0. -1.
         21   -1    0    0  501  502  0.00000000000E+00 -0.00000000000E+00 -0.23533138866E+03  0.23533138866E+03  0.00000000000E+00 0. -1.
        -13    1    1    2    0    0  0.85748383467E+02 -0.87447875432E+02  0.68477370609E+03  0.69563996140E+03  0.10566000000E+00 0.  1.
         13    1    1    2    0    0 -0.19843723415E+03 -0.41634523112E+03  0.23698718505E+03  0.51853989665E+03  0.10566000000E+00 0. -1.
         -4    1    1    2    0  502  0.11268885068E+03  0.50379310655E+03  0.65846722752E+03  0.83671103793E+03  0.00000000000E+00 0. -1.
</event>
<event>
 5    1  0.2540860E-005  0.2407658E+03  0.7818608E-02  0.1038046E+00
          4   -1    0    0  502    0 -0.00000000000E+00  0.00000000000E+00  0.23996993746E+04  0.23996993746E+04  0.00000000000E+00 0.  1.
         21   -1    0    0  501  502  0.00000000000E+00 -0.00000000000E+00 -0.17074503189E+03  0.17074503189E+03  0.00000000000E+00 0.  1.
        -13    1    1    2    0    0 -0.12423722878E+03  0.18874462093E+03 -0.16824877955E+01  0.22596960609E+03  0.10566000000E+00 0.  1.
         13    1    1    2    0    0  0.15549004832E+03  0.19715018362E+03  0.39201515579E+03  0.46553328942E+03  0.10566000000E+00 0. -1.
          4    1    1    2  501    0 -0.31252819542E+02 -0.38589480455E+03  0.18386216747E+04  0.18789415109E+04  0.00000000000E+00 0.  1.
</event>
<event>
 5    1  0.2540860E-005  0.1181446E+03  0.7818608E-02  0.1137600E+00
         -4   -1    0    0    0  501 -0.00000000000E+00  0.00000000000E+00  0.36212281465E+02  0.36212281465E+02  0.00000000000E+00 0. -1.
         21   -1    0    0  501  502  0.00000000000E+00 -0.00000000000E+00 -0.55329639166E+03  0.55329639166E+03  0.00000000000E+00 0.  1.
        -13    1    1    2    0    0 -0.22211786077E+02  0.10323027015E+03 -0.33893396110E+03  0.35500153981E+03  0.10566000000E+00 0.  1.
         13    1    1    2    0    0  0.43341246497E+02 -0.11614969307E+03 -0.12593827380E+03  0.17671919766E+03  0.10566000000E+00 0. -1.
         -4    1    1    2    0  502 -0.21129460421E+02  0.12919422913E+02 -0.52211875292E+02  0.57787935657E+02  0.00000000000E+00 0. -1.
</event>
<event>
 5    1  0.2540860E-005  0.4606852E+03  0.7818608E-02  0.9777024E-01
         21   -1    0    0  501  502  0.00000000000E+00  0.00000000000E+00  0.14152265604E+03  0.14152265604E+03  0.00000000000E+00 0.  1.
          4   -1    0    0  502    0 -0.00000000000E+00 -0.00000000000E+00 -0.25706347227E+04  0.25706347227E+04  0.00000000000E+00 0.  1.
        -13    1    1    2    0    0 -0.53831861361E+03 -0.25111610863E+03 -0.13081695327E+04  0.14367163141E+04  0.10566000000E+00 0.  1.
         13    1    1    2    0    0  0.17049642590E+03  0.14207302414E+03 -0.35232787774E+03  0.41639971185E+03  0.10566000000E+00 0. -1.
          4    1    1    2  501    0  0.36782218771E+03  0.10904308449E+03 -0.76861465623E+03  0.85904135280E+03  0.00000000000E+00 0.  1.
</event>
<event>
 5    1  0.2540860E-005  0.1844823E+03  0.7818608E-02  0.1071328E+00
          4   -1    0    0  502    0 -0.00000000000E+00  0.00000000000E+00  0.82077081197E+02  0.82077081197E+02  0.00000000000E+00 0.  1.
         21   -1    0    0  501  502  0.00000000000E+00 -0.00000000000E+00 -0.12217757208E+04  0.12217757208E+04  0.00000000000E+00 0. -1.
        -13    1    1    2    0    0  0.16870484336E+03  0.71912455057E+02 -0.44690767529E+02  0.18875910900E+03  0.10566000000E+00 0.  1.
         13    1    1    2    0    0 -0.17557820555E+03 -0.81221575878E+02 -0.94259475149E+03  0.96224192766E+03  0.10566000000E+00 0. -1.
          4    1    1    2  501    0  0.68733621914E+01  0.93091208209E+01 -0.15241312062E+03  0.15285176536E+03  0.00000000000E+00 0.  1.
</event>
<event>
 5    1  0.2540860E-005  0.4583974E+03  0.7818608E-02  0.9780785E-01
         21   -1    0    0  501  502  0.00000000000E+00  0.00000000000E+00  0.12983653369E+03  0.12983653369E+03  0.00000000000E+00 0. -1.
         -4   -1    0    0    0  501 -0.00000000000E+00 -0.00000000000E+00 -0.29787715946E+04  0.29787715946E+04  0.00000000000E+00 0. -1.
        -13    1    1    2    0    0 -0.20278300968E+03  0.91293061753E+02 -0.79901176304E+03  0.82938240925E+03  0.10566000000E+00 0.  1.
         13    1    1    2    0    0  0.65853541066E+02  0.39246524117E+03 -0.14119348843E+04  0.14669443695E+04  0.10566000000E+00 0. -1.
         -4    1    1    2    0  502  0.13692946862E+03 -0.48375830293E+03 -0.63798841356E+03  0.81228134957E+03  0.00000000000E+00 0. -1.
</event>
<event>
 5    1  0.2540860E-005  0.4937245E+03  0.7818608E-02  0.9811183E-01
         21   -1    0    0  501  502  0.00000000000E+00  0.00000000000E+00  0.49434441152E+03  0.49434441152E+03  0.00000000000E+00 0.  1.
          4   -1    0    0  502    0 -0.00000000000E+00 -0.00000000000E+00 -0.70496510494E+03  0.70496510494E+03  0.00000000000E+00 0.  1.
        -13    1    1    2    0    0 -0.52432657225E+03  0.37273177072E+02 -0.14574952389E+03  0.54548196943E+03  0.10566000000E+00 0.  1.
         13    1    1    2    0    0  0.56478915869E+02 -0.15015488099E+03 -0.63545822986E+02  0.17255271370E+03  0.10566000000E+00 0. -1.
          4    1    1    2  501    0  0.46784765638E+03  0.11288170391E+03 -0.13253465489E+01  0.48127483333E+03  0.00000000000E+00 0.  1.
</event>
<event>
 5    1  0.2540860E-005  0.2965990E+03  0.7818608E-02  0.1054646E+00
          4   -1    0    0  502    0 -0.00000000000E+00  0.00000000000E+00  0.98420262647E+03  0.98420262647E+03  0.00000000000E+00 0.  1.
         21   -1    0    0  501  502  0.00000000000E+00 -0.00000000000E+00 -0.45947866685E+03  0.45947866685E+03  0.00000000000E+00 0.  1.
        -13    1    1    2    0    0  0.22335198325E+03  0.14600919535E+03  0.88619202316E+03  0.92549506029E+03  0.10566000000E+00 0.  1.
         13    1    1    2    0    0 -0.16583984098E+02  0.70098607764E+02 -0.64109059095E+02  0.96430420310E+02  0.10566000000E+00 0. -1.
          4    1    1    2  501    0 -0.20676799915E+03 -0.21610780312E+03 -0.29735900443E+03  0.42175581272E+03  0.00000000000E+00 0.  1.
</event>
<event>
 5    1  0.2540860E-005  0.4630156E+03  0.7818608E-02  0.9578950E-01
          4   -1    0    0  502    0 -0.00000000000E+00  0.00000000000E+00  0.27361604350E+03  0.27361604350E+03  0.00000000000E+00 0.  1.
         21   -1    0    0  501  502  0.00000000000E+00 -0.00000000000E+00 -0.21106975860E+04  0.21106975860E+04  0.00000000000E+00 0. -1.
        -13    1    1    2    0    0  0.17242048408E+03  0.38803288263E+03 -0.21066076080E+03  0.47400032557E+03  0.10566000000E+00 0.  1.
         13    1    1    2    0    0  0.35251540241E+03 -0.25865366207E+03 -0.52397573348E+03  0.68243637526E+03  0.10566000000E+00 0. -1.
          4    1    1    2  501    0 -0.52493588649E+03 -0.12937922056E+03 -0.11024450482E+04  0.12278769287E+04  0.00000000000E+00 0.  1.
</event>
<event>
 5    1  0.2540860E-005  0.2801823E+03  0.7818608E-02  0.1041659E+00
         -4   -1    0    0    0  501 -0.00000000000E+00  0.00000000000E+00  0.28222012816E+03  0.28222012816E+03  0.00000000000E+00 0. -1.
         21   -1    0    0  501  502  0.00000000000E+00 -0.00000000000E+00 -0.12440213207E+04  0.12440213207E+04  0.00000000000E+00 0. -1.
        -13    1    1    2    0    0 -0.93499955934E+02  0.84318494979E+02  0.87110534523E+01  0.12620516618E+03  0.10566000000E+00 0.  1.
         13    1    1    2    0    0 -0.21402826224E+02 -0.33608612609E+03  0.51978767505E+02  0.34075470438E+03  0.10566000000E+00 0. -1.
         -4    1    1    2    0  502  0.11490278216E+03  0.25176763111E+03 -0.10224910135E+04  0.10592815783E+04  0.00000000000E+00 0. -1.
</event>
<event>
 5    1  0.2540860E-005  0.3437770E+03  0.7818608E-02  0.1012400E+00
          4   -1    0    0  502    0 -0.00000000000E+00  0.00000000000E+00  0.20580269997E+04  0.20580269997E+04  0.00000000000E+00 0.  1.
         21   -1    0    0  501  502  0.00000000000E+00 -0.00000000000E+00 -0.19573138367E+03  0.19573138367E+03  0.00000000000E+00 0.  1.
        -13    1    1    2    0    0 -0.95871733664E+02 -0.30758185461E+03  0.55187880760E+02  0.32686954576E+03  0.10566000000E+00 0.  1.
         13    1    1    2    0    0 -0.11956420694E+03 -0.11979865080E+03  0.71060261201E+03  0.73048162172E+03  0.10566000000E+00 0. -1.
          4    1    1    2  501    0  0.21543594060E+03  0.42738050541E+03  0.10965051233E+04  0.11964072159E+04  0.00000000000E+00 0.  1.
</event>
<event>
 5    1  0.2540860E-005  0.1634123E+03  0.7818608E-02  0.1091982E+00
         21   -1    0    0  501  502  0.00000000000E+00  0.00000000000E+00  0.19815117422E+03  0.19815117422E+03  0.00000000000E+00 0. -1.
          4   -1    0    0  502    0 -0.00000000000E+00 -0.00000000000E+00 -0.64050468568E+03  0.64050468568E+03  0.00000000000E+00 0.  1.
        -13    1    1    2    0    0 -0.25019935733E+01 -0.15036859006E+03 -0.46585754653E+03  0.48953062996E+03  0.10566000000E+00 0.  1.
         13    1    1    2    0    0 -0.15294839945E+03  0.77013853595E+02  0.41782880958E+02  0.17626731644E+03  0.10566000000E+00 0. -1.
          4    1    1    2  501    0  0.15545039302E+03  0.73354736467E+02 -0.18278845881E+02  0.17285791350E+03  0.00000000000E+00 0.  1.
</event>
<event>
 5    1  0.2540860E-005  0.3894371E+03  0.7818608E-02  0.1042509E+00
         21   -1    0    0  501  502  0.00000000000E+00  0.00000000000E+00  0.12801666366E+03  0.12801666366E+03  0.00000000000E+00 0. -1.
         -4   -1    0    0    0  501 -0.00000000000E+00 -0.00000000000E+00 -0.23753039819E+04  0.23753039819E+04  0.00000000000E+00 0. -1.
        -13    1    1    2    0    0 -0.34427898432E+02  0.30052265510E+02 -0.21959064048E+03  0.22429551801E+03  0.10566000000E+00 0.  1.
         13    1    1    2    0    0  0.18537265874E+03 -0.38146907362E+03 -0.17644855834E+04  0.18147426985E+04  0.10566000000E+00 0. -1.
         -4    1    1    2    0  502 -0.15094476030E+03  0.35141680811E+03 -0.26321109440E+03  0.46428242903E+03  0.00000000000E+00 0. -1.
</event>
<event>
 5    1  0.2540860E-005  0.3193409E+03  0.7818608E-02  0.1011667E+00
         21   -1    0    0  501  502  0.00000000000E+00  0.00000000000E+00  0.26858139120E+03  0.26858139120E+03  0.00000000000E+00 0. -1.
         -4   -1    0    0    0  501 -0.00000000000E+00 -0.00000000000E+00 -0.14556518557E+04  0.14556518557E+04  0.00000000000E+00 0. -1.
        -13    1    1    2    0    0  0.80006728090E+02 -0.20082045610E+03 -0.12264057641E+03  0.24853702797E+03  0.10566000000E+00 0.  1.
         13    1    1    2    0    0  0.23814380270E+03  0.96653467606E+02 -0.11086213452E+04  0.11380226982E+04  0.10566000000E+00 0. -1.
         -4    1    1    2    0  502 -0.31815053079E+03  0.10416698849E+03  0.44191457051E+02  0.33767352074E+03  0.00000000000E+00 0. -1.
</event>
<event>
 5    1  0.2540860E-005  0.3712982E+03  0.7818608E-02  0.9815806E-01
         -4   -1    0    0    0  501 -0.00000000000E+00  0.00000000000E+00  0.76112875124E+03  0.76112875124E+03  0.00000000000E+00 0. -1.
         21   -1    0    0  501  502  0.00000000000E+00 -0.00000000000E+00 -0.37416652982E+03  0.37416652982E+03  0.00000000000E+00 0. -1.
        -13    1    1    2    0    0  0.20915314973E+03  0.88309641531E+02 -0.11843204647E+03  0.25606599466E+03  0.10566000000E+00 0.  1.
         13    1    1    2    0    0 -0.40125574794E+03 -0.15858515284E+03  0.51816502701E+03  0.67427771158E+03  0.10566000000E+00 0. -1.
         -4    1    1    2    0  502  0.19210259822E+03  0.70275511309E+02 -0.12770759121E+02  0.20495157482E+03  0.00000000000E+00 0. -1.
</event>
<event>
 5    1  0.2540860E-005  0.4181674E+03  0.7818608E-02  0.1006277E+00
         21   -1    0    0  501  502  0.00000000000E+00  0.00000000000E+00  0.39129674248E+03  0.39129674248E+03  0.00000000000E+00 0.  1.
          4   -1    0    0  502    0 -0.00000000000E+00 -0.00000000000E+00 -0.11571189627E+04  0.11571189627E+04  0.00000000000E+00 0.  1.
        -13    1    1    2    0    0  0.26310458247E+03  0.42838118185E+03 -0.37372098225E+03  0.62641986081E+03  0.10566000000E+00 0.  1.
         13    1    1    2    0    0 -0.32749231055E+02 -0.10973489626E+03 -0.50106583239E+03  0.51398564100E+03  0.10566000000E+00 0. -1.
          4    1    1    2  501    0 -0.23035535141E+03 -0.31864628559E+03  0.10896459440E+03  0.40801020340E+03  0.00000000000E+00 0.  1.
</event>
<event>
 5    1  0.2540860E-005  0.1306363E+03  0.7818608E-02  0.1121950E+00
         21   -1    0    0  501  502  0.00000000000E+00  0.00000000000E+00  0.80381825038E+03  0.80381825038E+03  0.00000000000E+00 0. -1.
          4   -1    0    0  502    0 -0.00000000000E+00 -0.00000000000E+00 -0.45759893831E+02  0.45759893831E+02  0.00000000000E+00 0.  1.
        -13    1    1    2    0    0 -0.27414965461E+02  0.12518931239E+03  0.80236259937E+02  0.15120123293E+03  0.10566000000E+00 0.  1.
         13    1    1    2    0    0  0.33561713362E+02 -0.13729254473E+03  0.48758627303E+03  0.50765738077E+03  0.10566000000E+00 0. -1.
          4    1    1    2  501    0 -0.61467479012E+01  0.12103232340E+02  0.19023582358E+03  0.19071953051E+03  0.00000000000E+00 0.  1.
</event>
<event>
 5    1  0.2540860E-005  0.3252287E+03  0.7818608E-02  0.9974038E-01
          4   -1    0    0  502    0 -0.00000000000E+00  0.00000000000E+00  0.15467605777E+04  0.15467605777E+04  0.00000000000E+00 0.  1.
         21   -1    0    0  501  502  0.00000000000E+00 -0.00000000000E+00 -0.22306231685E+03  0.22306231685E+03  0.00000000000E+00 0.  1.
        -13    1    1    2    0    0 -0.45643458553E+02  0.34130683752E+03  0.78841247790E+03  0.86033012798E+03  0.10566000000E+00 0.  1.
         13    1    1    2    0    0  0.27587064973E+02 -0.30663665720E+03  0.68699545507E+03  0.75282790340E+03  0.10566000000E+00 0. -1.
          4    1    1    2  501    0  0.18056393580E+02 -0.34670180325E+02 -0.15170967209E+03  0.15666486319E+03  0.00000000000E+00 0.  1.
</event>
<event>
 5    1  0.2540860E-005  0.3335092E+03  0.7818608E-02  0.9980394E-01
         -4   -1    0    0    0  501 -0.00000000000E+00  0.00000000000E+00  0.13046023793E+04  0.13046023793E+04  0.00000000000E+00 0. -1.
         21   -1    0    0  501  502  0.00000000000E+00 -0.00000000000E+00 -0.52417954815E+03  0.52417954815E+03  0.00000000000E+00 0.  1.
        -13    1    1    2    0    0 -0.51795106895E+03 -0.61654210463E+02  0.14884354015E+03  0.54242876224E+03  0.10566000000E+00 0.  1.
         13    1    1    2    0    0  0.24842303816E+03 -0.16845905571E+03  0.82830777885E+03  0.88101432849E+03  0.10566000000E+00 0. -1.
         -4    1    1    2    0  502  0.26952803079E+03  0.23011326617E+03 -0.19672848783E+03  0.40533883675E+03  0.00000000000E+00 0. -1.
</event>
<event>
 5    1  0.2540860E-005  0.3836330E+03  0.7818608E-02  0.9777541E-01
         -4   -1    0    0    0  501 -0.00000000000E+00  0.00000000000E+00  0.16470264666E+04  0.16470264666E+04  0.00000000000E+00 0. -1.
         21   -1    0    0  501  502  0.00000000000E+00 -0.00000000000E+00 -0.35376108318E+03  0.35376108318E+03  0.00000000000E+00 0. -1.
        -13    1    1    2    0    0 -0.33429876671E+03 -0.73600076398E+02  0.75713402974E+03  0.83091791822E+03  0.10566000000E+00 0.  1.
         13    1    1    2    0    0  0.48362518598E+03 -0.94291109121E+02  0.72483314938E+03  0.87645150430E+03  0.10566000000E+00 0. -1.
         -4    1    1    2    0  502 -0.14932641926E+03  0.16789118552E+03 -0.18870179574E+03  0.29341812722E+03  0.00000000000E+00 0. -1.
</event>
<event>
 5    1  0.2540860E-005  0.3705678E+02  0.7818608E-02  0.1355808E+00
         21   -1    0    0  501  502  0.00000000000E+00  0.00000000000E+00  0.48728293127E+02  0.48728293127E+02  0.00000000000E+00 0.  1.
          4   -1    0    0  502    0 -0.00000000000E+00 -0.00000000000E+00 -0.24921197016E+03  0.24921197016E+03  0.00000000000E+00 0.  1.
        -13    1    1    2    0    0 -0.14884290689E-02  0.30817115185E+02 -0.10487622436E+03  0.10931023827E+03  0.10566000000E+00 0.  1.
         13    1    1    2    0    0 -0.16439825226E+02 -0.50067297463E+02 -0.13323556192E+03  0.14327849892E+03  0.10566000000E+00 0. -1.
          4    1    1    2  501    0  0.16441313656E+02  0.19250182278E+02  0.37628109255E+02  0.45351526088E+02  0.00000000000E+00 0.  1.
</event>
<event>
 5    1  0.2540860E-005  0.3810975E+03  0.7818608E-02  0.9785282E-01
          4   -1    0    0  502    0 -0.00000000000E+00  0.00000000000E+00  0.17041714213E+03  0.17041714213E+03  0.00000000000E+00 0.  1.
         21   -1    0    0  501  502  0.00000000000E+00 -0.00000000000E+00 -0.19381746487E+04  0.19381746487E+04  0.00000000000E+00 0. -1.
        -13    1    1    2    0    0 -0.24576014475E+03  0.27516760582E+03 -0.14657197015E+03  0.39698691872E+03  0.10566000000E+00 0.  1.
         13    1    1    2    0    0  0.29166052048E+03 -0.31318603120E+03 -0.10021204564E+04  0.10896773695E+04  0.10566000000E+00 0. -1.
          4    1    1    2  501    0 -0.45900375729E+02  0.38018425385E+02 -0.61906508007E+03  0.62192750263E+03  0.00000000000E+00 0.  1.
</event>
<event>
 5    1  0.2540860E-005  0.4173361E+03  0.7818608E-02  0.9994778E-01
          4   -1    0    0  502    0 -0.00000000000E+00  0.00000000000E+00  0.80879583256E+03  0.80879583256E+03  0.00000000000E+00 0.  1.
         21   -1    0    0  501  502  0.00000000000E+00 -0.00000000000E+00 -0.44512696675E+03  0.44512696675E+03  0.00000000000E+00 0.  1.
        -13    1    1    2    0    0  0.33543703281E+03  0.26791122537E+03 -0.19879098534E+03  0.47308804115E+03  0.10566000000E+00 0.  1.
         13    1    1    2    0    0  0.37900709845E+02 -0.13868896163E+03  0.18632715613E+03  0.23534849088E+03  0.10566000000E+00 0. -1.
          4    1    1    2  501    0 -0.37333774265E+03 -0.12922226374E+03  0.37613269502E+03  0.54548626729E+03  0.00000000000E+00 0.  1.
</event>
<event>
 5    1  0.2540860E-005  0.4595404E+03  0.7818608E-02  0.9575261E-01
          4   -1    0    0  502    0 -0.00000000000E+00  0.00000000000E+00  0.19784017184E+04  0.19784017184E+04  0.00000000000E+00 0.  1.
         21   -1    0    0  501  502  0.00000000000E+00 -0.00000000000E+00 -0.44861357366E+03  0.44861357366E+03  0.00000000000E+00 0.  1.
        -13    1    1    2    0    0  0.17924127066E+02 -0.15826132993E+03  0.50765583956E+03  0.53205487075E+03  0.10566000000E+00 0.  1.
         13    1    1    2    0    0  0.28388023579E+03 -0.35322151498E+03  0.11936731043E+04  0.12767963494E+04  0.10566000000E+00 0. -1.
          4    1    1    2  501    0 -0.30180436286E+03  0.51148284491E+03 -0.17154079905E+03  0.61816407192E+03  0.00000000000E+00 0.  1.
</event>
<event>
 5    1  0.2540860E-005  0.4949605E+03  0.7818608E-02  0.9846150E-01
         21   -1    0    0  501  502  0.00000000000E+00  0.00000000000E+00  0.46851249397E+03  0.46851249397E+03  0.00000000000E+00 0.  1.
          4   -1    0    0  502    0 -0.00000000000E+00 -0.00000000000E+00 -0.76438021312E+03  0.76438021312E+03  0.00000000000E+00 0.  1.
        -13    1    1    2    0    0 -0.44563936449E+03  0.14117726354E+03 -0.14275346597E+03  0.48877809499E+03  0.10566000000E+00 0.  1.
         13    1    1    2    0    0 -0.78534135402E+02 -0.11759395894E+03 -0.16750700327E+03  0.21921349618E+03  0.10566000000E+00 0. -1.
          4    1    1    2  501    0  0.52417349989E+03 -0.23583304606E+02  0.14392750088E+02  0.52490111593E+03  0.00000000000E+00 0.  1.
</event>
<event>
 5    1  0.2540860E-005  0.4774887E+03  0.7818608E-02  0.9621488E-01
         21   -1    0    0  501  502  0.00000000000E+00  0.00000000000E+00  0.34646453202E+03  0.34646453202E+03  0.00000000000E+00 0. -1.
          4   -1    0    0  502    0 -0.00000000000E+00 -0.00000000000E+00 -0.16850501963E+04  0.16850501963E+04  0.00000000000E+00 0.  1.
        -13    1    1    2    0    0 -0.13578485410E+03  0.24972853723E+03 -0.91340345864E+03  0.95661264801E+03  0.10566000000E+00 0.  1.
         13    1    1    2    0    0 -0.29904751730E+03  0.16733507724E+03 -0.93210977909E+01  0.34280802165E+03  0.10566000000E+00 0. -1.
          4    1    1    2  501    0  0.43483237140E+03 -0.41706361448E+03 -0.41586110790E+03  0.73209405871E+03  0.00000000000E+00 0.  1.
</event>
<event>
 5    1  0.2540860E-005  0.8322087E+02  0.7818608E-02  0.1206138E+00
         21   -1    0    0  501  502  0.00000000000E+00  0.00000000000E+00  0.63204049717E+02  0.63204049717E+02  0.00000000000E+00 0.  1.
          4   -1    0    0  502    0 -0.00000000000E+00 -0.00000000000E+00 -0.96694027704E+03  0.96694027704E+03  0.00000000000E+00 0.  1.
        -13    1    1    2    0    0 -0.41488863926E+02  0.13609563984E+03 -0.85448146938E+03  0.86624588986E+03  0.10566000000E+00 0.  1.
         13    1    1    2    0    0  0.34892000761E+02 -0.55714745371E+02 -0.51041378416E+02  0.83227507733E+02  0.10566000000E+00 0. -1.
          4    1    1    2  501    0  0.65968631652E+01 -0.80380894474E+02  0.17866204738E+01  0.80670929168E+02  0.00000000000E+00 0.  1.
</event>
<event>
 5    1  0.2540860E-005  0.4648809E+03  0.7818608E-02  0.9833312E-01
          4   -1    0    0  502    0 -0.00000000000E+00  0.00000000000E+00  0.13692421276E+04  0.13692421276E+04  0.00000000000E+00 0.  1.
         21   -1    0    0  501  502  0.00000000000E+00 -0.00000000000E+00 -0.41493856006E+03  0.41493856006E+03  0.00000000000E+00 0.  1.
        -13    1    1    2    0    0 -0.55050180250E+03  0.84440818368E+02  0.13597380949E+03  0.57329867818E+03  0.10566000000E+00 0.  1.
         13    1    1    2    0    0  0.14078795787E+03 -0.10933109343E+03  0.77831554257E+03  0.79846705132E+03  0.10566000000E+00 0. -1.
          4    1    1    2  501    0  0.40971384463E+03  0.24890275066E+02  0.40014215478E+02  0.41241495816E+03  0.00000000000E+00 0.  1.
</event>
<event>
 5    1  0.2540860E-005  0.3231237E+03  0.7818608E-02  0.1073393E+00
         21   -1    0    0  501  502  0.00000000000E+00  0.00000000000E+00  0.10676456760E+04  0.10676456760E+04  0.00000000000E+00 0.  1.
          4   -1    0    0  502    0 -0.00000000000E+00 -0.00000000000E+00 -0.23438408223E+03  0.23438408223E+03  0.00000000000E+00 0.  1.
        -13    1    1    2    0    0  0.23505128004E+03 -0.25489385168E+03 -0.12499313546E+02  0.34695276894E+03  0.10566000000E+00 0.  1.
         13    1    1    2    0    0 -0.65367616695E+01  0.31703974382E+02 -0.15935788274E+02  0.36080905707E+02  0.10566000000E+00 0. -1.
          4    1    1    2  501    0 -0.22851451837E+03  0.22318987730E+03  0.86169669555E+03  0.91899608353E+03  0.00000000000E+00 0.  1.
</event>
<event>
 5    1  0.2540860E-005  0.6172185E+02  0.7818608E-02  0.1250282E+00
         -4   -1    0    0    0  501 -0.00000000000E+00  0.00000000000E+00  0.27091571205E+03  0.27091571205E+03  0.00000000000E+00 0. -1.
         21   -1    0    0  501  502  0.00000000000E+00 -0.00000000000E+00 -0.19356648767E+03  0.19356648767E+03  0.00000000000E+00 0. -1.
        -13    1    1    2    0    0  0.13972608651E+02  0.92531657164E+02 -0.33241105314E+02  0.99309232283E+02  0.10566000000E+00 0.  1.
         13    1    1    2    0    0 -0.23668237421E+02 -0.55176543802E+02  0.23102860835E+03  0.23870246226E+03  0.10566000000E+00 0. -1.
         -4    1    1    2    0  502  0.96956287698E+01 -0.37355113362E+02 -0.12043827866E+03  0.12647050517E+03  0.00000000000E+00 0. -1.
</event>
<event>
 5    1  0.2540860E-005  0.1789384E+03  0.7818608E-02  0.1075620E+00
          4   -1    0    0  502    0 -0.00000000000E+00  0.00000000000E+00  0.14319646910E+03  0.14319646910E+03  0.00000000000E+00 0.  1.
         21   -1    0    0  501  502  0.00000000000E+00 -0.00000000000E+00 -0.52415450405E+03  0.52415450405E+03  0.00000000000E+00 0. -1.
        -13    1    1    2    0    0 -0.78267682652E+02  0.14768203441E+03  0.13663083755E+02  0.16769765787E+03  0.10566000000E+00 0.  1.
         13    1    1    2    0    0  0.88895590214E+02 -0.19544329375E+03 -0.18198056026E+03  0.28145593351E+03  0.10566000000E+00 0. -1.
          4    1    1    2  501    0 -0.10627907562E+02  0.47761259340E+02 -0.21264055844E+03  0.21819738176E+03  0.00000000000E+00 0.  1.
</event>
<event>
 5    1  0.2540860E-005  0.3269124E+02  0.7818608E-02  0.1384518E+00
         21   -1    0    0  501  502  0.00000000000E+00  0.00000000000E+00  0.91277441239E+01  0.91277441239E+01  0.00000000000E+00 0.  1.
          4   -1    0    0  502    0 -0.00000000000E+00 -0.00000000000E+00 -0.25138720835E+03  0.25138720835E+03  0.00000000000E+00 0.  1.
        -13    1    1    2    0    0  0.34848096682E+02 -0.11059589927E+02 -0.17819325721E+03  0.18190533926E+03  0.10566000000E+00 0.  1.
         13    1    1    2    0    0 -0.27200152302E+02 -0.20512777300E+01 -0.53694534496E+02  0.60225992929E+02  0.10566000000E+00 0. -1.
          4    1    1    2  501    0 -0.76479443801E+01  0.13110867657E+02 -0.10371672523E+02  0.18383620288E+02  0.00000000000E+00 0.  1.
</event>
<event>
 5    1  0.2540860E-005  0.2525970E+03  0.7818608E-02  0.1034678E+00
          4   -1    0    0  502    0 -0.00000000000E+00  0.00000000000E+00  0.19167886352E+04  0.19167886352E+04  0.00000000000E+00 0.  1.
         21   -1    0    0  501  502  0.00000000000E+00 -0.00000000000E+00 -0.27666453592E+03  0.27666453592E+03  0.00000000000E+00 0.  1.
        -13    1    1    2    0    0 -0.34171564008E+03  0.24325087293E+03  0.86840116060E+03  0.96439678180E+03  0.10566000000E+00 0.  1.
         13    1    1    2    0    0  0.20843480129E+03 -0.41102283351E+02  0.92061403025E+03  0.94480932888E+03  0.10566000000E+00 0. -1.
          4    1    1    2  501    0  0.13328083879E+03 -0.20214858958E+03 -0.14889109152E+03  0.28424706048E+03  0.00000000000E+00 0.  1.
</event>
<event>
 5    1  0.2540860E-005  0.4856129E+03  0.7818608E-02  0.9683682E-01
         21   -1    0    0  501  502  0.00000000000E+00  0.00000000000E+00  0.22940174167E+03  0.22940174167E+03  0.00000000000E+00 0. -1.
         -4   -1    0    0    0  501 -0.00000000000E+00 -0.00000000000E+00 -0.18416842176E+04  0.18416842176E+04  0.00000000000E+00 0. -1.
        -13    1    1    2    0    0  0.17338585082E+03 -0.19609456940E+03 -0.54050270935E+03  0.60054885180E+03  0.10566000000E+00 0.  1.
         13    1    1    2    0    0  0.31708283939E+03 -0.16123868763E+03 -0.61701076277E+03  0.71220905215E+03  0.10566000000E+00 0. -1.
         -4    1    1    2    0  502 -0.49046869022E+03  0.35733325704E+03 -0.45476900382E+03  0.75832805533E+03  0.00000000000E+00 0. -1.
</event>
<event>
 5    1  0.2540860E-005  0.4967006E+03  0.7818608E-02  0.9672262E-01
         -4   -1    0    0    0  501 -0.00000000000E+00  0.00000000000E+00  0.90857498296E+03  0.90857498296E+03  0.00000000000E+00 0. -1.
         21   -1    0    0  501  502  0.00000000000E+00 -0.00000000000E+00 -0.75057789983E+03  0.75057789983E+03  0.00000000000E+00 0. -1.
        -13    1    1    2    0    0 -0.25034474201E+03 -0.46270301081E+02  0.51100033278E+03  0.57090698181E+03  0.10566000000E+00 0.  1.
         13    1    1    2    0    0  0.29124244241E+03 -0.44673853321E+03 -0.15465800794E+03  0.55526262966E+03  0.10566000000E+00 0. -1.
         -4    1    1    2    0  502 -0.40897700398E+02  0.49300883429E+03 -0.19834524171E+03  0.53298327131E+03  0.00000000000E+00 0. -1.
</event>
<event>
 5    1  0.2540860E-005  0.5915741E+03  0.7818608E-02  0.9297119E-01
          4   -1    0    0  502    0 -0.00000000000E+00  0.00000000000E+00  0.41629230161E+04  0.41629230161E+04  0.00000000000E+00 0.  1.
         21   -1    0    0  501  502  0.00000000000E+00 -0.00000000000E+00 -0.34428668865E+03  0.34428668865E+03  0.00000000000E+00 0.  1.
        -13    1    1    2    0    0  0.18187666053E+03 -0.64534134412E+03  0.39105218295E+03  0.77618708507E+03  0.10566000000E+00 0.  1.
         13    1    1    2    0    0 -0.57365797818E+03  0.22754166498E+03  0.28557616465E+04  0.29216832953E+04  0.10566000000E+00 0. -1.
          4    1    1    2  501    0  0.39178131765E+03  0.41779967914E+03  0.57182249796E+03  0.80933932434E+03  0.00000000000E+00 0.  1.
</event>
<event>
 5    1  0.2540860E-005  0.4133012E+02  0.7818608E-02  0.1331764E+00
          4   -1    0    0  502    0 -0.00000000000E+00  0.00000000000E+00  0.18719544496E+03  0.18719544496E+03  0.00000000000E+00 0.  1.
         21   -1    0    0  501  502  0.00000000000E+00 -0.00000000000E+00 -0.99749587737E+02  0.99749587737E+02  0.00000000000E+00 0. -1.
        -13    1    1    2    0    0 -0.34369778948E+02 -0.23379870115E+02  0.16016725013E+03  0.16547343959E+03  0.10566000000E+00 0.  1.
         13    1    1    2    0    0  0.82900264128E+01  0.52793766221E+02 -0.23239431570E+02  0.58275111613E+02  0.10566000000E+00 0. -1.
          4    1    1    2  501    0  0.26079752535E+02 -0.29413896106E+02 -0.49481961333E+02  0.63196481498E+02  0.00000000000E+00 0.  1.
</event>
<event>
 5    1  0.2540860E-005  0.8845140E+02  0.7818608E-02  0.1185221E+00
         21   -1    0    0  501  502  0.00000000000E+00  0.00000000000E+00  0.13751904910E+03  0.13751904910E+03  0.00000000000E+00 0. -1.
          4   -1    0    0  502    0 -0.00000000000E+00 -0.00000000000E+00 -0.15660775294E+03  0.15660775294E+03  0.00000000000E+00 0.  1.
        -13    1    1    2    0    0 -0.20986509671E+02 -0.88514950668E+02 -0.12288350775E+03  0.15289113029E+03  0.10566000000E+00 0.  1.
         13    1    1    2    0    0  0.24767540664E+02  0.70394418652E+02  0.68101184343E+02  0.10102765820E+03  0.10566000000E+00 0. -1.
          4    1    1    2  501    0 -0.37810309935E+01  0.18120532016E+02  0.35693619573E+02  0.40208013556E+02  0.00000000000E+00 0.  1.
</event>
<event>
 5    1  0.2540860E-005  0.1140910E+03  0.7818608E-02  0.1156934E+00
         21   -1    0    0  501  502  0.00000000000E+00  0.00000000000E+00  0.27080416248E+02  0.27080416248E+02  0.00000000000E+00 0. -1.
          4   -1    0    0  502    0 -0.00000000000E+00 -0.00000000000E+00 -0.13092497351E+04  0.13092497351E+04  0.00000000000E+00 0.  1.
        -13    1    1    2    0    0 -0.58150824215E+02 -0.16500764358E+03 -0.85778700568E+03  0.87544708525E+03  0.10566000000E+00 0.  1.
         13    1    1    2    0    0  0.28088206018E+02  0.76034547629E+02 -0.14473043853E+03  0.16588282235E+03  0.10566000000E+00 0. -1.
          4    1    1    2  501    0  0.30062618197E+02  0.88973095955E+02 -0.27965187460E+03  0.29500024370E+03  0.00000000000E+00 0.  1.
</event>
<event>
 5    1  0.2540860E-005  0.3647815E+03  0.7818608E-02  0.9997651E-01
         21   -1    0    0  501  502  0.00000000000E+00  0.00000000000E+00  0.85405642767E+03  0.85405642767E+03  0.00000000000E+00 0. -1.
         -4   -1    0    0    0  501 -0.00000000000E+00 -0.00000000000E+00 -0.86224366054E+03  0.86224366054E+03  0.00000000000E+00 0. -1.
        -13    1    1    2    0    0  0.47984666912E+03  0.10451403509E+03 -0.30169921485E+03  0.57636658196E+03  0.10566000000E+00 0.  1.
         13    1    1    2    0    0 -0.34263527261E+02 -0.27493537353E+03 -0.28002282649E+03  0.39392415950E+03  0.10566000000E+00 0. -1.
         -4    1    1    2    0  502 -0.44558314186E+03  0.17042133844E+03  0.57353480847E+03  0.74600934674E+03  0.00000000000E+00 0. -1.
</event>
<event>
 5    1  0.2540860E-005  0.1057088E+03  0.7818608E-02  0.1155441E+00
         21   -1    0    0  501  502  0.00000000000E+00  0.00000000000E+00  0.22679764381E+03  0.22679764381E+03  0.00000000000E+00 0.  1.
          4   -1    0    0  502    0 -0.00000000000E+00 -0.00000000000E+00 -0.15755528768E+03  0.15755528768E+03  0.00000000000E+00 0.  1.
        -13    1    1    2    0    0 -0.10160883843E+03  0.31096753774E+02 -0.10113648574E+03  0.14669684405E+03  0.10566000000E+00 0.  1.
         13    1    1    2    0    0  0.10570212000E+03 -0.66146115099E+01  0.54424005041E+02  0.11907424048E+03  0.10566000000E+00 0. -1.
          4    1    1    2  501    0 -0.40932815670E+01 -0.24482142264E+02  0.11595483683E+03  0.11858184696E+03  0.00000000000E+00 0.  1.
</event>
<event>
 5    1  0.2540860E-005  0.4062521E+03  0.7818608E-02  0.9917591E-01
          4   -1    0    0  502    0 -0.00000000000E+00  0.00000000000E+00  0.14043112774E+04  0.14043112774E+04  0.00000000000E+00 0.  1.
         21   -1    0    0  501  502  0.00000000000E+00 -0.00000000000E+00 -0.40893299446E+03  0.40893299446E+03  0.00000000000E+00 0.  1.
        -13    1    1    2    0    0 -0.23784054608E+03  0.46960501489E+03  0.39430545303E+03  0.65770342619E+03  0.10566000000E+00 0.  1.
         13    1    1    2    0    0 -0.28786349237E+02 -0.19912366985E+03  0.72784417805E+03  0.75513975427E+03  0.10566000000E+00 0. -1.
          4    1    1    2  501    0  0.26662689532E+03 -0.27048134505E+03 -0.12677134809E+03  0.40040109143E+03  0.00000000000E+00 0.  1.
</event>
<event>
 5    1  0.2540860E-005  0.2362995E+03  0.7818608E-02  0.1037748E+00
         -4   -1    0    0    0  501 -0.00000000000E+00  0.00000000000E+00  0.16851825594E+04  0.16851825594E+04  0.00000000000E+00 0. -1.
         21   -1    0    0  501  502  0.00000000000E+00 -0.00000000000E+00 -0.26639539626E+03  0.26639539626E+03  0.00000000000E+00 0. -1.
        -13    1    1    2    0    0  0.18606004337E+03 -0.10049639020E+03  0.66459093026E+03  0.69742309965E+03  0.10566000000E+00 0.  1.
         13    1    1    2    0    0 -0.29995593223E+03 -0.43570921821E+02  0.94314912571E+03  0.99065749429E+03  0.10566000000E+00 0. -1.
         -4    1    1    2    0  502  0.11389588886E+03  0.14406731202E+03 -0.18895289287E+03  0.26349736168E+03  0.00000000000E+00 0. -1.
</event>
<event>
 5    1  0.2540860E-005  0.4849966E+03  0.7818608E-02  0.9834252E-01
         -4   -1    0    0    0  501 -0.00000000000E+00  0.00000000000E+00  0.13519956334E+04  0.13519956334E+04  0.00000000000E+00 0. -1.
         21   -1    0    0  501  502  0.00000000000E+00 -0.00000000000E+00 -0.26446946956E+03  0.26446946956E+03  0.00000000000E+00 0. -1.
        -13    1    1    2    0    0 -0.13449589452E+03 -0.79984040424E+02  0.27646442641E+03  0.31767779683E+03  0.10566000000E+00 0.  1.
         13    1    1    2    0    0  0.32283888844E+03 -0.37126677878E+03  0.24135773835E+03  0.54801235199E+03  0.10566000000E+00 0. -1.
         -4    1    1    2    0  502 -0.18834299392E+03  0.45125081921E+03  0.56970399912E+03  0.75077495417E+03  0.00000000000E+00 0. -1.
</event>
<event>
 5    1  0.2540860E-005  0.3164189E+03  0.7818608E-02  0.1000749E+00
          4   -1    0    0  502    0 -0.00000000000E+00  0.00000000000E+00  0.27055013577E+03  0.27055013577E+03  0.00000000000E+00 0.  1.
         21   -1    0    0  501  502  0.00000000000E+00 -0.00000000000E+00 -0.44959694074E+03  0.44959694074E+03  0.00000000000E+00 0. -1.
        -13    1    1    2    0    0  0.28203690076E+03  0.17308132672E+03 -0.69483578507E+02  0.33812710316E+03  0.10566000000E+00 0.  1.
         13    1    1    2    0    0 -0.26601898575E+03 -0.14754950019E+03 -0.40776563152E+02  0.30691968828E+03  0.10566000000E+00 0. -1.
          4    1    1    2  501    0 -0.16017915001E+02 -0.25531826527E+02 -0.68786663309E+02  0.75100285059E+02  0.00000000000E+00 0.  1.
</event>
<event>
 5    1  0.2540860E-005  0.1779042E+03  0.7818608E-02  0.1076439E+00
         21   -1    0    0  501  502  0.00000000000E+00  0.00000000000E+00  0.17215419113E+03  0.17215419113E+03  0.00000000000E+00 0. -1.
         -4   -1    0    0    0  501 -0.00000000000E+00 -0.00000000000E+00 -0.83275212999E+03  0.83275212999E+03  0.00000000000E+00 0. -1.
        -13    1    1    2    0    0  0.60871710426E+01 -0.17206193032E+03 -0.23365695045E+03  0.29023773561E+03  0.10566000000E+00 0.  1.
         13    1    1    2    0    0 -0.20014677208E+02  0.17987217932E+03 -0.55595439920E+03  0.58467075637E+03  0.10566000000E+00 0. -1.
         -4    1    1    2    0  502  0.13927506166E+02 -0.78102489946E+01  0.12901341079E+03  0.12999782914E+03  0.00000000000E+00 0. -1.
</event>
<event>
 5    1  0.2540860E-005  0.5531208E+03  0.7818608E-02  0.9368571E-01
         21   -1    0    0  501  502  0.00000000000E+00  0.00000000000E+00  0.19243805314E+03  0.19243805314E+03  0.00000000000E+00 0.  1.
         -4   -1    0    0    0  501 -0.00000000000E+00 -0.00000000000E+00 -0.28099123440E+04  0.28099123440E+04  0.00000000000E+00 0. -1.
        -13    1    1    2    0    0 -0.57727860304E+03  0.23216231279E+03 -0.10825777035E+04  0.12486490380E+04  0.10566000000E+00 0.  1.
         13    1    1    2    0    0  0.47856522719E+03 -0.19901957434E+03 -0.15622976942E+04  0.16460278139E+04  0.10566000000E+00 0. -1.
         -4    1    1    2    0  502  0.98713375843E+02 -0.33142738443E+02  0.27401106815E+02  0.10767354520E+03  0.00000000000E+00 0. -1.
</event>
<event>
 5    1  0.2540860E-005  0.4134894E+02  0.7818608E-02  0.1331666E+00
         -4   -1    0    0    0  501 -0.00000000000E+00  0.00000000000E+00  0.30577996349E+02  0.30577996349E+02  0.00000000000E+00 0. -1.
         21   -1    0    0  501  502  0.00000000000E+00 -0.00000000000E+00 -0.16757484696E+03  0.16757484696E+03  0.00000000000E+00 0.  1.
        -13    1    1    2    0    0 -0.39094532463E+02 -0.30084337007E+02 -0.78377774645E+02  0.92609591965E+02  0.10566000000E+00 0.  1.
         13    1    1    2    0    0  0.37705257753E+02  0.13562118192E+02  0.44634390087E+01  0.40318122028E+02  0.10566000000E+00 0. -1.
         -4    1    1    2    0  502  0.13892747096E+01  0.16522218815E+02 -0.63082514979E+02  0.65225129321E+02  0.00000000000E+00 0. -1.
</event>
<event>
 5    1  0.2540860E-005  0.1715263E+03  0.7818608E-02  0.1084682E+00
         -4   -1    0    0    0  501 -0.00000000000E+00  0.00000000000E+00  0.98947539288E+03  0.98947539288E+03  0.00000000000E+00 0. -1.
         21   -1    0    0  501  502  0.00000000000E+00 -0.00000000000E+00 -0.12539586691E+03  0.12539586691E+03  0.00000000000E+00 0.  1.
        -13    1    1    2    0    0 -0.12820031091E+03 -0.91479772734E+02  0.11686425854E+03  0.19611510555E+03  0.10566000000E+00 0.  1.
         13    1    1    2    0    0  0.21447704177E+03 -0.57615677632E+02  0.70810435713E+03  0.74211303687E+03  0.10566000000E+00 0. -1.
         -4    1    1    2    0  502 -0.86276730851E+02  0.14909545037E+03  0.39110910298E+02  0.17664311736E+03  0.00000000000E+00 0. -1.
</event>
<event>
 5    1  0.2540860E-005  0.4097505E+03  0.7818608E-02  0.9917282E-01
         -4   -1    0    0    0  501 -0.00000000000E+00  0.00000000000E+00  0.82930557921E+03  0.82930557921E+03  0.00000000000E+00 0. -1.
         21   -1    0    0  501  502  0.00000000000E+00 -0.00000000000E+00 -0.47920972381E+03  0.47920972381E+03  0.00000000000E+00 0. -1.
        -13    1    1    2    0    0 -0.14410563964E+03  0.13327346215E+03  0.23230653800E+03  0.30412923215E+03  0.10566000000E+00 0.  1.
         13    1    1    2    0    0  0.30723722981E+03  0.25690535899E+03  0.34116751215E+03  0.52610869730E+03  0.10566000000E+00 0. -1.
         -4    1    1    2    0  502 -0.16313159017E+03 -0.39017882114E+03 -0.22337819475E+03  0.47827737357E+03  0.00000000000E+00 0. -1.
</event>
<event>
 5    1  0.2540860E-005  0.2212488E+03  0.7818608E-02  0.1046470E+00
          4   -1    0    0  502    0 -0.00000000000E+00  0.00000000000E+00  0.16715152114E+03  0.16715152114E+03  0.00000000000E+00 0.  1.
         21   -1    0    0  501  502  0.00000000000E+00 -0.00000000000E+00 -0.11234600191E+04  0.11234600191E+04  0.00000000000E+00 0. -1.
        -13    1    1    2    0    0  0.21541309703E+03 -0.52396954048E+02  0.73271197452E+02  0.23348859224E+03  0.10566000000E+00 0.  1.
         13    1    1    2    0    0 -0.21476633722E+03  0.30128189883E+02 -0.95327118561E+03  0.97762889273E+03  0.10566000000E+00 0. -1.
          4    1    1    2  501    0 -0.64675980603E+00  0.22268764165E+02 -0.76308509814E+02  0.79494055286E+02  0.00000000000E+00 0.  1.
</event>
<event>
 5    1  0.2540860E-005  0.1140541E+03  0.7818608E-02  0.1143191E+00
         -4   -1    0    0    0  501 -0.00000000000E+00  0.00000000000E+00  0.78004838634E+02  0.78004838634E+02  0.00000000000E+00 0. -1.
         21   -1    0    0  501  502  0.00000000000E+00 -0.00000000000E+00 -0.73901445122E+03  0.73901445122E+03  0.00000000000E+00 0.  1.
        -13    1    1    2    0    0  0.10144422455E+03 -0.92914106664E+02 -0.61203712591E+03  0.62730647738E+03  0.10566000000E+00 0.  1.
         13    1    1    2    0    0 -0.80890571655E+02  0.77899978676E+02  0.21891980158E+02  0.11441573851E+03  0.10566000000E+00 0. -1.
         -4    1    1    2    0  502 -0.20553652898E+02  0.15014127988E+02 -0.70864466833E+02  0.75297073955E+02  0.00000000000E+00 0. -1.
</event>
<event>
 5    1  0.7748990E-005  0.4241245E+03  0.7818608E-02  0.1023307E+00
         -4   -1    0    0    0  501 -0.00000000000E+00  0.00000000000E+00  0.44055326540E+03  0.44055326540E+03  0.00000000000E+00 0. -1.
         21   -1    0    0  501  502  0.00000000000E+00 -0.00000000000E+00 -0.70873816539E+03  0.70873816539E+03  0.00000000000E+00 0. -1.
        -13    1    1    2    0    0  0.59244732725E+02 -0.23729947293E+02  0.69835097674E+02  0.94604443793E+02  0.10566000000E+00 0.  1.
         13    1    1    2    0    0  0.34842979347E+03 -0.13984220535E+03  0.14438724837E+03  0.40225222439E+03  0.10566000000E+00 0. -1.
         -4    1    1    2    0  502 -0.40767452619E+03  0.16357215265E+03 -0.48240724604E+03  0.65243476260E+03  0.00000000000E+00 0. -1.
</event>
<event>
 5    1  0.2540860E-005  0.4983842E+03  0.7818608E-02  0.9735539E-01
         -4   -1    0    0    0  501 -0.00000000000E+00  0.00000000000E+00  0.19104376139E+04  0.19104376139E+04  0.00000000000E+00 0. -1.
         21   -1    0    0  501  502  0.00000000000E+00 -0.00000000000E+00 -0.20117416971E+03  0.20117416971E+03  0.00000000000E+00 0. -1.
        -13    1    1    2    0    0  0.19597691729E+03 -0.49793272192E+02  0.33921624436E+03  0.39491010834E+03  0.10566000000E+00 0.  1.
         13    1    1    2    0    0 -0.13257081739E+03 -0.46858845285E+03  0.85043582004E+03  0.97999553822E+03  0.10566000000E+00 0. -1.
         -4    1    1    2    0  502 -0.63406099897E+02  0.51838172504E+03  0.51961137981E+03  0.73670613706E+03  0.00000000000E+00 0. -1.
</event>
<event>
 5    1  0.2540860E-005  0.2629323E+03  0.7818608E-02  0.1025940E+00
          4   -1    0    0  502    0 -0.00000000000E+00  0.00000000000E+00  0.19103372967E+04  0.19103372967E+04  0.00000000000E+00 0.  1.
         21   -1    0    0  501  502  0.00000000000E+00 -0.00000000000E+00 -0.22940718127E+03  0.22940718127E+03  0.00000000000E+00 0.  1.
        -13    1    1    2    0    0  0.24779458881E+03  0.35473248721E+02 -0.67296268198E+02  0.25920900543E+03  0.10566000000E+00 0.  1.
         13    1    1    2    0    0  0.14587589328E+02  0.27104407034E+03  0.50290709526E+03  0.57148337111E+03  0.10566000000E+00 0. -1.
          4    1    1    2  501    0 -0.26238217813E+03 -0.30651731906E+03  0.12453192884E+04  0.13090521015E+04  0.00000000000E+00 0.  1.
</event>
<event>
 5    1  0.2540860E-005  0.2050559E+03  0.7818608E-02  0.1056724E+00
         21   -1    0    0  501  502  0.00000000000E+00  0.00000000000E+00  0.90284043098E+03  0.90284043098E+03  0.00000000000E+00 0. -1.
         -4   -1    0    0    0  501 -0.00000000000E+00 -0.00000000000E+00 -0.24596730171E+03  0.24596730171E+03  0.00000000000E+00 0. -1.
        -13    1    1    2    0    0  0.14559362673E+03  0.13508864582E+03  0.62324767248E+02  0.20816059702E+03  0.10566000000E+00 0.  1.
         13    1    1    2    0    0 -0.10908655199E+03 -0.18021805878E+03 -0.10729183517E+03  0.23641060381E+03  0.10566000000E+00 0. -1.
         -4    1    1    2    0  502 -0.36507074737E+02  0.45129412967E+02  0.70184019719E+03  0.70423653187E+03  0.00000000000E+00 0. -1.
</event>
<event>
 5    1  0.2540860E-005  0.3406472E+03  0.7818608E-02  0.1003600E+00
         21   -1    0    0  501  502  0.00000000000E+00  0.00000000000E+00  0.49685654483E+03  0.49685654483E+03  0.00000000000E+00 0.  1.
          4   -1    0    0  502    0 -0.00000000000E+00 -0.00000000000E+00 -0.97466086410E+03  0.97466086410E+03  0.00000000000E+00 0.  1.
        -13    1    1    2    0    0  0.30026887010E+03  0.19146057883E+03  0.34085274129E+03  0.49294943961E+03  0.10566000000E+00 0.  1.
         13    1    1    2    0    0 -0.20879902538E+03  0.98962467270E+02 -0.37511621923E+03  0.44057098409E+03  0.10566000000E+00 0. -1.
          4    1    1    2  501    0 -0.91469844718E+02 -0.29042304610E+03 -0.44354084133E+03  0.53799698524E+03  0.00000000000E+00 0.  1.
</event>
<event>
 5    1  0.2540860E-005  0.4504597E+03  0.7818608E-02  0.9617615E-01
         21   -1    0    0  501  502  0.00000000000E+00  0.00000000000E+00  0.53601200488E+03  0.53601200488E+03  0.00000000000E+00 0.  1.
         -4   -1    0    0    0  501 -0.00000000000E+00 -0.00000000000E+00 -0.12079884167E+04  0.12079884167E+04  0.00000000000E+00 0. -1.
        -13    1    1    2    0    0  0.24506713004E+03  0.33340305529E+03 -0.53712447106E+03  0.67802522378E+03  0.10566000000E+00 0.  1.
         13    1    1    2    0    0 -0.48644434271E+03  0.89738805984E+02 -0.26578947659E+03  0.56153825238E+03  0.10566000000E+00 0. -1.
         -4    1    1    2    0  502  0.24137721267E+03 -0.42314186128E+03  0.13093753588E+03  0.50443694538E+03  0.00000000000E+00 0. -1.
</event>
<event>
 5    1  0.2540860E-005  0.4395338E+03  0.7818608E-02  0.9974839E-01
         -4   -1    0    0    0  501 -0.00000000000E+00  0.00000000000E+00  0.10478893031E+04  0.10478893031E+04  0.00000000000E+00 0. -1.
         21   -1    0    0  501  502  0.00000000000E+00 -0.00000000000E+00 -0.38451910996E+03  0.38451910996E+03  0.00000000000E+00 0. -1.
        -13    1    1    2    0    0 -0.90600615157E+02 -0.95186297438E+02  0.34744237294E+03  0.37146347918E+03  0.10566000000E+00 0.  1.
         13    1    1    2    0    0 -0.41052361146E+03 -0.45433552759E+02 -0.62094764155E+02  0.41767165834E+03  0.10566000000E+00 0. -1.
         -4    1    1    2    0  502  0.50112422662E+03  0.14061985020E+03  0.37802258440E+03  0.64327327559E+03  0.00000000000E+00 0. -1.
</event>
<event>
 5    1  0.2540860E-005  0.5115024E+03  0.7818608E-02  0.9453112E-01
         21   -1    0    0  501  502  0.00000000000E+00  0.00000000000E+00  0.37561777474E+03  0.37561777474E+03  0.00000000000E+00 0. -1.
         -4   -1    0    0    0  501 -0.00000000000E+00 -0.00000000000E+00 -0.29631205066E+04  0.29631205066E+04  0.00000000000E+00 0. -1.
        -13    1    1    2    0    0 -0.14761043283E+03  0.73046123259E+03 -0.15190067232E+04  0.16919645057E+04  0.10566000000E+00 0.  1.
         13    1    1    2    0    0  0.42980811482E+02 -0.41566338303E+03 -0.12144657922E+04  0.12843483054E+04  0.10566000000E+00 0. -1.
         -4    1    1    2    0  502  0.10462962135E+03 -0.31479784955E+03  0.14596978354E+03  0.36242547021E+03  0.00000000000E+00 0. -1.
</event>
<event>
 5    1  0.2540860E-005  0.2316108E+03  0.7818608E-02  0.1040389E+00
         -4   -1    0    0    0  501 -0.00000000000E+00  0.00000000000E+00  0.16964065889E+04  0.16964065889E+04  0.00000000000E+00 0. -1.
         21   -1    0    0  501  502  0.00000000000E+00 -0.00000000000E+00 -0.64123917925E+02  0.64123917925E+02  0.00000000000E+00 0. -1.
        -13    1    1    2    0    0  0.17933220723E+03  0.65726495391E+02  0.51502331044E+03  0.54929867486E+03  0.10566000000E+00 0.  1.
         13    1    1    2    0    0 -0.29512551979E+03  0.11195397021E+02  0.94386220816E+03  0.98898952902E+03  0.10566000000E+00 0. -1.
         -4    1    1    2    0  502  0.11579331256E+03 -0.76921892412E+02  0.17339715236E+03  0.22224230293E+03  0.00000000000E+00 0. -1.
</event>
<event>
 5    1  0.2540860E-005  0.4027087E+03  0.7818608E-02  0.9875736E-01
         21   -1    0    0  501  502  0.00000000000E+00  0.00000000000E+00  0.27941218548E+03  0.27941218548E+03  0.00000000000E+00 0. -1.
         -4   -1    0    0    0  501 -0.00000000000E+00 -0.00000000000E+00 -0.13675844715E+04  0.13675844715E+04  0.00000000000E+00 0. -1.
        -13    1    1    2    0    0  0.12720498976E+03  0.20070221879E+03 -0.11051155442E+03  0.26205973531E+03  0.10566000000E+00 0.  1.
         13    1    1    2    0    0  0.29884184677E+03 -0.22521497337E+03 -0.86664511728E+03  0.94398199352E+03  0.10566000000E+00 0. -1.
         -4    1    1    2    0  502 -0.42604683653E+03  0.24512754585E+02 -0.11101561435E+03  0.44095492818E+03  0.00000000000E+00 0. -1.
</event>
<event>
 5    1  0.2540860E-005  0.4716244E+03  0.7818608E-02  0.9568539E-01
         -4   -1    0    0    0  501 -0.00000000000E+00  0.00000000000E+00  0.22061973846E+04  0.22061973846E+04  0.00000000000E+00 0. -1.
         21   -1    0    0  501  502  0.00000000000E+00 -0.00000000000E+00 -0.31811268863E+03  0.31811268863E+03  0.00000000000E+00 0. -1.
        -13    1    1    2    0    0  0.26839381368E+03  0.41503691669E+03  0.78173236189E+03  0.92487641241E+03  0.10566000000E+00 0.  1.
         13    1    1    2    0    0 -0.47115819711E+03  0.93930837720E+02  0.16080147294E+03  0.50662626643E+03  0.10566000000E+00 0. -1.
         -4    1    1    2    0  502  0.20276438343E+03 -0.50896775441E+03  0.94555086116E+03  0.10928073944E+04  0.00000000000E+00 0. -1.
</event>
<event>
 5    1  0.2540860E-005  0.4573303E+03  0.7818608E-02  0.9603350E-01
          4   -1    0    0  502    0 -0.00000000000E+00  0.00000000000E+00  0.21751049940E+04  0.21751049940E+04  0.00000000000E+00 0.  1.
         21   -1    0    0  501  502  0.00000000000E+00 -0.00000000000E+00 -0.78269235314E+03  0.78269235314E+03  0.00000000000E+00 0.  1.
        -13    1    1    2    0    0 -0.25149808111E+03  0.22136516945E+03 -0.12451445016E+03  0.35743206699E+03  0.10566000000E+00 0.  1.
         13    1    1    2    0    0 -0.21424107241E+03  0.35652824917E+03  0.17684409258E+04  0.18166989152E+04  0.10566000000E+00 0. -1.
          4    1    1    2  501    0  0.46573915352E+03 -0.57789341862E+03 -0.25151383475E+03  0.78366636490E+03  0.00000000000E+00 0.  1.
</event>
<event>
 5    1  0.2540860E-005  0.8920093E+02  0.7818608E-02  0.1183776E+00
         -4   -1    0    0    0  501 -0.00000000000E+00  0.00000000000E+00  0.77592965065E+02  0.77592965065E+02  0.00000000000E+00 0. -1.
         21   -1    0    0  501  502  0.00000000000E+00 -0.00000000000E+00 -0.11451709492E+04  0.11451709492E+04  0.00000000000E+00 0.  1.
        -13    1    1    2    0    0  0.28981486277E+02  0.10229420614E+03 -0.50035947415E+03  0.51153068890E+03  0.10566000000E+00 0.  1.
         13    1    1    2    0    0 -0.14682935248E+02 -0.87085026740E+02  0.44683784922E+02  0.98974957786E+02  0.10566000000E+00 0. -1.
         -4    1    1    2    0  502 -0.14298551029E+02 -0.15209179395E+02 -0.61190229486E+03  0.61225826753E+03  0.00000000000E+00 0. -1.
</event>
<event>
 5    1  0.2540860E-005  0.4002864E+03  0.7818608E-02  0.9806436E-01
         21   -1    0    0  501  502  0.00000000000E+00  0.00000000000E+00  0.41142515870E+03  0.41142515870E+03  0.00000000000E+00 0.  1.
          4   -1    0    0  502    0 -0.00000000000E+00 -0.00000000000E+00 -0.16852352777E+04  0.16852352777E+04  0.00000000000E+00 0.  1.
        -13    1    1    2    0    0  0.19714956541E+03 -0.58763128718E+03 -0.45291087975E+03  0.76766317938E+03  0.10566000000E+00 0.  1.
         13    1    1    2    0    0  0.19762994611E+02  0.30530406543E+03 -0.91161922401E+03  0.96158762943E+03  0.10566000000E+00 0. -1.
          4    1    1    2  501    0 -0.21691256002E+03  0.28232722175E+03  0.90719984742E+02  0.36740962761E+03  0.00000000000E+00 0.  1.
</event>
<event>
 5    1  0.2540860E-005  0.3379946E+03  0.7818608E-02  0.1020456E+00
         -4   -1    0    0    0  501 -0.00000000000E+00  0.00000000000E+00  0.26086546015E+04  0.26086546015E+04  0.00000000000E+00 0. -1.
         21   -1    0    0  501  502  0.00000000000E+00 -0.00000000000E+00 -0.12341794510E+03  0.12341794510E+03  0.00000000000E+00 0. -1.
        -13    1    1    2    0    0 -0.13524044252E+03 -0.26994859969E+02  0.42231704514E+03  0.44426388277E+03  0.10566000000E+00 0.  1.
         13    1    1    2    0    0  0.22026716902E+03 -0.26757251358E+03  0.20064219493E+03  0.40046220461E+03  0.10566000000E+00 0. -1.
         -4    1    1    2    0  502 -0.85026726499E+02  0.29456737355E+03  0.18622774163E+04  0.18873464592E+04  0.00000000000E+00 0. -1.
</event>
<event>
 5    1  0.2540860E-005  0.2858774E+03  0.7818608E-02  0.1027139E+00
         -4   -1    0    0    0  501 -0.00000000000E+00  0.00000000000E+00  0.11851354411E+04  0.11851354411E+04  0.00000000000E+00 0. -1.
         21   -1    0    0  501  502  0.00000000000E+00 -0.00000000000E+00 -0.39747701887E+03  0.39747701887E+03  0.00000000000E+00 0. -1.
        -13    1    1    2    0    0 -0.18009755057E+03 -0.41965321782E+02  0.49064270536E+03  0.52433433174E+03  0.10566000000E+00 0.  1.
         13    1    1    2    0    0  0.15442375114E+03 -0.24753379854E+03  0.58212621417E+03  0.65114561868E+03  0.10566000000E+00 0. -1.
         -4    1    1    2    0  502  0.25673799434E+02  0.28949912032E+03 -0.28511049731E+03  0.40713250954E+03  0.00000000000E+00 0. -1.
</event>
<event>
 5    1  0.2540860E-005  0.5000642E+03  0.7818608E-02  0.9789937E-01
          4   -1    0    0  502    0 -0.00000000000E+00  0.00000000000E+00  0.12206804681E+04  0.12206804681E+04  0.00000000000E+00 0.  1.
         21   -1    0    0  501  502  0.00000000000E+00 -0.00000000000E+00 -0.74380920816E+03  0.74380920816E+03  0.00000000000E+00 0.  1.
        -13    1    1    2    0    0  0.38441227474E+03 -0.34550445514E+03 -0.97458022644E+02  0.52596977369E+03  0.10566000000E+00 0.  1.
         13    1    1    2    0    0  0.74579655629E+02  0.14832017611E+03  0.85128949690E+03  0.86732624679E+03  0.10566000000E+00 0. -1.
          4    1    1    2  501    0 -0.45899193037E+03  0.19718427902E+03 -0.27696021434E+03  0.57119365575E+03  0.00000000000E+00 0.  1.
</event>
<event>
 5    1  0.2540860E-005  0.4863288E+03  0.7818608E-02  0.9508450E-01
         21   -1    0    0  501  502  0.00000000000E+00  0.00000000000E+00  0.25079865184E+03  0.25079865184E+03  0.00000000000E+00 0.  1.
          4   -1    0    0  502    0 -0.00000000000E+00 -0.00000000000E+00 -0.17360914677E+04  0.17360914677E+04  0.00000000000E+00 0.  1.
        -13    1    1    2    0    0  0.23843650669E+03 -0.50542555425E+03 -0.77941862940E+03  0.95906223449E+03  0.10566000000E+00 0.  1.
         13    1    1    2    0    0  0.51413353110E+02  0.44731767601E+03 -0.45470176166E+03  0.63991416563E+03  0.10566000000E+00 0. -1.
          4    1    1    2  501    0 -0.28984985980E+03  0.58107878242E+02 -0.25117242483E+03  0.38791371944E+03  0.00000000000E+00 0.  1.
</event>
<event>
 5    1  0.2540860E-005  0.5496007E+03  0.7818608E-02  0.9375416E-01
         21   -1    0    0  501  502  0.00000000000E+00  0.00000000000E+00  0.33229491181E+03  0.33229491181E+03  0.00000000000E+00 0. -1.
          4   -1    0    0  502    0 -0.00000000000E+00 -0.00000000000E+00 -0.26833016255E+04  0.26833016255E+04  0.00000000000E+00 0.  1.
        -13    1    1    2    0    0 -0.52972896124E+03  0.39801942408E+03 -0.95773008119E+03  0.11645939867E+04  0.10566000000E+00 0.  1.
         13    1    1    2    0    0  0.37886672423E+03 -0.33551386482E+03 -0.15464247474E+04  0.16271260119E+04  0.10566000000E+00 0. -1.
          4    1    1    2  501    0  0.15086223701E+03 -0.62505559263E+02  0.15314811485E+03  0.22387653869E+03  0.00000000000E+00 0.  1.
</event>
<event>
 5    1  0.2540860E-005  0.4678711E+03  0.7818608E-02  0.9953720E-01
         21   -1    0    0  501  502  0.00000000000E+00  0.00000000000E+00  0.24586963019E+04  0.24586963019E+04  0.00000000000E+00 0.  1.
          4   -1    0    0  502    0 -0.00000000000E+00 -0.00000000000E+00 -0.70942888163E+03  0.70942888163E+03  0.00000000000E+00 0.  1.
        -13    1    1    2    0    0 -0.31782752994E+03  0.39171981030E+03  0.18978825081E+04  0.19637761518E+04  0.10566000000E+00 0.  1.
         13    1    1    2    0    0  0.67415900077E+02 -0.95402530195E+02 -0.59878509381E+03  0.61007388576E+03  0.10566000000E+00 0. -1.
          4    1    1    2  501    0  0.25041162987E+03 -0.29631728010E+03  0.45017000598E+03  0.59427514599E+03  0.00000000000E+00 0.  1.
</event>
<event>
 5    1  0.3996681E-005  0.4053280E+03  0.7818608E-02  0.9713784E-01
         -4   -1    0    0    0  501 -0.00000000000E+00  0.00000000000E+00  0.20554786766E+04  0.20554786766E+04  0.00000000000E+00 0. -1.
         21   -1    0    0  501  502  0.00000000000E+00 -0.00000000000E+00 -0.35316771669E+03  0.35316771669E+03  0.00000000000E+00 0.  1.
        -13    1    1    2    0    0 -0.38970215897E+03 -0.33888082509E+03  0.25632253378E+03  0.57654942443E+03  0.10566000000E+00 0.  1.
         13    1    1    2    0    0  0.29420112633E+03  0.25459766143E+03  0.15917001330E+04  0.16385614412E+04  0.10566000000E+00 0. -1.
         -4    1    1    2    0  502  0.95501032639E+02  0.84283163654E+02 -0.14571170695E+03  0.19353552762E+03  0.00000000000E+00 0. -1.
</event>
<event>
 5    1  0.2540860E-005  0.4908159E+03  0.7818608E-02  0.1004435E+00
         21   -1    0    0  501  502  0.00000000000E+00  0.00000000000E+00  0.14254110679E+04  0.14254110679E+04  0.00000000000E+00 0.  1.
          4   -1    0    0  502    0 -0.00000000000E+00 -0.00000000000E+00 -0.39795260427E+03  0.39795260427E+03  0.00000000000E+00 0.  1.
        -13    1    1    2    0    0  0.39734280617E+03  0.33693727895E+03  0.80514560554E+03  0.95899295766E+03  0.10566000000E+00 0.  1.
         13    1    1    2    0    0 -0.31542927266E+02 -0.68245465545E+02 -0.21885844635E+03  0.23141182021E+03  0.10566000000E+00 0. -1.
          4    1    1    2  501    0 -0.36579987890E+03 -0.26869181341E+03  0.44117130442E+03  0.63295889428E+03  0.00000000000E+00 0.  1.
</event>
<event>
 5    1  0.2540860E-005  0.5152894E+03  0.7818608E-02  0.9517659E-01
         -4   -1    0    0    0  501 -0.00000000000E+00  0.00000000000E+00  0.38071590288E+03  0.38071590288E+03  0.00000000000E+00 0. -1.
         21   -1    0    0  501  502  0.00000000000E+00 -0.00000000000E+00 -0.15488694925E+04  0.15488694925E+04  0.00000000000E+00 0.  1.
        -13    1    1    2    0    0 -0.13795630534E+03 -0.37059015776E+03 -0.48752357611E+03  0.62773263069E+03  0.10566000000E+00 0.  1.
         13    1    1    2    0    0  0.18941361030E+03 -0.29703749074E+03 -0.74710456353E+01  0.35236999639E+03  0.10566000000E+00 0. -1.
         -4    1    1    2    0  502 -0.51457304962E+02  0.66762764850E+03 -0.67315896792E+03  0.94948276834E+03  0.00000000000E+00 0. -1.
</event>
<event>
 5    1  0.2540860E-005  0.4531276E+03  0.7818608E-02  0.9763995E-01
         21   -1    0    0  501  502  0.00000000000E+00  0.00000000000E+00  0.29730100233E+03  0.29730100233E+03  0.00000000000E+00 0. -1.
         -4   -1    0    0    0  501 -0.00000000000E+00 -0.00000000000E+00 -0.16005661718E+04  0.16005661718E+04  0.00000000000E+00 0. -1.
        -13    1    1    2    0    0  0.21241333624E+03  0.11985691304E+03 -0.62118600237E+03  0.66735085653E+03  0.10566000000E+00 0.  1.
         13    1    1    2    0    0 -0.26228238424E+03  0.37144716125E+03 -0.97100104307E+02  0.46496611070E+03  0.10566000000E+00 0. -1.
         -4    1    1    2    0  502  0.49869048003E+02 -0.49130407429E+03 -0.58497906281E+03  0.76555020690E+03  0.00000000000E+00 0. -1.
</event>
<event>
 5    1  0.2540860E-005  0.4838418E+03  0.7818608E-02  0.9839093E-01
          4   -1    0    0  502    0 -0.00000000000E+00  0.00000000000E+00  0.12121823928E+04  0.12121823928E+04  0.00000000000E+00 0.  1.
         21   -1    0    0  501  502  0.00000000000E+00 -0.00000000000E+00 -0.42639750338E+03  0.42639750338E+03  0.00000000000E+00 0.  1.
        -13    1    1    2    0    0  0.15494251557E+02  0.38725650183E+03  0.30794306743E+03  0.49501173116E+03  0.10566000000E+00 0.  1.
         13    1    1    2    0    0  0.49300187495E+02  0.14699323147E+03  0.57602097520E+03  0.59652132705E+03  0.10566000000E+00 0. -1.
          4    1    1    2  501    0 -0.64794439052E+02 -0.53424973330E+03 -0.98179153184E+02  0.54704683801E+03  0.00000000000E+00 0.  1.
</event>
<event>
 5    1  0.2540860E-005  0.6633629E+03  0.7818608E-02  0.9223716E-01
         21   -1    0    0  501  502  0.00000000000E+00  0.00000000000E+00  0.28998706303E+03  0.28998706303E+03  0.00000000000E+00 0. -1.
          4   -1    0    0  502    0 -0.00000000000E+00 -0.00000000000E+00 -0.37229840707E+04  0.37229840707E+04  0.00000000000E+00 0.  1.
        -13    1    1    2    0    0 -0.21774307745E+03  0.46681089872E+03 -0.39243621961E+03  0.64755745735E+03  0.10566000000E+00 0.  1.
         13    1    1    2    0    0  0.67158175356E+03  0.17008065212E+02 -0.21656341105E+04  0.22674396217E+04  0.10566000000E+00 0. -1.
          4    1    1    2  501    0 -0.45383867611E+03 -0.48381896393E+03 -0.87492667752E+03  0.10979740547E+04  0.00000000000E+00 0.  1.
</event>
<event>
 5    1  0.2540860E-005  0.2141774E+03  0.7818608E-02  0.1050828E+00
         21   -1    0    0  501  502  0.00000000000E+00  0.00000000000E+00  0.18046793363E+03  0.18046793363E+03  0.00000000000E+00 0.  1.
         -4   -1    0    0    0  501 -0.00000000000E+00 -0.00000000000E+00 -0.41903420465E+03  0.41903420465E+03  0.00000000000E+00 0. -1.
        -13    1    1    2    0    0 -0.10497791549E+03 -0.22361865655E+03 -0.75949648563E+02  0.25844540348E+03  0.10566000000E+00 0.  1.
         13    1    1    2    0    0  0.46878495715E+02  0.19437901312E+03 -0.18486378035E+03  0.27231493267E+03  0.10566000000E+00 0. -1.
         -4    1    1    2    0  502  0.58099419778E+02  0.29239643428E+02  0.22247157899E+02  0.68741802136E+02  0.00000000000E+00 0. -1.
</event>
<event>
 5    1  0.2540860E-005  0.2704073E+03  0.7818608E-02  0.1020328E+00
         21   -1    0    0  501  502  0.00000000000E+00  0.00000000000E+00  0.12742622395E+03  0.12742622395E+03  0.00000000000E+00 0. -1.
          4   -1    0    0  502    0 -0.00000000000E+00 -0.00000000000E+00 -0.10097331299E+04  0.10097331299E+04  0.00000000000E+00 0.  1.
        -13    1    1    2    0    0  0.23270319513E+03 -0.11582783362E+03 -0.30151388944E+03  0.39809232692E+03  0.10566000000E+00 0.  1.
         13    1    1    2    0    0 -0.25916477501E+03  0.98520303948E+02 -0.62556561954E+03  0.68425505947E+03  0.10566000000E+00 0. -1.
          4    1    1    2  501    0  0.26461579876E+02  0.17307529675E+02  0.44772603033E+02  0.54811967446E+02  0.00000000000E+00 0.  1.
</event>
<event>
 5    1  0.2540860E-005  0.6928592E+03  0.7818608E-02  0.9133401E-01
         21   -1    0    0  501  502  0.00000000000E+00  0.00000000000E+00  0.12868849606E+04  0.12868849606E+04  0.00000000000E+00 0.  1.
          4   -1    0    0  502    0 -0.00000000000E+00 -0.00000000000E+00 -0.66562777327E+03  0.66562777327E+03  0.00000000000E+00 0.  1.
        -13    1    1    2    0    0 -0.69556218336E+03  0.46146695545E+03  0.48011510930E+03  0.96294809374E+03  0.10566000000E+00 0.  1.
         13    1    1    2    0    0  0.62659102645E+03 -0.12897043068E+03  0.84051486322E+02  0.64522426329E+03  0.10566000000E+00 0. -1.
          4    1    1    2  501    0  0.68971156910E+02 -0.33249652477E+03  0.57090591730E+02  0.34434037686E+03  0.00000000000E+00 0.  1.
</event>
<event>
 5    1  0.2540860E-005  0.2564707E+03  0.7818608E-02  0.1035066E+00
          4   -1    0    0  502    0 -0.00000000000E+00  0.00000000000E+00  0.65090093422E+03  0.65090093422E+03  0.00000000000E+00 0.  1.
         21   -1    0    0  501  502  0.00000000000E+00 -0.00000000000E+00 -0.63055372539E+03  0.63055372539E+03  0.00000000000E+00 0.  1.
        -13    1    1    2    0    0 -0.27866982638E+03  0.18915209888E+03  0.34856471291E+03  0.48469862688E+03  0.10566000000E+00 0.  1.
         13    1    1    2    0    0  0.19390088598E+03  0.51285384241E+02  0.15294215565E+03  0.25222818708E+03  0.10566000000E+00 0. -1.
          4    1    1    2  501    0  0.84768940402E+02 -0.24043748312E+03 -0.48115965973E+03  0.54452784566E+03  0.00000000000E+00 0.  1.
</event>
<event>
 5    1  0.2540860E-005  0.4932877E+03  0.7818608E-02  0.9748700E-01
          4   -1    0    0  502    0 -0.00000000000E+00  0.00000000000E+00  0.19507735751E+04  0.19507735751E+04  0.00000000000E+00 0.  1.
         21   -1    0    0  501  502  0.00000000000E+00 -0.00000000000E+00 -0.22459481333E+03  0.22459481333E+03  0.00000000000E+00 0.  1.
        -13    1    1    2    0    0  0.36919460314E+03 -0.95910795647E+02  0.72668279844E+03  0.82071397967E+03  0.10566000000E+00 0.  1.
         13    1    1    2    0    0  0.14971320280E+03 -0.13150759743E+03  0.67054153668E+03  0.69952430612E+03  0.10566000000E+00 0. -1.
          4    1    1    2  501    0 -0.51890780593E+03  0.22741839307E+03  0.32895442665E+03  0.65513010264E+03  0.00000000000E+00 0.  1.
</event>
<event>
 5    1  0.2540860E-005  0.4245294E+03  0.7818608E-02  0.9729441E-01
         21   -1    0    0  501  502  0.00000000000E+00  0.00000000000E+00  0.38717870940E+03  0.38717870940E+03  0.00000000000E+00 0. -1.
         -4   -1    0    0    0  501 -0.00000000000E+00 -0.00000000000E+00 -0.17628961505E+04  0.17628961505E+04  0.00000000000E+00 0. -1.
        -13    1    1    2    0    0  0.27876283531E+03 -0.18422235809E+03 -0.94167985737E+03  0.99920346302E+03  0.10566000000E+00 0.  1.
         13    1    1    2    0    0 -0.59166245441E+03 -0.54068578556E+02 -0.46769928605E+03  0.75612862958E+03  0.10566000000E+00 0. -1.
         -4    1    1    2    0  502  0.31289961909E+03  0.23829093665E+03  0.33661702341E+02  0.39474276728E+03  0.00000000000E+00 0. -1.
</event>
<event>
 5    1  0.2540860E-005  0.4376657E+03  0.7818608E-02  0.9626178E-01
         21   -1    0    0  501  502  0.00000000000E+00  0.00000000000E+00  0.36672729806E+03  0.36672729806E+03  0.00000000000E+00 0. -1.
         -4   -1    0    0    0  501 -0.00000000000E+00 -0.00000000000E+00 -0.12214901815E+04  0.12214901815E+04  0.00000000000E+00 0. -1.
        -13    1    1    2    0    0  0.43122137671E+02 -0.35454463944E+03 -0.35462912828E+03  0.50331227871E+03  0.10566000000E+00 0.  1.
         13    1    1    2    0    0 -0.22610717836E+03  0.60628181128E+03 -0.38578381805E+03  0.75334670386E+03  0.10566000000E+00 0. -1.
         -4    1    1    2    0  502  0.18298504069E+03 -0.25173717184E+03 -0.11434993710E+03  0.33155849697E+03  0.00000000000E+00 0. -1.
</event>
<event>
 5    1  0.2540860E-005  0.1249739E+03  0.7818608E-02  0.1128796E+00
          4   -1    0    0  502    0 -0.00000000000E+00  0.00000000000E+00  0.23321479654E+03  0.23321479654E+03  0.00000000000E+00 0.  1.
         21   -1    0    0  501  502  0.00000000000E+00 -0.00000000000E+00 -0.22170311971E+03  0.22170311971E+03  0.00000000000E+00 0.  1.
        -13    1    1    2    0    0  0.42996705377E+02  0.11338965158E+03  0.94273988731E+02  0.15360184203E+03  0.10566000000E+00 0.  1.
         13    1    1    2    0    0 -0.15195735686E+03 -0.75463355344E+02 -0.22487661079E+02  0.17114748718E+03  0.10566000000E+00 0. -1.
          4    1    1    2  501    0  0.10896065148E+03 -0.37926296238E+02 -0.60274650827E+02  0.13016858703E+03  0.00000000000E+00 0.  1.
</event>
<event>
 5    1  0.2540860E-005  0.2489885E+02  0.7818608E-02  0.1454601E+00
         21   -1    0    0  501  502  0.00000000000E+00  0.00000000000E+00  0.22838295841E+03  0.22838295841E+03  0.00000000000E+00 0.  1.
          4   -1    0    0  502    0 -0.00000000000E+00 -0.00000000000E+00 -0.27774480268E+02  0.27774480268E+02  0.00000000000E+00 0.  1.
        -13    1    1    2    0    0  0.24902815754E+02  0.40248605412E+02 -0.20971999644E+01  0.47376258630E+02  0.10566000000E+00 0.  1.
         13    1    1    2    0    0 -0.10250818378E+02 -0.21308558376E+02  0.68771259574E+02  0.72722976045E+02  0.10566000000E+00 0. -1.
          4    1    1    2  501    0 -0.14651997376E+02 -0.18940047035E+02  0.13393441853E+03  0.13605820400E+03  0.00000000000E+00 0.  1.
</event>
<event>
 5    1  0.2652102E-005  0.3070504E+03  0.7818608E-02  0.1036666E+00
          4   -1    0    0  502    0 -0.00000000000E+00  0.00000000000E+00  0.15410804512E+04  0.15410804512E+04  0.00000000000E+00 0.  1.
         21   -1    0    0  501  502  0.00000000000E+00 -0.00000000000E+00 -0.28310148325E+03  0.28310148325E+03  0.00000000000E+00 0.  1.
        -13    1    1    2    0    0  0.16966032594E+03 -0.19581081614E+03  0.81942638907E+03  0.85941033283E+03  0.10566000000E+00 0.  1.
         13    1    1    2    0    0  0.10353247954E+03  0.40878448812E+02  0.60097114287E+03  0.61119256181E+03  0.10566000000E+00 0. -1.
          4    1    1    2  501    0 -0.27319280548E+03  0.15493236733E+03 -0.16241856403E+03  0.35357903975E+03  0.00000000000E+00 0.  1.
</event>
<event>
 5    1  0.2540860E-005  0.1967115E+02  0.7818608E-02  0.1552098E+00
         21   -1    0    0  501  502  0.00000000000E+00  0.00000000000E+00  0.43839265710E+01  0.43839265710E+01  0.00000000000E+00 0. -1.
         -4   -1    0    0    0  501 -0.00000000000E+00 -0.00000000000E+00 -0.20333421580E+03  0.20333421580E+03  0.00000000000E+00 0. -1.
        -13    1    1    2    0    0  0.10135867824E+02  0.57245930462E+01 -0.14225305427E+02  0.18381437937E+02  0.10566000000E+00 0.  1.
         13    1    1    2    0    0 -0.12547682199E+01 -0.22443362167E+02 -0.10751240324E+03  0.10983718388E+03  0.10566000000E+00 0. -1.
         -4    1    1    2    0  502 -0.88810996039E+01  0.16718769121E+02 -0.77212580568E+02  0.79499520559E+02  0.00000000000E+00 0. -1.
</event>
<event>
 5    1  0.2540860E-005  0.4877966E+03  0.7818608E-02  0.9897104E-01
         21   -1    0    0  501  502  0.00000000000E+00  0.00000000000E+00  0.21445279038E+03  0.21445279038E+03  0.00000000000E+00 0.  1.
          4   -1    0    0  502    0 -0.00000000000E+00 -0.00000000000E+00 -0.19740561301E+04  0.19740561301E+04  0.00000000000E+00 0.  1.
        -13    1    1    2    0    0  0.89704714867E+02  0.52051908215E+03 -0.26771473183E+03  0.59216403096E+03  0.10566000000E+00 0.  1.
         13    1    1    2    0    0 -0.35763396986E+02 -0.11920363511E+03 -0.65407645084E+03  0.66581119088E+03  0.10566000000E+00 0. -1.
          4    1    1    2  501    0 -0.53941317880E+02 -0.40131544705E+03 -0.83781215704E+03  0.93053369863E+03  0.00000000000E+00 0.  1.
</event>
<event>
 5    1  0.2540860E-005  0.5779712E+03  0.7818608E-02  0.9321722E-01
         -4   -1    0    0    0  501 -0.00000000000E+00  0.00000000000E+00  0.26361549338E+04  0.26361549338E+04  0.00000000000E+00 0. -1.
         21   -1    0    0  501  502  0.00000000000E+00 -0.00000000000E+00 -0.25564207510E+03  0.25564207510E+03  0.00000000000E+00 0. -1.
        -13    1    1    2    0    0 -0.33518922586E+03  0.36094806203E+03  0.49488450522E+03  0.69824494648E+03  0.10566000000E+00 0.  1.
         13    1    1    2    0    0  0.93458486156E+02 -0.69013955770E+03  0.13595650199E+04  0.15275615052E+04  0.10566000000E+00 0. -1.
         -4    1    1    2    0  502  0.24173073970E+03  0.32919149567E+03  0.52606333363E+03  0.66599055723E+03  0.00000000000E+00 0. -1.
</event>
<event>
 5    1  0.2540860E-005  0.2411154E+03  0.7818608E-02  0.1035102E+00
          4   -1    0    0  502    0 -0.00000000000E+00  0.00000000000E+00  0.12518094086E+04  0.12518094086E+04  0.00000000000E+00 0.  1.
         21   -1    0    0  501  502  0.00000000000E+00 -0.00000000000E+00 -0.69570951788E+02  0.69570951788E+02  0.00000000000E+00 0.  1.
        -13    1    1    2    0    0  0.18701613090E+03  0.16131885265E+03  0.72200215689E+03  0.76307662207E+03  0.10566000000E+00 0.  1.
         13    1    1    2    0    0 -0.18108590305E+03 -0.14739570692E+03  0.47978405856E+03  0.53358256410E+03  0.10566000000E+00 0. -1.
          4    1    1    2  501    0 -0.59302278496E+01 -0.13923145729E+02 -0.19547758607E+02  0.24721174242E+02  0.00000000000E+00 0.  1.
</event>
<event>
 5    1  0.2540860E-005  0.2807515E+02  0.7818608E-02  0.1438746E+00
         21   -1    0    0  501  502  0.00000000000E+00  0.00000000000E+00  0.10295159574E+03  0.10295159574E+03  0.00000000000E+00 0. -1.
          4   -1    0    0  502    0 -0.00000000000E+00 -0.00000000000E+00 -0.40761023734E+02  0.40761023734E+02  0.00000000000E+00 0.  1.
        -13    1    1    2    0    0 -0.33722267860E+01 -0.18669539559E+02 -0.29601476382E+02  0.35159382657E+02  0.10566000000E+00 0.  1.
         13    1    1    2    0    0  0.19782498189E+02 -0.74624799719E+01  0.62604924243E+02  0.66078919070E+02  0.10566000000E+00 0. -1.
          4    1    1    2  501    0 -0.16410271403E+02  0.26132019530E+02  0.29187124144E+02  0.42474317747E+02  0.00000000000E+00 0.  1.
</event>
<event>
 5    1  0.2540860E-005  0.6306885E+03  0.7818608E-02  0.9230086E-01
         -4   -1    0    0    0  501 -0.00000000000E+00  0.00000000000E+00  0.96795235852E+03  0.96795235852E+03  0.00000000000E+00 0. -1.
         21   -1    0    0  501  502  0.00000000000E+00 -0.00000000000E+00 -0.84464744231E+03  0.84464744231E+03  0.00000000000E+00 0.  1.
        -13    1    1    2    0    0  0.25043242157E+03  0.30515694071E+03 -0.46851094227E+03  0.61264971266E+03  0.10566000000E+00 0.  1.
         13    1    1    2    0    0 -0.48173988606E+03 -0.52517370332E+03  0.49005213465E+03  0.86488834096E+03  0.10566000000E+00 0. -1.
         -4    1    1    2    0  502  0.23130746449E+03  0.22001676261E+03  0.10176372382E+03  0.33506174721E+03  0.00000000000E+00 0. -1.
</event>
<event>
 5    1  0.2540860E-005  0.3027283E+03  0.7818608E-02  0.1012744E+00
         -4   -1    0    0    0  501 -0.00000000000E+00  0.00000000000E+00  0.68148600776E+03  0.68148600776E+03  0.00000000000E+00 0. -1.
         21   -1    0    0  501  502  0.00000000000E+00 -0.00000000000E+00 -0.74421081489E+03  0.74421081489E+03  0.00000000000E+00 0.  1.
        -13    1    1    2    0    0  0.32781464450E+03 -0.75548052525E+02  0.16681249068E+03  0.37549483033E+03  0.10566000000E+00 0.  1.
         13    1    1    2    0    0  0.24399365356E+03  0.65073579151E+01 -0.38298478229E+03  0.45415041926E+03  0.10566000000E+00 0. -1.
         -4    1    1    2    0  502 -0.57180829807E+03  0.69040694609E+02  0.15344748448E+03  0.59605157306E+03  0.00000000000E+00 0. -1.
</event>
<event>
 5    1  0.2540860E-005  0.4253447E+03  0.7818608E-02  0.1002850E+00
          4   -1    0    0  502    0 -0.00000000000E+00  0.00000000000E+00  0.18521865933E+04  0.18521865933E+04  0.00000000000E+00 0.  1.
         21   -1    0    0  501  502  0.00000000000E+00 -0.00000000000E+00 -0.17645582612E+03  0.17645582612E+03  0.00000000000E+00 0.  1.
        -13    1    1    2    0    0 -0.34002985101E+03  0.20445266539E+03  0.25825015411E+03  0.47340716643E+03  0.10566000000E+00 0.  1.
         13    1    1    2    0    0 -0.83671025722E+02  0.88277574720E+02  0.33761511214E+03  0.35885616318E+03  0.10566000000E+00 0. -1.
          4    1    1    2  501    0  0.42370087673E+03 -0.29273024011E+03  0.10798655009E+04  0.11963790898E+04  0.00000000000E+00 0.  1.
</event>
<event>
 5    1  0.2540860E-005  0.4484914E+03  0.7818608E-02  0.9688575E-01
         21   -1    0    0  501  502  0.00000000000E+00  0.00000000000E+00  0.10628951728E+04  0.10628951728E+04  0.00000000000E+00 0. -1.
         -4   -1    0    0    0  501 -0.00000000000E+00 -0.00000000000E+00 -0.12266552639E+04  0.12266552639E+04  0.00000000000E+00 0. -1.
        -13    1    1    2    0    0 -0.49868738066E+02 -0.32282025548E+03 -0.93693742619E+03  0.99224571561E+03  0.10566000000E+00 0.  1.
         13    1    1    2    0    0 -0.40460200087E+03  0.31607279195E+03  0.16751265408E+03  0.54006044973E+03  0.10566000000E+00 0. -1.
         -4    1    1    2    0  502  0.45447073893E+03  0.67474635317E+01  0.60566468093E+03  0.75724427138E+03  0.00000000000E+00 0. -1.
</event>
<event>
 5    1  0.2540860E-005  0.3983599E+03  0.7818608E-02  0.9733794E-01
         21   -1    0    0  501  502  0.00000000000E+00  0.00000000000E+00  0.93109515115E+03  0.93109515115E+03  0.00000000000E+00 0. -1.
          4   -1    0    0  502    0 -0.00000000000E+00 -0.00000000000E+00 -0.21640036421E+03  0.21640036421E+03  0.00000000000E+00 0.  1.
        -13    1    1    2    0    0  0.62729128409E+02 -0.39171472623E+03  0.35278433842E+03  0.53087867813E+03  0.10566000000E+00 0.  1.
         13    1    1    2    0    0 -0.72902694906E+02  0.39287848598E+03  0.18660037062E+03  0.44100795588E+03  0.10566000000E+00 0. -1.
          4    1    1    2  501    0  0.10173566497E+02 -0.11637597448E+01  0.17531007791E+03  0.17560888135E+03  0.00000000000E+00 0.  1.
</event>
<event>
 5    1  0.2540860E-005  0.4800931E+03  0.7818608E-02  0.9731303E-01
         21   -1    0    0  501  502  0.00000000000E+00  0.00000000000E+00  0.17332683040E+03  0.17332683040E+03  0.00000000000E+00 0.  1.
          4   -1    0    0  502    0 -0.00000000000E+00 -0.00000000000E+00 -0.24619876678E+04  0.24619876678E+04  0.00000000000E+00 0.  1.
        -13    1    1    2    0    0 -0.27157875021E+02  0.37716019114E+03 -0.97447085212E+03  0.10452659053E+04  0.10566000000E+00 0.  1.
         13    1    1    2    0    0 -0.18851081833E+03  0.13097754353E+03 -0.81186683270E+03  0.84369378968E+03  0.10566000000E+00 0. -1.
          4    1    1    2  501    0  0.21566869335E+03 -0.50813773467E+03 -0.50232315257E+03  0.74635480322E+03  0.00000000000E+00 0.  1.
</event>
<event>
 5    1  0.2540860E-005  0.4615429E+03  0.7818608E-02  0.9909918E-01
         21   -1    0    0  501  502  0.00000000000E+00  0.00000000000E+00  0.64456880829E+03  0.64456880829E+03  0.00000000000E+00 0.  1.
         -4   -1    0    0    0  501 -0.00000000000E+00 -0.00000000000E+00 -0.13030297496E+04  0.13030297496E+04  0.00000000000E+00 0. -1.
        -13    1    1    2    0    0  0.11055184302E+03 -0.87130770077E+02  0.41961752476E+03  0.44259728799E+03  0.10566000000E+00 0.  1.
         13    1    1    2    0    0  0.25339122852E+03  0.38201886839E+03 -0.88828027066E+03  0.99959360788E+03  0.10566000000E+00 0. -1.
         -4    1    1    2    0  502 -0.36394307154E+03 -0.29488809831E+03 -0.18979819541E+03  0.50540766202E+03  0.00000000000E+00 0. -1.
</event>
<event>
 5    1  0.2540860E-005  0.3224485E+03  0.7818608E-02  0.9984471E-01
         21   -1    0    0  501  502  0.00000000000E+00  0.00000000000E+00  0.58862581045E+03  0.58862581045E+03  0.00000000000E+00 0.  1.
         -4   -1    0    0    0  501 -0.00000000000E+00 -0.00000000000E+00 -0.19397187054E+03  0.19397187054E+03  0.00000000000E+00 0. -1.
        -13    1    1    2    0    0 -0.36902230216E+02 -0.32176868579E+03  0.18969093918E+03  0.37533921367E+03  0.10566000000E+00 0.  1.
         13    1    1    2    0    0  0.20006984466E+02  0.32072155822E+03  0.15951117683E+03  0.35875677560E+03  0.10566000000E+00 0. -1.
         -4    1    1    2    0  502  0.16895245750E+02  0.10471275618E+01  0.45451823885E+02  0.48501691718E+02  0.00000000000E+00 0. -1.
</event>
<event>
 5    1  0.2540860E-005  0.1201455E+03  0.7818608E-02  0.1134954E+00
         -4   -1    0    0    0  501 -0.00000000000E+00  0.00000000000E+00  0.96043088378E+02  0.96043088378E+02  0.00000000000E+00 0. -1.
         21   -1    0    0  501  502  0.00000000000E+00 -0.00000000000E+00 -0.32193186118E+03  0.32193186118E+03  0.00000000000E+00 0.  1.
        -13    1    1    2    0    0  0.98400376018E+02  0.90398404812E+02 -0.18728765270E+03  0.23006777613E+03  0.10566000000E+00 0.  1.
         13    1    1    2    0    0 -0.89877867665E+02 -0.75151241982E+02  0.26825624337E+02  0.12018887450E+03  0.10566000000E+00 0. -1.
         -4    1    1    2    0  502 -0.85225083533E+01 -0.15247162830E+02 -0.65426744435E+02  0.67718298932E+02  0.00000000000E+00 0. -1.
</event>
<event>
 5    1  0.2540860E-005  0.4474600E+03  0.7818608E-02  0.9906316E-01
         21   -1    0    0  501  502  0.00000000000E+00  0.00000000000E+00  0.39439772859E+03  0.39439772859E+03  0.00000000000E+00 0.  1.
          4   -1    0    0  502    0 -0.00000000000E+00 -0.00000000000E+00 -0.91023014823E+03  0.91023014823E+03  0.00000000000E+00 0.  1.
        -13    1    1    2    0    0  0.17042567506E+03  0.45948101071E+03  0.10337852608E+03  0.50085411123E+03  0.10566000000E+00 0.  1.
         13    1    1    2    0    0 -0.10996636717E+03 -0.11113335363E+03 -0.22820454523E+03  0.27662348025E+03  0.10566000000E+00 0. -1.
          4    1    1    2  501    0 -0.60459307888E+02 -0.34834765708E+03 -0.39100640050E+03  0.52715028534E+03  0.00000000000E+00 0.  1.
</event>
<event>
 5    1  0.2540860E-005  0.7283802E+02  0.7818608E-02  0.1219472E+00
         21   -1    0    0  501  502  0.00000000000E+00  0.00000000000E+00  0.27975233463E+02  0.27975233463E+02  0.00000000000E+00 0.  1.
         -4   -1    0    0    0  501 -0.00000000000E+00 -0.00000000000E+00 -0.63147642141E+03  0.63147642141E+03  0.00000000000E+00 0. -1.
        -13    1    1    2    0    0 -0.53491668551E+02  0.87751124240E+01 -0.13405752550E+03  0.14460218709E+03  0.10566000000E+00 0.  1.
         13    1    1    2    0    0  0.83665379300E+02 -0.24158698127E+02 -0.47285693521E+03  0.48080893370E+03  0.10566000000E+00 0. -1.
         -4    1    1    2    0  502 -0.30173710749E+02  0.15383585703E+02  0.34132727687E+01  0.34040534080E+02  0.00000000000E+00 0. -1.
</event>
<event>
 5    1  0.2540860E-005  0.5336349E+03  0.7818608E-02  0.9407149E-01
         21   -1    0    0  501  502  0.00000000000E+00  0.00000000000E+00  0.16073393936E+03  0.16073393936E+03  0.00000000000E+00 0. -1.
          4   -1    0    0  502    0 -0.00000000000E+00 -0.00000000000E+00 -0.25861012174E+04  0.25861012174E+04  0.00000000000E+00 0.  1.
        -13    1    1    2    0    0  0.50127286159E+03 -0.20241239617E+03 -0.19088466592E+04  0.19839205728E+04  0.10566000000E+00 0.  1.
         13    1    1    2    0    0 -0.46718172697E+03  0.21499953232E+03 -0.51301120255E+03  0.72640489399E+03  0.10566000000E+00 0. -1.
          4    1    1    2  501    0 -0.34091134625E+02 -0.12587136149E+02 -0.35094163145E+01  0.36509689937E+02  0.00000000000E+00 0.  1.
</event>
<event>
 5    1  0.2540860E-005  0.4647514E+03  0.7818608E-02  0.9778174E-01
         -4   -1    0    0    0  501 -0.00000000000E+00  0.00000000000E+00  0.33524324383E+04  0.33524324383E+04  0.00000000000E+00 0. -1.
         21   -1    0    0  501  502  0.00000000000E+00 -0.00000000000E+00 -0.11537195581E+03  0.11537195581E+03  0.00000000000E+00 0. -1.
        -13    1    1    2    0    0 -0.21530012793E+03  0.17658206089E+01  0.59175786217E+03  0.62970996642E+03  0.10566000000E+00 0.  1.
         13    1    1    2    0    0 -0.19403103711E+03  0.31269857510E+03  0.18754261724E+04  0.19111911944E+04  0.10566000000E+00 0. -1.
         -4    1    1    2    0  502  0.40933116504E+03 -0.31446439571E+03  0.76987644790E+03  0.92690323328E+03  0.00000000000E+00 0. -1.
</event>
<event>
 5    1  0.2540860E-005  0.4579385E+03  0.7818608E-02  0.9575257E-01
          4   -1    0    0  502    0 -0.00000000000E+00  0.00000000000E+00  0.11898768861E+04  0.11898768861E+04  0.00000000000E+00 0.  1.
         21   -1    0    0  501  502  0.00000000000E+00 -0.00000000000E+00 -0.30323224860E+03  0.30323224860E+03  0.00000000000E+00 0. -1.
        -13    1    1    2    0    0 -0.32662053649E+03  0.41110212938E+03  0.63725684660E+03  0.82570105688E+03  0.10566000000E+00 0.  1.
         13    1    1    2    0    0  0.10420829596E+03 -0.35229132639E+03  0.66133748866E+02  0.37328572368E+03  0.10566000000E+00 0. -1.
          4    1    1    2  501    0  0.22241224052E+03 -0.58810802989E+02  0.18325404204E+03  0.29412235414E+03  0.00000000000E+00 0.  1.
</event>
<event>
 5    1  0.2540860E-005  0.4415750E+03  0.7818608E-02  0.9658902E-01
         21   -1    0    0  501  502  0.00000000000E+00  0.00000000000E+00  0.44123527675E+03  0.44123527675E+03  0.00000000000E+00 0.  1.
          4   -1    0    0  502    0 -0.00000000000E+00 -0.00000000000E+00 -0.11930272329E+04  0.11930272329E+04  0.00000000000E+00 0.  1.
        -13    1    1    2    0    0  0.25202509022E+03  0.29493353753E+03 -0.52192953717E+02  0.39144163453E+03  0.10566000000E+00 0.  1.
         13    1    1    2    0    0 -0.17694081267E+03  0.33596948649E+03 -0.35603940395E+03  0.52052628692E+03  0.10566000000E+00 0. -1.
          4    1    1    2  501    0 -0.75084277543E+02 -0.63090302402E+03 -0.34355959849E+03  0.72229458822E+03  0.00000000000E+00 0.  1.
</event>
<event>
 5    1  0.2540860E-005  0.1074649E+03  0.7818608E-02  0.1177214E+00
          4   -1    0    0  502    0 -0.00000000000E+00  0.00000000000E+00  0.78287670214E+02  0.78287670214E+02  0.00000000000E+00 0.  1.
         21   -1    0    0  501  502  0.00000000000E+00 -0.00000000000E+00 -0.32943666217E+03  0.32943666217E+03  0.00000000000E+00 0.  1.
        -13    1    1    2    0    0  0.21106459517E+02  0.12245466777E+03 -0.45781243581E+02  0.13242568376E+03  0.10566000000E+00 0.  1.
         13    1    1    2    0    0 -0.55120709399E+02 -0.22476550944E+02 -0.21556800051E+02  0.63310305160E+02  0.10566000000E+00 0. -1.
          4    1    1    2  501    0  0.34014249882E+02 -0.99978116827E+02 -0.18381094832E+03  0.21198834346E+03  0.00000000000E+00 0.  1.
</event>
<event>
 5    1  0.2540860E-005  0.4206621E+03  0.7818608E-02  0.9851726E-01
         -4   -1    0    0    0  501 -0.00000000000E+00  0.00000000000E+00  0.21533591048E+03  0.21533591048E+03  0.00000000000E+00 0. -1.
         21   -1    0    0  501  502  0.00000000000E+00 -0.00000000000E+00 -0.19097158510E+04  0.19097158510E+04  0.00000000000E+00 0. -1.
        -13    1    1    2    0    0 -0.19672697831E+03  0.11133277304E+03 -0.14541149321E+03  0.26877686632E+03  0.10566000000E+00 0.  1.
         13    1    1    2    0    0 -0.24240364185E+03 -0.23393826523E+03 -0.12207827723E+03  0.35831516079E+03  0.10566000000E+00 0. -1.
         -4    1    1    2    0  502  0.43913062016E+03  0.12260549218E+03 -0.14268901701E+04  0.14979597344E+04  0.00000000000E+00 0. -1.
</event>
<event>
 5    1  0.2540860E-005  0.4577238E+03  0.7818608E-02  0.9630308E-01
          4   -1    0    0  502    0 -0.00000000000E+00  0.00000000000E+00  0.20284599609E+04  0.20284599609E+04  0.00000000000E+00 0.  1.
         21   -1    0    0  501  502  0.00000000000E+00 -0.00000000000E+00 -0.36277766923E+03  0.36277766923E+03  0.00000000000E+00 0.  1.
        -13    1    1    2    0    0 -0.18534998286E+03  0.63307187598E+03  0.43028625267E+03  0.78757913044E+03  0.10566000000E+00 0.  1.
         13    1    1    2    0    0 -0.10391022999E+03 -0.36246619205E+03  0.11336229049E+04  0.11946882346E+04  0.10566000000E+00 0. -1.
          4    1    1    2  501    0  0.28926021285E+03 -0.27060568393E+03  0.10177313416E+03  0.40897026512E+03  0.00000000000E+00 0.  1.
</event>
<event>
 5    1  0.2540860E-005  0.4006931E+03  0.7818608E-02  0.9727047E-01
         21   -1    0    0  501  502  0.00000000000E+00  0.00000000000E+00  0.86455497792E+03  0.86455497792E+03  0.00000000000E+00 0. -1.
          4   -1    0    0  502    0 -0.00000000000E+00 -0.00000000000E+00 -0.10925951511E+04  0.10925951511E+04  0.00000000000E+00 0.  1.
        -13    1    1    2    0    0  0.36091462027E+03 -0.46389926562E+02 -0.29286880188E+03  0.46710120391E+03  0.10566000000E+00 0.  1.
         13    1    1    2    0    0 -0.29933242384E+03  0.44203285970E+03 -0.54346149034E+03  0.76180269865E+03  0.10566000000E+00 0. -1.
          4    1    1    2  501    0 -0.61582196435E+02 -0.39564293314E+03  0.60829011903E+03  0.72824622647E+03  0.00000000000E+00 0.  1.
</event>
<event>
 5    1  0.2540860E-005  0.4135786E+03  0.7818608E-02  0.9793517E-01
         -4   -1    0    0    0  501 -0.00000000000E+00  0.00000000000E+00  0.87712653312E+03  0.87712653312E+03  0.00000000000E+00 0. -1.
         21   -1    0    0  501  502  0.00000000000E+00 -0.00000000000E+00 -0.46443291447E+03  0.46443291447E+03  0.00000000000E+00 0. -1.
        -13    1    1    2    0    0  0.10887727889E+03  0.26866726175E+03  0.23588801007E+03  0.37373723905E+03  0.10566000000E+00 0.  1.
         13    1    1    2    0    0 -0.42225870127E+03 -0.21688607625E+03 -0.16373166934E+03  0.50214544863E+03  0.10566000000E+00 0. -1.
         -4    1    1    2    0  502  0.31338142238E+03 -0.51781185503E+02  0.34053727792E+03  0.46567675991E+03  0.00000000000E+00 0. -1.
</event>
<event>
 5    1  0.2540860E-005  0.4787893E+03  0.7818608E-02  0.9995728E-01
         21   -1    0    0  501  502  0.00000000000E+00  0.00000000000E+00  0.22340802481E+03  0.22340802481E+03  0.00000000000E+00 0.  1.
          4   -1    0    0  502    0 -0.00000000000E+00 -0.00000000000E+00 -0.14956633163E+04  0.14956633163E+04  0.00000000000E+00 0.  1.
        -13    1    1    2    0    0  0.44841144459E+03 -0.56801462350E+02 -0.29558996383E+03  0.54006728066E+03  0.10566000000E+00 0.  1.
         13    1    1    2    0    0  0.64457712328E+02 -0.69676507275E+02 -0.33338107162E+03  0.34663029646E+03  0.10566000000E+00 0. -1.
          4    1    1    2  501    0 -0.51286915692E+03  0.12647796962E+03 -0.64328425606E+03  0.83237376401E+03  0.00000000000E+00 0.  1.
</event>
<event>
 5    1  0.2540860E-005  0.3690782E+03  0.7818608E-02  0.1007000E+00
          4   -1    0    0  502    0 -0.00000000000E+00  0.00000000000E+00  0.68691953537E+03  0.68691953537E+03  0.00000000000E+00 0.  1.
         21   -1    0    0  501  502  0.00000000000E+00 -0.00000000000E+00 -0.50900493330E+03  0.50900493330E+03  0.00000000000E+00 0.  1.
        -13    1    1    2    0    0 -0.27032894124E+03 -0.21430601093E+03 -0.18309456434E+03  0.39054888740E+03  0.10566000000E+00 0.  1.
         13    1    1    2    0    0 -0.16005063882E+03 -0.29297384861E+02 -0.41292714396E+02  0.16786793373E+03  0.10566000000E+00 0. -1.
          4    1    1    2  501    0  0.43037958007E+03  0.24360339579E+03  0.40230188080E+03  0.63750764755E+03  0.00000000000E+00 0.  1.
</event>
<event>
 5    1  0.2540860E-005  0.1514811E+03  0.7818608E-02  0.1130650E+00
          4   -1    0    0  502    0 -0.00000000000E+00  0.00000000000E+00  0.29025755783E+03  0.29025755783E+03  0.00000000000E+00 0.  1.
         21   -1    0    0  501  502  0.00000000000E+00 -0.00000000000E+00 -0.25649591301E+03  0.25649591301E+03  0.00000000000E+00 0.  1.
        -13    1    1    2    0    0  0.28153800873E+02 -0.16011357369E+03 -0.18991818405E+03  0.24999584153E+03  0.10566000000E+00 0.  1.
         13    1    1    2    0    0  0.28947681337E+02  0.60327912717E+02  0.13802401844E+03  0.15338861150E+03  0.10566000000E+00 0. -1.
          4    1    1    2  501    0 -0.57101482210E+02  0.99785660974E+02  0.85655810440E+02  0.14336901781E+03  0.00000000000E+00 0.  1.
</event>
<event>
 5    1  0.2540860E-005  0.3811532E+03  0.7818608E-02  0.1033365E+00
          4   -1    0    0  502    0 -0.00000000000E+00  0.00000000000E+00  0.23766078043E+03  0.23766078043E+03  0.00000000000E+00 0.  1.
         21   -1    0    0  501  502  0.00000000000E+00 -0.00000000000E+00 -0.13428551567E+04  0.13428551567E+04  0.00000000000E+00 0.  1.
        -13    1    1    2    0    0 -0.28680733248E+03  0.32626565850E+03 -0.12713216354E+03  0.45262603112E+03  0.10566000000E+00 0.  1.
         13    1    1    2    0    0  0.38664563031E+02 -0.51472103127E+02  0.16658264543E+02  0.66496877944E+02  0.10566000000E+00 0. -1.
          4    1    1    2  501    0  0.24814276945E+03 -0.27479355537E+03 -0.99472047727E+03  0.10613930281E+04  0.00000000000E+00 0.  1.
</event>
<event>
 5    1  0.2540860E-005  0.4555529E+03  0.7818608E-02  0.9776830E-01
          4   -1    0    0  502    0 -0.00000000000E+00  0.00000000000E+00  0.81250957715E+03  0.81250957715E+03  0.00000000000E+00 0.  1.
         21   -1    0    0  501  502  0.00000000000E+00 -0.00000000000E+00 -0.72187768166E+03  0.72187768166E+03  0.00000000000E+00 0.  1.
        -13    1    1    2    0    0 -0.49434729601E+03  0.16349962795E+03 -0.48808552530E+03  0.71367980817E+03  0.10566000000E+00 0.  1.
         13    1    1    2    0    0  0.22964820797E+03 -0.32036116695E+01  0.40563035899E+03  0.46613792149E+03  0.10566000000E+00 0. -1.
          4    1    1    2  501    0  0.26469908804E+03 -0.16029601628E+03  0.17308706180E+03  0.35456952916E+03  0.00000000000E+00 0.  1.
</event>
<event>
 5    1  0.2540860E-005  0.4618038E+03  0.7818608E-02  0.9618641E-01
         21   -1    0    0  501  502  0.00000000000E+00  0.00000000000E+00  0.33470120230E+03  0.33470120230E+03  0.00000000000E+00 0. -1.
         -4   -1    0    0    0  501 -0.00000000000E+00 -0.00000000000E+00 -0.17320168259E+04  0.17320168259E+04  0.00000000000E+00 0. -1.
        -13    1    1    2    0    0  0.29609166310E+03 -0.24236514327E+03 -0.67724559262E+03  0.77786421663E+03  0.10566000000E+00 0.  1.
         13    1    1    2    0    0  0.25691564752E+03  0.14140081618E+03 -0.66158964241E+03  0.72367168445E+03  0.10566000000E+00 0. -1.
         -4    1    1    2    0  502 -0.55300731062E+03  0.10096432709E+03 -0.58480388555E+02  0.56518212710E+03  0.00000000000E+00 0. -1.
</event>
<event>
 5    1  0.2540860E-005  0.1678651E+03  0.7818608E-02  0.1084716E+00
          4   -1    0    0  502    0 -0.00000000000E+00  0.00000000000E+00  0.82605945727E+02  0.82605945727E+02  0.00000000000E+00 0.  1.
         21   -1    0    0  501  502  0.00000000000E+00 -0.00000000000E+00 -0.64846748830E+03  0.64846748830E+03  0.00000000000E+00 0.  1.
        -13    1    1    2    0    0  0.18366981827E+03 -0.12961867375E+03 -0.24025097907E+03  0.32902301870E+03  0.10566000000E+00 0.  1.
         13    1    1    2    0    0 -0.12402801437E+03  0.45686183878E+02 -0.16750880191E+03  0.21337615993E+03  0.10566000000E+00 0. -1.
          4    1    1    2  501    0 -0.59641803904E+02  0.83932489874E+02 -0.15810176159E+03  0.18867425539E+03  0.00000000000E+00 0.  1.
</event>
<event>
 5    1  0.2540860E-005  0.1356255E+03  0.7818608E-02  0.1116222E+00
         -4   -1    0    0    0  501 -0.00000000000E+00  0.00000000000E+00  0.36439859890E+03  0.36439859890E+03  0.00000000000E+00 0. -1.
         21   -1    0    0  501  502  0.00000000000E+00 -0.00000000000E+00 -0.58491148467E+02  0.58491148467E+02  0.00000000000E+00 0.  1.
        -13    1    1    2    0    0 -0.13149343626E+03 -0.28538038691E+02  0.14151835781E+03  0.19527519093E+03  0.10566000000E+00 0.  1.
         13    1    1    2    0    0  0.13581445032E+03  0.16927648857E+02  0.16597233850E+03  0.21512540185E+03  0.10566000000E+00 0. -1.
         -4    1    1    2    0  502 -0.43210140594E+01  0.11610389834E+02 -0.15832458791E+01  0.12489154579E+02  0.00000000000E+00 0. -1.
</event>
<event>
 5    1  0.2540860E-005  0.4341266E+03  0.7818608E-02  0.1013332E+00
         21   -1    0    0  501  502  0.00000000000E+00  0.00000000000E+00  0.60107970116E+03  0.60107970116E+03  0.00000000000E+00 0. -1.
         -4   -1    0    0    0  501 -0.00000000000E+00 -0.00000000000E+00 -0.86304115685E+03  0.86304115685E+03  0.00000000000E+00 0. -1.
        -13    1    1    2    0    0  0.59552746083E+02  0.55756456418E+02 -0.42665922923E+03  0.43438855999E+03  0.10566000000E+00 0.  1.
         13    1    1    2    0    0 -0.44793678408E+03  0.96631540591E+01  0.37408428094E+03  0.58367782165E+03  0.10566000000E+00 0. -1.
         -4    1    1    2    0  502  0.38838403799E+03 -0.65419610477E+02 -0.20938650740E+03  0.44605447637E+03  0.00000000000E+00 0. -1.
</event>
<event>
 5    1  0.2540860E-005  0.2728363E+03  0.7818608E-02  0.1019194E+00
         21   -1    0    0  501  502  0.00000000000E+00  0.00000000000E+00  0.11079353203E+03  0.11079353203E+03  0.00000000000E+00 0.  1.
         -4   -1    0    0    0  501 -0.00000000000E+00 -0.00000000000E+00 -0.14454063541E+04  0.14454063541E+04  0.00000000000E+00 0. -1.
        -13    1    1    2    0    0  0.24608852965E+03 -0.11733832085E+03 -0.14769370763E+03  0.31006658704E+03  0.10566000000E+00 0.  1.
         13    1    1    2    0    0 -0.25446512655E+03  0.98863205485E+02 -0.11938743199E+04  0.12246886693E+04  0.10566000000E+00 0. -1.
         -4    1    1    2    0  502  0.83765969035E+01  0.18475115369E+02  0.69552053938E+01  0.21444629762E+02  0.00000000000E+00 0. -1.
</event>
<event>
 5    1  0.2540860E-005  0.2246077E+03  0.7818608E-02  0.1044461E+00
         -4   -1    0    0    0  501 -0.00000000000E+00  0.00000000000E+00  0.18621429797E+03  0.18621429797E+03  0.00000000000E+00 0. -1.
         21   -1    0    0  501  502  0.00000000000E+00 -0.00000000000E+00 -0.55986725586E+03  0.55986725586E+03  0.00000000000E+00 0.  1.
        -13    1    1    2    0    0 -0.19071494347E+02 -0.24428477003E+03 -0.27929538138E+03  0.37154366095E+03  0.10566000000E+00 0.  1.
         13    1    1    2    0    0  0.65293527722E+02  0.21033363546E+03  0.44158402373E+02  0.22461847349E+03  0.10566000000E+00 0. -1.
         -4    1    1    2    0  502 -0.46222033375E+02  0.33951134565E+02 -0.13851597888E+03  0.14991941939E+03  0.00000000000E+00 0. -1.
</event>
<event>
 5    1  0.2540860E-005  0.3660458E+03  0.7818608E-02  0.1022817E+00
          4   -1    0    0  502    0 -0.00000000000E+00  0.00000000000E+00  0.23491701656E+04  0.23491701656E+04  0.00000000000E+00 0.  1.
         21   -1    0    0  501  502  0.00000000000E+00 -0.00000000000E+00 -0.13966672615E+03  0.13966672615E+03  0.00000000000E+00 0.  1.
        -13    1    1    2    0    0  0.26039253926E+03 -0.24058272507E+03  0.19727944942E+03  0.40571358669E+03  0.10566000000E+00 0.  1.
         13    1    1    2    0    0  0.11862714679E+02 -0.10011055423E+03  0.31345004835E+03  0.32926249565E+03  0.10566000000E+00 0. -1.
          4    1    1    2  501    0 -0.27225525393E+03  0.34069327930E+03  0.16987739417E+04  0.17538608095E+04  0.00000000000E+00 0.  1.
</event>
<event>
 5    1  0.2540860E-005  0.4761925E+03  0.7818608E-02  0.9531737E-01
         21   -1    0    0  501  502  0.00000000000E+00  0.00000000000E+00  0.21810268393E+03  0.21810268393E+03  0.00000000000E+00 0. -1.
         -4   -1    0    0    0  501 -0.00000000000E+00 -0.00000000000E+00 -0.27340159904E+04  0.27340159904E+04  0.00000000000E+00 0. -1.
        -13    1    1    2    0    0  0.42045663417E+03  0.82419157528E+02 -0.73688797481E+03  0.85239697168E+03  0.10566000000E+00 0.  1.
         13    1    1    2    0    0 -0.50134608855E+03  0.31020932765E+03 -0.14988849375E+04  0.16106625328E+04  0.10566000000E+00 0. -1.
         -4    1    1    2    0  502  0.80889454377E+02 -0.39262848518E+03 -0.28014039417E+03  0.48905916989E+03  0.00000000000E+00 0. -1.
</event>
<event>
 5    1  0.2540860E-005  0.3085185E+03  0.7818608E-02  0.1003850E+00
         -4   -1    0    0    0  501 -0.00000000000E+00  0.00000000000E+00  0.48575426828E+03  0.48575426828E+03  0.00000000000E+00 0. -1.
         21   -1    0    0  501  502  0.00000000000E+00 -0.00000000000E+00 -0.44538603467E+03  0.44538603467E+03  0.00000000000E+00 0.  1.
        -13    1    1    2    0    0 -0.29541878003E+03 -0.70590845588E+02  0.12899026566E+03  0.32999064058E+03  0.10566000000E+00 0.  1.
         13    1    1    2    0    0  0.30793062962E+03  0.57572187688E+02  0.16007695220E+03  0.35179606485E+03  0.10566000000E+00 0. -1.
         -4    1    1    2    0  502 -0.12511849594E+02  0.13018657900E+02 -0.24869898424E+03  0.24935359752E+03  0.00000000000E+00 0. -1.
</event>
<event>
 5    1  0.2540860E-005  0.3574444E+03  0.7818608E-02  0.9860705E-01
         -4   -1    0    0    0  501 -0.00000000000E+00  0.00000000000E+00  0.15662249740E+04  0.15662249740E+04  0.00000000000E+00 0. -1.
         21   -1    0    0  501  502  0.00000000000E+00 -0.00000000000E+00 -0.40538715195E+03  0.40538715195E+03  0.00000000000E+00 0. -1.
        -13    1    1    2    0    0 -0.28388073106E+03 -0.28078160156E+03  0.65192981368E+03  0.76448614793E+03  0.10566000000E+00 0.  1.
         13    1    1    2    0    0  0.22022312112E+03  0.25053390853E+03  0.82152567071E+03  0.88666222498E+03  0.10566000000E+00 0. -1.
         -4    1    1    2    0  502  0.63657609939E+02  0.30247693026E+02 -0.31261766232E+03  0.32046375307E+03  0.00000000000E+00 0. -1.
</event>
<event>
 5    1  0.2540860E-005  0.4625063E+03  0.7818608E-02  0.9870550E-01
          4   -1    0    0  502    0 -0.00000000000E+00  0.00000000000E+00  0.26354753979E+04  0.26354753979E+04  0.00000000000E+00 0.  1.
         21   -1    0    0  501  502  0.00000000000E+00 -0.00000000000E+00 -0.13122770944E+03  0.13122770944E+03  0.00000000000E+00 0.  1.
        -13    1    1    2    0    0  0.21514002305E+02  0.38661637405E+03  0.14942713571E+04  0.15436262413E+04  0.10566000000E+00 0.  1.
         13    1    1    2    0    0 -0.12121027730E+03  0.10385201261E+03  0.42055635636E+03  0.44982755794E+03  0.10566000000E+00 0. -1.
          4    1    1    2  501    0  0.99696274998E+02 -0.49046838666E+03  0.58941997500E+03  0.77324930810E+03  0.00000000000E+00 0.  1.
</event>
<event>
 5    1  0.2540860E-005  0.2572174E+03  0.7818608E-02  0.1026719E+00
         21   -1    0    0  501  502  0.00000000000E+00  0.00000000000E+00  0.78548866426E+02  0.78548866426E+02  0.00000000000E+00 0. -1.
          4   -1    0    0  502    0 -0.00000000000E+00 -0.00000000000E+00 -0.11818236637E+04  0.11818236637E+04  0.00000000000E+00 0.  1.
        -13    1    1    2    0    0  0.46989460107E+02 -0.24900244275E+03 -0.82065599190E+03  0.85888677604E+03  0.10566000000E+00 0.  1.
         13    1    1    2    0    0 -0.43284092976E+02  0.26473390709E+03 -0.27270606715E+03  0.38252603113E+03  0.10566000000E+00 0. -1.
          4    1    1    2  501    0 -0.37053671312E+01 -0.15731464336E+02 -0.99127382514E+01  0.18959722977E+02  0.00000000000E+00 0.  1.
</event>
<event>
 5    1  0.2540860E-005  0.6140067E+03  0.7818608E-02  0.9383853E-01
          4   -1    0    0  502    0 -0.00000000000E+00  0.00000000000E+00  0.36132872478E+04  0.36132872478E+04  0.00000000000E+00 0.  1.
         21   -1    0    0  501  502  0.00000000000E+00 -0.00000000000E+00 -0.31166435572E+03  0.31166435572E+03  0.00000000000E+00 0. -1.
        -13    1    1    2    0    0  0.13565224723E+03 -0.22091425582E+03  0.60232207622E+03  0.65574121059E+03  0.10566000000E+00 0.  1.
         13    1    1    2    0    0 -0.24174252700E+03 -0.73999805958E+03  0.17450850484E+04  0.19108527978E+04  0.10566000000E+00 0. -1.
          4    1    1    2  501    0  0.10609027978E+03  0.96091231540E+03  0.95421576742E+03  0.13583575951E+04  0.00000000000E+00 0.  1.
</event>
<event>
 5    1  0.2540860E-005  0.4158252E+03  0.7818608E-02  0.9839431E-01
         21   -1    0    0  501  502  0.00000000000E+00  0.00000000000E+00  0.32423011501E+03  0.32423011501E+03  0.00000000000E+00 0.  1.
          4   -1    0    0  502    0 -0.00000000000E+00 -0.00000000000E+00 -0.12400304164E+04  0.12400304164E+04  0.00000000000E+00 0.  1.
        -13    1    1    2    0    0 -0.28164087453E+03 -0.25465287791E+03 -0.49329876102E+02  0.38288786645E+03  0.10566000000E+00 0.  1.
         13    1    1    2    0    0  0.26154867212E+02 -0.24255774976E+03 -0.27019559708E+03  0.36403847447E+03  0.10566000000E+00 0. -1.
          4    1    1    2  501    0  0.25548600732E+03  0.49721062767E+03 -0.59627482822E+03  0.81733419050E+03  0.00000000000E+00 0.  1.
</event>
<event>
 5    1  0.2540860E-005  0.5012308E+03  0.7818608E-02  0.9869684E-01
         21   -1    0    0  501  502  0.00000000000E+00  0.00000000000E+00  0.53460636766E+03  0.53460636766E+03  0.00000000000E+00 0. -1.
         -4   -1    0    0    0  501 -0.00000000000E+00 -0.00000000000E+00 -0.86530473378E+03  0.86530473378E+03  0.00000000000E+00 0. -1.
        -13    1    1    2    0    0  0.11344522289E+03  0.54301050330E+02 -0.36614065820E+03  0.38714004626E+03  0.10566000000E+00 0.  1.
         13    1    1    2    0    0 -0.14333065489E+03  0.46757048259E+03  0.30967974453E+02  0.49002536611E+03  0.10566000000E+00 0. -1.
         -4    1    1    2    0  502  0.29885431998E+02 -0.52187153292E+03  0.44743176376E+01  0.52274568907E+03  0.00000000000E+00 0. -1.
</event>
<event>
 5    1  0.2540860E-005  0.2535326E+03  0.7818608E-02  0.1028578E+00
         21   -1    0    0  501  502  0.00000000000E+00  0.00000000000E+00  0.10105543187E+03  0.10105543187E+03  0.00000000000E+00 0. -1.
         -4   -1    0    0    0  501 -0.00000000000E+00 -0.00000000000E+00 -0.10737213931E+04  0.10737213931E+04  0.00000000000E+00 0. -1.
        -13    1    1    2    0    0  0.17031154711E+03 -0.23433178512E+03 -0.27275931340E+03  0.39788825417E+03  0.10566000000E+00 0.  1.
         13    1    1    2    0    0 -0.16006459691E+03  0.18113947987E+03 -0.67554765659E+03  0.71749343819E+03  0.10566000000E+00 0. -1.
         -4    1    1    2    0  502 -0.10246950205E+02  0.53192305245E+02 -0.24358991276E+02  0.59395132643E+02  0.00000000000E+00 0. -1.
</event>
<event>
 5    1  0.2540860E-005  0.7902382E+02  0.7818608E-02  0.1206078E+00
         21   -1    0    0  501  502  0.00000000000E+00  0.00000000000E+00  0.78900483279E+03  0.78900483279E+03  0.00000000000E+00 0.  1.
          4   -1    0    0  502    0 -0.00000000000E+00 -0.00000000000E+00 -0.10261475444E+03  0.10261475444E+03  0.00000000000E+00 0.  1.
        -13    1    1    2    0    0 -0.11242205777E+03  0.94033661132E+02 -0.34994450122E+02  0.15068401111E+03  0.10566000000E+00 0.  1.
         13    1    1    2    0    0  0.71296781754E+02 -0.28773363496E+02  0.20734230689E+03  0.22113792286E+03  0.10566000000E+00 0. -1.
          4    1    1    2  501    0  0.41125276018E+02 -0.65260297637E+02  0.51404222158E+03  0.51979765327E+03  0.00000000000E+00 0.  1.
</event>
<event>
 5    1  0.2540860E-005  0.4348894E+03  0.7818608E-02  0.9873276E-01
          4   -1    0    0  502    0 -0.00000000000E+00  0.00000000000E+00  0.12941500782E+04  0.12941500782E+04  0.00000000000E+00 0.  1.
         21   -1    0    0  501  502  0.00000000000E+00 -0.00000000000E+00 -0.34884918861E+03  0.34884918861E+03  0.00000000000E+00 0.  1.
        -13    1    1    2    0    0  0.45684352457E+03 -0.49739209888E+02 -0.78893496826E+02  0.46626622218E+03  0.10566000000E+00 0.  1.
         13    1    1    2    0    0 -0.12795567786E+03 -0.14078346509E+03  0.44501487944E+03  0.48397406297E+03  0.10566000000E+00 0. -1.
          4    1    1    2  501    0 -0.32888784670E+03  0.19052267498E+03  0.57917950700E+03  0.69275898170E+03  0.00000000000E+00 0.  1.
</event>
<event>
 5    1  0.2540860E-005  0.4859723E+03  0.7818608E-02  0.1002312E+00
         21   -1    0    0  501  502  0.00000000000E+00  0.00000000000E+00  0.41740080119E+03  0.41740080119E+03  0.00000000000E+00 0. -1.
         -4   -1    0    0    0  501 -0.00000000000E+00 -0.00000000000E+00 -0.79703765297E+03  0.79703765297E+03  0.00000000000E+00 0. -1.
        -13    1    1    2    0    0 -0.15884078750E+02 -0.81459048730E+02 -0.20200639043E+03  0.21839064429E+03  0.10566000000E+00 0.  1.
         13    1    1    2    0    0  0.49293819405E+03  0.22673868208E+02 -0.35136534769E+02  0.49470875744E+03  0.10566000000E+00 0. -1.
         -4    1    1    2    0  502 -0.47705411529E+03  0.58785180522E+02 -0.14249392658E+03  0.50133905242E+03  0.00000000000E+00 0. -1.
</event>
<event>
 5    1  0.2540860E-005  0.1297041E+03  0.7818608E-02  0.1123051E+00
         21   -1    0    0  501  502  0.00000000000E+00  0.00000000000E+00  0.59107691443E+03  0.59107691443E+03  0.00000000000E+00 0. -1.
          4   -1    0    0  502    0 -0.00000000000E+00 -0.00000000000E+00 -0.19054286138E+03  0.19054286138E+03  0.00000000000E+00 0.  1.
        -13    1    1    2    0    0  0.15777417059E+02 -0.12570111706E+03 -0.11877192909E+03  0.17365621216E+03  0.10566000000E+00 0.  1.
         13    1    1    2    0    0  0.36502745341E+02  0.18963207170E+03  0.47818456829E+03  0.51570656923E+03  0.10566000000E+00 0. -1.
          4    1    1    2  501    0 -0.52280162400E+02 -0.63930954635E+02  0.41121413857E+02  0.92256994416E+02  0.00000000000E+00 0.  1.
</event>
<event>
 5    1  0.2540860E-005  0.4731909E+03  0.7818608E-02  0.9795477E-01
         21   -1    0    0  501  502  0.00000000000E+00  0.00000000000E+00  0.31975616342E+03  0.31975616342E+03  0.00000000000E+00 0. -1.
         -4   -1    0    0    0  501 -0.00000000000E+00 -0.00000000000E+00 -0.10494422137E+04  0.10494422137E+04  0.00000000000E+00 0. -1.
        -13    1    1    2    0    0 -0.56954688507E+02 -0.18363043562E+03 -0.12963038779E+03  0.23187932644E+03  0.10566000000E+00 0.  1.
         13    1    1    2    0    0  0.45525364710E+03  0.30077677526E+03 -0.28120582669E+03  0.61383978354E+03  0.10566000000E+00 0. -1.
         -4    1    1    2    0  502 -0.39829895859E+03 -0.11714633964E+03 -0.31884983576E+03  0.52347926709E+03  0.00000000000E+00 0. -1.
</event>
<event>
 5    1  0.2540860E-005  0.5316531E+03  0.7818608E-02  0.9411169E-01
          4   -1    0    0  502    0 -0.00000000000E+00  0.00000000000E+00  0.14254055038E+04  0.14254055038E+04  0.00000000000E+00 0.  1.
         21   -1    0    0  501  502  0.00000000000E+00 -0.00000000000E+00 -0.42653710436E+03  0.42653710436E+03  0.00000000000E+00 0.  1.
        -13    1    1    2    0    0 -0.43998592659E+03  0.40908414213E+03  0.88364769866E+03  0.10685367179E+04  0.10566000000E+00 0.  1.
         13    1    1    2    0    0  0.19080667430E+03 -0.40874028093E+03  0.23309894184E+03  0.50775085629E+03  0.10566000000E+00 0. -1.
          4    1    1    2  501    0  0.24917925229E+03 -0.34386119981E+00 -0.11787824111E+03  0.27565503395E+03  0.00000000000E+00 0.  1.
</event>
<event>
 5    1  0.2540860E-005  0.1757130E+03  0.7818608E-02  0.1078195E+00
         21   -1    0    0  501  502  0.00000000000E+00  0.00000000000E+00  0.63120473995E+02  0.63120473995E+02  0.00000000000E+00 0. -1.
          4   -1    0    0  502    0 -0.00000000000E+00 -0.00000000000E+00 -0.63390054115E+03  0.63390054115E+03  0.00000000000E+00 0.  1.
        -13    1    1    2    0    0  0.16640061418E+03 -0.72364101690E+02 -0.42691529540E+03  0.46387757892E+03  0.10566000000E+00 0.  1.
         13    1    1    2    0    0 -0.14930562743E+03  0.67633785206E+02 -0.13856365206E+03  0.21463083683E+03  0.10566000000E+00 0. -1.
          4    1    1    2  501    0 -0.17094986756E+02  0.47303164841E+01 -0.53011196932E+01  0.18512599391E+02  0.00000000000E+00 0.  1.
</event>
<event>
 5    1  0.2540860E-005  0.4942035E+03  0.7818608E-02  0.9746571E-01
         -4   -1    0    0    0  501 -0.00000000000E+00  0.00000000000E+00  0.23886971862E+04  0.23886971862E+04  0.00000000000E+00 0. -1.
         21   -1    0    0  501  502  0.00000000000E+00 -0.00000000000E+00 -0.17956446463E+03  0.17956446463E+03  0.00000000000E+00 0. -1.
        -13    1    1    2    0    0 -0.29486216792E+02  0.19743464878E+03  0.75511149296E+03  0.78105265859E+03  0.10566000000E+00 0.  1.
         13    1    1    2    0    0 -0.18099604958E+03 -0.52973172140E+03  0.48236318022E+03  0.73895163266E+03  0.10566000000E+00 0. -1.
         -4    1    1    2    0  502  0.21048226637E+03  0.33229707262E+03  0.97165804841E+03  0.10482573596E+04  0.00000000000E+00 0. -1.
</event>
<event>
 5    1  0.2540860E-005  0.3696354E+03  0.7818608E-02  0.9821085E-01
         -4   -1    0    0    0  501 -0.00000000000E+00  0.00000000000E+00  0.41786301672E+03  0.41786301672E+03  0.00000000000E+00 0. -1.
         21   -1    0    0  501  502  0.00000000000E+00 -0.00000000000E+00 -0.76025347137E+03  0.76025347137E+03  0.00000000000E+00 0.  1.
        -13    1    1    2    0    0 -0.37540520477E+03 -0.26182976527E+03 -0.20294027338E+03  0.50066821296E+03  0.10566000000E+00 0.  1.
         13    1    1    2    0    0  0.29738147873E+03  0.16811779810E+03  0.14258891854E+03  0.37017691552E+03  0.10566000000E+00 0. -1.
         -4    1    1    2    0  502  0.78023726037E+02  0.93711967168E+02 -0.28203909981E+03  0.30727135961E+03  0.00000000000E+00 0. -1.
</event>
<event>
 5    1  0.2540860E-005  0.1582492E+03  0.7818608E-02  0.1093249E+00
         -4   -1    0    0    0  501 -0.00000000000E+00  0.00000000000E+00  0.17625650452E+04  0.17625650452E+04  0.00000000000E+00 0. -1.
         21   -1    0    0  501  502  0.00000000000E+00 -0.00000000000E+00 -0.21895926493E+02  0.21895926493E+02  0.00000000000E+00 0.  1.
        -13    1    1    2    0    0 -0.10346537236E+02 -0.16120290159E+03  0.78459859435E+03  0.80105454978E+03  0.10566000000E+00 0.  1.
         13    1    1    2    0    0  0.61004355618E+02  0.14725505692E+03  0.85247369799E+03  0.86724679309E+03  0.10566000000E+00 0. -1.
         -4    1    1    2    0  502 -0.50657818382E+02  0.13947844674E+02  0.10359682638E+03  0.11615962883E+03  0.00000000000E+00 0. -1.
</event>
<event>
 5    1  0.2540860E-005  0.1225489E+03  0.7818608E-02  0.1138411E+00
         -4   -1    0    0    0  501 -0.00000000000E+00  0.00000000000E+00  0.90796145578E+02  0.90796145578E+02  0.00000000000E+00 0. -1.
         21   -1    0    0  501  502  0.00000000000E+00 -0.00000000000E+00 -0.39866013809E+03  0.39866013809E+03  0.00000000000E+00 0. -1.
        -13    1    1    2    0    0  0.29031819523E+02  0.99558998540E+02 -0.44339464652E+02  0.11278670145E+03  0.10566000000E+00 0.  1.
         13    1    1    2    0    0  0.10555670680E+03 -0.63527525068E+02 -0.82650609476E+02  0.14835463998E+03  0.10566000000E+00 0. -1.
         -4    1    1    2    0  502 -0.13458852632E+03 -0.36031473471E+02 -0.18087391838E+03  0.22831494224E+03  0.00000000000E+00 0. -1.
</event>
<event>
 5    1  0.2540860E-005  0.4811908E+03  0.7818608E-02  0.9703708E-01
         -4   -1    0    0    0  501 -0.00000000000E+00  0.00000000000E+00  0.15038548474E+04  0.15038548474E+04  0.00000000000E+00 0. -1.
         21   -1    0    0  501  502  0.00000000000E+00 -0.00000000000E+00 -0.39422035739E+03  0.39422035739E+03  0.00000000000E+00 0. -1.
        -13    1    1    2    0    0  0.24961587580E+03 -0.25275432063E+02  0.82524145910E+03  0.86253719334E+03  0.10566000000E+00 0.  1.
         13    1    1    2    0    0  0.18675774094E+03  0.37456457891E+03  0.22014790359E+03  0.47290822386E+03  0.10566000000E+00 0. -1.
         -4    1    1    2    0  502 -0.43637361674E+03 -0.34928914685E+03  0.64245127309E+02  0.56262978758E+03  0.00000000000E+00 0. -1.
</event>
<event>
 5    1  0.2540860E-005  0.5540651E+03  0.7818608E-02  0.9366743E-01
         21   -1    0    0  501  502  0.00000000000E+00  0.00000000000E+00  0.27850396788E+03  0.27850396788E+03  0.00000000000E+00 0.  1.
          4   -1    0    0  502    0 -0.00000000000E+00 -0.00000000000E+00 -0.20042389568E+04  0.20042389568E+04  0.00000000000E+00 0.  1.
        -13    1    1    2    0    0  0.62312554259E+03  0.15487322950E+03 -0.11434779312E+04  0.13114163906E+04  0.10566000000E+00 0.  1.
         13    1    1    2    0    0 -0.44191306129E+03 -0.16832647373E+03 -0.62589170739E+03  0.78444974092E+03  0.10566000000E+00 0. -1.
          4    1    1    2  501    0 -0.18121248130E+03  0.13453244224E+02  0.43634649750E+02  0.18687679315E+03  0.00000000000E+00 0.  1.
</event>
<event>
 5    1  0.2540860E-005  0.3769647E+03  0.7818608E-02  0.9923180E-01
         -4   -1    0    0    0  501 -0.00000000000E+00  0.00000000000E+00  0.20789503247E+04  0.20789503247E+04  0.00000000000E+00 0. -1.
         21   -1    0    0  501  502  0.00000000000E+00 -0.00000000000E+00 -0.26051401599E+03  0.26051401599E+03  0.00000000000E+00 0. -1.
        -13    1    1    2    0    0  0.18165308441E+03  0.16762950596E+03  0.10005603005E+04  0.10306398112E+04  0.10566000000E+00 0.  1.
         13    1    1    2    0    0 -0.39770952737E+02  0.22229907720E+03  0.86242364979E+03  0.89150051670E+03  0.10566000000E+00 0. -1.
         -4    1    1    2    0  502 -0.14188213167E+03 -0.38992858316E+03 -0.44547641602E+02  0.41732401276E+03  0.00000000000E+00 0. -1.
</event>
<event>
 5    1  0.2540860E-005  0.4309861E+03  0.7818608E-02  0.9890554E-01
         21   -1    0    0  501  502  0.00000000000E+00  0.00000000000E+00  0.87794824093E+03  0.87794824093E+03  0.00000000000E+00 0.  1.
          4   -1    0    0  502    0 -0.00000000000E+00 -0.00000000000E+00 -0.44956763934E+03  0.44956763934E+03  0.00000000000E+00 0.  1.
        -13    1    1    2    0    0  0.37952130718E+03  0.27209202935E+03  0.61303021769E+03  0.77063386508E+03  0.10566000000E+00 0.  1.
         13    1    1    2    0    0 -0.18431795623E+03  0.67678314409E+01 -0.77035671736E+02  0.19988351211E+03  0.10566000000E+00 0. -1.
          4    1    1    2  501    0 -0.19520335096E+03 -0.27885986079E+03 -0.10761394436E+03  0.35699850309E+03  0.00000000000E+00 0.  1.
</event>
<event>
 5    1  0.2540860E-005  0.3139103E+03  0.7818608E-02  0.1017619E+00
         21   -1    0    0  501  502  0.00000000000E+00  0.00000000000E+00  0.11902911068E+03  0.11902911068E+03  0.00000000000E+00 0. -1.
         -4   -1    0    0    0  501 -0.00000000000E+00 -0.00000000000E+00 -0.29990783908E+04  0.29990783908E+04  0.00000000000E+00 0. -1.
        -13    1    1    2    0    0 -0.16339796223E+03 -0.93555350518E+02 -0.60469461515E+03  0.63333015595E+03  0.10566000000E+00 0.  1.
         13    1    1    2    0    0  0.45683932928E+03  0.51798496227E+02 -0.20790209166E+04  0.21292518028E+04  0.10566000000E+00 0. -1.
         -4    1    1    2    0  502 -0.29344136706E+03  0.41756854291E+02 -0.19633374838E+03  0.35552554273E+03  0.00000000000E+00 0. -1.
</event>
<event>
 5    1  0.2540860E-005  0.3868614E+03  0.7818608E-02  0.9958721E-01
          4   -1    0    0  502    0 -0.00000000000E+00  0.00000000000E+00  0.41768132756E+03  0.41768132756E+03  0.00000000000E+00 0.  1.
         21   -1    0    0  501  502  0.00000000000E+00 -0.00000000000E+00 -0.10669891833E+04  0.10669891833E+04  0.00000000000E+00 0.  1.
        -13    1    1    2    0    0 -0.85834352294E+02  0.37639738265E+03 -0.74091822579E+03  0.83546535187E+03  0.10566000000E+00 0.  1.
         13    1    1    2    0    0 -0.19706785699E+03 -0.49767612550E+02  0.75399183055E+02  0.21678930667E+03  0.10566000000E+00 0. -1.
          4    1    1    2  501    0  0.28290220928E+03 -0.32662977010E+03  0.16211187012E+02  0.43241585230E+03  0.00000000000E+00 0.  1.
</event>
<event>
 5    1  0.2540860E-005  0.4007517E+03  0.7818608E-02  0.9833585E-01
         21   -1    0    0  501  502  0.00000000000E+00  0.00000000000E+00  0.13806954141E+04  0.13806954141E+04  0.00000000000E+00 0. -1.
         -4   -1    0    0    0  501 -0.00000000000E+00 -0.00000000000E+00 -0.31672998357E+03  0.31672998357E+03  0.00000000000E+00 0. -1.
        -13    1    1    2    0    0  0.27360887222E+03  0.49187784313E+02  0.20653170200E+03  0.34631865121E+03  0.10566000000E+00 0.  1.
         13    1    1    2    0    0 -0.55408253752E+03  0.18118964369E+03  0.23087178731E+03  0.62700792555E+03  0.10566000000E+00 0. -1.
         -4    1    1    2    0  502  0.28047366530E+03 -0.23037742800E+03  0.62656194125E+03  0.72409882093E+03  0.00000000000E+00 0. -1.
</event>
<event>
 5    1  0.2540860E-005  0.2516659E+02  0.7818608E-02  0.1448532E+00
          4   -1    0    0  502    0 -0.00000000000E+00  0.00000000000E+00  0.73296251508E+02  0.73296251508E+02  0.00000000000E+00 0.  1.
         21   -1    0    0  501  502  0.00000000000E+00 -0.00000000000E+00 -0.56153638024E+02  0.56153638024E+02  0.00000000000E+00 0. -1.
        -13    1    1    2    0    0 -0.25689753473E+02  0.12476049573E+01  0.64514041695E+02  0.69452089180E+02  0.10566000000E+00 0.  1.
         13    1    1    2    0    0  0.17344315225E+02  0.11419784708E+02 -0.33657150213E+02  0.39548093227E+02  0.10566000000E+00 0. -1.
          4    1    1    2  501    0  0.83454382478E+01 -0.12667389666E+02 -0.13714277997E+02  0.20449707125E+02  0.00000000000E+00 0.  1.
</event>
<event>
 5    1  0.2540860E-005  0.4270299E+03  0.7818608E-02  0.1005720E+00
          4   -1    0    0  502    0 -0.00000000000E+00  0.00000000000E+00  0.22746648792E+04  0.22746648792E+04  0.00000000000E+00 0.  1.
         21   -1    0    0  501  502  0.00000000000E+00 -0.00000000000E+00 -0.15159931924E+03  0.15159931924E+03  0.00000000000E+00 0.  1.
        -13    1    1    2    0    0  0.40046253230E+03  0.13217918183E+03  0.30864631284E+03  0.52259366001E+03  0.10566000000E+00 0.  1.
         13    1    1    2    0    0  0.51718570494E+02 -0.96506874381E+02  0.53867018864E+03  0.54968533784E+03  0.10566000000E+00 0. -1.
          4    1    1    2  501    0 -0.45218110280E+03 -0.35672307453E+02  0.12757490585E+04  0.13539852006E+04  0.00000000000E+00 0.  1.
</event>
<event>
 5    1  0.2540860E-005  0.1493218E+03  0.7818608E-02  0.1101782E+00
         -4   -1    0    0    0  501 -0.00000000000E+00  0.00000000000E+00  0.10250145672E+04  0.10250145672E+04  0.00000000000E+00 0. -1.
         21   -1    0    0  501  502  0.00000000000E+00 -0.00000000000E+00 -0.47020478372E+02  0.47020478372E+02  0.00000000000E+00 0.  1.
        -13    1    1    2    0    0 -0.93798095367E+02  0.13074369530E+03  0.22495311287E+03  0.27657894119E+03  0.10566000000E+00 0.  1.
         13    1    1    2    0    0  0.75467550684E+02 -0.12533435987E+03  0.76086620313E+03  0.77480413215E+03  0.10566000000E+00 0. -1.
         -4    1    1    2    0  502  0.18330544683E+02 -0.54093354269E+01 -0.78252271493E+01  0.20651972256E+02  0.00000000000E+00 0. -1.
</event>
<event>
 5    1  0.2540860E-005  0.2889633E+03  0.7818608E-02  0.1049001E+00
          4   -1    0    0  502    0 -0.00000000000E+00  0.00000000000E+00  0.15688707412E+04  0.15688707412E+04  0.00000000000E+00 0.  1.
         21   -1    0    0  501  502  0.00000000000E+00 -0.00000000000E+00 -0.12226447372E+03  0.12226447372E+03  0.00000000000E+00 0.  1.
        -13    1    1    2    0    0 -0.27697401931E+03 -0.12563951211E+03  0.10384200478E+04  0.10820425598E+04  0.10566000000E+00 0.  1.
         13    1    1    2    0    0  0.62842328155E+02 -0.67303642960E+02  0.27793985491E+03  0.29279602572E+03  0.10566000000E+00 0. -1.
          4    1    1    2  501    0  0.21413169115E+03  0.19294315507E+03  0.13024636478E+03  0.31629662942E+03  0.00000000000E+00 0.  1.
</event>
<event>
 5    1  0.2540860E-005  0.4847030E+03  0.7818608E-02  0.9628684E-01
          4   -1    0    0  502    0 -0.00000000000E+00  0.00000000000E+00  0.25232102742E+04  0.25232102742E+04  0.00000000000E+00 0.  1.
         21   -1    0    0  501  502  0.00000000000E+00 -0.00000000000E+00 -0.23782610610E+03  0.23782610610E+03  0.00000000000E+00 0.  1.
        -13    1    1    2    0    0  0.43309794102E+03 -0.52461706084E+03  0.62182787209E+03  0.92166523245E+03  0.10566000000E+00 0.  1.
         13    1    1    2    0    0 -0.21978125364E+03  0.23171946869E+03  0.12471188000E+04  0.12873628176E+04  0.10566000000E+00 0. -1.
          4    1    1    2  501    0 -0.21331668738E+03  0.29289759215E+03  0.41643749597E+03  0.55200833024E+03  0.00000000000E+00 0.  1.
</event>
<event>
 5    1  0.2540860E-005  0.1574978E+03  0.7818608E-02  0.1093944E+00
         21   -1    0    0  501  502  0.00000000000E+00  0.00000000000E+00  0.24499815326E+03  0.24499815326E+03  0.00000000000E+00 0.  1.
         -4   -1    0    0    0  501 -0.00000000000E+00 -0.00000000000E+00 -0.13810579581E+03  0.13810579581E+03  0.00000000000E+00 0. -1.
        -13    1    1    2    0    0 -0.96730474998E+02 -0.10864055707E+03  0.11841540752E+03  0.18756805521E+03  0.10566000000E+00 0.  1.
         13    1    1    2    0    0  0.94447716111E+02  0.13305806064E+03 -0.28591042642E+02  0.16565710809E+03  0.10566000000E+00 0. -1.
         -4    1    1    2    0  502  0.22827588867E+01 -0.24417503568E+02  0.17067992574E+02  0.29878785771E+02  0.00000000000E+00 0. -1.
</event>
<event>
 5    1  0.2540860E-005  0.3380538E+02  0.7818608E-02  0.1376725E+00
         21   -1    0    0  501  502  0.00000000000E+00  0.00000000000E+00  0.17468018886E+03  0.17468018886E+03  0.00000000000E+00 0.  1.
          4   -1    0    0  502    0 -0.00000000000E+00 -0.00000000000E+00 -0.21035119468E+02  0.21035119468E+02  0.00000000000E+00 0.  1.
        -13    1    1    2    0    0  0.17251642927E+02 -0.27499440616E+02  0.23596362068E+01  0.32548693752E+02  0.10566000000E+00 0.  1.
         13    1    1    2    0    0 -0.11967432276E+02  0.42961646601E+02  0.11614011279E+03  0.12440843813E+03  0.10566000000E+00 0. -1.
          4    1    1    2  501    0 -0.52842106517E+01 -0.15462205985E+02  0.35145320396E+02  0.38758176452E+02  0.00000000000E+00 0.  1.
</event>
<event>
 5    1  0.2540860E-005  0.4302503E+03  0.7818608E-02  0.9645541E-01
          4   -1    0    0  502    0 -0.00000000000E+00  0.00000000000E+00  0.29544577897E+04  0.29544577897E+04  0.00000000000E+00 0.  1.
         21   -1    0    0  501  502  0.00000000000E+00 -0.00000000000E+00 -0.39429155488E+03  0.39429155488E+03  0.00000000000E+00 0. -1.
        -13    1    1    2    0    0  0.17849361194E+03  0.39441888823E+03  0.22523871344E+04  0.22936159319E+04  0.10566000000E+00 0.  1.
         13    1    1    2    0    0  0.20593394674E+03 -0.51224666909E+03  0.55292234185E+01  0.55211957390E+03  0.10566000000E+00 0. -1.
          4    1    1    2  501    0 -0.38442755868E+03  0.11782778086E+03  0.30224987701E+03  0.50301383874E+03  0.00000000000E+00 0.  1.
</event>
<event>
 5    1  0.2540860E-005  0.4958515E+03  0.7818608E-02  0.9790093E-01
          4   -1    0    0  502    0 -0.00000000000E+00  0.00000000000E+00  0.39939963363E+03  0.39939963363E+03  0.00000000000E+00 0.  1.
         21   -1    0    0  501  502  0.00000000000E+00 -0.00000000000E+00 -0.91763395321E+03  0.91763395321E+03  0.00000000000E+00 0.  1.
        -13    1    1    2    0    0  0.42959388882E+03  0.36099271860E+03 -0.36143026689E+03  0.66745674106E+03  0.10566000000E+00 0.  1.
         13    1    1    2    0    0 -0.17011214104E+03 -0.52027975969E+01  0.27140656266E+02  0.17234220614E+03  0.10566000000E+00 0. -1.
          4    1    1    2  501    0 -0.25948174779E+03 -0.35578992100E+03 -0.18394470896E+03  0.47723463964E+03  0.00000000000E+00 0.  1.
</event>
<event>
 5    1  0.2540860E-005  0.4633712E+02  0.7818608E-02  0.1362900E+00
         21   -1    0    0  501  502  0.00000000000E+00  0.00000000000E+00  0.31323091419E+02  0.31323091419E+02  0.00000000000E+00 0. -1.
         -4   -1    0    0    0  501 -0.00000000000E+00 -0.00000000000E+00 -0.12696077491E+03  0.12696077491E+03  0.00000000000E+00 0. -1.
        -13    1    1    2    0    0 -0.48189025297E+01 -0.16003042640E+02 -0.51625142435E+02  0.54263115381E+02  0.10566000000E+00 0.  1.
         13    1    1    2    0    0 -0.40086374979E+02  0.26575950364E+02 -0.23582188139E+02  0.53566121366E+02  0.10566000000E+00 0. -1.
         -4    1    1    2    0  502  0.44905277509E+02 -0.10572907724E+02 -0.20430352914E+02  0.50454629581E+02  0.00000000000E+00 0. -1.
</event>
<event>
 5    1  0.2540860E-005  0.7198607E+03  0.7818608E-02  0.9094655E-01
         21   -1    0    0  501  502  0.00000000000E+00  0.00000000000E+00  0.36581050783E+03  0.36581050783E+03  0.00000000000E+00 0. -1.
          4   -1    0    0  502    0 -0.00000000000E+00 -0.00000000000E+00 -0.21344557588E+04  0.21344557588E+04  0.00000000000E+00 0.  1.
        -13    1    1    2    0    0 -0.32327846994E+03 -0.80695988122E+03 -0.97387236680E+03  0.13054197091E+04  0.10566000000E+00 0.  1.
         13    1    1    2    0    0  0.30083162858E+03  0.51452417385E+03 -0.48671864417E+03  0.76949973618E+03  0.10566000000E+00 0. -1.
          4    1    1    2  501    0  0.22446841355E+02  0.29243570737E+03 -0.30805424002E+03  0.42534682134E+03  0.00000000000E+00 0.  1.
</event>
<event>
 5    1  0.6816604E-005  0.4028005E+03  0.7818608E-02  0.1046279E+00
         21   -1    0    0  501  502  0.00000000000E+00  0.00000000000E+00  0.19114990292E+03  0.19114990292E+03  0.00000000000E+00 0.  1.
          4   -1    0    0  502    0 -0.00000000000E+00 -0.00000000000E+00 -0.14688125966E+04  0.14688125966E+04  0.00000000000E+00 0.  1.
        -13    1    1    2    0    0  0.36031017878E+03 -0.19442781143E+03 -0.10362721601E+04  0.11142197269E+04  0.10566000000E+00 0.  1.
         13    1    1    2    0    0 -0.25312304070E+02 -0.26815877034E+02 -0.12118353829E+03  0.12666990612E+03  0.10566000000E+00 0. -1.
          4    1    1    2  501    0 -0.33499787471E+03  0.22124368846E+03 -0.12020699527E+03  0.41907286652E+03  0.00000000000E+00 0.  1.
</event>
<event>
 5    1  0.2540860E-005  0.4897531E+03  0.7818608E-02  0.9725721E-01
          4   -1    0    0  502    0 -0.00000000000E+00  0.00000000000E+00  0.19958688083E+04  0.19958688083E+04  0.00000000000E+00 0.  1.
         21   -1    0    0  501  502  0.00000000000E+00 -0.00000000000E+00 -0.40394674525E+03  0.40394674525E+03  0.00000000000E+00 0.  1.
        -13    1    1    2    0    0  0.16894575407E+03  0.92878552784E+02  0.76809878350E+03  0.79192477279E+03  0.10566000000E+00 0.  1.
         13    1    1    2    0    0 -0.52963144230E+03  0.23842792351E+03  0.93960909721E+03  0.11046368662E+04  0.10566000000E+00 0. -1.
          4    1    1    2  501    0  0.36068568823E+03 -0.33130647630E+03 -0.11578581769E+03  0.50325391455E+03  0.00000000000E+00 0.  1.
</event>
<event>
 5    1  0.2540860E-005  0.4980447E+03  0.7818608E-02  0.9768770E-01
         -4   -1    0    0    0  501 -0.00000000000E+00  0.00000000000E+00  0.12347345791E+04  0.12347345791E+04  0.00000000000E+00 0. -1.
         21   -1    0    0  501  502  0.00000000000E+00 -0.00000000000E+00 -0.28865735187E+03  0.28865735187E+03  0.00000000000E+00 0. -1.
        -13    1    1    2    0    0  0.16423474402E+03  0.75336644222E+02  0.13352799204E+03  0.22467397920E+03  0.10566000000E+00 0.  1.
         13    1    1    2    0    0  0.37553541669E+03 -0.22781700744E+03  0.46105798485E+03  0.63679032234E+03  0.10566000000E+00 0. -1.
         -4    1    1    2    0  502 -0.53977016071E+03  0.15248036322E+03  0.35149125036E+03  0.66192762946E+03  0.00000000000E+00 0. -1.
</event>
<event>
 5    1  0.2540860E-005  0.4908108E+03  0.7818608E-02  0.9722324E-01
         -4   -1    0    0    0  501 -0.00000000000E+00  0.00000000000E+00  0.13170794173E+04  0.13170794173E+04  0.00000000000E+00 0. -1.
         21   -1    0    0  501  502  0.00000000000E+00 -0.00000000000E+00 -0.48212472137E+03  0.48212472137E+03  0.00000000000E+00 0. -1.
        -13    1    1    2    0    0 -0.32044979007E+02 -0.21929288930E+03  0.75461753137E+03  0.78648832273E+03  0.10566000000E+00 0.  1.
         13    1    1    2    0    0  0.39149096705E+03 -0.21383080625E+03  0.52790187912E+02  0.44919439677E+03  0.10566000000E+00 0. -1.
         -4    1    1    2    0  502 -0.35944598804E+03  0.43312369555E+03  0.27546976670E+02  0.56352141920E+03  0.00000000000E+00 0. -1.
</event>
<event>
 5    1  0.2540860E-005  0.6132367E+03  0.7818608E-02  0.9259344E-01
          4   -1    0    0  502    0 -0.00000000000E+00  0.00000000000E+00  0.28682422893E+04  0.28682422893E+04  0.00000000000E+00 0.  1.
         21   -1    0    0  501  502  0.00000000000E+00 -0.00000000000E+00 -0.29368254872E+03  0.29368254872E+03  0.00000000000E+00 0.  1.
        -13    1    1    2    0    0  0.54613236764E+03  0.23397438839E+03  0.18194034484E+04  0.19139575482E+04  0.10566000000E+00 0.  1.
         13    1    1    2    0    0 -0.60029958614E+03 -0.26733913386E+03  0.88563512883E+03  0.11028052404E+04  0.10566000000E+00 0. -1.
          4    1    1    2  501    0  0.54167218501E+02  0.33364745467E+02 -0.13047883658E+03  0.14516204943E+03  0.00000000000E+00 0.  1.
</event>
<event>
 5    1  0.2540860E-005  0.4684111E+03  0.7818608E-02  0.9813925E-01
         21   -1    0    0  501  502  0.00000000000E+00  0.00000000000E+00  0.21998035921E+03  0.21998035921E+03  0.00000000000E+00 0.  1.
          4   -1    0    0  502    0 -0.00000000000E+00 -0.00000000000E+00 -0.20839140384E+04  0.20839140384E+04  0.00000000000E+00 0.  1.
        -13    1    1    2    0    0 -0.33460705595E+03 -0.39915564436E+02 -0.89994646854E+03  0.96096763295E+03  0.10566000000E+00 0.  1.
         13    1    1    2    0    0 -0.18196373565E+03 -0.39109427324E+02 -0.75915417243E+03  0.78163637139E+03  0.10566000000E+00 0. -1.
          4    1    1    2  501    0  0.51657079161E+03  0.79024991760E+02 -0.20483303826E+03  0.56129039331E+03  0.00000000000E+00 0.  1.
</event>
<event>
 5    1  0.2540860E-005  0.1140809E+03  0.7818608E-02  0.1143153E+00
         21   -1    0    0  501  502  0.00000000000E+00  0.00000000000E+00  0.17422905437E+03  0.17422905437E+03  0.00000000000E+00 0. -1.
          4   -1    0    0  502    0 -0.00000000000E+00 -0.00000000000E+00 -0.12061974950E+03  0.12061974950E+03  0.00000000000E+00 0.  1.
        -13    1    1    2    0    0 -0.10629057920E+03  0.26450722756E+02 -0.36127394450E+02  0.11533658463E+03  0.10566000000E+00 0.  1.
         13    1    1    2    0    0  0.12011875203E+03 -0.31680013216E+02  0.44557149939E+02  0.13197533330E+03  0.10566000000E+00 0. -1.
          4    1    1    2  501    0 -0.13828172829E+02  0.52292904600E+01  0.45179549385E+02  0.47536885943E+02  0.00000000000E+00 0.  1.
</event>
<event>
 5    1  0.2540860E-005  0.8624832E+02  0.7818608E-02  0.1189561E+00
         21   -1    0    0  501  502  0.00000000000E+00  0.00000000000E+00  0.14475926312E+03  0.14475926312E+03  0.00000000000E+00 0. -1.
          4   -1    0    0  502    0 -0.00000000000E+00 -0.00000000000E+00 -0.25228616028E+03  0.25228616028E+03  0.00000000000E+00 0.  1.
        -13    1    1    2    0    0 -0.64118915744E+02  0.67240975410E+02 -0.22610321552E+03  0.24444888906E+03  0.10566000000E+00 0.  1.
         13    1    1    2    0    0  0.36225152234E+02 -0.31031035596E+02  0.42715931223E+02  0.64030061447E+02  0.10566000000E+00 0. -1.
          4    1    1    2  501    0  0.27893763510E+02 -0.36209939813E+02  0.75860387139E+02  0.88566472894E+02  0.00000000000E+00 0.  1.
</event>
<event>
 5    1  0.2540860E-005  0.1799780E+03  0.7818608E-02  0.1091159E+00
         -4   -1    0    0    0  501 -0.00000000000E+00  0.00000000000E+00  0.13368048263E+03  0.13368048263E+03  0.00000000000E+00 0. -1.
         21   -1    0    0  501  502  0.00000000000E+00 -0.00000000000E+00 -0.63542720273E+03  0.63542720273E+03  0.00000000000E+00 0.  1.
        -13    1    1    2    0    0 -0.46697212034E+02 -0.10392838691E+03 -0.12007786156E+03  0.16553079235E+03  0.10566000000E+00 0.  1.
         13    1    1    2    0    0  0.62549494221E+02  0.26180454585E+03 -0.11379847582E+03  0.29223990781E+03  0.10566000000E+00 0. -1.
         -4    1    1    2    0  502 -0.15852282187E+02 -0.15787615894E+03 -0.26787038272E+03  0.31133698520E+03  0.00000000000E+00 0. -1.
</event>
<event>
 5    1  0.2540860E-005  0.4518235E+03  0.7818608E-02  0.9981200E-01
         -4   -1    0    0    0  501 -0.00000000000E+00  0.00000000000E+00  0.11366357384E+04  0.11366357384E+04  0.00000000000E+00 0. -1.
         21   -1    0    0  501  502  0.00000000000E+00 -0.00000000000E+00 -0.24816456483E+03  0.24816456483E+03  0.00000000000E+00 0. -1.
        -13    1    1    2    0    0 -0.69841607865E+02  0.95693507006E+02  0.15838485027E+03  0.19778996292E+03  0.10566000000E+00 0.  1.
         13    1    1    2    0    0 -0.22912025314E+03 -0.41956106852E+03  0.49225171922E+03  0.68617734358E+03  0.10566000000E+00 0. -1.
         -4    1    1    2    0  502  0.29896186100E+03  0.32386756151E+03  0.23783460411E+03  0.50083299676E+03  0.00000000000E+00 0. -1.
</event>
<event>
 5    1  0.2540860E-005  0.4304610E+03  0.7818608E-02  0.9644985E-01
         21   -1    0    0  501  502  0.00000000000E+00  0.00000000000E+00  0.15649184167E+04  0.15649184167E+04  0.00000000000E+00 0.  1.
          4   -1    0    0  502    0 -0.00000000000E+00 -0.00000000000E+00 -0.41076485011E+03  0.41076485011E+03  0.00000000000E+00 0.  1.
        -13    1    1    2    0    0  0.29795400536E+03  0.60015864087E+03  0.96359090380E+03  0.11736585639E+04  0.10566000000E+00 0.  1.
         13    1    1    2    0    0 -0.30314639424E+03 -0.25484830566E+03 -0.21747503922E+02  0.39663378616E+03  0.10566000000E+00 0. -1.
          4    1    1    2  501    0  0.51923888719E+01 -0.34531033521E+03  0.21231016670E+03  0.40539091676E+03  0.00000000000E+00 0.  1.
</event>
<event>
 5    1  0.2540860E-005  0.5645162E+02  0.7818608E-02  0.1267540E+00
         21   -1    0    0  501  502  0.00000000000E+00  0.00000000000E+00  0.11767995335E+02  0.11767995335E+02  0.00000000000E+00 0. -1.
          4   -1    0    0  502    0 -0.00000000000E+00 -0.00000000000E+00 -0.40833179627E+03  0.40833179627E+03  0.00000000000E+00 0.  1.
        -13    1    1    2    0    0 -0.57703495481E+02 -0.23754262612E+02 -0.19171269249E+03  0.20161281211E+03  0.10566000000E+00 0.  1.
         13    1    1    2    0    0  0.49613239064E+02  0.16973254305E+02 -0.20019704504E+03  0.20695031495E+03  0.10566000000E+00 0. -1.
          4    1    1    2  501    0  0.80902564179E+01  0.67810083070E+01 -0.46540634108E+01  0.11536664544E+02  0.00000000000E+00 0.  1.
</event>
<event>
 5    1  0.2540860E-005  0.6721489E+02  0.7818608E-02  0.1234230E+00
         21   -1    0    0  501  502  0.00000000000E+00  0.00000000000E+00  0.18365001770E+02  0.18365001770E+02  0.00000000000E+00 0. -1.
         -4   -1    0    0    0  501 -0.00000000000E+00 -0.00000000000E+00 -0.57922582813E+03  0.57922582813E+03  0.00000000000E+00 0. -1.
        -13    1    1    2    0    0 -0.19613276884E+02  0.54089826602E+02 -0.19648518316E+03  0.20473599669E+03  0.10566000000E+00 0.  1.
         13    1    1    2    0    0  0.39437602853E+02 -0.66619407047E+02 -0.36094397633E+03  0.36915313235E+03  0.10566000000E+00 0. -1.
         -4    1    1    2    0  502 -0.19824325969E+02  0.12529580445E+02 -0.34316668695E+01  0.23701700862E+02  0.00000000000E+00 0. -1.
</event>
<event>
 5    1  0.2540860E-005  0.2031807E+03  0.7818608E-02  0.1057977E+00
         -4   -1    0    0    0  501 -0.00000000000E+00  0.00000000000E+00  0.23765649391E+03  0.23765649391E+03  0.00000000000E+00 0. -1.
         21   -1    0    0  501  502  0.00000000000E+00 -0.00000000000E+00 -0.39165224725E+03  0.39165224725E+03  0.00000000000E+00 0.  1.
        -13    1    1    2    0    0  0.51585727515E+02  0.15322494504E+03 -0.19332771274E+03  0.25202100456E+03  0.10566000000E+00 0.  1.
         13    1    1    2    0    0 -0.57362259135E+02 -0.20592749959E+03  0.14552160317E+03  0.25859836042E+03  0.10566000000E+00 0. -1.
         -4    1    1    2    0  502  0.57765316191E+01  0.52702554552E+02 -0.10618964377E+03  0.11868937618E+03  0.00000000000E+00 0. -1.
</event>
<event>
 5    1  0.2540860E-005  0.3018010E+03  0.7818608E-02  0.1006565E+00
         21   -1    0    0  501  502  0.00000000000E+00  0.00000000000E+00  0.16711941057E+04  0.16711941057E+04  0.00000000000E+00 0.  1.
         -4   -1    0    0    0  501 -0.00000000000E+00 -0.00000000000E+00 -0.14108741562E+03  0.14108741562E+03  0.00000000000E+00 0. -1.
        -13    1    1    2    0    0 -0.36150086504E+03 -0.16472810843E+03  0.86681780626E+03  0.95351525712E+03  0.10566000000E+00 0.  1.
         13    1    1    2    0    0  0.21681515235E+03  0.17836031160E+03  0.13626520378E+03  0.31207279274E+03  0.10566000000E+00 0. -1.
         -4    1    1    2    0  502  0.14468571269E+03 -0.13632203167E+02  0.52702367999E+03  0.54669347142E+03  0.00000000000E+00 0. -1.
</event>
<event>
 5    1  0.2540860E-005  0.4450733E+03  0.7818608E-02  0.9684763E-01
         21   -1    0    0  501  502  0.00000000000E+00  0.00000000000E+00  0.73231019183E+03  0.73231019183E+03  0.00000000000E+00 0. -1.
          4   -1    0    0  502    0 -0.00000000000E+00 -0.00000000000E+00 -0.66459526455E+03  0.66459526455E+03  0.00000000000E+00 0.  1.
        -13    1    1    2    0    0  0.33834280341E+03  0.25886449233E+03  0.20866127398E+03  0.47436928276E+03  0.10566000000E+00 0.  1.
         13    1    1    2    0    0 -0.17751244785E+03  0.28846999031E+03 -0.19467055028E+02  0.33927066164E+03  0.10566000000E+00 0. -1.
          4    1    1    2  501    0 -0.16083035556E+03 -0.54733448264E+03 -0.12147929167E+03  0.58326551198E+03  0.00000000000E+00 0.  1.
</event>
<event>
 5    1  0.2540860E-005  0.4123259E+03  0.7818608E-02  0.9746028E-01
         -4   -1    0    0    0  501 -0.00000000000E+00  0.00000000000E+00  0.55976409633E+03  0.55976409633E+03  0.00000000000E+00 0. -1.
         21   -1    0    0  501  502  0.00000000000E+00 -0.00000000000E+00 -0.12261886638E+04  0.12261886638E+04  0.00000000000E+00 0. -1.
        -13    1    1    2    0    0  0.16765122085E+03 -0.41887408516E+03  0.81769726802E+02  0.45852887636E+03  0.10566000000E+00 0.  1.
         13    1    1    2    0    0  0.29402657108E+03 -0.12250561305E+03 -0.46056311331E+03  0.55998003735E+03  0.10566000000E+00 0. -1.
         -4    1    1    2    0  502 -0.46167779193E+03  0.54137969820E+03 -0.28763118100E+03  0.76744384646E+03  0.00000000000E+00 0. -1.
</event>
<event>
 5    1  0.2540860E-005  0.5393997E+02  0.7818608E-02  0.1276529E+00
          4   -1    0    0  502    0 -0.00000000000E+00  0.00000000000E+00  0.12371995514E+03  0.12371995514E+03  0.00000000000E+00 0.  1.
         21   -1    0    0  501  502  0.00000000000E+00 -0.00000000000E+00 -0.76598096300E+02  0.76598096300E+02  0.00000000000E+00 0. -1.
        -13    1    1    2    0    0 -0.25051913952E+02  0.49126863703E+02  0.99788769263E+02  0.11401252898E+03  0.10566000000E+00 0.  1.
         13    1    1    2    0    0  0.74076539149E+01 -0.48254525112E+02 -0.29038689725E+02  0.56803425912E+02  0.10566000000E+00 0. -1.
          4    1    1    2  501    0  0.17644260037E+02 -0.87233859084E+00 -0.23628220701E+02  0.29502096542E+02  0.00000000000E+00 0.  1.
</event>
<event>
 5    1  0.2540860E-005  0.7854839E+03  0.7818608E-02  0.9007422E-01
          4   -1    0    0  502    0 -0.00000000000E+00  0.00000000000E+00  0.13364009085E+04  0.13364009085E+04  0.00000000000E+00 0.  1.
         21   -1    0    0  501  502  0.00000000000E+00 -0.00000000000E+00 -0.85247192725E+03  0.85247192725E+03  0.00000000000E+00 0. -1.
        -13    1    1    2    0    0 -0.36675077649E+03 -0.68149491440E+03  0.74432325491E+03  0.10737590835E+04  0.10566000000E+00 0.  1.
         13    1    1    2    0    0  0.41750475444E+03  0.69807743704E+03  0.35757367882E+02  0.81418728104E+03  0.10566000000E+00 0. -1.
          4    1    1    2  501    0 -0.50753977949E+02 -0.16582522640E+02 -0.29615164151E+03  0.30092647126E+03  0.00000000000E+00 0.  1.
</event>
<event>
 5    1  0.2540860E-005  0.2804481E+03  0.7818608E-02  0.1015719E+00
         21   -1    0    0  501  502  0.00000000000E+00  0.00000000000E+00  0.81633678893E+02  0.81633678893E+02  0.00000000000E+00 0. -1.
         -4   -1    0    0    0  501 -0.00000000000E+00 -0.00000000000E+00 -0.21724537694E+04  0.21724537694E+04  0.00000000000E+00 0. -1.
        -13    1    1    2    0    0 -0.25942064374E+03  0.55713401995E+02 -0.14308748787E+04  0.14552683544E+04  0.10566000000E+00 0.  1.
         13    1    1    2    0    0  0.33588716930E+03 -0.11020238611E+03 -0.48350244515E+03  0.59894856376E+03  0.10566000000E+00 0. -1.
         -4    1    1    2    0  502 -0.76466525562E+02  0.54488984112E+02 -0.17644276662E+03  0.19987053012E+03  0.00000000000E+00 0. -1.
</event>
<event>
 5    1  0.2540860E-005  0.1370662E+03  0.7818608E-02  0.1114618E+00
         21   -1    0    0  501  502  0.00000000000E+00  0.00000000000E+00  0.58014838534E+03  0.58014838534E+03  0.00000000000E+00 0.  1.
         -4   -1    0    0    0  501 -0.00000000000E+00 -0.00000000000E+00 -0.78349123320E+02  0.78349123320E+02  0.00000000000E+00 0. -1.
        -13    1    1    2    0    0 -0.12694766060E+03  0.28485940757E+02  0.38446996558E+03  0.40588708153E+03  0.10566000000E+00 0.  1.
         13    1    1    2    0    0  0.12219886210E+03 -0.66684488510E+02  0.11134329269E+02  0.13965445700E+03  0.10566000000E+00 0. -1.
         -4    1    1    2    0  502  0.47487984980E+01  0.38198547752E+02  0.10619496717E+03  0.11295597014E+03  0.00000000000E+00 0. -1.
</event>
<event>
 5    1  0.2540860E-005  0.4766259E+03  0.7818608E-02  0.9619607E-01
         21   -1    0    0  501  502  0.00000000000E+00  0.00000000000E+00  0.34522475424E+03  0.34522475424E+03  0.00000000000E+00 0.  1.
         -4   -1    0    0    0  501 -0.00000000000E+00 -0.00000000000E+00 -0.15014865716E+04  0.15014865716E+04  0.00000000000E+00 0. -1.
        -13    1    1    2    0    0 -0.34542342322E+03 -0.31407812231E+02 -0.50848048151E+03  0.61551295943E+03  0.10566000000E+00 0.  1.
         13    1    1    2    0    0 -0.18458381318E+03 -0.23524772919E+03 -0.55535019110E+03  0.63073490794E+03  0.10566000000E+00 0. -1.
         -4    1    1    2    0  502  0.53000723640E+03  0.26665554142E+03 -0.92431144714E+02  0.60046345843E+03  0.00000000000E+00 0. -1.
</event>
<event>
 5    1  0.2540860E-005  0.2035243E+03  0.7818608E-02  0.1057746E+00
          4   -1    0    0  502    0 -0.00000000000E+00  0.00000000000E+00  0.13697922233E+04  0.13697922233E+04  0.00000000000E+00 0.  1.
         21   -1    0    0  501  502  0.00000000000E+00 -0.00000000000E+00 -0.16279230104E+03  0.16279230104E+03  0.00000000000E+00 0. -1.
        -13    1    1    2    0    0  0.15117139364E+03  0.10817682610E+03  0.85635861525E+03  0.87630194855E+03  0.10566000000E+00 0.  1.
         13    1    1    2    0    0 -0.32066524394E+03 -0.99982140256E+02  0.35205424056E+03  0.48658486053E+03  0.10566000000E+00 0. -1.
          4    1    1    2  501    0  0.16949385030E+03 -0.81946858471E+01 -0.14129335957E+01  0.16969771520E+03  0.00000000000E+00 0.  1.
</event>
<event>
 5    1  0.2540860E-005  0.2472573E+03  0.7818608E-02  0.1031824E+00
         21   -1    0    0  501  502  0.00000000000E+00  0.00000000000E+00  0.41459605931E+03  0.41459605931E+03  0.00000000000E+00 0. -1.
          4   -1    0    0  502    0 -0.00000000000E+00 -0.00000000000E+00 -0.60375812588E+03  0.60375812588E+03  0.00000000000E+00 0.  1.
        -13    1    1    2    0    0  0.10021095714E+03 -0.23049781746E+03 -0.45584325810E+03  0.52054256973E+03  0.10566000000E+00 0.  1.
         13    1    1    2    0    0  0.18071689269E+02  0.25057023629E+03  0.59139257641E+02  0.25808814817E+03  0.10566000000E+00 0. -1.
          4    1    1    2  501    0 -0.11828264641E+03 -0.20072418838E+02  0.20754193390E+03  0.23972346728E+03  0.00000000000E+00 0.  1.
</event>
<event>
 5    1  0.2540860E-005  0.5016927E+03  0.7818608E-02  0.9784170E-01
          4   -1    0    0  502    0 -0.00000000000E+00  0.00000000000E+00  0.15539009585E+04  0.15539009585E+04  0.00000000000E+00 0.  1.
         21   -1    0    0  501  502  0.00000000000E+00 -0.00000000000E+00 -0.45776987477E+03  0.45776987477E+03  0.00000000000E+00 0.  1.
        -13    1    1    2    0    0  0.20594428267E+03 -0.35803210737E+03  0.16967582896E+03  0.44653100180E+03  0.10566000000E+00 0.  1.
         13    1    1    2    0    0  0.10534176745E+03 -0.13046055853E+03  0.96988158090E+03  0.98426984991E+03  0.10566000000E+00 0. -1.
          4    1    1    2  501    0 -0.31128605011E+03  0.48849266590E+03 -0.43426326169E+02  0.58086998152E+03  0.00000000000E+00 0.  1.
</event>
<event>
 5    1  0.2540860E-005  0.2453837E+03  0.7818608E-02  0.1039385E+00
          4   -1    0    0  502    0 -0.00000000000E+00  0.00000000000E+00  0.30562931123E+03  0.30562931123E+03  0.00000000000E+00 0.  1.
         21   -1    0    0  501  502  0.00000000000E+00 -0.00000000000E+00 -0.96186447642E+03  0.96186447642E+03  0.00000000000E+00 0.  1.
        -13    1    1    2    0    0  0.10475951679E+03 -0.22611644082E+03 -0.73286235714E+03  0.77407392854E+03  0.10566000000E+00 0.  1.
         13    1    1    2    0    0 -0.19666937458E+03 -0.40388331501E+02 -0.18863912298E+01  0.20078254370E+03  0.10566000000E+00 0. -1.
          4    1    1    2  501    0  0.91909857787E+02  0.26650477232E+03  0.78513583178E+02  0.29263731541E+03  0.00000000000E+00 0.  1.
</event>
<event>
 5    1  0.2540860E-005  0.5019886E+03  0.7818608E-02  0.9613914E-01
         21   -1    0    0  501  502  0.00000000000E+00  0.00000000000E+00  0.34561226354E+03  0.34561226354E+03  0.00000000000E+00 0. -1.
         -4   -1    0    0    0  501 -0.00000000000E+00 -0.00000000000E+00 -0.21007343907E+04  0.21007343907E+04  0.00000000000E+00 0. -1.
        -13    1    1    2    0    0 -0.72622054926E+02 -0.29410550516E+03 -0.12035513148E+04  0.12410913703E+04  0.10566000000E+00 0.  1.
         13    1    1    2    0    0 -0.46578750051E+02 -0.31511761905E+03 -0.48591463304E+03  0.58101784444E+03  0.10566000000E+00 0. -1.
         -4    1    1    2    0  502  0.11920080498E+03  0.60922312421E+03 -0.65656179373E+02  0.62423743950E+03  0.00000000000E+00 0. -1.
</event>
<event>
 5    1  0.2540860E-005  0.4798645E+03  0.7818608E-02  0.9739862E-01
         -4   -1    0    0    0  501 -0.00000000000E+00  0.00000000000E+00  0.29710447166E+03  0.29710447166E+03  0.00000000000E+00 0. -1.
         21   -1    0    0  501  502  0.00000000000E+00 -0.00000000000E+00 -0.16705135851E+04  0.16705135851E+04  0.00000000000E+00 0. -1.
        -13    1    1    2    0    0  0.22225414772E+03  0.20203395094E+02  0.49270997172E+02  0.22854480016E+03  0.10566000000E+00 0.  1.
         13    1    1    2    0    0 -0.76453239287E+02 -0.48866949530E+03 -0.56443112816E+03  0.75048349951E+03  0.10566000000E+00 0. -1.
         -4    1    1    2    0  502 -0.14580090844E+03  0.46846610020E+03 -0.85824898247E+03  0.98858975710E+03  0.00000000000E+00 0. -1.
</event>
<event>
 5    1  0.2540860E-005  0.8668479E+02  0.7818608E-02  0.1188690E+00
         21   -1    0    0  501  502  0.00000000000E+00  0.00000000000E+00  0.50910171956E+02  0.50910171956E+02  0.00000000000E+00 0.  1.
          4   -1    0    0  502    0 -0.00000000000E+00 -0.00000000000E+00 -0.23205034151E+03  0.23205034151E+03  0.00000000000E+00 0.  1.
        -13    1    1    2    0    0  0.64981800509E+02  0.59901757723E+02 -0.16542970816E+03  0.18755760311E+03  0.10566000000E+00 0.  1.
         13    1    1    2    0    0 -0.66155626556E+02 -0.48427316073E+02 -0.17204641521E+02  0.83772207330E+02  0.10566000000E+00 0. -1.
          4    1    1    2  501    0  0.11738260473E+01 -0.11474441650E+02  0.14941801270E+01  0.11630703032E+02  0.00000000000E+00 0.  1.
</event>
<event>
 5    1  0.2540860E-005  0.3786200E+03  0.7818608E-02  0.1001348E+00
          4   -1    0    0  502    0 -0.00000000000E+00  0.00000000000E+00  0.20078959185E+04  0.20078959185E+04  0.00000000000E+00 0.  1.
         21   -1    0    0  501  502  0.00000000000E+00 -0.00000000000E+00 -0.17918257327E+03  0.17918257327E+03  0.00000000000E+00 0.  1.
        -13    1    1    2    0    0  0.36591450041E+03 -0.96871393850E+02  0.15426951649E+03  0.40875002561E+03  0.10566000000E+00 0.  1.
         13    1    1    2    0    0  0.38111807015E+02  0.17705180059E+03  0.63259218266E+03  0.65800663420E+03  0.10566000000E+00 0. -1.
          4    1    1    2  501    0 -0.40402630742E+03 -0.80180406739E+02  0.10418516461E+04  0.11203218319E+04  0.00000000000E+00 0.  1.
</event>
<event>
 5    1  0.2540860E-005  0.5514340E+03  0.7818608E-02  0.9371844E-01
         21   -1    0    0  501  502  0.00000000000E+00  0.00000000000E+00  0.21884801789E+03  0.21884801789E+03  0.00000000000E+00 0.  1.
          4   -1    0    0  502    0 -0.00000000000E+00 -0.00000000000E+00 -0.31203541931E+04  0.31203541931E+04  0.00000000000E+00 0.  1.
        -13    1    1    2    0    0  0.47525811487E+03  0.50730269864E+03 -0.11618230432E+04  0.13539051291E+04  0.10566000000E+00 0.  1.
         13    1    1    2    0    0 -0.50993228634E+03 -0.73463996076E+02 -0.10535395399E+04  0.11727631767E+04  0.10566000000E+00 0. -1.
          4    1    1    2  501    0  0.34674171465E+02 -0.43383870256E+03 -0.68614359204E+03  0.81253390508E+03  0.00000000000E+00 0.  1.
</event>
<event>
 5    1  0.2540860E-005  0.2634928E+03  0.7818608E-02  0.1046284E+00
          4   -1    0    0  502    0 -0.00000000000E+00  0.00000000000E+00  0.32751880123E+04  0.32751880123E+04  0.00000000000E+00 0.  1.
         21   -1    0    0  501  502  0.00000000000E+00 -0.00000000000E+00 -0.10454065032E+03  0.10454065032E+03  0.00000000000E+00 0.  1.
        -13    1    1    2    0    0  0.13331683377E+03  0.23021170849E+03  0.10282497805E+03  0.28520833818E+03  0.10566000000E+00 0.  1.
         13    1    1    2    0    0  0.91809522190E+02 -0.94445948738E+02  0.71260039886E+03  0.72467121181E+03  0.10566000000E+00 0. -1.
          4    1    1    2  501    0 -0.22512635596E+03 -0.13576575975E+03  0.23552219851E+04  0.23698491127E+04  0.00000000000E+00 0.  1.
</event>
<event>
 5    1  0.2540860E-005  0.3899696E+03  0.7818608E-02  0.9871176E-01
         -4   -1    0    0    0  501 -0.00000000000E+00  0.00000000000E+00  0.94584294539E+03  0.94584294539E+03  0.00000000000E+00 0. -1.
         21   -1    0    0  501  502  0.00000000000E+00 -0.00000000000E+00 -0.47372002789E+03  0.47372002789E+03  0.00000000000E+00 0. -1.
        -13    1    1    2    0    0 -0.25509373221E+03 -0.74389662163E+02  0.21606216211E+03  0.34247555111E+03  0.10566000000E+00 0.  1.
         13    1    1    2    0    0  0.28394614342E+03 -0.29568386592E+03 -0.22643764941E+03  0.46832508064E+03  0.10566000000E+00 0. -1.
         -4    1    1    2    0  502 -0.28852411206E+02  0.37007352808E+03  0.48249840479E+03  0.60876234152E+03  0.00000000000E+00 0. -1.
</event>
<event>
 5    1  0.2540860E-005  0.2117228E+03  0.7818608E-02  0.1052459E+00
          4   -1    0    0  502    0 -0.00000000000E+00  0.00000000000E+00  0.30255991717E+04  0.30255991717E+04  0.00000000000E+00 0.  1.
         21   -1    0    0  501  502  0.00000000000E+00 -0.00000000000E+00 -0.12186584466E+03  0.12186584466E+03  0.00000000000E+00 0.  1.
        -13    1    1    2    0    0  0.13242465152E+02  0.21177499808E+03  0.31834983441E+02  0.21456348718E+03  0.10566000000E+00 0.  1.
         13    1    1    2    0    0 -0.21186659872E+03 -0.63162975104E+01  0.48943990328E+03  0.53336552321E+03  0.10566000000E+00 0. -1.
          4    1    1    2  501    0  0.19862413357E+03 -0.20545870057E+03  0.23824584403E+04  0.23995360059E+04  0.00000000000E+00 0.  1.
</event>
<event>
 5    1  0.2540860E-005  0.3092826E+03  0.7818608E-02  0.1003546E+00
          4   -1    0    0  502    0 -0.00000000000E+00  0.00000000000E+00  0.38229430263E+03  0.38229430263E+03  0.00000000000E+00 0.  1.
         21   -1    0    0  501  502  0.00000000000E+00 -0.00000000000E+00 -0.10142107143E+04  0.10142107143E+04  0.00000000000E+00 0. -1.
        -13    1    1    2    0    0  0.59163200306E+02 -0.30520686646E+03  0.28076928266E+03  0.41890681166E+03  0.10566000000E+00 0.  1.
         13    1    1    2    0    0 -0.27395330921E+02  0.29320947421E+03 -0.66100010598E+03  0.72363212421E+03  0.10566000000E+00 0. -1.
          4    1    1    2  501    0 -0.31767869385E+02  0.11997392255E+02 -0.25168558831E+03  0.25396608102E+03  0.00000000000E+00 0.  1.
</event>
<event>
 5    1  0.2540860E-005  0.3445449E+03  0.7818608E-02  0.9904496E-01
         21   -1    0    0  501  502  0.00000000000E+00  0.00000000000E+00  0.15184148075E+03  0.15184148075E+03  0.00000000000E+00 0. -1.
          4   -1    0    0  502    0 -0.00000000000E+00 -0.00000000000E+00 -0.19975603141E+04  0.19975603141E+04  0.00000000000E+00 0.  1.
        -13    1    1    2    0    0 -0.28643894038E+03  0.23514735543E+03 -0.15453568617E+04  0.15891725477E+04  0.10566000000E+00 0.  1.
         13    1    1    2    0    0  0.26980921006E+03 -0.10339355120E+03 -0.31402328151E+03  0.42672926869E+03  0.10566000000E+00 0. -1.
          4    1    1    2  501    0  0.16629730316E+02 -0.13175380423E+03  0.13661309827E+02  0.13349997845E+03  0.00000000000E+00 0.  1.
</event>
<event>
 5    1  0.2540860E-005  0.4865877E+02  0.7818608E-02  0.1336621E+00
          4   -1    0    0  502    0 -0.00000000000E+00  0.00000000000E+00  0.58937462518E+02  0.58937462518E+02  0.00000000000E+00 0.  1.
         21   -1    0    0  501  502  0.00000000000E+00 -0.00000000000E+00 -0.32384895257E+03  0.32384895257E+03  0.00000000000E+00 0. -1.
        -13    1    1    2    0    0  0.15919269512E+02 -0.16187897650E+02  0.44917497358E+02  0.50329552999E+02  0.10566000000E+00 0.  1.
         13    1    1    2    0    0 -0.21200074888E+02  0.64559267031E+02 -0.22052853960E+03  0.23076002704E+03  0.10566000000E+00 0. -1.
          4    1    1    2  501    0  0.52808053760E+01 -0.48371369381E+02 -0.89300447813E+02  0.10169683506E+03  0.00000000000E+00 0.  1.
</event>
<event>
 5    1  0.2540860E-005  0.2953739E+03  0.7818608E-02  0.1009234E+00
          4   -1    0    0  502    0 -0.00000000000E+00  0.00000000000E+00  0.10694035260E+04  0.10694035260E+04  0.00000000000E+00 0.  1.
         21   -1    0    0  501  502  0.00000000000E+00 -0.00000000000E+00 -0.40715483136E+03  0.40715483136E+03  0.00000000000E+00 0. -1.
        -13    1    1    2    0    0 -0.20749795451E+03  0.24573379379E+03  0.76630571473E+03  0.83106254767E+03  0.10566000000E+00 0.  1.
         13    1    1    2    0    0 -0.54213796790E+02 -0.29134802155E+03  0.97559650423E+02  0.31199471466E+03  0.10566000000E+00 0. -1.
          4    1    1    2  501    0  0.26171175130E+03  0.45614227758E+02 -0.20161667053E+03  0.33350109502E+03  0.00000000000E+00 0.  1.
</event>
<event>
 5    1  0.2540860E-005  0.4003457E+03  0.7818608E-02  0.1026573E+00
         21   -1    0    0  501  502  0.00000000000E+00  0.00000000000E+00  0.19144445144E+03  0.19144445144E+03  0.00000000000E+00 0.  1.
          4   -1    0    0  502    0 -0.00000000000E+00 -0.00000000000E+00 -0.17106031684E+04  0.17106031684E+04  0.00000000000E+00 0.  1.
        -13    1    1    2    0    0 -0.36746826145E+03 -0.13500596069E+03 -0.12279985826E+03  0.41029178513E+03  0.10566000000E+00 0.  1.
         13    1    1    2    0    0 -0.59544385533E+02  0.33918853128E+02 -0.35770092624E+03  0.36420596679E+03  0.10566000000E+00 0. -1.
          4    1    1    2  501    0  0.42701264698E+03  0.10108710756E+03 -0.10386579325E+04  0.11275498679E+04  0.00000000000E+00 0.  1.
</event>
<event>
 5    1  0.2540860E-005  0.6650976E+02  0.7818608E-02  0.1237312E+00
         21   -1    0    0  501  502  0.00000000000E+00  0.00000000000E+00  0.16446495657E+03  0.16446495657E+03  0.00000000000E+00 0.  1.
          4   -1    0    0  502    0 -0.00000000000E+00 -0.00000000000E+00 -0.65690770260E+03  0.65690770260E+03  0.00000000000E+00 0.  1.
        -13    1    1    2    0    0  0.52448383950E+02 -0.11318084075E+03 -0.48235348651E+03  0.49822247320E+03  0.10566000000E+00 0.  1.
         13    1    1    2    0    0 -0.43696886192E+02  0.48032228502E+02 -0.15280170237E+03  0.16602675763E+03  0.10566000000E+00 0. -1.
          4    1    1    2  501    0 -0.87514977582E+01  0.65148612252E+02  0.14271244285E+03  0.15712342834E+03  0.00000000000E+00 0.  1.
</event>
<event>
 5    1  0.2540860E-005  0.5454491E+03  0.7818608E-02  0.9383558E-01
         21   -1    0    0  501  502  0.00000000000E+00  0.00000000000E+00  0.24751128495E+03  0.24751128495E+03  0.00000000000E+00 0.  1.
          4   -1    0    0  502    0 -0.00000000000E+00 -0.00000000000E+00 -0.30296826508E+04  0.30296826508E+04  0.00000000000E+00 0.  1.
        -13    1    1    2    0    0  0.80041655847E+03 -0.34606479877E+02 -0.82348432753E+03  0.11489084926E+04  0.10566000000E+00 0.  1.
         13    1    1    2    0    0 -0.48358692742E+03  0.12344199821E+02 -0.14502188988E+04  0.15287719127E+04  0.10566000000E+00 0. -1.
          4    1    1    2  501    0 -0.31682963104E+03  0.22262280057E+02 -0.50846813958E+03  0.59951353045E+03  0.00000000000E+00 0.  1.
</event>
<event>
 5    1  0.2540860E-005  0.3297571E+03  0.7818608E-02  0.9957280E-01
          4   -1    0    0  502    0 -0.00000000000E+00  0.00000000000E+00  0.19596092001E+04  0.19596092001E+04  0.00000000000E+00 0.  1.
         21   -1    0    0  501  502  0.00000000000E+00 -0.00000000000E+00 -0.11608364259E+03  0.11608364259E+03  0.00000000000E+00 0.  1.
        -13    1    1    2    0    0 -0.31543282039E+03  0.51343100681E+02  0.57272725718E+03  0.65585859791E+03  0.10566000000E+00 0.  1.
         13    1    1    2    0    0  0.26583333195E+03 -0.27773926177E+03  0.62580704039E+03  0.73446641916E+03  0.10566000000E+00 0. -1.
          4    1    1    2  501    0  0.49599488438E+02  0.22639616109E+03  0.64499125990E+03  0.68536782559E+03  0.00000000000E+00 0.  1.
</event>
<event>
 5    1  0.2540860E-005  0.4517694E+02  0.7818608E-02  0.1312777E+00
         21   -1    0    0  501  502  0.00000000000E+00  0.00000000000E+00  0.70456788986E+02  0.70456788986E+02  0.00000000000E+00 0. -1.
         -4   -1    0    0    0  501 -0.00000000000E+00 -0.00000000000E+00 -0.16186820537E+03  0.16186820537E+03  0.00000000000E+00 0. -1.
        -13    1    1    2    0    0 -0.46504644587E+02  0.31985336357E+01 -0.12335655382E+03  0.13187025108E+03  0.10566000000E+00 0.  1.
         13    1    1    2    0    0  0.38271786095E+02 -0.20093656375E+02 -0.18201458807E+02  0.46901907255E+02  0.10566000000E+00 0. -1.
         -4    1    1    2    0  502  0.82328584924E+01  0.16895122739E+02  0.50146596242E+02  0.53552836022E+02  0.00000000000E+00 0. -1.
</event>
<event>
 5    1  0.2540860E-005  0.4534275E+03  0.7818608E-02  0.9716688E-01
         -4   -1    0    0    0  501 -0.00000000000E+00  0.00000000000E+00  0.40144645682E+03  0.40144645682E+03  0.00000000000E+00 0. -1.
         21   -1    0    0  501  502  0.00000000000E+00 -0.00000000000E+00 -0.11400046981E+04  0.11400046981E+04  0.00000000000E+00 0. -1.
        -13    1    1    2    0    0  0.17202912200E+03 -0.22926710385E+03 -0.42666703451E+02  0.28978937606E+03  0.10566000000E+00 0.  1.
         13    1    1    2    0    0  0.31621755164E+03  0.33400454909E+03 -0.57783272221E+03  0.73854129526E+03  0.10566000000E+00 0. -1.
         -4    1    1    2    0  502 -0.48824667365E+03 -0.10473744524E+03 -0.11805881562E+03  0.51312048362E+03  0.00000000000E+00 0. -1.
</event>
<event>
 5    1  0.2540860E-005  0.1536919E+03  0.7818608E-02  0.1097527E+00
          4   -1    0    0  502    0 -0.00000000000E+00  0.00000000000E+00  0.12092084638E+03  0.12092084638E+03  0.00000000000E+00 0.  1.
         21   -1    0    0  501  502  0.00000000000E+00 -0.00000000000E+00 -0.29606797569E+03  0.29606797569E+03  0.00000000000E+00 0. -1.
        -13    1    1    2    0    0 -0.10235017280E+03  0.14457404014E+03 -0.32292925255E+02  0.18005570010E+03  0.10566000000E+00 0.  1.
         13    1    1    2    0    0  0.82594686325E+02 -0.88508541118E+02 -0.12690415311E+03  0.17538620043E+03  0.10566000000E+00 0. -1.
          4    1    1    2  501    0  0.19755486471E+02 -0.56065499020E+02 -0.15950050944E+02  0.61546921541E+02  0.00000000000E+00 0.  1.
</event>
<event>
 5    1  0.2540860E-005  0.2903607E+03  0.7818608E-02  0.1016830E+00
         21   -1    0    0  501  502  0.00000000000E+00  0.00000000000E+00  0.15663169719E+03  0.15663169719E+03  0.00000000000E+00 0. -1.
         -4   -1    0    0    0  501 -0.00000000000E+00 -0.00000000000E+00 -0.19208458114E+04  0.19208458114E+04  0.00000000000E+00 0. -1.
        -13    1    1    2    0    0 -0.29871851945E+03 -0.10546277162E+03 -0.11221971971E+04  0.11660539054E+04  0.10566000000E+00 0.  1.
         13    1    1    2    0    0  0.18490516152E+03 -0.21692629472E+03 -0.18168516041E+03  0.33801840893E+03  0.10566000000E+00 0. -1.
         -4    1    1    2    0  502  0.11381335793E+03  0.32238906634E+03 -0.46033175673E+03  0.57340519424E+03  0.00000000000E+00 0. -1.
</event>
<event>
 5    1  0.2540860E-005  0.2848869E+03  0.7818608E-02  0.1013746E+00
         21   -1    0    0  501  502  0.00000000000E+00  0.00000000000E+00  0.12149367692E+03  0.12149367692E+03  0.00000000000E+00 0. -1.
          4   -1    0    0  502    0 -0.00000000000E+00 -0.00000000000E+00 -0.11600299751E+04  0.11600299751E+04  0.00000000000E+00 0.  1.
        -13    1    1    2    0    0  0.17638770948E+03  0.22277773928E+03 -0.90714304839E+03  0.95060563147E+03  0.10566000000E+00 0.  1.
         13    1    1    2    0    0 -0.18912178117E+03 -0.21754374535E+03 -0.13220042023E+03  0.31712661750E+03  0.10566000000E+00 0. -1.
          4    1    1    2  501    0  0.12734071686E+02 -0.52339939359E+01  0.80717043241E+00  0.13791403059E+02  0.00000000000E+00 0.  1.
</event>
<event>
 5    1  0.2540860E-005  0.4720972E+03  0.7818608E-02  0.9694083E-01
         21   -1    0    0  501  502  0.00000000000E+00  0.00000000000E+00  0.24263435392E+03  0.24263435392E+03  0.00000000000E+00 0.  1.
          4   -1    0    0  502    0 -0.00000000000E+00 -0.00000000000E+00 -0.18117937969E+04  0.18117937969E+04  0.00000000000E+00 0.  1.
        -13    1    1    2    0    0  0.34922537102E+03  0.25550426351E+03 -0.95804959510E+03  0.10512372835E+04  0.10566000000E+00 0.  1.
         13    1    1    2    0    0 -0.16129361613E+03  0.22239665544E+03 -0.27943929933E+03  0.39187017765E+03  0.10566000000E+00 0. -1.
          4    1    1    2  501    0 -0.18793175489E+03 -0.47790091896E+03 -0.33167054856E+03  0.61132068967E+03  0.00000000000E+00 0.  1.
</event>
<event>
 5    1  0.2540860E-005  0.1152810E+03  0.7818608E-02  0.1141487E+00
         21   -1    0    0  501  502  0.00000000000E+00  0.00000000000E+00  0.19588088441E+02  0.19588088441E+02  0.00000000000E+00 0. -1.
          4   -1    0    0  502    0 -0.00000000000E+00 -0.00000000000E+00 -0.10135643733E+04  0.10135643733E+04  0.00000000000E+00 0.  1.
        -13    1    1    2    0    0  0.73696161747E+02 -0.83009084210E+02 -0.55069891584E+03  0.56177481200E+03  0.10566000000E+00 0.  1.
         13    1    1    2    0    0 -0.89343764012E+02  0.83138140664E+02 -0.43827449888E+03  0.45494923468E+03  0.10566000000E+00 0. -1.
          4    1    1    2  501    0  0.15647602265E+02 -0.12905645483E+00 -0.50028701429E+01  0.16428415075E+02  0.00000000000E+00 0.  1.
</event>
<event>
 5    1  0.2540860E-005  0.3439984E+03  0.7818608E-02  0.9906396E-01
         -4   -1    0    0    0  501 -0.00000000000E+00  0.00000000000E+00  0.70459286855E+03  0.70459286855E+03  0.00000000000E+00 0. -1.
         21   -1    0    0  501  502  0.00000000000E+00 -0.00000000000E+00 -0.66981762558E+03  0.66981762558E+03  0.00000000000E+00 0. -1.
        -13    1    1    2    0    0 -0.28711325224E+03 -0.12275405391E+03 -0.48083060698E+02  0.31593443822E+03  0.10566000000E+00 0.  1.
         13    1    1    2    0    0  0.44581759326E+03  0.11543080830E+02 -0.36125272343E+03  0.57392517851E+03  0.10566000000E+00 0. -1.
         -4    1    1    2    0  502 -0.15870434102E+03  0.11121097308E+03  0.44411102710E+03  0.48455087739E+03  0.00000000000E+00 0. -1.
</event>
<event>
 5    1  0.2540860E-005  0.3030310E+03  0.7818608E-02  0.1006620E+00
         21   -1    0    0  501  502  0.00000000000E+00  0.00000000000E+00  0.10047864804E+04  0.10047864804E+04  0.00000000000E+00 0.  1.
          4   -1    0    0  502    0 -0.00000000000E+00 -0.00000000000E+00 -0.48086412812E+03  0.48086412812E+03  0.00000000000E+00 0.  1.
        -13    1    1    2    0    0 -0.13198830515E+03 -0.21204585530E+03 -0.25966627439E+03  0.36029285680E+03  0.10566000000E+00 0.  1.
         13    1    1    2    0    0  0.28972854841E+03 -0.68030229212E+02  0.21655272985E+02  0.29839521756E+03  0.10566000000E+00 0. -1.
          4    1    1    2  501    0 -0.15774024326E+03  0.28007608451E+03  0.76193335370E+03  0.82696253418E+03  0.00000000000E+00 0.  1.
</event>
<event>
 5    1  0.2540860E-005  0.1125601E+03  0.7818608E-02  0.1145297E+00
         21   -1    0    0  501  502  0.00000000000E+00  0.00000000000E+00  0.97668980802E+02  0.97668980802E+02  0.00000000000E+00 0.  1.
          4   -1    0    0  502    0 -0.00000000000E+00 -0.00000000000E+00 -0.26686078578E+03  0.26686078578E+03  0.00000000000E+00 0.  1.
        -13    1    1    2    0    0 -0.40019773763E+02 -0.10934928647E+03 -0.14616663218E+03  0.18687842110E+03  0.10566000000E+00 0.  1.
         13    1    1    2    0    0  0.40310635806E+02  0.99244048513E+02 -0.71072438585E+02  0.12855205644E+03  0.10566000000E+00 0. -1.
          4    1    1    2  501    0 -0.29086204394E+00  0.10105237958E+02  0.48047265791E+02  0.49099289046E+02  0.00000000000E+00 0.  1.
</event>
<event>
 5    1  0.2540860E-005  0.4363931E+03  0.7818608E-02  0.9812000E-01
          4   -1    0    0  502    0 -0.00000000000E+00  0.00000000000E+00  0.23935144977E+04  0.23935144977E+04  0.00000000000E+00 0.  1.
         21   -1    0    0  501  502  0.00000000000E+00 -0.00000000000E+00 -0.20495220805E+03  0.20495220805E+03  0.00000000000E+00 0.  1.
        -13    1    1    2    0    0 -0.41850474711E+03 -0.46978650900E+02  0.98481260350E+03  0.10710784715E+04  0.10566000000E+00 0.  1.
         13    1    1    2    0    0  0.83027264124E+00  0.23167654651E+03  0.10014479319E+04  0.10278972142E+04  0.10566000000E+00 0. -1.
          4    1    1    2  501    0  0.41767447447E+03 -0.18469789561E+03  0.20230175423E+03  0.49949101997E+03  0.00000000000E+00 0.  1.
</event>
<event>
 5    1  0.2540860E-005  0.1398596E+03  0.7818608E-02  0.1111567E+00
          4   -1    0    0  502    0 -0.00000000000E+00  0.00000000000E+00  0.72480871869E+03  0.72480871869E+03  0.00000000000E+00 0.  1.
         21   -1    0    0  501  502  0.00000000000E+00 -0.00000000000E+00 -0.32529262986E+02  0.32529262986E+02  0.00000000000E+00 0. -1.
        -13    1    1    2    0    0  0.54601765003E+02 -0.13382072863E+03  0.46081757854E+03  0.48295154209E+03  0.10566000000E+00 0.  1.
         13    1    1    2    0    0 -0.43262613091E+02  0.12484833296E+03  0.21606434454E+03  0.25326383887E+03  0.10566000000E+00 0. -1.
          4    1    1    2  501    0 -0.11339151911E+02  0.89723956673E+01  0.15397532628E+02  0.21122600718E+02  0.00000000000E+00 0.  1.
</event>
<event>
 5    1  0.2540860E-005  0.4028639E+03  0.7818608E-02  0.9995014E-01
          4   -1    0    0  502    0 -0.00000000000E+00  0.00000000000E+00  0.11656116347E+04  0.11656116347E+04  0.00000000000E+00 0.  1.
         21   -1    0    0  501  502  0.00000000000E+00 -0.00000000000E+00 -0.33548141259E+03  0.33548141259E+03  0.00000000000E+00 0.  1.
        -13    1    1    2    0    0  0.23566097798E+02  0.37291720792E+03  0.60337075643E+02  0.37850122693E+03  0.10566000000E+00 0.  1.
         13    1    1    2    0    0 -0.56631206839E+02  0.14933070852E+03 -0.34172002706E+02  0.16332327155E+03  0.10566000000E+00 0. -1.
          4    1    1    2  501    0  0.33065109041E+02 -0.52224791644E+03  0.80396514922E+03  0.95926854886E+03  0.00000000000E+00 0.  1.
</event>
<event>
 5    1  0.2540860E-005  0.8170775E+02  0.7818608E-02  0.1210956E+00
         21   -1    0    0  501  502  0.00000000000E+00  0.00000000000E+00  0.76911371550E+03  0.76911371550E+03  0.00000000000E+00 0.  1.
          4   -1    0    0  502    0 -0.00000000000E+00 -0.00000000000E+00 -0.58044305863E+02  0.58044305863E+02  0.00000000000E+00 0.  1.
        -13    1    1    2    0    0 -0.11747414987E+03  0.26832678511E+02  0.66701069061E+02  0.13772876352E+03  0.10566000000E+00 0.  1.
         13    1    1    2    0    0  0.40381841540E+02 -0.47491133486E+02  0.28732727685E+02  0.68641690613E+02  0.10566000000E+00 0. -1.
          4    1    1    2  501    0  0.77092308329E+02  0.20658454975E+02  0.61563561289E+03  0.62078756723E+03  0.00000000000E+00 0.  1.
</event>
<event>
 5    1  0.2540860E-005  0.1317021E+03  0.7818608E-02  0.1120703E+00
         21   -1    0    0  501  502  0.00000000000E+00  0.00000000000E+00  0.24199236964E+02  0.24199236964E+02  0.00000000000E+00 0. -1.
          4   -1    0    0  502    0 -0.00000000000E+00 -0.00000000000E+00 -0.11901516007E+04  0.11901516007E+04  0.00000000000E+00 0.  1.
        -13    1    1    2    0    0  0.12030923646E+03  0.37985426223E+02 -0.42790721332E+03  0.44611859338E+03  0.10566000000E+00 0.  1.
         13    1    1    2    0    0 -0.13276949011E+03 -0.28072601812E+02 -0.73986387335E+03  0.75220633521E+03  0.10566000000E+00 0. -1.
          4    1    1    2  501    0  0.12460253644E+02 -0.99128244113E+01  0.18187229301E+01  0.16025909078E+02  0.00000000000E+00 0.  1.
</event>
<event>
 5    1  0.2540860E-005  0.4740175E+02  0.7818608E-02  0.1302745E+00
         21   -1    0    0  501  502  0.00000000000E+00  0.00000000000E+00  0.93649020538E+01  0.93649020538E+01  0.00000000000E+00 0.  1.
          4   -1    0    0  502    0 -0.00000000000E+00 -0.00000000000E+00 -0.51820829154E+03  0.51820829154E+03  0.00000000000E+00 0.  1.
        -13    1    1    2    0    0  0.57839162800E+02  0.71914668479E+01 -0.34163591088E+03  0.34657205992E+03  0.10566000000E+00 0.  1.
         13    1    1    2    0    0 -0.34694044262E+02  0.12762081090E+02 -0.11141868750E+03  0.11739115175E+03  0.10566000000E+00 0. -1.
          4    1    1    2  501    0 -0.23145118539E+02 -0.19953547938E+02 -0.55788791104E+02  0.63609981923E+02  0.00000000000E+00 0.  1.
</event>
<event>
 5    1  0.2540860E-005  0.2309496E+03  0.7818608E-02  0.1061888E+00
         21   -1    0    0  501  502  0.00000000000E+00  0.00000000000E+00  0.29977974491E+03  0.29977974491E+03  0.00000000000E+00 0.  1.
          4   -1    0    0  502    0 -0.00000000000E+00 -0.00000000000E+00 -0.39006374533E+03  0.39006374533E+03  0.00000000000E+00 0.  1.
        -13    1    1    2    0    0 -0.20566172511E+03  0.20492928492E+03 -0.99547896436E+02  0.30692434221E+03  0.10566000000E+00 0.  1.
         13    1    1    2    0    0  0.62111501049E+01 -0.12326928958E+03 -0.82729306932E+02  0.14858682825E+03  0.10566000000E+00 0. -1.
          4    1    1    2  501    0  0.19945057501E+03 -0.81659995341E+02  0.91993202948E+02  0.23433231979E+03  0.00000000000E+00 0.  1.
</event>
<event>
 5    1  0.2540860E-005  0.2564160E+03  0.7818608E-02  0.1028141E+00
          4   -1    0    0  502    0 -0.00000000000E+00  0.00000000000E+00  0.17682213436E+04  0.17682213436E+04  0.00000000000E+00 0.  1.
         21   -1    0    0  501  502  0.00000000000E+00 -0.00000000000E+00 -0.28655174693E+03  0.28655174693E+03  0.00000000000E+00 0.  1.
        -13    1    1    2    0    0 -0.21485393198E+03  0.11605979952E+03 -0.14674203426E+03  0.28489528767E+03  0.10566000000E+00 0.  1.
         13    1    1    2    0    0 -0.21315313547E+03 -0.14976828670E+03  0.70327982519E+03  0.74997821471E+03  0.10566000000E+00 0. -1.
          4    1    1    2  501    0  0.42800706746E+03  0.33708487176E+02  0.92513180577E+03  0.10198995882E+04  0.00000000000E+00 0.  1.
</event>
<event>
 5    1  0.2540860E-005  0.3702721E+03  0.7818608E-02  0.1012896E+00
          4   -1    0    0  502    0 -0.00000000000E+00  0.00000000000E+00  0.70840019971E+03  0.70840019971E+03  0.00000000000E+00 0.  1.
         21   -1    0    0  501  502  0.00000000000E+00 -0.00000000000E+00 -0.51841804905E+03  0.51841804905E+03  0.00000000000E+00 0.  1.
        -13    1    1    2    0    0 -0.16491333351E+03 -0.41657705999E+03  0.33499446391E+03  0.55942305681E+03  0.10566000000E+00 0.  1.
         13    1    1    2    0    0  0.11807075955E+03  0.61932000201E+02  0.15218039148E+03  0.20232439206E+03  0.10566000000E+00 0. -1.
          4    1    1    2  501    0  0.46842573959E+02  0.35464505978E+03 -0.29719270473E+03  0.46507079989E+03  0.00000000000E+00 0.  1.
</event>
<event>
 5    1  0.2540860E-005  0.6492045E+03  0.7818608E-02  0.9200112E-01
          4   -1    0    0  502    0 -0.00000000000E+00  0.00000000000E+00  0.45202123051E+04  0.45202123051E+04  0.00000000000E+00 0.  1.
         21   -1    0    0  501  502  0.00000000000E+00 -0.00000000000E+00 -0.54473962442E+03  0.54473962442E+03  0.00000000000E+00 0.  1.
        -13    1    1    2    0    0 -0.18981594885E+03  0.61906588401E+03  0.37590916224E+04  0.38144517955E+04  0.10566000000E+00 0.  1.
         13    1    1    2    0    0  0.19462515913E+03 -0.62880205800E+03  0.58566028941E+03  0.88106127282E+03  0.10566000000E+00 0. -1.
          4    1    1    2  501    0 -0.48092102774E+01  0.97361739886E+01 -0.36927923117E+03  0.36943886119E+03  0.00000000000E+00 0.  1.
</event>
<event>
 5    1  0.2540860E-005  0.4676501E+03  0.7818608E-02  0.9554343E-01
         -4   -1    0    0    0  501 -0.00000000000E+00  0.00000000000E+00  0.23943449223E+04  0.23943449223E+04  0.00000000000E+00 0. -1.
         21   -1    0    0  501  502  0.00000000000E+00 -0.00000000000E+00 -0.26162570943E+03  0.26162570943E+03  0.00000000000E+00 0. -1.
        -13    1    1    2    0    0 -0.43708128817E+03  0.17213397879E+03  0.62561728959E+03  0.78234721404E+03  0.10566000000E+00 0.  1.
         13    1    1    2    0    0  0.11332595674E+03 -0.54450233268E+03  0.11051029241E+04  0.12371653272E+04  0.10566000000E+00 0. -1.
         -4    1    1    2    0  502  0.32375533143E+03  0.37236835388E+03  0.40199899915E+03  0.63645809046E+03  0.00000000000E+00 0. -1.
</event>
<event>
 5    1  0.2540860E-005  0.3484771E+03  0.7818608E-02  0.9890934E-01
         21   -1    0    0  501  502  0.00000000000E+00  0.00000000000E+00  0.11111124505E+03  0.11111124505E+03  0.00000000000E+00 0. -1.
          4   -1    0    0  502    0 -0.00000000000E+00 -0.00000000000E+00 -0.14311472310E+04  0.14311472310E+04  0.00000000000E+00 0.  1.
        -13    1    1    2    0    0  0.34564344006E+02  0.34301191895E+03 -0.70856481423E+03  0.78798221906E+03  0.10566000000E+00 0.  1.
         13    1    1    2    0    0 -0.61652478605E+02 -0.34792355990E+03 -0.62913308550E+03  0.72156793310E+03  0.10566000000E+00 0. -1.
          4    1    1    2  501    0  0.27088134600E+02  0.49116409409E+01  0.17661913785E+02  0.32708323885E+02  0.00000000000E+00 0.  1.
</event>
<event>
 5    1  0.2540860E-005  0.3905950E+03  0.7818608E-02  0.9840846E-01
         21   -1    0    0  501  502  0.00000000000E+00  0.00000000000E+00  0.28409295065E+03  0.28409295065E+03  0.00000000000E+00 0.  1.
          4   -1    0    0  502    0 -0.00000000000E+00 -0.00000000000E+00 -0.19919443042E+04  0.19919443042E+04  0.00000000000E+00 0.  1.
        -13    1    1    2    0    0  0.14845916124E+03  0.31369706206E+03 -0.13932426638E+04  0.14358172240E+04  0.10566000000E+00 0.  1.
         13    1    1    2    0    0 -0.28362471444E+03  0.73334087265E+02 -0.31513030770E+03  0.43026502181E+03  0.10566000000E+00 0. -1.
          4    1    1    2  501    0  0.13516555320E+03 -0.38703114932E+03  0.52161800945E+00  0.40995500900E+03  0.00000000000E+00 0.  1.
</event>
<event>
 5    1  0.2540860E-005  0.4523854E+03  0.7818608E-02  0.9765314E-01
         -4   -1    0    0    0  501 -0.00000000000E+00  0.00000000000E+00  0.24550956478E+04  0.24550956478E+04  0.00000000000E+00 0. -1.
         21   -1    0    0  501  502  0.00000000000E+00 -0.00000000000E+00 -0.15926175743E+03  0.15926175743E+03  0.00000000000E+00 0.  1.
        -13    1    1    2    0    0  0.21379103279E+03 -0.11757559706E+03  0.34165688086E+03  0.41983337424E+03  0.10566000000E+00 0.  1.
         13    1    1    2    0    0  0.33197080675E+02 -0.40288813156E+03  0.60650267349E+03  0.72888023490E+03  0.10566000000E+00 0. -1.
         -4    1    1    2    0  502 -0.24698811346E+03  0.52046372862E+03  0.13476743360E+04  0.14656437960E+04  0.00000000000E+00 0. -1.
</event>
<event>
 5    1  0.2540860E-005  0.2602943E+03  0.7818608E-02  0.1025192E+00
         21   -1    0    0  501  502  0.00000000000E+00  0.00000000000E+00  0.14586524281E+03  0.14586524281E+03  0.00000000000E+00 0.  1.
          4   -1    0    0  502    0 -0.00000000000E+00 -0.00000000000E+00 -0.10166800553E+04  0.10166800553E+04  0.00000000000E+00 0.  1.
        -13    1    1    2    0    0  0.28079693806E+03  0.99961464045E+02 -0.72388802478E+03  0.78284934585E+03  0.10566000000E+00 0.  1.
         13    1    1    2    0    0 -0.18986754809E+03 -0.72606572921E+02 -0.18739723042E+03  0.27647627996E+03  0.10566000000E+00 0. -1.
          4    1    1    2  501    0 -0.90929389969E+02 -0.27354891124E+02  0.40470442665E+02  0.10321967234E+03  0.00000000000E+00 0.  1.
</event>
<event>
 5    1  0.2540860E-005  0.4786759E+03  0.7818608E-02  0.9872004E-01
          4   -1    0    0  502    0 -0.00000000000E+00  0.00000000000E+00  0.39050555717E+03  0.39050555717E+03  0.00000000000E+00 0.  1.
         21   -1    0    0  501  502  0.00000000000E+00 -0.00000000000E+00 -0.10872301993E+04  0.10872301993E+04  0.00000000000E+00 0.  1.
        -13    1    1    2    0    0  0.14074443742E+02 -0.49235851895E+03 -0.64596742762E+03  0.81233547864E+03  0.10566000000E+00 0.  1.
         13    1    1    2    0    0 -0.13624708756E+03  0.44332326548E+02  0.10273687393E+03  0.17630513457E+03  0.10566000000E+00 0. -1.
          4    1    1    2  501    0  0.12217264382E+03  0.44802619240E+03 -0.15349408844E+03  0.48909514326E+03  0.00000000000E+00 0.  1.
</event>
<event>
 5    1  0.2540860E-005  0.1344630E+03  0.7818608E-02  0.1117533E+00
         21   -1    0    0  501  502  0.00000000000E+00  0.00000000000E+00  0.13758936031E+03  0.13758936031E+03  0.00000000000E+00 0.  1.
         -4   -1    0    0    0  501 -0.00000000000E+00 -0.00000000000E+00 -0.84335042775E+03  0.84335042775E+03  0.00000000000E+00 0. -1.
        -13    1    1    2    0    0 -0.17578980969E+03 -0.99286396773E+02 -0.27870403916E+02  0.20380533937E+03  0.10566000000E+00 0.  1.
         13    1    1    2    0    0  0.10950706524E+03  0.69774847275E+02 -0.69126654409E+03  0.70335607824E+03  0.10566000000E+00 0. -1.
         -4    1    1    2    0  502  0.66282744451E+02  0.29511549498E+02  0.13375880579E+02  0.73778370455E+02  0.00000000000E+00 0. -1.
</event>
<event>
 5    1  0.2540860E-005  0.4622296E+03  0.7818608E-02  0.9797022E-01
         21   -1    0    0  501  502  0.00000000000E+00  0.00000000000E+00  0.94564560133E+03  0.94564560133E+03  0.00000000000E+00 0. -1.
         -4   -1    0    0    0  501 -0.00000000000E+00 -0.00000000000E+00 -0.60240085092E+03  0.60240085092E+03  0.00000000000E+00 0. -1.
        -13    1    1    2    0    0  0.17217814860E+03 -0.11159395223E+03 -0.17487224080E+03  0.26959012741E+03  0.10566000000E+00 0.  1.
         13    1    1    2    0    0 -0.23155155351E+03 -0.36351056639E+03 -0.15012128685E+03  0.45639069419E+03  0.10566000000E+00 0. -1.
         -4    1    1    2    0  502  0.59373404903E+02  0.47510451862E+03  0.66823827807E+03  0.82206563065E+03  0.00000000000E+00 0. -1.
</event>
<event>
 5    1  0.2540860E-005  0.4065837E+03  0.7818608E-02  0.9887197E-01
          4   -1    0    0  502    0 -0.00000000000E+00  0.00000000000E+00  0.16128324107E+04  0.16128324107E+04  0.00000000000E+00 0.  1.
         21   -1    0    0  501  502  0.00000000000E+00 -0.00000000000E+00 -0.26274250617E+03  0.26274250617E+03  0.00000000000E+00 0. -1.
        -13    1    1    2    0    0 -0.29889846022E+01 -0.54126888749E+03  0.10969601791E+04  0.12232344780E+04  0.10566000000E+00 0.  1.
         13    1    1    2    0    0 -0.12233000299E+03  0.18546042656E+03  0.69504377024E+02  0.23278975287E+03  0.10566000000E+00 0. -1.
          4    1    1    2  501    0  0.12531898760E+03  0.35580846093E+03  0.18362534846E+03  0.41955068599E+03  0.00000000000E+00 0.  1.
</event>
<event>
 5    1  0.2540860E-005  0.1383326E+03  0.7818608E-02  0.1113225E+00
          4   -1    0    0  502    0 -0.00000000000E+00  0.00000000000E+00  0.10851148320E+04  0.10851148320E+04  0.00000000000E+00 0.  1.
         21   -1    0    0  501  502  0.00000000000E+00 -0.00000000000E+00 -0.29540785180E+02  0.29540785180E+02  0.00000000000E+00 0. -1.
        -13    1    1    2    0    0  0.76468064652E+02 -0.11786337103E+03  0.81451631060E+03  0.82654459683E+03  0.10566000000E+00 0.  1.
         13    1    1    2    0    0 -0.51898998656E+02  0.12200452418E+03  0.19618472935E+03  0.23678485842E+03  0.10566000000E+00 0. -1.
          4    1    1    2  501    0 -0.24569065996E+02 -0.41411531528E+01  0.44873006849E+02  0.51326161916E+02  0.00000000000E+00 0.  1.
</event>
<event>
 5    1  0.2540860E-005  0.4341586E+03  0.7818608E-02  0.9984085E-01
         21   -1    0    0  501  502  0.00000000000E+00  0.00000000000E+00  0.20057991485E+03  0.20057991485E+03  0.00000000000E+00 0. -1.
         -4   -1    0    0    0  501 -0.00000000000E+00 -0.00000000000E+00 -0.18250468816E+04  0.18250468816E+04  0.00000000000E+00 0. -1.
        -13    1    1    2    0    0  0.68322010431E+02 -0.11325332916E+03 -0.51051681734E+03  0.52737239748E+03  0.10566000000E+00 0.  1.
         13    1    1    2    0    0  0.34469683849E+03 -0.21012948992E+03 -0.21481736845E+03  0.45729293232E+03  0.10566000000E+00 0. -1.
         -4    1    1    2    0  502 -0.41301884892E+03  0.32338281908E+03 -0.89913278093E+03  0.10409614666E+04  0.00000000000E+00 0. -1.
</event>
<event>
 5    1  0.2540860E-005  0.1055088E+03  0.7818608E-02  0.1155749E+00
          4   -1    0    0  502    0 -0.00000000000E+00  0.00000000000E+00  0.81971073804E+03  0.81971073804E+03  0.00000000000E+00 0.  1.
         21   -1    0    0  501  502  0.00000000000E+00 -0.00000000000E+00 -0.35290360252E+02  0.35290360252E+02  0.00000000000E+00 0.  1.
        -13    1    1    2    0    0 -0.12047984562E+02 -0.13124815223E+03  0.63917550187E+03  0.65262283499E+03  0.10566000000E+00 0.  1.
         13    1    1    2    0    0  0.17159761018E+02  0.65306096832E+02  0.10536837172E+03  0.12514730762E+03  0.10566000000E+00 0. -1.
          4    1    1    2  501    0 -0.51117764558E+01  0.65942055399E+02  0.39876504203E+02  0.77230955687E+02  0.00000000000E+00 0.  1.
</event>
<event>
 5    1  0.2540860E-005  0.2382068E+03  0.7818608E-02  0.1036692E+00
         -4   -1    0    0    0  501 -0.00000000000E+00  0.00000000000E+00  0.66351742291E+03  0.66351742291E+03  0.00000000000E+00 0. -1.
         21   -1    0    0  501  502  0.00000000000E+00 -0.00000000000E+00 -0.10192921427E+03  0.10192921427E+03  0.00000000000E+00 0.  1.
        -13    1    1    2    0    0 -0.66490028745E+02  0.23345929283E+03  0.35593898992E+03  0.43083261372E+03  0.10566000000E+00 0.  1.
         13    1    1    2    0    0  0.72078373118E+02 -0.22071223782E+03  0.21611613935E+03  0.31719927592E+03  0.10566000000E+00 0. -1.
         -4    1    1    2    0  502 -0.55883443723E+01 -0.12747055009E+02 -0.10466920636E+02  0.17414747539E+02  0.00000000000E+00 0. -1.
</event>
<event>
 5    1  0.2540860E-005  0.1699811E+02  0.7818608E-02  0.1579430E+00
         21   -1    0    0  501  502  0.00000000000E+00  0.00000000000E+00  0.17898122851E+02  0.17898122851E+02  0.00000000000E+00 0.  1.
          4   -1    0    0  502    0 -0.00000000000E+00 -0.00000000000E+00 -0.50539174838E+02  0.50539174838E+02  0.00000000000E+00 0.  1.
        -13    1    1    2    0    0 -0.10332773539E+02  0.36599539673E+01 -0.35046570158E+02  0.36721039145E+02  0.10566000000E+00 0.  1.
         13    1    1    2    0    0 -0.73015427737E+01 -0.10167319805E+02 -0.12056758469E+01  0.12575839422E+02  0.10566000000E+00 0. -1.
          4    1    1    2  501    0  0.17634316312E+02  0.65073658373E+01  0.36111940178E+01  0.19140419122E+02  0.00000000000E+00 0.  1.
</event>
<event>
 5    1  0.2540860E-005  0.9737090E+02  0.7818608E-02  0.1168980E+00
         21   -1    0    0  501  502  0.00000000000E+00  0.00000000000E+00  0.89430890733E+02  0.89430890733E+02  0.00000000000E+00 0.  1.
          4   -1    0    0  502    0 -0.00000000000E+00 -0.00000000000E+00 -0.25864864474E+03  0.25864864474E+03  0.00000000000E+00 0.  1.
        -13    1    1    2    0    0  0.20465349010E+02  0.10878410116E+03 -0.14298514855E+03  0.18082470806E+03  0.10566000000E+00 0.  1.
         13    1    1    2    0    0 -0.37096581966E+02 -0.76484104255E+02 -0.70181727876E+02  0.11023366405E+03  0.10566000000E+00 0. -1.
          4    1    1    2  501    0  0.16631232956E+02 -0.32299996900E+02  0.43949122425E+02  0.57021163363E+02  0.00000000000E+00 0.  1.
</event>
<event>
 5    1  0.3789439E-005  0.1935883E+03  0.7818608E-02  0.1065065E+00
         21   -1    0    0  501  502  0.00000000000E+00  0.00000000000E+00  0.51707511306E+03  0.51707511306E+03  0.00000000000E+00 0. -1.
         -4   -1    0    0    0  501 -0.00000000000E+00 -0.00000000000E+00 -0.77773677842E+03  0.77773677842E+03  0.00000000000E+00 0. -1.
        -13    1    1    2    0    0 -0.12506116785E+03  0.14453306276E+03 -0.19506336185E+03  0.27309307613E+03  0.10566000000E+00 0.  1.
         13    1    1    2    0    0  0.17163875683E+03  0.47714467885E+02 -0.50734093717E+03  0.53770937409E+03  0.10566000000E+00 0. -1.
         -4    1    1    2    0  502 -0.46577588981E+02 -0.19224753064E+03  0.44174263365E+03  0.48400944125E+03  0.00000000000E+00 0. -1.
</event>
<event>
 5    1  0.2540860E-005  0.1415166E+03  0.7818608E-02  0.1109793E+00
         -4   -1    0    0    0  501 -0.00000000000E+00  0.00000000000E+00  0.77622780851E+03  0.77622780851E+03  0.00000000000E+00 0. -1.
         21   -1    0    0  501  502  0.00000000000E+00 -0.00000000000E+00 -0.10865903366E+03  0.10865903366E+03  0.00000000000E+00 0.  1.
        -13    1    1    2    0    0  0.10943368712E+03 -0.11127680930E+03  0.92093395762E+02  0.18121662416E+03  0.10566000000E+00 0.  1.
         13    1    1    2    0    0 -0.11806337918E+03  0.74499759772E+02  0.62555356964E+03  0.64094185022E+03  0.10566000000E+00 0. -1.
         -4    1    1    2    0  502  0.86296920605E+01  0.36777049532E+02 -0.50078190547E+02  0.62728367791E+02  0.00000000000E+00 0. -1.
</event>
<event>
 5    1  0.2540860E-005  0.4585393E+03  0.7818608E-02  0.9928997E-01
         -4   -1    0    0    0  501 -0.00000000000E+00  0.00000000000E+00  0.73597346085E+03  0.73597346085E+03  0.00000000000E+00 0. -1.
         21   -1    0    0  501  502  0.00000000000E+00 -0.00000000000E+00 -0.75044131650E+03  0.75044131650E+03  0.00000000000E+00 0. -1.
        -13    1    1    2    0    0 -0.54319877812E+02  0.12326509419E+03  0.42513499873E+03  0.44596492113E+03  0.10566000000E+00 0.  1.
         13    1    1    2    0    0 -0.35719583116E+03  0.16902958484E+03 -0.41020272050E+02  0.39729401736E+03  0.10566000000E+00 0. -1.
         -4    1    1    2    0  502  0.41151570897E+03 -0.29229467903E+03 -0.39858258233E+03  0.64315583886E+03  0.00000000000E+00 0. -1.
</event>
<event>
 5    1  0.2540860E-005  0.3059169E+03  0.7818608E-02  0.1037361E+00
         -4   -1    0    0    0  501 -0.00000000000E+00  0.00000000000E+00  0.11106106793E+04  0.11106106793E+04  0.00000000000E+00 0. -1.
         21   -1    0    0  501  502  0.00000000000E+00 -0.00000000000E+00 -0.30470648934E+03  0.30470648934E+03  0.00000000000E+00 0. -1.
        -13    1    1    2    0    0 -0.40726393612E+02  0.10239175178E+03 -0.12944099453E+02  0.11095165995E+03  0.10566000000E+00 0.  1.
         13    1    1    2    0    0  0.30526525268E+03  0.54312117528E+02  0.92774236091E+03  0.97818330593E+03  0.10566000000E+00 0. -1.
         -4    1    1    2    0  502 -0.26453885907E+03 -0.15670386931E+03 -0.10889407148E+03  0.32618220279E+03  0.00000000000E+00 0. -1.
</event>
<event>
 5    1  0.2540860E-005  0.3598531E+03  0.7818608E-02  0.9934395E-01
         21   -1    0    0  501  502  0.00000000000E+00  0.00000000000E+00  0.58277884970E+03  0.58277884970E+03  0.00000000000E+00 0. -1.
         -4   -1    0    0    0  501 -0.00000000000E+00 -0.00000000000E+00 -0.11585427660E+04  0.11585427660E+04  0.00000000000E+00 0. -1.
        -13    1    1    2    0    0  0.79325767460E+02  0.26199494238E+03 -0.71310626740E+03  0.76384192539E+03  0.10566000000E+00 0.  1.
         13    1    1    2    0    0 -0.36331337498E+03 -0.13716043140E+03  0.40982095084E+03  0.56459083883E+03  0.10566000000E+00 0. -1.
         -4    1    1    2    0  502  0.28398760752E+03 -0.12483451098E+03 -0.27247859977E+03  0.41288885150E+03  0.00000000000E+00 0. -1.
</event>
<event>
 5    1  0.2540860E-005  0.1744837E+03  0.7818608E-02  0.1079192E+00
          4   -1    0    0  502    0 -0.00000000000E+00  0.00000000000E+00  0.64417684930E+03  0.64417684930E+03  0.00000000000E+00 0.  1.
         21   -1    0    0  501  502  0.00000000000E+00 -0.00000000000E+00 -0.57785755543E+03  0.57785755543E+03  0.00000000000E+00 0.  1.
        -13    1    1    2    0    0 -0.13438059871E+03 -0.11254288367E+03  0.47705449326E+03  0.50823719529E+03  0.10566000000E+00 0.  1.
         13    1    1    2    0    0  0.12508005560E+03  0.11837826796E+03  0.10252201070E+03  0.20042257477E+03  0.10566000000E+00 0. -1.
          4    1    1    2  501    0  0.93005431106E+01 -0.58353842920E+01 -0.51325721009E+03  0.51337463467E+03  0.00000000000E+00 0.  1.
</event>
<event>
 5    1  0.2540860E-005  0.4364291E+03  0.7818608E-02  0.9693069E-01
         21   -1    0    0  501  502  0.00000000000E+00  0.00000000000E+00  0.27386768127E+03  0.27386768127E+03  0.00000000000E+00 0.  1.
          4   -1    0    0  502    0 -0.00000000000E+00 -0.00000000000E+00 -0.15532909731E+04  0.15532909731E+04  0.00000000000E+00 0.  1.
        -13    1    1    2    0    0 -0.46122244366E+03 -0.74930507746E+02 -0.37856218070E+03  0.60137347742E+03  0.10566000000E+00 0.  1.
         13    1    1    2    0    0  0.17653719399E+03 -0.30102768865E+03 -0.28787224500E+03  0.45238643967E+03  0.10566000000E+00 0. -1.
          4    1    1    2  501    0  0.28468524967E+03  0.37595819639E+03 -0.61298886611E+03  0.77339873725E+03  0.00000000000E+00 0.  1.
</event>
<event>
 5    1  0.2540860E-005  0.1351553E+03  0.7818608E-02  0.1116751E+00
         21   -1    0    0  501  502  0.00000000000E+00  0.00000000000E+00  0.13379237923E+03  0.13379237923E+03  0.00000000000E+00 0. -1.
         -4   -1    0    0    0  501 -0.00000000000E+00 -0.00000000000E+00 -0.46795832382E+03  0.46795832382E+03  0.00000000000E+00 0. -1.
        -13    1    1    2    0    0  0.11705842474E+03 -0.52401775808E+02 -0.33003599648E+03  0.35407963941E+03  0.10566000000E+00 0.  1.
         13    1    1    2    0    0 -0.15063902371E+03  0.82118461903E+02 -0.54706431024E+02  0.18007876612E+03  0.10566000000E+00 0. -1.
         -4    1    1    2    0  502  0.33580598969E+02 -0.29716686095E+02  0.50576482915E+02  0.67592297517E+02  0.00000000000E+00 0. -1.
</event>
<event>
 5    1  0.2540860E-005  0.3554675E+03  0.7818608E-02  0.9867288E-01
         -4   -1    0    0    0  501 -0.00000000000E+00  0.00000000000E+00  0.36246328901E+04  0.36246328901E+04  0.00000000000E+00 0. -1.
         21   -1    0    0  501  502  0.00000000000E+00 -0.00000000000E+00 -0.71907673069E+02  0.71907673069E+02  0.00000000000E+00 0.  1.
        -13    1    1    2    0    0 -0.16248182359E+02  0.23553938155E+03  0.27114159024E+03  0.35952826984E+03  0.10566000000E+00 0.  1.
         13    1    1    2    0    0 -0.95208092127E+02 -0.39760017459E+03  0.22513990637E+04  0.22882194464E+04  0.10566000000E+00 0. -1.
         -4    1    1    2    0  502  0.11145627449E+03  0.16206079304E+03  0.10301845631E+04  0.10487928469E+04  0.00000000000E+00 0. -1.
</event>
<event>
 5    1  0.2540860E-005  0.2113975E+03  0.7818608E-02  0.1078789E+00
          4   -1    0    0  502    0 -0.00000000000E+00  0.00000000000E+00  0.24920197140E+04  0.24920197140E+04  0.00000000000E+00 0.  1.
         21   -1    0    0  501  502  0.00000000000E+00 -0.00000000000E+00 -0.18613101112E+03  0.18613101112E+03  0.00000000000E+00 0. -1.
        -13    1    1    2    0    0  0.13222300220E+03 -0.45874208114E+02 -0.89869735039E+02  0.16632481992E+03  0.10566000000E+00 0.  1.
         13    1    1    2    0    0  0.13774872665E+03 -0.27609727945E+03  0.70362916109E+03  0.76830880961E+03  0.10566000000E+00 0. -1.
          4    1    1    2  501    0 -0.26997172885E+03  0.32197148757E+03  0.16921292769E+04  0.17435170956E+04  0.00000000000E+00 0.  1.
</event>
<event>
 5    1  0.2540860E-005  0.1127014E+03  0.7818608E-02  0.1145097E+00
          4   -1    0    0  502    0 -0.00000000000E+00  0.00000000000E+00  0.37209956153E+03  0.37209956153E+03  0.00000000000E+00 0.  1.
         21   -1    0    0  501  502  0.00000000000E+00 -0.00000000000E+00 -0.13453235450E+03  0.13453235450E+03  0.00000000000E+00 0.  1.
        -13    1    1    2    0    0  0.10364118363E+03  0.12756647307E+03  0.38583056302E+02  0.16882939138E+03  0.10566000000E+00 0.  1.
         13    1    1    2    0    0 -0.94366250574E+02 -0.47277273682E+02  0.22854759159E+03  0.25174221466E+03  0.10566000000E+00 0. -1.
          4    1    1    2  501    0 -0.92749330526E+01 -0.80289199387E+02 -0.29563440868E+02  0.86060310000E+02  0.00000000000E+00 0.  1.
</event>
<event>
 5    1  0.2540860E-005  0.6651160E+03  0.7818608E-02  0.9175178E-01
         21   -1    0    0  501  502  0.00000000000E+00  0.00000000000E+00  0.25162910496E+03  0.25162910496E+03  0.00000000000E+00 0.  1.
         -4   -1    0    0    0  501 -0.00000000000E+00 -0.00000000000E+00 -0.44791672976E+04  0.44791672976E+04  0.00000000000E+00 0. -1.
        -13    1    1    2    0    0 -0.69167202369E+03 -0.32449061971E+03 -0.23333042595E+04  0.24552012400E+04  0.10566000000E+00 0.  1.
         13    1    1    2    0    0  0.62477456183E+03 -0.14556359296E+03 -0.15825792195E+04  0.17076559987E+04  0.10566000000E+00 0. -1.
         -4    1    1    2    0  502  0.66897461857E+02  0.47005421267E+03 -0.31165471364E+03  0.56793916381E+03  0.00000000000E+00 0. -1.
</event>
<event>
 5    1  0.2540860E-005  0.4394552E+03  0.7818608E-02  0.9812276E-01
         21   -1    0    0  501  502  0.00000000000E+00  0.00000000000E+00  0.92819250352E+03  0.92819250352E+03  0.00000000000E+00 0. -1.
         -4   -1    0    0    0  501 -0.00000000000E+00 -0.00000000000E+00 -0.41522407635E+03  0.41522407635E+03  0.00000000000E+00 0. -1.
        -13    1    1    2    0    0 -0.16739764984E+03 -0.15280990784E+03  0.23637981403E+03  0.32748781466E+03  0.10566000000E+00 0.  1.
         13    1    1    2    0    0  0.55407242322E+03  0.75488382191E+02  0.50706493395E+02  0.56148544563E+03  0.10566000000E+00 0. -1.
         -4    1    1    2    0  502 -0.38667477338E+03  0.77321525652E+02  0.22588211975E+03  0.45444331959E+03  0.00000000000E+00 0. -1.
</event>
<event>
 5    1  0.2540860E-005  0.4799057E+03  0.7818608E-02  0.9920273E-01
         -4   -1    0    0    0  501 -0.00000000000E+00  0.00000000000E+00  0.42902771440E+03  0.42902771440E+03  0.00000000000E+00 0. -1.
         21   -1    0    0  501  502  0.00000000000E+00 -0.00000000000E+00 -0.84813208824E+03  0.84813208824E+03  0.00000000000E+00 0. -1.
        -13    1    1    2    0    0  0.21033474898E+02  0.11912005578E+03  0.83557847215E+02  0.14701673290E+03  0.10566000000E+00 0.  1.
         13    1    1    2    0    0  0.46075923396E+03 -0.14974438800E+03 -0.85205175151E+02  0.49191705241E+03  0.10566000000E+00 0. -1.
         -4    1    1    2    0  502 -0.48179270885E+03  0.30624332214E+02 -0.41745704590E+03  0.63822601734E+03  0.00000000000E+00 0. -1.
</event>
<event>
 5    1  0.2540860E-005  0.3639164E+03  0.7818608E-02  0.9839466E-01
         -4   -1    0    0    0  501 -0.00000000000E+00  0.00000000000E+00  0.22536603896E+04  0.22536603896E+04  0.00000000000E+00 0. -1.
         21   -1    0    0  501  502  0.00000000000E+00 -0.00000000000E+00 -0.64565586129E+03  0.64565586129E+03  0.00000000000E+00 0. -1.
        -13    1    1    2    0    0  0.31911412874E+03 -0.15678265116E+03  0.17822562966E+04  0.18173750699E+04  0.10566000000E+00 0.  1.
         13    1    1    2    0    0 -0.60988012759E+03  0.17670182906E+03 -0.36617076465E+03  0.73297909007E+03  0.10566000000E+00 0. -1.
         -4    1    1    2    0  502  0.29076599885E+03 -0.19919177904E+02  0.19191899641E+03  0.34896209094E+03  0.00000000000E+00 0. -1.
</event>
<event>
 5    1  0.2540860E-005  0.2101651E+03  0.7818608E-02  0.1053382E+00
         21   -1    0    0  501  502  0.00000000000E+00  0.00000000000E+00  0.62784992035E+03  0.62784992035E+03  0.00000000000E+00 0. -1.
         -4   -1    0    0    0  501 -0.00000000000E+00 -0.00000000000E+00 -0.30366791601E+03  0.30366791601E+03  0.00000000000E+00 0. -1.
        -13    1    1    2    0    0 -0.19199347003E+03 -0.11121398533E+03 -0.13195315961E+03  0.25815051920E+03  0.10566000000E+00 0.  1.
         13    1    1    2    0    0  0.17999761823E+03  0.74650341042E+02 -0.19810975744E+02  0.19586807272E+03  0.10566000000E+00 0. -1.
         -4    1    1    2    0  502  0.11995851802E+02  0.36563644287E+02  0.47594613970E+03  0.47749924444E+03  0.00000000000E+00 0. -1.
</event>
<event>
 5    1  0.2540860E-005  0.5659095E+02  0.7818608E-02  0.1267057E+00
          4   -1    0    0  502    0 -0.00000000000E+00  0.00000000000E+00  0.32458882948E+02  0.32458882948E+02  0.00000000000E+00 0.  1.
         21   -1    0    0  501  502  0.00000000000E+00 -0.00000000000E+00 -0.32355923067E+03  0.32355923067E+03  0.00000000000E+00 0. -1.
        -13    1    1    2    0    0 -0.29723058984E+02 -0.49290110646E+02  0.15449890502E+01  0.57579279242E+02  0.10566000000E+00 0.  1.
         13    1    1    2    0    0  0.28165486618E+02  0.39126148147E+02 -0.24453859744E+03  0.24924543508E+03  0.10566000000E+00 0. -1.
          4    1    1    2  501    0  0.15575723654E+01  0.10163962498E+02 -0.48106739335E+02  0.49193399301E+02  0.00000000000E+00 0.  1.
</event>
<event>
 5    1  0.2540860E-005  0.9055804E+03  0.7818608E-02  0.8868754E-01
         -4   -1    0    0    0  501 -0.00000000000E+00  0.00000000000E+00  0.24871843259E+04  0.24871843259E+04  0.00000000000E+00 0. -1.
         21   -1    0    0  501  502  0.00000000000E+00 -0.00000000000E+00 -0.81313421064E+03  0.81313421064E+03  0.00000000000E+00 0.  1.
        -13    1    1    2    0    0  0.11747997766E+04  0.41423556454E+03  0.77226110240E+03  0.14656509951E+04  0.10566000000E+00 0.  1.
         13    1    1    2    0    0 -0.65579416351E+03 -0.43108000174E+03  0.10346959955E+04  0.12986499787E+04  0.10566000000E+00 0. -1.
         -4    1    1    2    0  502 -0.51900561312E+03  0.16844437206E+02 -0.13290698267E+03  0.53601756273E+03  0.00000000000E+00 0. -1.
</event>
<event>
 5    1  0.2540860E-005  0.3107614E+03  0.7818608E-02  0.1002959E+00
         -4   -1    0    0    0  501 -0.00000000000E+00  0.00000000000E+00  0.15124537221E+04  0.15124537221E+04  0.00000000000E+00 0. -1.
         21   -1    0    0  501  502  0.00000000000E+00 -0.00000000000E+00 -0.10670582473E+04  0.10670582473E+04  0.00000000000E+00 0. -1.
        -13    1    1    2    0    0 -0.17041129025E+03 -0.25086256072E+03  0.12321741856E+04  0.12689465186E+04  0.10566000000E+00 0.  1.
         13    1    1    2    0    0  0.16508488859E+03  0.32625097278E+03  0.13195978893E+03  0.38872369974E+03  0.10566000000E+00 0. -1.
         -4    1    1    2    0  502  0.53264016554E+01 -0.75388412051E+02 -0.91873849970E+03  0.92184175110E+03  0.00000000000E+00 0. -1.
</event>
<event>
 5    1  0.2540860E-005  0.4772169E+03  0.7818608E-02  0.9609299E-01
         21   -1    0    0  501  502  0.00000000000E+00  0.00000000000E+00  0.15538661871E+04  0.15538661871E+04  0.00000000000E+00 0.  1.
          4   -1    0    0  502    0 -0.00000000000E+00 -0.00000000000E+00 -0.35220897054E+03  0.35220897054E+03  0.00000000000E+00 0.  1.
        -13    1    1    2    0    0 -0.14230205653E+03  0.34266225424E+03  0.20984206154E+03  0.42626400004E+03  0.10566000000E+00 0.  1.
         13    1    1    2    0    0  0.26443869156E+03  0.24195696976E+03  0.46217153722E+02  0.36139595083E+03  0.10566000000E+00 0. -1.
          4    1    1    2  501    0 -0.12213663503E+03 -0.58461922400E+03  0.94559800133E+03  0.11184152068E+04  0.00000000000E+00 0.  1.
</event>
<event>
 5    1  0.2540860E-005  0.4931131E+03  0.7818608E-02  0.9864542E-01
          4   -1    0    0  502    0 -0.00000000000E+00  0.00000000000E+00  0.24047641495E+04  0.24047641495E+04  0.00000000000E+00 0.  1.
         21   -1    0    0  501  502  0.00000000000E+00 -0.00000000000E+00 -0.15860240614E+03  0.15860240614E+03  0.00000000000E+00 0.  1.
        -13    1    1    2    0    0  0.51742468236E+03 -0.17921195193E+02  0.54488178798E+03  0.75162866177E+03  0.10566000000E+00 0.  1.
         13    1    1    2    0    0 -0.67220118724E+02  0.11637422158E+03  0.65214860722E+03  0.66585232662E+03  0.10566000000E+00 0. -1.
          4    1    1    2  501    0 -0.45020456364E+03 -0.98453026384E+02  0.10491313481E+04  0.11458855672E+04  0.00000000000E+00 0.  1.
</event>
<event>
 5    1  0.2540860E-005  0.3594726E+02  0.7818608E-02  0.1367415E+00
          4   -1    0    0  502    0 -0.00000000000E+00  0.00000000000E+00  0.14442421441E+02  0.14442421441E+02  0.00000000000E+00 0.  1.
         21   -1    0    0  501  502  0.00000000000E+00 -0.00000000000E+00 -0.37714265133E+03  0.37714265133E+03  0.00000000000E+00 0. -1.
        -13    1    1    2    0    0  0.21646903595E+02  0.24085487318E+02 -0.25452205040E+02  0.41188894620E+02  0.10566000000E+00 0.  1.
         13    1    1    2    0    0 -0.87349986206E+00 -0.55283682690E+02 -0.16170776472E+03  0.17089897867E+03  0.10566000000E+00 0. -1.
          4    1    1    2  501    0 -0.20773403733E+02  0.31198195372E+02 -0.17554026013E+03  0.17949719949E+03  0.00000000000E+00 0.  1.
</event>
<event>
 5    1  0.2540860E-005  0.3652087E+03  0.7818608E-02  0.9835282E-01
          4   -1    0    0  502    0 -0.00000000000E+00  0.00000000000E+00  0.14831641685E+04  0.14831641685E+04  0.00000000000E+00 0.  1.
         21   -1    0    0  501  502  0.00000000000E+00 -0.00000000000E+00 -0.26983264770E+03  0.26983264770E+03  0.00000000000E+00 0. -1.
        -13    1    1    2    0    0 -0.32253257458E+03  0.17340774666E+03  0.72579080942E+03  0.81293900046E+03  0.10566000000E+00 0.  1.
         13    1    1    2    0    0  0.43000247058E+03  0.12290453034E+03  0.42851153556E+03  0.61937855594E+03  0.10566000000E+00 0. -1.
          4    1    1    2  501    0 -0.10746989600E+03 -0.29631227700E+03  0.59029175791E+02  0.32067925976E+03  0.00000000000E+00 0.  1.
</event>
<event>
 5    1  0.2540860E-005  0.3768998E+02  0.7818608E-02  0.1356085E+00
         -4   -1    0    0    0  501 -0.00000000000E+00  0.00000000000E+00  0.22047306258E+03  0.22047306258E+03  0.00000000000E+00 0. -1.
         21   -1    0    0  501  502  0.00000000000E+00 -0.00000000000E+00 -0.42677932343E+02  0.42677932343E+02  0.00000000000E+00 0. -1.
        -13    1    1    2    0    0  0.57357082871E+02 -0.70536021233E+01  0.63713925459E+02  0.86017810480E+02  0.10566000000E+00 0.  1.
         13    1    1    2    0    0 -0.28381511949E+02 -0.19177943026E+02  0.13036591157E+03  0.13479089651E+03  0.10566000000E+00 0. -1.
         -4    1    1    2    0  502 -0.28975570922E+02  0.26231545150E+02 -0.16284706798E+02  0.42342287924E+02  0.00000000000E+00 0. -1.
</event>
<event>
 5    1  0.2540860E-005  0.2538532E+03  0.7818608E-02  0.1065871E+00
         -4   -1    0    0    0  501 -0.00000000000E+00  0.00000000000E+00  0.21466043955E+03  0.21466043955E+03  0.00000000000E+00 0. -1.
         21   -1    0    0  501  502  0.00000000000E+00 -0.00000000000E+00 -0.13805996503E+04  0.13805996503E+04  0.00000000000E+00 0. -1.
        -13    1    1    2    0    0 -0.77310797502E+02 -0.29685761867E+02 -0.11069588993E+03  0.13824541612E+03  0.10566000000E+00 0.  1.
         13    1    1    2    0    0  0.24513918272E+03  0.21325592874E+03  0.45887779441E+02  0.32814175217E+03  0.10566000000E+00 0. -1.
         -4    1    1    2    0  502 -0.16782838522E+03 -0.18357016687E+03 -0.11011311003E+04  0.11288729216E+04  0.00000000000E+00 0. -1.
</event>
<event>
 5    1  0.2540860E-005  0.5088855E+03  0.7818608E-02  0.9735656E-01
          4   -1    0    0  502    0 -0.00000000000E+00  0.00000000000E+00  0.56008260693E+03  0.56008260693E+03  0.00000000000E+00 0.  1.
         21   -1    0    0  501  502  0.00000000000E+00 -0.00000000000E+00 -0.79340337953E+03  0.79340337953E+03  0.00000000000E+00 0.  1.
        -13    1    1    2    0    0  0.17601467992E+03  0.41797664838E+03 -0.10610071215E+03  0.46577142294E+03  0.10566000000E+00 0.  1.
         13    1    1    2    0    0 -0.11285650100E+03  0.15268381498E+03  0.15764883553E+03  0.24678351582E+03  0.10566000000E+00 0. -1.
          4    1    1    2  501    0 -0.63158178921E+02 -0.57066046336E+03 -0.28486889598E+03  0.64093104770E+03  0.00000000000E+00 0.  1.
</event>
<event>
 5    1  0.2540860E-005  0.1565251E+03  0.7818608E-02  0.1094849E+00
         -4   -1    0    0    0  501 -0.00000000000E+00  0.00000000000E+00  0.25614335851E+04  0.25614335851E+04  0.00000000000E+00 0. -1.
         21   -1    0    0  501  502  0.00000000000E+00 -0.00000000000E+00 -0.12484519456E+03  0.12484519456E+03  0.00000000000E+00 0. -1.
        -13    1    1    2    0    0 -0.96276199208E+01  0.14317581810E+03  0.23261419906E+03  0.27331553692E+03  0.10566000000E+00 0.  1.
         13    1    1    2    0    0  0.94497018664E+02 -0.21328511754E+03  0.28853903353E+02  0.23505911342E+03  0.10566000000E+00 0. -1.
         -4    1    1    2    0  502 -0.84869398743E+02  0.70109299443E+02  0.21751202882E+04  0.21779041294E+04  0.00000000000E+00 0. -1.
</event>
<event>
 5    1  0.2540860E-005  0.3999498E+03  0.7818608E-02  0.1024966E+00
         21   -1    0    0  501  502  0.00000000000E+00  0.00000000000E+00  0.25389771411E+03  0.25389771411E+03  0.00000000000E+00 0. -1.
         -4   -1    0    0    0  501 -0.00000000000E+00 -0.00000000000E+00 -0.13143076048E+04  0.13143076048E+04  0.00000000000E+00 0. -1.
        -13    1    1    2    0    0  0.12406770811E+02 -0.71188854638E+02 -0.12543434404E+03  0.14476037723E+03  0.10566000000E+00 0.  1.
         13    1    1    2    0    0 -0.65878365286E+02  0.40675666759E+03  0.17238552420E+02  0.41241741536E+03  0.10566000000E+00 0. -1.
         -4    1    1    2    0  502  0.53471594475E+02 -0.33556781295E+03 -0.95221409904E+03  0.10110275263E+04  0.00000000000E+00 0. -1.
</event>
<event>
 5    1  0.2540860E-005  0.2205927E+03  0.7818608E-02  0.1059967E+00
         21   -1    0    0  501  502  0.00000000000E+00  0.00000000000E+00  0.16034589140E+04  0.16034589140E+04  0.00000000000E+00 0. -1.
         -4   -1    0    0    0  501 -0.00000000000E+00 -0.00000000000E+00 -0.21359354217E+03  0.21359354217E+03  0.00000000000E+00 0. -1.
        -13    1    1    2    0    0 -0.38191699604E+02 -0.14484202793E+03  0.87558104769E+02  0.17350576892E+03  0.10566000000E+00 0.  1.
         13    1    1    2    0    0  0.21117369462E+03  0.27160355539E+03  0.21284280062E+02  0.34469675417E+03  0.10566000000E+00 0. -1.
         -4    1    1    2    0  502 -0.17298199501E+03 -0.12676152746E+03  0.12810229870E+04  0.12988499331E+04  0.00000000000E+00 0. -1.
</event>
<event>
 5    1  0.2540860E-005  0.4704047E+03  0.7818608E-02  0.9757821E-01
         21   -1    0    0  501  502  0.00000000000E+00  0.00000000000E+00  0.22493334797E+03  0.22493334797E+03  0.00000000000E+00 0. -1.
         -4   -1    0    0    0  501 -0.00000000000E+00 -0.00000000000E+00 -0.24397907934E+04  0.24397907934E+04  0.00000000000E+00 0. -1.
        -13    1    1    2    0    0  0.21389292180E+03  0.61927944855E+02 -0.12161450584E+04  0.12363632421E+04  0.10566000000E+00 0.  1.
         13    1    1    2    0    0  0.26425390355E+03  0.30854908708E+03 -0.30513777078E+03  0.50807650507E+03  0.10566000000E+00 0. -1.
         -4    1    1    2    0  502 -0.47814682535E+03 -0.37047703194E+03 -0.69357461628E+03  0.92028439416E+03  0.00000000000E+00 0. -1.
</event>
<event>
 5    1  0.2540860E-005  0.5460475E+03  0.7818608E-02  0.9591312E-01
          4   -1    0    0  502    0 -0.00000000000E+00  0.00000000000E+00  0.48773541886E+03  0.48773541886E+03  0.00000000000E+00 0.  1.
         21   -1    0    0  501  502  0.00000000000E+00 -0.00000000000E+00 -0.12133537009E+04  0.12133537009E+04  0.00000000000E+00 0.  1.
        -13    1    1    2    0    0 -0.62037931132E+02  0.41859196198E+03 -0.17626024438E+03  0.45840551965E+03  0.10566000000E+00 0.  1.
         13    1    1    2    0    0  0.58579205058E+02  0.24824349423E+03  0.13379347763E+03  0.28802267535E+03  0.10566000000E+00 0. -1.
          4    1    1    2  501    0  0.34587260741E+01 -0.66683545621E+03 -0.68315151527E+03  0.95466092476E+03  0.00000000000E+00 0.  1.
</event>
<event>
 5    1  0.2540860E-005  0.1167970E+03  0.7818608E-02  0.1139414E+00
         -4   -1    0    0    0  501 -0.00000000000E+00  0.00000000000E+00  0.17848354018E+03  0.17848354018E+03  0.00000000000E+00 0. -1.
         21   -1    0    0  501  502  0.00000000000E+00 -0.00000000000E+00 -0.25604505227E+03  0.25604505227E+03  0.00000000000E+00 0. -1.
        -13    1    1    2    0    0  0.47993416506E+02 -0.65776714583E+02 -0.13608825898E+02  0.82553955178E+02  0.10566000000E+00 0.  1.
         13    1    1    2    0    0 -0.10729077334E+03  0.99578182129E+02  0.98047356329E+02  0.17618291531E+03  0.10566000000E+00 0. -1.
         -4    1    1    2    0  502  0.59297356837E+02 -0.33801467547E+02 -0.16200004252E+03  0.17579172197E+03  0.00000000000E+00 0. -1.
</event>
<event>
 5    1  0.2540860E-005  0.2279877E+03  0.7818608E-02  0.1042476E+00
          4   -1    0    0  502    0 -0.00000000000E+00  0.00000000000E+00  0.14241914342E+03  0.14241914342E+03  0.00000000000E+00 0.  1.
         21   -1    0    0  501  502  0.00000000000E+00 -0.00000000000E+00 -0.10251008391E+04  0.10251008391E+04  0.00000000000E+00 0.  1.
        -13    1    1    2    0    0 -0.22408912223E+03  0.34863179735E+02 -0.15372001143E+03  0.27397304445E+03  0.10566000000E+00 0.  1.
         13    1    1    2    0    0  0.22819438340E+03 -0.20295460516E+02 -0.77410720142E+02  0.24182020820E+03  0.10566000000E+00 0. -1.
          4    1    1    2  501    0 -0.41052611718E+01 -0.14567719220E+02 -0.65155096415E+03  0.65172672992E+03  0.00000000000E+00 0.  1.
</event>
<event>
 5    1  0.2540860E-005  0.1263254E+03  0.7818608E-02  0.1152788E+00
         -4   -1    0    0    0  501 -0.00000000000E+00  0.00000000000E+00  0.18454520709E+03  0.18454520709E+03  0.00000000000E+00 0. -1.
         21   -1    0    0  501  502  0.00000000000E+00 -0.00000000000E+00 -0.17037164355E+03  0.17037164355E+03  0.00000000000E+00 0. -1.
        -13    1    1    2    0    0  0.45468973052E+02  0.48001780651E+02 -0.36282266172E+02  0.75418913136E+02  0.10566000000E+00 0.  1.
         13    1    1    2    0    0 -0.14897175738E+03 -0.74329144611E+02  0.45469140578E+02  0.17258290803E+03  0.10566000000E+00 0. -1.
         -4    1    1    2    0  502  0.10350278433E+03  0.26327363961E+02  0.49866891262E+01  0.10691502947E+03  0.00000000000E+00 0. -1.
</event>
<event>
 5    1  0.2540860E-005  0.3812780E+03  0.7818608E-02  0.1012441E+00
         21   -1    0    0  501  502  0.00000000000E+00  0.00000000000E+00  0.57875214389E+03  0.57875214389E+03  0.00000000000E+00 0. -1.
         -4   -1    0    0    0  501 -0.00000000000E+00 -0.00000000000E+00 -0.57884819016E+03  0.57884819016E+03  0.00000000000E+00 0. -1.
        -13    1    1    2    0    0  0.25445217689E+02 -0.12125905172E+03 -0.65579226706E+02  0.14018510216E+03  0.10566000000E+00 0.  1.
         13    1    1    2    0    0  0.13596396296E+03  0.37549186027E+03  0.40143964579E+03  0.56624565052E+03  0.10566000000E+00 0. -1.
         -4    1    1    2    0  502 -0.16140918065E+03 -0.25423280855E+03 -0.33595646536E+03  0.45116958137E+03  0.00000000000E+00 0. -1.
</event>
<event>
 5    1  0.5648964E-005  0.3430483E+03  0.7818608E-02  0.1037752E+00
         21   -1    0    0  501  502  0.00000000000E+00  0.00000000000E+00  0.11862669578E+04  0.11862669578E+04  0.00000000000E+00 0.  1.
          4   -1    0    0  502    0 -0.00000000000E+00 -0.00000000000E+00 -0.41510588723E+03  0.41510588723E+03  0.00000000000E+00 0.  1.
        -13    1    1    2    0    0 -0.16524613570E+03  0.22274445456E+03 -0.72569073859E+02  0.28668390092E+03  0.10566000000E+00 0.  1.
         13    1    1    2    0    0 -0.55557704183E+02  0.53631257099E+02 -0.19906941702E+03  0.21352192906E+03  0.10566000000E+00 0. -1.
          4    1    1    2  501    0  0.22080383989E+03 -0.27637571166E+03  0.10427995615E+04  0.11011670151E+04  0.00000000000E+00 0.  1.
</event>
<event>
 5    1  0.2540860E-005  0.4497280E+03  0.7818608E-02  0.9595992E-01
         -4   -1    0    0    0  501 -0.00000000000E+00  0.00000000000E+00  0.68317595532E+03  0.68317595532E+03  0.00000000000E+00 0. -1.
         21   -1    0    0  501  502  0.00000000000E+00 -0.00000000000E+00 -0.85877407625E+03  0.85877407625E+03  0.00000000000E+00 0. -1.
        -13    1    1    2    0    0 -0.11021661025E+03 -0.43638893149E+03  0.60355730853E+02  0.45412093776E+03  0.10566000000E+00 0.  1.
         13    1    1    2    0    0  0.35775522721E+03 -0.53118283081E+02  0.17561484648E+03  0.40205837892E+03  0.10566000000E+00 0. -1.
         -4    1    1    2    0  502 -0.24753861695E+03  0.48950721457E+03 -0.41156869826E+03  0.68577071488E+03  0.00000000000E+00 0. -1.
</event>
<event>
 5    1  0.2540860E-005  0.3792065E+03  0.7818608E-02  0.9859186E-01
         -4   -1    0    0    0  501 -0.00000000000E+00  0.00000000000E+00  0.69686933991E+03  0.69686933991E+03  0.00000000000E+00 0. -1.
         21   -1    0    0  501  502  0.00000000000E+00 -0.00000000000E+00 -0.66568455903E+03  0.66568455903E+03  0.00000000000E+00 0.  1.
        -13    1    1    2    0    0  0.24577622108E+03 -0.17360413974E+03 -0.19714617481E+03  0.35973736752E+03  0.10566000000E+00 0.  1.
         13    1    1    2    0    0 -0.10997150407E+03  0.50674047556E+03  0.34707576371E+03  0.62397214537E+03  0.10566000000E+00 0. -1.
         -4    1    1    2    0  502 -0.13580471701E+03 -0.33313633583E+03 -0.11874480802E+03  0.37884438605E+03  0.00000000000E+00 0. -1.
</event>
<event>
 5    1  0.2540860E-005  0.5437424E+03  0.7818608E-02  0.9529597E-01
          4   -1    0    0  502    0 -0.00000000000E+00  0.00000000000E+00  0.10221415909E+04  0.10221415909E+04  0.00000000000E+00 0.  1.
         21   -1    0    0  501  502  0.00000000000E+00 -0.00000000000E+00 -0.68015345073E+03  0.68015345073E+03  0.00000000000E+00 0.  1.
        -13    1    1    2    0    0  0.14553883340E+03 -0.66867207566E+03 -0.27761096832E+03  0.73849289617E+03  0.10566000000E+00 0.  1.
         13    1    1    2    0    0 -0.10081036561E+02  0.32217646250E+03  0.45348124437E+03  0.55636728018E+03  0.10566000000E+00 0. -1.
          4    1    1    2  501    0 -0.13545779684E+03  0.34649561316E+03  0.16611786409E+03  0.40743486526E+03  0.00000000000E+00 0.  1.
</event>
<event>
 5    1  0.2540860E-005  0.4374964E+03  0.7818608E-02  0.1000979E+00
         -4   -1    0    0    0  501 -0.00000000000E+00  0.00000000000E+00  0.16681516488E+03  0.16681516488E+03  0.00000000000E+00 0. -1.
         21   -1    0    0  501  502  0.00000000000E+00 -0.00000000000E+00 -0.21379017012E+04  0.21379017012E+04  0.00000000000E+00 0. -1.
        -13    1    1    2    0    0  0.86996868115E+02  0.80917455010E+02 -0.12310762701E+03  0.17108941692E+03  0.10566000000E+00 0.  1.
         13    1    1    2    0    0 -0.34430905403E+03 -0.40252190601E+03 -0.51621702760E+03  0.73963006987E+03  0.10566000000E+00 0. -1.
         -4    1    1    2    0  502  0.25731218592E+03  0.32160445100E+03 -0.13317618817E+04  0.13939973793E+04  0.00000000000E+00 0. -1.
</event>
<event>
 5    1  0.2540860E-005  0.3557334E+03  0.7818608E-02  0.1030670E+00
          4   -1    0    0  502    0 -0.00000000000E+00  0.00000000000E+00  0.16937691872E+04  0.16937691872E+04  0.00000000000E+00 0.  1.
         21   -1    0    0  501  502  0.00000000000E+00 -0.00000000000E+00 -0.18520116737E+03  0.18520116737E+03  0.00000000000E+00 0.  1.
        -13    1    1    2    0    0  0.25071873489E+03 -0.24535083160E+03  0.12347456350E+03  0.37189097003E+03  0.10566000000E+00 0.  1.
         13    1    1    2    0    0 -0.33669776538E+02 -0.79171551435E+02  0.21477371444E+02  0.88673993126E+02  0.10566000000E+00 0. -1.
          4    1    1    2  501    0 -0.21704895835E+03  0.32452238304E+03  0.13636160849E+04  0.14184053914E+04  0.00000000000E+00 0.  1.
</event>
<event>
 5    1  0.2540860E-005  0.3637165E+03  0.7818608E-02  0.9840115E-01
         -4   -1    0    0    0  501 -0.00000000000E+00  0.00000000000E+00  0.86414143038E+03  0.86414143038E+03  0.00000000000E+00 0. -1.
         21   -1    0    0  501  502  0.00000000000E+00 -0.00000000000E+00 -0.57894183361E+03  0.57894183361E+03  0.00000000000E+00 0. -1.
        -13    1    1    2    0    0  0.26942325058E+03  0.10635613405E+03  0.25197261262E+03  0.38391499564E+03  0.10566000000E+00 0.  1.
         13    1    1    2    0    0 -0.46688775503E+03 -0.17320549525E+03  0.39903057390E+03  0.63812986880E+03  0.10566000000E+00 0. -1.
         -4    1    1    2    0  502  0.19746450445E+03  0.66849361205E+02 -0.36580358975E+03  0.42103839954E+03  0.00000000000E+00 0. -1.
</event>
<event>
 5    1  0.2540860E-005  0.3621016E+03  0.7818608E-02  0.9845374E-01
         21   -1    0    0  501  502  0.00000000000E+00  0.00000000000E+00  0.91152766534E+03  0.91152766534E+03  0.00000000000E+00 0.  1.
         -4   -1    0    0    0  501 -0.00000000000E+00 -0.00000000000E+00 -0.18597077319E+03  0.18597077319E+03  0.00000000000E+00 0. -1.
        -13    1    1    2    0    0 -0.28319763352E+03 -0.23731528500E+03  0.43344860717E+03  0.56955873301E+03  0.10566000000E+00 0.  1.
         13    1    1    2    0    0  0.27494668501E+03  0.22941977416E+03  0.15473466160E+03  0.39009221863E+03  0.10566000000E+00 0. -1.
         -4    1    1    2    0  502  0.82509485084E+01  0.78955108439E+01  0.13737362338E+03  0.13784748690E+03  0.00000000000E+00 0. -1.
</event>
<event>
 5    1  0.2540860E-005  0.2944275E+03  0.7818608E-02  0.1009633E+00
         -4   -1    0    0    0  501 -0.00000000000E+00  0.00000000000E+00  0.29674331970E+04  0.29674331970E+04  0.00000000000E+00 0. -1.
         21   -1    0    0  501  502  0.00000000000E+00 -0.00000000000E+00 -0.10279855883E+03  0.10279855883E+03  0.00000000000E+00 0. -1.
        -13    1    1    2    0    0 -0.15598723569E+03 -0.16839107474E+03  0.79660123152E+03  0.82901212595E+03  0.10566000000E+00 0.  1.
         13    1    1    2    0    0  0.37186734715E+03  0.12568468927E+03  0.19546293671E+04  0.19936544181E+04  0.10566000000E+00 0. -1.
         -4    1    1    2    0  502 -0.21588011146E+03  0.42706385474E+02  0.11340403952E+03  0.24756521174E+03  0.00000000000E+00 0. -1.
</event>
<event>
 5    1  0.2540860E-005  0.4710582E+03  0.7818608E-02  0.9544810E-01
         -4   -1    0    0    0  501 -0.00000000000E+00  0.00000000000E+00  0.43399097469E+03  0.43399097469E+03  0.00000000000E+00 0. -1.
         21   -1    0    0  501  502  0.00000000000E+00 -0.00000000000E+00 -0.14770517558E+04  0.14770517558E+04  0.00000000000E+00 0. -1.
        -13    1    1    2    0    0 -0.25544779764E+03  0.39683361984E+03 -0.16904744332E+03  0.50130584318E+03  0.10566000000E+00 0.  1.
         13    1    1    2    0    0  0.11278948512E+03  0.33857567019E+03 -0.27258163441E+03  0.44906092124E+03  0.10566000000E+00 0. -1.
         -4    1    1    2    0  502  0.14265831252E+03 -0.73540929003E+03 -0.60143170342E+03  0.96067596612E+03  0.00000000000E+00 0. -1.
</event>
<event>
 5    1  0.2540860E-005  0.4773851E+03  0.7818608E-02  0.9782936E-01
          4   -1    0    0  502    0 -0.00000000000E+00  0.00000000000E+00  0.30166396076E+04  0.30166396076E+04  0.00000000000E+00 0.  1.
         21   -1    0    0  501  502  0.00000000000E+00 -0.00000000000E+00 -0.12921328534E+03  0.12921328534E+03  0.00000000000E+00 0.  1.
        -13    1    1    2    0    0  0.19688590088E+03 -0.34557350868E+03  0.13816929815E+04  0.14377971394E+04  0.10566000000E+00 0.  1.
         13    1    1    2    0    0  0.19518734097E+03 -0.10050178775E+02  0.81341386929E+03  0.83656514276E+03  0.10566000000E+00 0. -1.
          4    1    1    2  501    0 -0.39207324185E+03  0.35562368746E+03  0.69231947147E+03  0.87149061075E+03  0.00000000000E+00 0.  1.
</event>
<event>
 5    1  0.2540860E-005  0.1814288E+03  0.7818608E-02  0.1077144E+00
         21   -1    0    0  501  502  0.00000000000E+00  0.00000000000E+00  0.43673173446E+03  0.43673173446E+03  0.00000000000E+00 0. -1.
         -4   -1    0    0    0  501 -0.00000000000E+00 -0.00000000000E+00 -0.11027234103E+04  0.11027234103E+04  0.00000000000E+00 0. -1.
        -13    1    1    2    0    0  0.16432473860E+03 -0.57912786362E+01 -0.50614515855E+03  0.53218332491E+03  0.10566000000E+00 0.  1.
         13    1    1    2    0    0  0.10470501726E+03 -0.14366439440E+03  0.36094266364E+03  0.40234589156E+03  0.10566000000E+00 0. -1.
         -4    1    1    2    0  502 -0.26902975586E+03  0.14945567303E+03 -0.52078918097E+03  0.60492592832E+03  0.00000000000E+00 0. -1.
</event>
<event>
 5    1  0.2540860E-005  0.2586468E+03  0.7818608E-02  0.1076014E+00
         -4   -1    0    0    0  501 -0.00000000000E+00  0.00000000000E+00  0.50108840498E+03  0.50108840498E+03  0.00000000000E+00 0. -1.
         21   -1    0    0  501  502  0.00000000000E+00 -0.00000000000E+00 -0.10019210678E+04  0.10019210678E+04  0.00000000000E+00 0. -1.
        -13    1    1    2    0    0 -0.54413371862E+02 -0.21733051690E+02  0.25638899731E+03  0.26299899178E+03  0.10566000000E+00 0.  1.
         13    1    1    2    0    0 -0.14316138656E+02  0.25962683605E+03 -0.91176588362E+03  0.94811818014E+03  0.10566000000E+00 0. -1.
         -4    1    1    2    0  502  0.68729510517E+02 -0.23789378436E+03  0.15454422352E+03  0.29189230082E+03  0.00000000000E+00 0. -1.
</event>
<event>
 5    1  0.2540860E-005  0.1613683E+03  0.7818608E-02  0.1090411E+00
         21   -1    0    0  501  502  0.00000000000E+00  0.00000000000E+00  0.28916481193E+03  0.28916481193E+03  0.00000000000E+00 0.  1.
         -4   -1    0    0    0  501 -0.00000000000E+00 -0.00000000000E+00 -0.25215001684E+03  0.25215001684E+03  0.00000000000E+00 0. -1.
        -13    1    1    2    0    0 -0.17520152864E+03  0.24223976049E+02  0.20385708371E+03  0.26988904831E+03  0.10566000000E+00 0.  1.
         13    1    1    2    0    0  0.15414322353E+03 -0.41160719249E+02 -0.18070174109E+03  0.24105490779E+03  0.10566000000E+00 0. -1.
         -4    1    1    2    0  502  0.21058305107E+02  0.16936743200E+02  0.13859452474E+02  0.30370872676E+02  0.00000000000E+00 0. -1.
</event>
<event>
 5    1  0.2540860E-005  0.4928828E+03  0.7818608E-02  0.9697251E-01
         21   -1    0    0  501  502  0.00000000000E+00  0.00000000000E+00  0.21259674318E+03  0.21259674318E+03  0.00000000000E+00 0.  1.
          4   -1    0    0  502    0 -0.00000000000E+00 -0.00000000000E+00 -0.20063116782E+04  0.20063116782E+04  0.00000000000E+00 0.  1.
        -13    1    1    2    0    0  0.29885209804E+03  0.45407399121E+03 -0.46564302477E+03  0.71576476839E+03  0.10566000000E+00 0.  1.
         13    1    1    2    0    0  0.89573275458E+02 -0.22132722339E+03 -0.59977024677E+03  0.64554896914E+03  0.10566000000E+00 0. -1.
          4    1    1    2  501    0 -0.38842537350E+03 -0.23274676782E+03 -0.72830166346E+03  0.85759468381E+03  0.00000000000E+00 0.  1.
</event>
<event>
 5    1  0.2540860E-005  0.5318251E+03  0.7818608E-02  0.9410819E-01
          4   -1    0    0  502    0 -0.00000000000E+00  0.00000000000E+00  0.24417617908E+04  0.24417617908E+04  0.00000000000E+00 0.  1.
         21   -1    0    0  501  502  0.00000000000E+00 -0.00000000000E+00 -0.15938279399E+03  0.15938279399E+03  0.00000000000E+00 0. -1.
        -13    1    1    2    0    0 -0.15956322945E+02  0.52954802836E+03  0.17250044908E+04  0.18045265925E+04  0.10566000000E+00 0.  1.
         13    1    1    2    0    0 -0.13768970125E+02 -0.53805594184E+03  0.52741806128E+03  0.75356725222E+03  0.10566000000E+00 0. -1.
          4    1    1    2  501    0  0.29725293070E+02  0.85079134811E+01  0.29956444762E+02  0.43050740095E+02  0.00000000000E+00 0.  1.
</event>
<event>
 5    1  0.2540860E-005  0.2361146E+03  0.7818608E-02  0.1037851E+00
         -4   -1    0    0    0  501 -0.00000000000E+00  0.00000000000E+00  0.65527226223E+02  0.65527226223E+02  0.00000000000E+00 0. -1.
         21   -1    0    0  501  502  0.00000000000E+00 -0.00000000000E+00 -0.19238594103E+04  0.19238594103E+04  0.00000000000E+00 0.  1.
        -13    1    1    2    0    0 -0.97466464751E+02  0.20676144072E+03 -0.24271123074E+03  0.33340479572E+03  0.10566000000E+00 0.  1.
         13    1    1    2    0    0  0.81161515619E+02 -0.24717675164E+03 -0.84531050836E+03  0.88443959934E+03  0.10566000000E+00 0. -1.
         -4    1    1    2    0  502  0.16304949132E+02  0.40415310921E+02 -0.77031044498E+03  0.77154224147E+03  0.00000000000E+00 0. -1.
</event>
<event>
 5    1  0.2540860E-005  0.4814390E+03  0.7818608E-02  0.9621537E-01
         -4   -1    0    0    0  501 -0.00000000000E+00  0.00000000000E+00  0.30651607583E+04  0.30651607583E+04  0.00000000000E+00 0. -1.
         21   -1    0    0  501  502  0.00000000000E+00 -0.00000000000E+00 -0.24341182744E+03  0.24341182744E+03  0.00000000000E+00 0. -1.
        -13    1    1    2    0    0  0.33424184389E+03 -0.31902207151E+01  0.18184714071E+04  0.18489364666E+04  0.10566000000E+00 0.  1.
         13    1    1    2    0    0  0.93496141228E+02  0.37118520324E+03  0.74815121841E+03  0.84038695867E+03  0.10566000000E+00 0. -1.
         -4    1    1    2    0  502 -0.42773798512E+03 -0.36799498252E+03  0.25512630527E+03  0.61924916045E+03  0.00000000000E+00 0. -1.
</event>
<event>
 5    1  0.2540860E-005  0.9140815E+03  0.7818608E-02  0.8859798E-01
          4   -1    0    0  502    0 -0.00000000000E+00  0.00000000000E+00  0.28811919316E+04  0.28811919316E+04  0.00000000000E+00 0.  1.
         21   -1    0    0  501  502  0.00000000000E+00 -0.00000000000E+00 -0.65721887018E+03  0.65721887018E+03  0.00000000000E+00 0. -1.
        -13    1    1    2    0    0  0.11245246493E+03  0.85852644040E+03  0.56369779493E+03  0.10331836337E+04  0.10566000000E+00 0.  1.
         13    1    1    2    0    0 -0.36139859820E+03 -0.87469250874E+03  0.19227872490E+04  0.21430834673E+04  0.10566000000E+00 0. -1.
          4    1    1    2  501    0  0.24894613327E+03  0.16166068349E+02 -0.26251198255E+03  0.36214370078E+03  0.00000000000E+00 0.  1.
</event>
<event>
 5    1  0.2540860E-005  0.9762983E+02  0.7818608E-02  0.1168538E+00
         -4   -1    0    0    0  501 -0.00000000000E+00  0.00000000000E+00  0.31569961773E+03  0.31569961773E+03  0.00000000000E+00 0. -1.
         21   -1    0    0  501  502  0.00000000000E+00 -0.00000000000E+00 -0.58571330437E+02  0.58571330437E+02  0.00000000000E+00 0.  1.
        -13    1    1    2    0    0  0.62234694612E+02  0.51612763313E+02  0.43447263489E+00  0.80853166176E+02  0.10566000000E+00 0.  1.
         13    1    1    2    0    0 -0.94359204437E+02 -0.41464768227E+02  0.22351269640E+03  0.24613192211E+03  0.10566000000E+00 0. -1.
         -4    1    1    2    0  502  0.32124509825E+02 -0.10147995085E+02  0.33181118256E+02  0.47285859879E+02  0.00000000000E+00 0. -1.
</event>
<event>
 5    1  0.2540860E-005  0.1665542E+02  0.7818608E-02  0.1562534E+00
         -4   -1    0    0    0  501 -0.00000000000E+00  0.00000000000E+00  0.19829829755E+02  0.19829829755E+02  0.00000000000E+00 0. -1.
         21   -1    0    0  501  502  0.00000000000E+00 -0.00000000000E+00 -0.29473610159E+03  0.29473610159E+03  0.00000000000E+00 0. -1.
        -13    1    1    2    0    0  0.14506488994E+02 -0.82279242380E+01  0.14836117569E+02  0.22321704880E+02  0.10566000000E+00 0.  1.
         13    1    1    2    0    0 -0.20358531061E+02 -0.37895373267E+01 -0.10522815430E+03  0.10724647314E+03  0.10566000000E+00 0. -1.
         -4    1    1    2    0  502  0.58520420669E+01  0.12017461565E+02 -0.18451423510E+03  0.18499775332E+03  0.00000000000E+00 0. -1.
</event>
<event>
 5    1  0.2540860E-005  0.1102126E+03  0.7818608E-02  0.1148682E+00
         21   -1    0    0  501  502  0.00000000000E+00  0.00000000000E+00  0.25915386688E+03  0.25915386688E+03  0.00000000000E+00 0.  1.
         -4   -1    0    0    0  501 -0.00000000000E+00 -0.00000000000E+00 -0.82657736982E+02  0.82657736982E+02  0.00000000000E+00 0. -1.
        -13    1    1    2    0    0 -0.73283550096E+01 -0.12359366140E+03  0.44959223610E+02  0.13172107226E+03  0.10566000000E+00 0.  1.
         13    1    1    2    0    0  0.27395360772E+02  0.96889471948E+02  0.32862034492E+02  0.10591506050E+03  0.10566000000E+00 0. -1.
         -4    1    1    2    0  502 -0.20067005763E+02  0.26704189455E+02  0.98674871794E+02  0.10417547110E+03  0.00000000000E+00 0. -1.
</event>
<event>
 5    1  0.2540860E-005  0.4876360E+03  0.7818608E-02  0.9945400E-01
         21   -1    0    0  501  502  0.00000000000E+00  0.00000000000E+00  0.27137025696E+03  0.27137025696E+03  0.00000000000E+00 0.  1.
          4   -1    0    0  502    0 -0.00000000000E+00 -0.00000000000E+00 -0.11297716301E+04  0.11297716301E+04  0.00000000000E+00 0.  1.
        -13    1    1    2    0    0  0.62086199086E+02  0.50403060365E+03 -0.29067541951E+03  0.58514421829E+03  0.10566000000E+00 0.  1.
         13    1    1    2    0    0 -0.98027921140E+02 -0.40498575186E+02 -0.41718933335E+02  0.11397406932E+03  0.10566000000E+00 0. -1.
          4    1    1    2  501    0  0.35941722053E+02 -0.46353202846E+03 -0.52600702034E+03  0.70202359949E+03  0.00000000000E+00 0.  1.
</event>
<event>
 5    1  0.2540860E-005  0.2567429E+02  0.7818608E-02  0.1443435E+00
         -4   -1    0    0    0  501 -0.00000000000E+00  0.00000000000E+00  0.20044036647E+02  0.20044036647E+02  0.00000000000E+00 0. -1.
         21   -1    0    0  501  502  0.00000000000E+00 -0.00000000000E+00 -0.16981094872E+03  0.16981094872E+03  0.00000000000E+00 0. -1.
        -13    1    1    2    0    0  0.22119032173E+02  0.58338784997E+01 -0.68828917569E+01  0.23888722979E+02  0.10566000000E+00 0.  1.
         13    1    1    2    0    0 -0.25343179895E+02 -0.15996827439E+02 -0.84888042407E+01  0.31148775526E+02  0.10566000000E+00 0. -1.
         -4    1    1    2    0  502  0.32241477222E+01  0.10162948940E+02 -0.13439521608E+03  0.13481748686E+03  0.00000000000E+00 0. -1.
</event>
<event>
 5    1  0.2540860E-005  0.9891314E+02  0.7818608E-02  0.1166366E+00
         21   -1    0    0  501  502  0.00000000000E+00  0.00000000000E+00  0.29613416813E+03  0.29613416813E+03  0.00000000000E+00 0. -1.
         -4   -1    0    0    0  501 -0.00000000000E+00 -0.00000000000E+00 -0.63851834898E+02  0.63851834898E+02  0.00000000000E+00 0. -1.
        -13    1    1    2    0    0 -0.36204234272E+02  0.84705227390E+02  0.30726395482E+02  0.97107387308E+02  0.10566000000E+00 0.  1.
         13    1    1    2    0    0  0.51403814054E+02 -0.97072472911E+02  0.70845956809E+02  0.13070798697E+03  0.10566000000E+00 0. -1.
         -4    1    1    2    0  502 -0.15199579782E+02  0.12367245521E+02  0.13070998094E+03  0.13217062875E+03  0.00000000000E+00 0. -1.
</event>
<event>
 5    1  0.2540860E-005  0.4054227E+03  0.7818608E-02  0.9858525E-01
          4   -1    0    0  502    0 -0.00000000000E+00  0.00000000000E+00  0.57045725922E+03  0.57045725922E+03  0.00000000000E+00 0.  1.
         21   -1    0    0  501  502  0.00000000000E+00 -0.00000000000E+00 -0.94717102110E+03  0.94717102110E+03  0.00000000000E+00 0.  1.
        -13    1    1    2    0    0 -0.31821026453E+03  0.15710810143E+03  0.13855321988E+03  0.38096946582E+03  0.10566000000E+00 0.  1.
         13    1    1    2    0    0  0.11183782574E+03  0.21997862933E+03  0.18949983969E+03  0.31114063867E+03  0.10566000000E+00 0. -1.
          4    1    1    2  501    0  0.20637243879E+03 -0.37708673075E+03 -0.70476682145E+03  0.82551817582E+03  0.00000000000E+00 0.  1.
</event>
<event>
 5    1  0.2540860E-005  0.4502983E+03  0.7818608E-02  0.9794498E-01
         21   -1    0    0  501  502  0.00000000000E+00  0.00000000000E+00  0.53078171827E+03  0.53078171827E+03  0.00000000000E+00 0. -1.
         -4   -1    0    0    0  501 -0.00000000000E+00 -0.00000000000E+00 -0.88128698408E+03  0.88128698408E+03  0.00000000000E+00 0. -1.
        -13    1    1    2    0    0 -0.21403962484E+03 -0.65531530444E+02 -0.31948185548E+03  0.39009743607E+03  0.10566000000E+00 0.  1.
         13    1    1    2    0    0  0.12811673540E+01 -0.37721641279E+03 -0.28141017491E+03  0.47062252515E+03  0.10566000000E+00 0. -1.
         -4    1    1    2    0  502  0.21275845748E+03  0.44274794324E+03  0.25038676458E+03  0.55134874113E+03  0.00000000000E+00 0. -1.
</event>
<event>
 5    1  0.2540860E-005  0.5257762E+03  0.7818608E-02  0.9423197E-01
         21   -1    0    0  501  502  0.00000000000E+00  0.00000000000E+00  0.17440090567E+03  0.17440090567E+03  0.00000000000E+00 0. -1.
         -4   -1    0    0    0  501 -0.00000000000E+00 -0.00000000000E+00 -0.40103252840E+04  0.40103252840E+04  0.00000000000E+00 0. -1.
        -13    1    1    2    0    0 -0.46575059875E+03  0.48675193067E+02 -0.18882036706E+04  0.19454063862E+04  0.10566000000E+00 0.  1.
         13    1    1    2    0    0  0.75216472052E+03  0.12649729202E+03 -0.12361564307E+04  0.14525274745E+04  0.10566000000E+00 0. -1.
         -4    1    1    2    0  502 -0.28641412177E+03 -0.17517248509E+03 -0.71156427708E+03  0.78679232908E+03  0.00000000000E+00 0. -1.
</event>
<event>
 5    1  0.2540860E-005  0.3541482E+03  0.7818608E-02  0.9871706E-01
         -4   -1    0    0    0  501 -0.00000000000E+00  0.00000000000E+00  0.12321074550E+04  0.12321074550E+04  0.00000000000E+00 0. -1.
         21   -1    0    0  501  502  0.00000000000E+00 -0.00000000000E+00 -0.12497162688E+03  0.12497162688E+03  0.00000000000E+00 0.  1.
        -13    1    1    2    0    0 -0.42559803232E+02  0.33391890834E+03  0.33592349302E+03  0.47556048882E+03  0.10566000000E+00 0.  1.
         13    1    1    2    0    0  0.32385817100E+02 -0.36310253807E+03  0.76839517798E+03  0.85048424737E+03  0.10566000000E+00 0. -1.
         -4    1    1    2    0  502  0.10173986131E+02  0.29183629732E+02  0.28171571051E+01  0.31034345688E+02  0.00000000000E+00 0. -1.
</event>
<event>
 5    1  0.2540860E-005  0.9768204E+02  0.7818608E-02  0.1168449E+00
         21   -1    0    0  501  502  0.00000000000E+00  0.00000000000E+00  0.83064989329E+02  0.83064989329E+02  0.00000000000E+00 0. -1.
         -4   -1    0    0    0  501 -0.00000000000E+00 -0.00000000000E+00 -0.56816465593E+03  0.56816465593E+03  0.00000000000E+00 0. -1.
        -13    1    1    2    0    0  0.90102518028E+02 -0.75025616018E+02 -0.51982969431E+02  0.12825578774E+03  0.10566000000E+00 0.  1.
         13    1    1    2    0    0 -0.70859493699E+02  0.63637885371E+02 -0.47015758753E+03  0.47970721964E+03  0.10566000000E+00 0. -1.
         -4    1    1    2    0  502 -0.19243024329E+02  0.11387730646E+02  0.37040890359E+02  0.43266637877E+02  0.00000000000E+00 0. -1.
</event>
<event>
 5    1  0.2540860E-005  0.5849780E+03  0.7818608E-02  0.9308961E-01
         21   -1    0    0  501  502  0.00000000000E+00  0.00000000000E+00  0.39146544888E+03  0.39146544888E+03  0.00000000000E+00 0.  1.
          4   -1    0    0  502    0 -0.00000000000E+00 -0.00000000000E+00 -0.20735858919E+04  0.20735858919E+04  0.00000000000E+00 0.  1.
        -13    1    1    2    0    0 -0.62923174570E+03 -0.32474711778E+03 -0.10870806218E+03  0.71638727952E+03  0.10566000000E+00 0.  1.
         13    1    1    2    0    0  0.44662905225E+03  0.33237996586E+03 -0.97262623149E+03  0.11206943158E+04  0.10566000000E+00 0. -1.
          4    1    1    2  501    0  0.18260269346E+03 -0.76328480819E+01 -0.60078614938E+03  0.62796974554E+03  0.00000000000E+00 0.  1.
</event>
<event>
 5    1  0.2540860E-005  0.1886912E+03  0.7818608E-02  0.1096264E+00
          4   -1    0    0  502    0 -0.00000000000E+00  0.00000000000E+00  0.34065631786E+03  0.34065631786E+03  0.00000000000E+00 0.  1.
         21   -1    0    0  501  502  0.00000000000E+00 -0.00000000000E+00 -0.27705008963E+03  0.27705008963E+03  0.00000000000E+00 0.  1.
        -13    1    1    2    0    0 -0.29275960875E+01 -0.25614987555E+03  0.17766423405E+03  0.31174656500E+03  0.10566000000E+00 0.  1.
         13    1    1    2    0    0 -0.26295505509E+02  0.81837758326E+02  0.14807641697E+02  0.87224708165E+02  0.10566000000E+00 0. -1.
          4    1    1    2  501    0  0.29223101597E+02  0.17431211723E+03 -0.12886564751E+03  0.21873513432E+03  0.00000000000E+00 0.  1.
</event>
<event>
 5    1  0.2540860E-005  0.2898567E+03  0.7818608E-02  0.1017154E+00
         -4   -1    0    0    0  501 -0.00000000000E+00  0.00000000000E+00  0.14702637306E+04  0.14702637306E+04  0.00000000000E+00 0. -1.
         21   -1    0    0  501  502  0.00000000000E+00 -0.00000000000E+00 -0.44155988102E+03  0.44155988102E+03  0.00000000000E+00 0. -1.
        -13    1    1    2    0    0  0.26123204741E+03 -0.17915531879E+03  0.77495018941E+03  0.83718971451E+03  0.10566000000E+00 0.  1.
         13    1    1    2    0    0 -0.68435113492E+02 -0.24700488100E+03 -0.27009457014E+03  0.37235180136E+03  0.10566000000E+00 0. -1.
         -4    1    1    2    0  502 -0.19279693392E+03  0.42616019980E+03  0.52384823032E+03  0.70228209576E+03  0.00000000000E+00 0. -1.
</event>
<event>
 5    1  0.2540860E-005  0.4102679E+03  0.7818608E-02  0.1020091E+00
         -4   -1    0    0    0  501 -0.00000000000E+00  0.00000000000E+00  0.23819448096E+04  0.23819448096E+04  0.00000000000E+00 0. -1.
         21   -1    0    0  501  502  0.00000000000E+00 -0.00000000000E+00 -0.12374822570E+03  0.12374822570E+03  0.00000000000E+00 0. -1.
        -13    1    1    2    0    0  0.74981114948E+02 -0.21501590230E+02  0.24808556130E+03  0.26005949872E+03  0.10566000000E+00 0.  1.
         13    1    1    2    0    0  0.30697105166E+02 -0.40295528416E+03  0.36905121665E+03  0.54727880004E+03  0.10566000000E+00 0. -1.
         -4    1    1    2    0  502 -0.10567822011E+03  0.42445687439E+03  0.16410598060E+04  0.16983547366E+04  0.00000000000E+00 0. -1.
</event>
<event>
 5    1  0.2540860E-005  0.1052866E+03  0.7818608E-02  0.1186983E+00
         21   -1    0    0  501  502  0.00000000000E+00  0.00000000000E+00  0.85116729600E+02  0.85116729600E+02  0.00000000000E+00 0. -1.
          4   -1    0    0  502    0 -0.00000000000E+00 -0.00000000000E+00 -0.28437271033E+03  0.28437271033E+03  0.00000000000E+00 0.  1.
        -13    1    1    2    0    0  0.11552323042E+03  0.60765443864E+02 -0.15960416097E+03  0.20618330509E+03  0.10566000000E+00 0.  1.
         13    1    1    2    0    0 -0.48521139389E+02  0.13390099019E+02 -0.38478351959E+02  0.63357639262E+02  0.10566000000E+00 0. -1.
          4    1    1    2  501    0 -0.67002091032E+02 -0.74155542883E+02 -0.11734678080E+01  0.99948495585E+02  0.00000000000E+00 0.  1.
</event>
<event>
 5    1  0.2540860E-005  0.4366766E+03  0.7818608E-02  0.9628738E-01
         -4   -1    0    0    0  501 -0.00000000000E+00  0.00000000000E+00  0.74252759175E+03  0.74252759175E+03  0.00000000000E+00 0. -1.
         21   -1    0    0  501  502  0.00000000000E+00 -0.00000000000E+00 -0.57386884971E+03  0.57386884971E+03  0.00000000000E+00 0. -1.
        -13    1    1    2    0    0 -0.38426413461E+03  0.16319015287E+03 -0.38182211790E+02  0.41922290443E+03  0.10566000000E+00 0.  1.
         13    1    1    2    0    0  0.36978900532E+03 -0.25050462647E+03  0.45265038615E+03  0.63591576454E+03  0.10566000000E+00 0. -1.
         -4    1    1    2    0  502  0.14475129291E+02  0.87314473599E+02 -0.24580943232E+03  0.26125777249E+03  0.00000000000E+00 0. -1.
</event>
<event>
 5    1  0.2540860E-005  0.3811995E+03  0.7818608E-02  0.1022953E+00
         21   -1    0    0  501  502  0.00000000000E+00  0.00000000000E+00  0.11374103870E+03  0.11374103870E+03  0.00000000000E+00 0.  1.
          4   -1    0    0  502    0 -0.00000000000E+00 -0.00000000000E+00 -0.26616755074E+04  0.26616755074E+04  0.00000000000E+00 0.  1.
        -13    1    1    2    0    0  0.29980874569E+02 -0.34852360436E+03 -0.20022495581E+04  0.20325773933E+04  0.10566000000E+00 0.  1.
         13    1    1    2    0    0  0.85839003334E+02 -0.23052979940E+02 -0.21307548996E+03  0.23086998498E+03  0.10566000000E+00 0. -1.
          4    1    1    2  501    0 -0.11581987790E+03  0.37157658430E+03 -0.33260942061E+03  0.51196916782E+03  0.00000000000E+00 0.  1.
</event>
<event>
 5    1  0.2540860E-005  0.2833499E+03  0.7818608E-02  0.1014425E+00
         -4   -1    0    0    0  501 -0.00000000000E+00  0.00000000000E+00  0.88774252196E+03  0.88774252196E+03  0.00000000000E+00 0. -1.
         21   -1    0    0  501  502  0.00000000000E+00 -0.00000000000E+00 -0.21235849681E+03  0.21235849681E+03  0.00000000000E+00 0. -1.
        -13    1    1    2    0    0  0.85285278928E+01 -0.28913710772E+03  0.29655037967E+03  0.41426457934E+03  0.10566000000E+00 0.  1.
         13    1    1    2    0    0 -0.48354500659E+01  0.27962448706E+03  0.49536547412E+03  0.56885868145E+03  0.10566000000E+00 0. -1.
         -4    1    1    2    0  502 -0.36930778270E+01  0.95126206607E+01 -0.11653182865E+03  0.11697775799E+03  0.00000000000E+00 0. -1.
</event>
<event>
 5    1  0.2540860E-005  0.2081156E+03  0.7818608E-02  0.1054710E+00
          4   -1    0    0  502    0 -0.00000000000E+00  0.00000000000E+00  0.21127515868E+03  0.21127515868E+03  0.00000000000E+00 0.  1.
         21   -1    0    0  501  502  0.00000000000E+00 -0.00000000000E+00 -0.58484091613E+03  0.58484091613E+03  0.00000000000E+00 0.  1.
        -13    1    1    2    0    0 -0.21168448273E+03  0.12378088122E+02  0.63583901099E+02  0.22137402950E+03  0.10566000000E+00 0.  1.
         13    1    1    2    0    0  0.20122913427E+03  0.26183094738E+02 -0.84466269864E+02  0.21980282264E+03  0.10566000000E+00 0. -1.
          4    1    1    2  501    0  0.10455348460E+02 -0.38561182861E+02 -0.35268338869E+03  0.35493922267E+03  0.00000000000E+00 0.  1.
</event>
<event>
 5    1  0.2540860E-005  0.3103085E+03  0.7818608E-02  0.1017524E+00
         21   -1    0    0  501  502  0.00000000000E+00  0.00000000000E+00  0.36163075236E+03  0.36163075236E+03  0.00000000000E+00 0.  1.
          4   -1    0    0  502    0 -0.00000000000E+00 -0.00000000000E+00 -0.16399009749E+04  0.16399009749E+04  0.00000000000E+00 0.  1.
        -13    1    1    2    0    0  0.24414979911E+03  0.16781512791E+03  0.19615301005E+03  0.35531261739E+03  0.10566000000E+00 0.  1.
         13    1    1    2    0    0  0.23766538283E+02  0.19405209767E+03 -0.87474114647E+03  0.89632201213E+03  0.10566000000E+00 0. -1.
          4    1    1    2  501    0 -0.26791633740E+03 -0.36186722558E+03 -0.59968208615E+03  0.74989709777E+03  0.00000000000E+00 0.  1.
</event>
<event>
 5    1  0.2540860E-005  0.4860750E+03  0.7818608E-02  0.9819180E-01
         -4   -1    0    0    0  501 -0.00000000000E+00  0.00000000000E+00  0.11966650727E+04  0.11966650727E+04  0.00000000000E+00 0. -1.
         21   -1    0    0  501  502  0.00000000000E+00 -0.00000000000E+00 -0.47793475517E+03  0.47793475517E+03  0.00000000000E+00 0. -1.
        -13    1    1    2    0    0  0.26182183425E+02  0.16149661213E+03  0.65363494760E+03  0.67379916767E+03  0.10566000000E+00 0.  1.
         13    1    1    2    0    0 -0.23121901209E+03 -0.52928544926E+03  0.40374894502E+02  0.57899521727E+03  0.10566000000E+00 0. -1.
         -4    1    1    2    0  502  0.20503682866E+03  0.36778883712E+03  0.24720475461E+02  0.42180544298E+03  0.00000000000E+00 0. -1.
</event>
<event>
 5    1  0.2540860E-005  0.4849310E+03  0.7818608E-02  0.9511626E-01
         -4   -1    0    0    0  501 -0.00000000000E+00  0.00000000000E+00  0.24618635086E+04  0.24618635086E+04  0.00000000000E+00 0. -1.
         21   -1    0    0  501  502  0.00000000000E+00 -0.00000000000E+00 -0.20675034736E+03  0.20675034736E+03  0.00000000000E+00 0.  1.
        -13    1    1    2    0    0 -0.40768140961E+03  0.22015572191E+03  0.67143201915E+03  0.81577793617E+03  0.10566000000E+00 0.  1.
         13    1    1    2    0    0  0.43896163084E+03 -0.23019652106E+03  0.16797248166E+04  0.17513289875E+04  0.10566000000E+00 0. -1.
         -4    1    1    2    0  502 -0.31280221234E+02  0.10040799153E+02 -0.96043674540E+02  0.10150693231E+03  0.00000000000E+00 0. -1.
</event>
<event>
 5    1  0.2649516E-005  0.1458858E+03  0.7818608E-02  0.1160441E+00
         -4   -1    0    0    0  501 -0.00000000000E+00  0.00000000000E+00  0.24338667355E+03  0.24338667355E+03  0.00000000000E+00 0. -1.
         21   -1    0    0  501  502  0.00000000000E+00 -0.00000000000E+00 -0.12088122256E+04  0.12088122256E+04  0.00000000000E+00 0. -1.
        -13    1    1    2    0    0  0.34552495351E+02  0.85258226682E+01  0.32771995941E+02  0.48379535644E+02  0.10566000000E+00 0.  1.
         13    1    1    2    0    0 -0.17822510496E+03 -0.28782864613E+02  0.15717788110E+03  0.23936904312E+03  0.10566000000E+00 0. -1.
         -4    1    1    2    0  502  0.14367260961E+03  0.20257041945E+02 -0.11553754291E+04  0.11644503204E+04  0.00000000000E+00 0. -1.
</event>
<event>
 5    1  0.2540860E-005  0.2623445E+03  0.7818608E-02  0.1024895E+00
         21   -1    0    0  501  502  0.00000000000E+00  0.00000000000E+00  0.42890293342E+03  0.42890293342E+03  0.00000000000E+00 0. -1.
         -4   -1    0    0    0  501 -0.00000000000E+00 -0.00000000000E+00 -0.12822332702E+04  0.12822332702E+04  0.00000000000E+00 0. -1.
        -13    1    1    2    0    0 -0.29459301203E+03  0.25542377615E+03 -0.41238036572E+03  0.56752438305E+03  0.10566000000E+00 0.  1.
         13    1    1    2    0    0  0.29637796625E+02 -0.24271321064E+03 -0.71893248632E+03  0.75937608118E+03  0.10566000000E+00 0. -1.
         -4    1    1    2    0  502  0.26495521540E+03 -0.12710565506E+02  0.27798251526E+03  0.38423573940E+03  0.00000000000E+00 0. -1.
</event>
<event>
 5    1  0.2540860E-005  0.9241167E+02  0.7818608E-02  0.1230911E+00
          4   -1    0    0  502    0 -0.00000000000E+00  0.00000000000E+00  0.14900919067E+03  0.14900919067E+03  0.00000000000E+00 0.  1.
         21   -1    0    0  501  502  0.00000000000E+00 -0.00000000000E+00 -0.20766581207E+03  0.20766581207E+03  0.00000000000E+00 0.  1.
        -13    1    1    2    0    0  0.11437489489E+03  0.43748345372E+01  0.10461810073E+03  0.15506680471E+03  0.10566000000E+00 0.  1.
         13    1    1    2    0    0 -0.24641778457E+02 -0.12831663413E+02 -0.32104789024E+02  0.42457007357E+02  0.10566000000E+00 0. -1.
          4    1    1    2  501    0 -0.89733116430E+02  0.84568288753E+01 -0.13116993311E+03  0.15915119067E+03  0.00000000000E+00 0.  1.
</event>
<event>
 5    1  0.2540860E-005  0.7824891E+02  0.7818608E-02  0.1206609E+00
         21   -1    0    0  501  502  0.00000000000E+00  0.00000000000E+00  0.14904768090E+03  0.14904768090E+03  0.00000000000E+00 0.  1.
         -4   -1    0    0    0  501 -0.00000000000E+00 -0.00000000000E+00 -0.28716880778E+03  0.28716880778E+03  0.00000000000E+00 0. -1.
        -13    1    1    2    0    0  0.24116646175E+02  0.37962640206E+02  0.12537064674E+03  0.13319378702E+03  0.10566000000E+00 0.  1.
         13    1    1    2    0    0 -0.53379102666E+02 -0.59401328055E+02 -0.25293370851E+03  0.26524199977E+03  0.10566000000E+00 0. -1.
         -4    1    1    2    0  502  0.29262456491E+02  0.21438687849E+02 -0.10558065111E+02  0.37780701893E+02  0.00000000000E+00 0. -1.
</event>
<event>
 5    1  0.2540860E-005  0.2990227E+03  0.7818608E-02  0.1007710E+00
         -4   -1    0    0    0  501 -0.00000000000E+00  0.00000000000E+00  0.16371477128E+04  0.16371477128E+04  0.00000000000E+00 0. -1.
         21   -1    0    0  501  502  0.00000000000E+00 -0.00000000000E+00 -0.88787553452E+02  0.88787553452E+02  0.00000000000E+00 0. -1.
        -13    1    1    2    0    0  0.23584611797E+03  0.16335432249E+03  0.50106616163E+03  0.57738664301E+03  0.10566000000E+00 0.  1.
         13    1    1    2    0    0 -0.24316934910E+03 -0.18565360267E+03  0.10718039145E+04  0.11146130426E+04  0.10566000000E+00 0. -1.
         -4    1    1    2    0  502  0.73232311283E+01  0.22299280181E+02 -0.24509916771E+02  0.33935580603E+02  0.00000000000E+00 0. -1.
</event>
<event>
 5    1  0.2540860E-005  0.3520371E+03  0.7818608E-02  0.1095661E+00
          4   -1    0    0  502    0 -0.00000000000E+00  0.00000000000E+00  0.24500145893E+03  0.24500145893E+03  0.00000000000E+00 0.  1.
         21   -1    0    0  501  502  0.00000000000E+00 -0.00000000000E+00 -0.85489840481E+03  0.85489840481E+03  0.00000000000E+00 0.  1.
        -13    1    1    2    0    0 -0.35283312994E+03  0.18676741460E+02 -0.64712008759E+03  0.73729536631E+03  0.10566000000E+00 0.  1.
         13    1    1    2    0    0  0.73757066677E+01  0.11254691455E+02  0.50129658120E+01  0.14360018066E+02  0.10566000000E+00 0. -1.
          4    1    1    2  501    0  0.34545742327E+03 -0.29931432914E+02  0.32210175904E+02  0.34824447936E+03  0.00000000000E+00 0.  1.
</event>
<event>
 5    1  0.2540860E-005  0.1216883E+03  0.7818608E-02  0.1132953E+00
         21   -1    0    0  501  502  0.00000000000E+00  0.00000000000E+00  0.69868600735E+02  0.69868600735E+02  0.00000000000E+00 0. -1.
          4   -1    0    0  502    0 -0.00000000000E+00 -0.00000000000E+00 -0.42907487134E+03  0.42907487134E+03  0.00000000000E+00 0.  1.
        -13    1    1    2    0    0  0.13099578811E+03  0.53995174544E+02 -0.23819844840E+03  0.27715318393E+03  0.10566000000E+00 0.  1.
         13    1    1    2    0    0 -0.93004939887E+02  0.14080735398E+02 -0.23513279466E+02  0.96959122459E+02  0.10566000000E+00 0. -1.
          4    1    1    2  501    0 -0.37990848226E+02 -0.68075909942E+02 -0.97494542747E+02  0.12483116570E+03  0.00000000000E+00 0.  1.
</event>
<event>
 5    1  0.2540860E-005  0.9474968E+02  0.7818608E-02  0.1173547E+00
         21   -1    0    0  501  502  0.00000000000E+00  0.00000000000E+00  0.65949509482E+03  0.65949509482E+03  0.00000000000E+00 0.  1.
         -4   -1    0    0    0  501 -0.00000000000E+00 -0.00000000000E+00 -0.69391297724E+02  0.69391297724E+02  0.00000000000E+00 0. -1.
        -13    1    1    2    0    0  0.89888226979E+02  0.67039880660E+02  0.31351070799E+03  0.33296128024E+03  0.10566000000E+00 0.  1.
         13    1    1    2    0    0 -0.69492095831E+02 -0.61555519016E+02 -0.22957376611E+02  0.95630986658E+02  0.10566000000E+00 0. -1.
         -4    1    1    2    0  502 -0.20396131147E+02 -0.54843616436E+01  0.29955046572E+03  0.30029412565E+03  0.00000000000E+00 0. -1.
</event>
<event>
 5    1  0.2540860E-005  0.4764758E+03  0.7818608E-02  0.9681118E-01
         21   -1    0    0  501  502  0.00000000000E+00  0.00000000000E+00  0.38812867609E+03  0.38812867609E+03  0.00000000000E+00 0. -1.
          4   -1    0    0  502    0 -0.00000000000E+00 -0.00000000000E+00 -0.11196542531E+04  0.11196542531E+04  0.00000000000E+00 0.  1.
        -13    1    1    2    0    0  0.62371986263E+03  0.30266259332E+02 -0.30905417341E+03  0.69674744834E+03  0.10566000000E+00 0.  1.
         13    1    1    2    0    0 -0.25346856325E+03  0.11802086402E+03 -0.25514517684E+03  0.37851593009E+03  0.10566000000E+00 0. -1.
          4    1    1    2  501    0 -0.37025129938E+03 -0.14828712335E+03 -0.16732622677E+03  0.43251955078E+03  0.00000000000E+00 0.  1.
</event>
<event>
 5    1  0.2540860E-005  0.2928289E+03  0.7818608E-02  0.1010310E+00
         -4   -1    0    0    0  501 -0.00000000000E+00  0.00000000000E+00  0.21054054001E+04  0.21054054001E+04  0.00000000000E+00 0. -1.
         21   -1    0    0  501  502  0.00000000000E+00 -0.00000000000E+00 -0.21055612159E+03  0.21055612159E+03  0.00000000000E+00 0. -1.
        -13    1    1    2    0    0  0.18254283158E+03 -0.17091105676E+03  0.65379720641E+03  0.69998805201E+03  0.10566000000E+00 0.  1.
         13    1    1    2    0    0 -0.38303154907E+03  0.23575742813E+02  0.13040284272E+04  0.13593230423E+04  0.10566000000E+00 0. -1.
         -4    1    1    2    0  502  0.20048871749E+03  0.14733531395E+03 -0.62976355094E+02  0.25665042739E+03  0.00000000000E+00 0. -1.
</event>
<event>
 5    1  0.2540860E-005  0.2934417E+03  0.7818608E-02  0.1067227E+00
         21   -1    0    0  501  502  0.00000000000E+00  0.00000000000E+00  0.38837920758E+03  0.38837920758E+03  0.00000000000E+00 0. -1.
         -4   -1    0    0    0  501 -0.00000000000E+00 -0.00000000000E+00 -0.29628018597E+03  0.29628018597E+03  0.00000000000E+00 0. -1.
        -13    1    1    2    0    0 -0.10692031675E+01  0.51548437284E+02 -0.56989266252E+02  0.76851624666E+02  0.10566000000E+00 0.  1.
         13    1    1    2    0    0 -0.25934346761E+03 -0.16160288754E+03  0.94701619889E+02  0.31991082418E+03  0.10566000000E+00 0. -1.
         -4    1    1    2    0  502  0.26041267077E+03  0.11005445026E+03  0.54386667967E+02  0.28789694471E+03  0.00000000000E+00 0. -1.
</event>
<event>
 5    1  0.2540860E-005  0.4408332E+03  0.7818608E-02  0.1039598E+00
         -4   -1    0    0    0  501 -0.00000000000E+00  0.00000000000E+00  0.68771015978E+03  0.68771015978E+03  0.00000000000E+00 0. -1.
         21   -1    0    0  501  502  0.00000000000E+00 -0.00000000000E+00 -0.33019925685E+03  0.33019925685E+03  0.00000000000E+00 0. -1.
        -13    1    1    2    0    0 -0.11585112726E+02 -0.32395128675E+02 -0.22326398123E+02  0.41013880772E+02  0.10566000000E+00 0.  1.
         13    1    1    2    0    0 -0.17820644025E+03  0.41412005836E+03  0.85551798762E+02  0.45888133490E+03  0.10566000000E+00 0. -1.
         -4    1    1    2    0  502  0.18979155298E+03 -0.38172492969E+03  0.29428550230E+03  0.51801420095E+03  0.00000000000E+00 0. -1.
</event>
<event>
 5    1  0.2540860E-005  0.1460227E+03  0.7818608E-02  0.1105102E+00
         -4   -1    0    0    0  501 -0.00000000000E+00  0.00000000000E+00  0.12583108065E+04  0.12583108065E+04  0.00000000000E+00 0. -1.
         21   -1    0    0  501  502  0.00000000000E+00 -0.00000000000E+00 -0.27701826845E+02  0.27701826845E+02  0.00000000000E+00 0.  1.
        -13    1    1    2    0    0 -0.51083861071E+02  0.14290749461E+03  0.61160078369E+03  0.63014890514E+03  0.10566000000E+00 0.  1.
         13    1    1    2    0    0  0.39446692062E+02 -0.13564697300E+03  0.62509408031E+03  0.64085783385E+03  0.10566000000E+00 0. -1.
         -4    1    1    2    0  502  0.11637169009E+02 -0.72605216077E+01 -0.60858843612E+01  0.15005894343E+02  0.00000000000E+00 0. -1.
</event>
<event>
 5    1  0.2540860E-005  0.3744811E+03  0.7818608E-02  0.1000972E+00
         21   -1    0    0  501  502  0.00000000000E+00  0.00000000000E+00  0.32645893950E+03  0.32645893950E+03  0.00000000000E+00 0.  1.
          4   -1    0    0  502    0 -0.00000000000E+00 -0.00000000000E+00 -0.18293044464E+04  0.18293044464E+04  0.00000000000E+00 0.  1.
        -13    1    1    2    0    0  0.30291810909E+03  0.33536997095E+03 -0.58775519422E+03  0.74140985812E+03  0.10566000000E+00 0.  1.
         13    1    1    2    0    0 -0.18915377830E+03  0.11285643916E+02 -0.10178296377E+04  0.10353181637E+04  0.10566000000E+00 0. -1.
          4    1    1    2  501    0 -0.11376433078E+03 -0.34665561486E+03  0.10273932504E+03  0.37903536403E+03  0.00000000000E+00 0.  1.
</event>
<event>
 5    1  0.2540860E-005  0.6623719E+03  0.7818608E-02  0.9179426E-01
         21   -1    0    0  501  502  0.00000000000E+00  0.00000000000E+00  0.36431916534E+03  0.36431916534E+03  0.00000000000E+00 0.  1.
         -4   -1    0    0    0  501 -0.00000000000E+00 -0.00000000000E+00 -0.34629944370E+04  0.34629944370E+04  0.00000000000E+00 0. -1.
        -13    1    1    2    0    0  0.37121683723E+03 -0.58268252777E+03 -0.23486588484E+04  0.24481665110E+04  0.10566000000E+00 0.  1.
         13    1    1    2    0    0 -0.54172368576E+03  0.34639185065E+03 -0.85466888537E+03  0.10695376481E+04  0.10566000000E+00 0. -1.
         -4    1    1    2    0  502  0.17050684853E+03  0.23629067712E+03  0.10465246212E+03  0.30960944320E+03  0.00000000000E+00 0. -1.
</event>
<event>
 5    1  0.2540860E-005  0.2934943E+03  0.7818608E-02  0.1010028E+00
          4   -1    0    0  502    0 -0.00000000000E+00  0.00000000000E+00  0.14475035295E+04  0.14475035295E+04  0.00000000000E+00 0.  1.
         21   -1    0    0  501  502  0.00000000000E+00 -0.00000000000E+00 -0.28830401072E+03  0.28830401072E+03  0.00000000000E+00 0.  1.
        -13    1    1    2    0    0  0.40788055830E+03 -0.39796352253E+01  0.84175697785E+03  0.93538078250E+03  0.10566000000E+00 0.  1.
         13    1    1    2    0    0 -0.21758877770E+03  0.89933682967E+02  0.48077507767E+03  0.53532945930E+03  0.10566000000E+00 0. -1.
          4    1    1    2  501    0 -0.19029178060E+03 -0.85954047742E+02 -0.16333253673E+03  0.26509729844E+03  0.00000000000E+00 0.  1.
</event>
<event>
 5    1  0.2540860E-005  0.7185040E+02  0.7818608E-02  0.1221954E+00
          4   -1    0    0  502    0 -0.00000000000E+00  0.00000000000E+00  0.12366538040E+03  0.12366538040E+03  0.00000000000E+00 0.  1.
         21   -1    0    0  501  502  0.00000000000E+00 -0.00000000000E+00 -0.18969611229E+03  0.18969611229E+03  0.00000000000E+00 0.  1.
        -13    1    1    2    0    0 -0.64344305601E+02 -0.34169004218E+02  0.99004253458E+02  0.12292096599E+03  0.10566000000E+00 0.  1.
         13    1    1    2    0    0  0.45387470063E+02  0.48670143133E+02 -0.91588450314E+02  0.11321334138E+03  0.10566000000E+00 0. -1.
          4    1    1    2  501    0  0.18956835539E+02 -0.14501138915E+02 -0.73446535037E+02  0.77227185320E+02  0.00000000000E+00 0.  1.
</event>
<event>
 5    1  0.2540860E-005  0.4648751E+03  0.7818608E-02  0.9664750E-01
          4   -1    0    0  502    0 -0.00000000000E+00  0.00000000000E+00  0.20769342854E+04  0.20769342854E+04  0.00000000000E+00 0.  1.
         21   -1    0    0  501  502  0.00000000000E+00 -0.00000000000E+00 -0.24634112712E+03  0.24634112712E+03  0.00000000000E+00 0.  1.
        -13    1    1    2    0    0  0.49233407446E+03  0.27953886607E+03  0.77386242328E+03  0.95885237646E+03  0.10566000000E+00 0.  1.
         13    1    1    2    0    0 -0.29493267707E+03  0.12108213703E+03  0.77076577187E+03  0.83410194471E+03  0.10566000000E+00 0. -1.
          4    1    1    2  501    0 -0.19740139738E+03 -0.40062100310E+03  0.28596496318E+03  0.53032109139E+03  0.00000000000E+00 0.  1.
</event>
<event>
 5    1  0.2540860E-005  0.3956940E+02  0.7818608E-02  0.1374156E+00
         21   -1    0    0  501  502  0.00000000000E+00  0.00000000000E+00  0.53594231886E+03  0.53594231886E+03  0.00000000000E+00 0. -1.
         -4   -1    0    0    0  501 -0.00000000000E+00 -0.00000000000E+00 -0.31229019309E+02  0.31229019309E+02  0.00000000000E+00 0. -1.
        -13    1    1    2    0    0 -0.64188541620E+01  0.21083589993E+02  0.17377095679E+02  0.28065888085E+02  0.10566000000E+00 0.  1.
         13    1    1    2    0    0  0.19162006503E+02 -0.57830374310E+02  0.11891011926E+02  0.62072071133E+02  0.10566000000E+00 0. -1.
         -4    1    1    2    0  502 -0.12743152341E+02  0.36746784317E+02  0.47544519195E+03  0.47703337895E+03  0.00000000000E+00 0. -1.
</event>
<event>
 5    1  0.2540860E-005  0.4782432E+03  0.7818608E-02  0.1003344E+00
         21   -1    0    0  501  502  0.00000000000E+00  0.00000000000E+00  0.33444520219E+03  0.33444520219E+03  0.00000000000E+00 0. -1.
         -4   -1    0    0    0  501 -0.00000000000E+00 -0.00000000000E+00 -0.91069452149E+03  0.91069452149E+03  0.00000000000E+00 0. -1.
        -13    1    1    2    0    0  0.71473642558E+01 -0.83897644169E+02 -0.92241398601E+02  0.12489349980E+03  0.10566000000E+00 0.  1.
         13    1    1    2    0    0 -0.39839968317E+03  0.32653418693E+03 -0.40017707172E+03  0.65229485869E+03  0.10566000000E+00 0. -1.
         -4    1    1    2    0  502  0.39125231891E+03 -0.24263654276E+03 -0.83830848987E+02  0.46795136519E+03  0.00000000000E+00 0. -1.
</event>
<event>
 5    1  0.2540860E-005  0.3645433E+03  0.7818608E-02  0.9847858E-01
         21   -1    0    0  501  502  0.00000000000E+00  0.00000000000E+00  0.43793102288E+03  0.43793102288E+03  0.00000000000E+00 0. -1.
          4   -1    0    0  502    0 -0.00000000000E+00 -0.00000000000E+00 -0.12920053083E+04  0.12920053083E+04  0.00000000000E+00 0.  1.
        -13    1    1    2    0    0 -0.10377281407E+03  0.34923572939E+03 -0.89766596660E+03  0.96878201386E+03  0.10566000000E+00 0.  1.
         13    1    1    2    0    0  0.36499676211E+03 -0.66645999163E+02 -0.17795235665E+02  0.37145794800E+03  0.10566000000E+00 0. -1.
          4    1    1    2  501    0 -0.26122394804E+03 -0.28258973022E+03  0.61386916887E+02  0.38969636927E+03  0.00000000000E+00 0.  1.
</event>
<event>
 5    1  0.2540860E-005  0.1888024E+03  0.7818608E-02  0.1068096E+00
          4   -1    0    0  502    0 -0.00000000000E+00  0.00000000000E+00  0.59011414237E+02  0.59011414237E+02  0.00000000000E+00 0.  1.
         21   -1    0    0  501  502  0.00000000000E+00 -0.00000000000E+00 -0.85734961556E+03  0.85734961556E+03  0.00000000000E+00 0. -1.
        -13    1    1    2    0    0  0.17693261641E+03  0.34771547433E+02 -0.31314885674E+03  0.36135360646E+03  0.10566000000E+00 0.  1.
         13    1    1    2    0    0 -0.19354445121E+03 -0.29927609911E+02 -0.24252373935E+03  0.31172566744E+03  0.10566000000E+00 0. -1.
          4    1    1    2  501    0  0.16611834804E+02 -0.48439375220E+01 -0.24266560524E+03  0.24328175589E+03  0.00000000000E+00 0.  1.
</event>
<event>
 5    1  0.2540860E-005  0.2042994E+03  0.7818608E-02  0.1062192E+00
         -4   -1    0    0    0  501 -0.00000000000E+00  0.00000000000E+00  0.17164545349E+04  0.17164545349E+04  0.00000000000E+00 0. -1.
         21   -1    0    0  501  502  0.00000000000E+00 -0.00000000000E+00 -0.21089857919E+03  0.21089857919E+03  0.00000000000E+00 0. -1.
        -13    1    1    2    0    0  0.17666015381E+03  0.50173015641E+01  0.34627890246E+03  0.38877123442E+03  0.10566000000E+00 0.  1.
         13    1    1    2    0    0 -0.34492568537E+03 -0.10846970415E+03  0.12642197419E+04  0.13149110130E+04  0.10566000000E+00 0. -1.
         -4    1    1    2    0  502  0.16826553156E+03  0.10345240258E+03 -0.10494268862E+03  0.22367086669E+03  0.00000000000E+00 0. -1.
</event>
<event>
 5    1  0.2540860E-005  0.2719424E+03  0.7818608E-02  0.1031822E+00
          4   -1    0    0  502    0 -0.00000000000E+00  0.00000000000E+00  0.23982852046E+04  0.23982852046E+04  0.00000000000E+00 0.  1.
         21   -1    0    0  501  502  0.00000000000E+00 -0.00000000000E+00 -0.15493085523E+03  0.15493085523E+03  0.00000000000E+00 0.  1.
        -13    1    1    2    0    0 -0.42313386304E+03 -0.82925856860E+01  0.16571039875E+04  0.17102937379E+04  0.10566000000E+00 0.  1.
         13    1    1    2    0    0  0.17135604489E+03  0.71984933107E+02  0.55017297987E+03  0.58071941905E+03  0.10566000000E+00 0. -1.
          4    1    1    2  501    0  0.25177781816E+03 -0.63692347421E+02  0.36077381999E+02  0.26220290297E+03  0.00000000000E+00 0.  1.
</event>
<event>
 5    1  0.2540860E-005  0.4585847E+03  0.7818608E-02  0.9678268E-01
         21   -1    0    0  501  502  0.00000000000E+00  0.00000000000E+00  0.18049303622E+03  0.18049303622E+03  0.00000000000E+00 0. -1.
         -4   -1    0    0    0  501 -0.00000000000E+00 -0.00000000000E+00 -0.30637738252E+04  0.30637738252E+04  0.00000000000E+00 0. -1.
        -13    1    1    2    0    0 -0.25696155904E+03 -0.18521957727E+03 -0.13277899819E+04  0.13650501023E+04  0.10566000000E+00 0.  1.
         13    1    1    2    0    0 -0.28636337367E+03 -0.22677020971E+03 -0.44039662245E+03  0.57216947317E+03  0.10566000000E+00 0. -1.
         -4    1    1    2    0  502  0.54332493271E+03  0.41198978699E+03 -0.11150941847E+04  0.13070472860E+04  0.00000000000E+00 0. -1.
</event>
<event>
 5    1  0.2540860E-005  0.8136881E+02  0.7818608E-02  0.1199704E+00
         -4   -1    0    0    0  501 -0.00000000000E+00  0.00000000000E+00  0.37472990372E+03  0.37472990372E+03  0.00000000000E+00 0. -1.
         21   -1    0    0  501  502  0.00000000000E+00 -0.00000000000E+00 -0.46082632379E+03  0.46082632379E+03  0.00000000000E+00 0.  1.
        -13    1    1    2    0    0 -0.89449919448E+01  0.80543018805E+02 -0.35766041494E+03  0.36672629349E+03  0.10566000000E+00 0.  1.
         13    1    1    2    0    0 -0.89826987548E+01 -0.80899795985E+02  0.36485854566E+03  0.37382781514E+03  0.10566000000E+00 0. -1.
         -4    1    1    2    0  502  0.17927690700E+02  0.35677717968E+00 -0.93294550788E+02  0.95002118874E+02  0.00000000000E+00 0. -1.
</event>
<event>
 5    1  0.2540860E-005  0.3634186E+03  0.7818608E-02  0.9841083E-01
         -4   -1    0    0    0  501 -0.00000000000E+00  0.00000000000E+00  0.32093447016E+04  0.32093447016E+04  0.00000000000E+00 0. -1.
         21   -1    0    0  501  502  0.00000000000E+00 -0.00000000000E+00 -0.16558366783E+03  0.16558366783E+03  0.00000000000E+00 0. -1.
        -13    1    1    2    0    0 -0.36783925575E+03  0.10002424275E+03  0.93170645586E+03  0.10066714947E+04  0.10566000000E+00 0.  1.
         13    1    1    2    0    0  0.25252887438E+03 -0.27551922307E+03  0.21252428096E+04  0.21578551123E+04  0.10566000000E+00 0. -1.
         -4    1    1    2    0  502  0.11531038138E+03  0.17549498033E+03 -0.13188231714E+02  0.21040176242E+03  0.00000000000E+00 0. -1.
</event>
<event>
 5    1  0.2540860E-005  0.3338570E+03  0.7818608E-02  0.1003311E+00
         -4   -1    0    0    0  501 -0.00000000000E+00  0.00000000000E+00  0.96637241689E+03  0.96637241689E+03  0.00000000000E+00 0. -1.
         21   -1    0    0  501  502  0.00000000000E+00 -0.00000000000E+00 -0.70739969358E+03  0.70739969358E+03  0.00000000000E+00 0. -1.
        -13    1    1    2    0    0 -0.55851524536E+02  0.24139871781E+03  0.54712593314E+03  0.60061596019E+03  0.10566000000E+00 0.  1.
         13    1    1    2    0    0 -0.28508269820E+03 -0.21069249153E+03  0.25111085131E+03  0.43441931542E+03  0.10566000000E+00 0. -1.
         -4    1    1    2    0  502  0.34093422274E+03 -0.30706226276E+02 -0.53926406114E+03  0.63873683485E+03  0.00000000000E+00 0. -1.
</event>
<event>
 5    1  0.2540860E-005  0.4724201E+03  0.7818608E-02  0.9732103E-01
         21   -1    0    0  501  502  0.00000000000E+00  0.00000000000E+00  0.46766591952E+03  0.46766591952E+03  0.00000000000E+00 0. -1.
         -4   -1    0    0    0  501 -0.00000000000E+00 -0.00000000000E+00 -0.10022953769E+04  0.10022953769E+04  0.00000000000E+00 0. -1.
        -13    1    1    2    0    0  0.14334959352E+03 -0.19279472777E+03 -0.33970175012E+03  0.41607235335E+03  0.10566000000E+00 0.  1.
         13    1    1    2    0    0  0.37586067235E+03  0.12675354120E+03 -0.32702310707E+03  0.51408348441E+03  0.10566000000E+00 0. -1.
         -4    1    1    2    0  502 -0.51921026587E+03  0.66041186571E+02  0.13209539984E+03  0.53980545863E+03  0.00000000000E+00 0. -1.
</event>
<event>
 5    1  0.2540860E-005  0.4450480E+03  0.7818608E-02  0.9852297E-01
          4   -1    0    0  502    0 -0.00000000000E+00  0.00000000000E+00  0.16657716308E+04  0.16657716308E+04  0.00000000000E+00 0.  1.
         21   -1    0    0  501  502  0.00000000000E+00 -0.00000000000E+00 -0.30665017529E+03  0.30665017529E+03  0.00000000000E+00 0.  1.
        -13    1    1    2    0    0  0.35097006255E+03  0.19145439812E+03  0.75378622813E+02  0.40683746055E+03  0.10566000000E+00 0.  1.
         13    1    1    2    0    0  0.88905467618E+02  0.16850267079E+03  0.79014913430E+03  0.81279333033E+03  0.10566000000E+00 0. -1.
          4    1    1    2  501    0 -0.43987553017E+03 -0.35995706890E+03  0.49359369844E+03  0.75279101525E+03  0.00000000000E+00 0.  1.
</event>
<event>
 5    1  0.2540860E-005  0.7800798E+02  0.7818608E-02  0.1207157E+00
         21   -1    0    0  501  502  0.00000000000E+00  0.00000000000E+00  0.11211854039E+03  0.11211854039E+03  0.00000000000E+00 0. -1.
         -4   -1    0    0    0  501 -0.00000000000E+00 -0.00000000000E+00 -0.29719175598E+03  0.29719175598E+03  0.00000000000E+00 0. -1.
        -13    1    1    2    0    0  0.14418927476E+01  0.10257220788E+03 -0.17250561968E+03  0.20070210977E+03  0.10566000000E+00 0.  1.
         13    1    1    2    0    0  0.18941481895E+02 -0.60159429795E+02 -0.94799955661E+02  0.11386386383E+03  0.10566000000E+00 0. -1.
         -4    1    1    2    0  502 -0.20383374642E+02 -0.42412778085E+02  0.82232359744E+02  0.94744322762E+02  0.00000000000E+00 0. -1.
</event>
<event>
 5    1  0.2540860E-005  0.3819650E+03  0.7818608E-02  0.9782626E-01
         21   -1    0    0  501  502  0.00000000000E+00  0.00000000000E+00  0.11150266117E+03  0.11150266117E+03  0.00000000000E+00 0.  1.
         -4   -1    0    0    0  501 -0.00000000000E+00 -0.00000000000E+00 -0.16629130095E+04  0.16629130095E+04  0.00000000000E+00 0. -1.
        -13    1    1    2    0    0 -0.11103009182E+03  0.37028207898E+03 -0.10871777931E+04  0.11538596380E+04  0.10566000000E+00 0.  1.
         13    1    1    2    0    0  0.90688752569E+02 -0.36201812694E+03 -0.46767458561E+03  0.59833193401E+03  0.10566000000E+00 0. -1.
         -4    1    1    2    0  502  0.20341339254E+02 -0.82639520440E+01  0.34420303799E+01  0.22224098613E+02  0.00000000000E+00 0. -1.
</event>
<event>
 5    1  0.2540860E-005  0.1627152E+03  0.7818608E-02  0.1098122E+00
         21   -1    0    0  501  502  0.00000000000E+00  0.00000000000E+00  0.35285893254E+03  0.35285893254E+03  0.00000000000E+00 0.  1.
          4   -1    0    0  502    0 -0.00000000000E+00 -0.00000000000E+00 -0.10005971370E+04  0.10005971370E+04  0.00000000000E+00 0.  1.
        -13    1    1    2    0    0 -0.14002731880E+03 -0.83580286113E+01  0.23573753751E+03  0.27431679571E+03  0.10566000000E+00 0.  1.
         13    1    1    2    0    0 -0.16413584550E+03 -0.82861961241E+02 -0.55037413615E+02  0.19192657049E+03  0.10566000000E+00 0. -1.
          4    1    1    2  501    0  0.30416316430E+03  0.91219989853E+02 -0.82843832840E+03  0.88721270338E+03  0.00000000000E+00 0.  1.
</event>
<event>
 5    1  0.2540860E-005  0.1074746E+03  0.7818608E-02  0.1152748E+00
         21   -1    0    0  501  502  0.00000000000E+00  0.00000000000E+00  0.41376845353E+03  0.41376845353E+03  0.00000000000E+00 0.  1.
          4   -1    0    0  502    0 -0.00000000000E+00 -0.00000000000E+00 -0.94908469867E+02  0.94908469867E+02  0.00000000000E+00 0.  1.
        -13    1    1    2    0    0 -0.89235921064E+02  0.11409975173E+03  0.43792415496E+02  0.15132610406E+03  0.10566000000E+00 0.  1.
         13    1    1    2    0    0  0.25811957681E+02 -0.85616538746E+02  0.18220885382E+02  0.91260400472E+02  0.10566000000E+00 0. -1.
          4    1    1    2  501    0  0.63423963382E+02 -0.28483212980E+02  0.25684668278E+03  0.26609041886E+03  0.00000000000E+00 0.  1.
</event>
<event>
 5    1  0.2540860E-005  0.2413959E+03  0.7818608E-02  0.1066047E+00
         21   -1    0    0  501  502  0.00000000000E+00  0.00000000000E+00  0.52510916644E+03  0.52510916644E+03  0.00000000000E+00 0.  1.
          4   -1    0    0  502    0 -0.00000000000E+00 -0.00000000000E+00 -0.21438430650E+03  0.21438430650E+03  0.00000000000E+00 0.  1.
        -13    1    1    2    0    0  0.12525240219E+02  0.27667112896E+03  0.24932922446E+03  0.37265113521E+03  0.10566000000E+00 0.  1.
         13    1    1    2    0    0  0.57751309766E+02 -0.76459259926E+02 -0.68741284068E+02  0.11792627997E+03  0.10566000000E+00 0. -1.
          4    1    1    2  501    0 -0.70276549985E+02 -0.20021186904E+03  0.13013691955E+03  0.24891605776E+03  0.00000000000E+00 0.  1.
</event>
<event>
 5    1  0.2540860E-005  0.2640746E+03  0.7818608E-02  0.1023347E+00
         21   -1    0    0  501  502  0.00000000000E+00  0.00000000000E+00  0.57739015105E+02  0.57739015105E+02  0.00000000000E+00 0. -1.
          4   -1    0    0  502    0 -0.00000000000E+00 -0.00000000000E+00 -0.17841940068E+04  0.17841940068E+04  0.00000000000E+00 0.  1.
        -13    1    1    2    0    0  0.25551220347E+03  0.63578450499E+02 -0.92863930339E+03  0.96524591294E+03  0.10566000000E+00 0.  1.
         13    1    1    2    0    0 -0.25055956689E+03 -0.88119687678E+02 -0.80733462895E+03  0.84990257688E+03  0.10566000000E+00 0. -1.
          4    1    1    2  501    0 -0.49526365753E+01  0.24541237179E+02  0.95189405984E+01  0.26784532130E+02  0.00000000000E+00 0.  1.
</event>
<event>
 5    1  0.2540860E-005  0.4409319E+02  0.7818608E-02  0.1317905E+00
         21   -1    0    0  501  502  0.00000000000E+00  0.00000000000E+00  0.23233097688E+03  0.23233097688E+03  0.00000000000E+00 0. -1.
         -4   -1    0    0    0  501 -0.00000000000E+00 -0.00000000000E+00 -0.35816944565E+02  0.35816944565E+02  0.00000000000E+00 0. -1.
        -13    1    1    2    0    0  0.39346578681E+02  0.18975146296E+02  0.36845103209E+01  0.43838296171E+02  0.10566000000E+00 0.  1.
         13    1    1    2    0    0 -0.47227348099E+02 -0.11493044930E+02  0.20341361760E+03  0.20914020053E+03  0.10566000000E+00 0. -1.
         -4    1    1    2    0  502  0.78807694184E+01 -0.74821013655E+01 -0.10584095600E+02  0.15169424746E+02  0.00000000000E+00 0. -1.
</event>
<event>
 5    1  0.2540860E-005  0.4780904E+03  0.7818608E-02  0.9768290E-01
         21   -1    0    0  501  502  0.00000000000E+00  0.00000000000E+00  0.73543830712E+03  0.73543830712E+03  0.00000000000E+00 0. -1.
         -4   -1    0    0    0  501 -0.00000000000E+00 -0.00000000000E+00 -0.54352777547E+03  0.54352777547E+03  0.00000000000E+00 0. -1.
        -13    1    1    2    0    0 -0.18541320445E+03  0.86525629728E+02 -0.82484670987E+02  0.22060932232E+03  0.10566000000E+00 0.  1.
         13    1    1    2    0    0 -0.81411815504E+02  0.37733991714E+03 -0.10775665012E+03  0.40078024350E+03  0.10566000000E+00 0. -1.
         -4    1    1    2    0  502  0.26682501995E+03 -0.46386554686E+03  0.38215185276E+03  0.65757651677E+03  0.00000000000E+00 0. -1.
</event>
<event>
 5    1  0.2540860E-005  0.1327615E+03  0.7818608E-02  0.1119477E+00
         -4   -1    0    0    0  501 -0.00000000000E+00  0.00000000000E+00  0.88167475063E+02  0.88167475063E+02  0.00000000000E+00 0. -1.
         21   -1    0    0  501  502  0.00000000000E+00 -0.00000000000E+00 -0.30527609756E+03  0.30527609756E+03  0.00000000000E+00 0.  1.
        -13    1    1    2    0    0 -0.10928449545E+03  0.41770068145E+00 -0.15732728139E+03  0.19155980804E+03  0.10566000000E+00 0.  1.
         13    1    1    2    0    0  0.14409375498E+03 -0.29944521798E+02 -0.46571879242E+02  0.15436526717E+03  0.10566000000E+00 0. -1.
         -4    1    1    2    0  502 -0.34809259523E+02  0.29526821116E+02 -0.13209461865E+02  0.47518497415E+02  0.00000000000E+00 0. -1.
</event>
<event>
 5    1  0.2540860E-005  0.3277547E+03  0.7818608E-02  0.9964655E-01
          4   -1    0    0  502    0 -0.00000000000E+00  0.00000000000E+00  0.36842748571E+03  0.36842748571E+03  0.00000000000E+00 0.  1.
         21   -1    0    0  501  502  0.00000000000E+00 -0.00000000000E+00 -0.66971570500E+03  0.66971570500E+03  0.00000000000E+00 0. -1.
        -13    1    1    2    0    0  0.17916996027E+03 -0.24093222881E+03  0.10927887872E+03  0.31951854100E+03  0.10566000000E+00 0.  1.
         13    1    1    2    0    0 -0.27821621721E+03  0.29402108233E+03 -0.14451151194E+03  0.42980954924E+03  0.10566000000E+00 0. -1.
          4    1    1    2  501    0  0.99046256932E+02 -0.53088853520E+02 -0.26605558606E+03  0.28881510046E+03  0.00000000000E+00 0.  1.
</event>
<event>
 5    1  0.2586973E-005  0.5611321E+03  0.7818608E-02  0.9353188E-01
         -4   -1    0    0    0  501 -0.00000000000E+00  0.00000000000E+00  0.25005854923E+04  0.25005854923E+04  0.00000000000E+00 0. -1.
         21   -1    0    0  501  502  0.00000000000E+00 -0.00000000000E+00 -0.52433848336E+03  0.52433848336E+03  0.00000000000E+00 0.  1.
        -13    1    1    2    0    0 -0.18365994511E+03 -0.87468522889E+03  0.11217408847E+04  0.14342621269E+04  0.10566000000E+00 0.  1.
         13    1    1    2    0    0  0.30094560610E+03  0.35752499476E+03  0.94355631007E+03  0.10529439212E+04  0.10566000000E+00 0. -1.
         -4    1    1    2    0  502 -0.11728566099E+03  0.51716023413E+03 -0.89050185834E+02  0.53771792758E+03  0.00000000000E+00 0. -1.
</event>
<event>
 5    1  0.2540860E-005  0.2126880E+03  0.7818608E-02  0.1051769E+00
          4   -1    0    0  502    0 -0.00000000000E+00  0.00000000000E+00  0.97439309689E+03  0.97439309689E+03  0.00000000000E+00 0.  1.
         21   -1    0    0  501  502  0.00000000000E+00 -0.00000000000E+00 -0.76255832087E+02  0.76255832087E+02  0.00000000000E+00 0.  1.
        -13    1    1    2    0    0  0.38337760626E+02 -0.20699326168E+03  0.35216706422E+03  0.41028971052E+03  0.10566000000E+00 0.  1.
         13    1    1    2    0    0  0.87486007548E+01  0.21624123194E+03  0.55112785661E+03  0.59209689570E+03  0.10566000000E+00 0. -1.
          4    1    1    2  501    0 -0.47086361380E+02 -0.92479702583E+01 -0.51576560292E+01  0.48262322754E+02  0.00000000000E+00 0.  1.
</event>
<event>
 5    1  0.2540860E-005  0.4699992E+03  0.7818608E-02  0.9689406E-01
         21   -1    0    0  501  502  0.00000000000E+00  0.00000000000E+00  0.16385548814E+03  0.16385548814E+03  0.00000000000E+00 0. -1.
         -4   -1    0    0    0  501 -0.00000000000E+00 -0.00000000000E+00 -0.27397834305E+04  0.27397834305E+04  0.00000000000E+00 0. -1.
        -13    1    1    2    0    0 -0.56582019997E+02  0.27728974932E+03 -0.10331668327E+04  0.10712258610E+04  0.10566000000E+00 0.  1.
         13    1    1    2    0    0 -0.19465792494E+03  0.25591364585E+03 -0.92170578921E+03  0.97617881297E+03  0.10566000000E+00 0. -1.
         -4    1    1    2    0  502  0.25123994494E+03 -0.53320339516E+03 -0.62105532044E+03  0.85623424458E+03  0.00000000000E+00 0. -1.
</event>
<event>
 5    1  0.2540860E-005  0.6996242E+03  0.7818608E-02  0.9123524E-01
         21   -1    0    0  501  502  0.00000000000E+00  0.00000000000E+00  0.79093207430E+03  0.79093207430E+03  0.00000000000E+00 0. -1.
          4   -1    0    0  502    0 -0.00000000000E+00 -0.00000000000E+00 -0.10544143101E+04  0.10544143101E+04  0.00000000000E+00 0.  1.
        -13    1    1    2    0    0 -0.54788765878E+02 -0.69525602360E+03 -0.62375311814E+03  0.93565523072E+03  0.10566000000E+00 0.  1.
         13    1    1    2    0    0  0.48553712216E+02  0.70441900659E+03  0.17945785230E+03  0.72853876474E+03  0.10566000000E+00 0. -1.
          4    1    1    2  501    0  0.62350536620E+01 -0.91629829854E+01  0.18081303009E+03  0.18115238889E+03  0.00000000000E+00 0.  1.
</event>
<event>
 5    1  0.2540860E-005  0.4149607E+03  0.7818608E-02  0.9879400E-01
         -4   -1    0    0    0  501 -0.00000000000E+00  0.00000000000E+00  0.14989153864E+04  0.14989153864E+04  0.00000000000E+00 0. -1.
         21   -1    0    0  501  502  0.00000000000E+00 -0.00000000000E+00 -0.29606635249E+03  0.29606635249E+03  0.00000000000E+00 0. -1.
        -13    1    1    2    0    0  0.34381951441E+02  0.21175524345E+03  0.50655815061E+03  0.55011232747E+03  0.10566000000E+00 0.  1.
         13    1    1    2    0    0 -0.18646758564E+03  0.32872524757E+03  0.38272335296E+02  0.37986212196E+03  0.10566000000E+00 0. -1.
         -4    1    1    2    0  502  0.15208563420E+03 -0.54048049103E+03  0.65801854799E+03  0.86500728946E+03  0.00000000000E+00 0. -1.
</event>
<event>
 5    1  0.2540860E-005  0.5002626E+03  0.7818608E-02  0.9932183E-01
         21   -1    0    0  501  502  0.00000000000E+00  0.00000000000E+00  0.15028095454E+03  0.15028095454E+03  0.00000000000E+00 0. -1.
         -4   -1    0    0    0  501 -0.00000000000E+00 -0.00000000000E+00 -0.21277396978E+04  0.21277396978E+04  0.00000000000E+00 0. -1.
        -13    1    1    2    0    0 -0.48772563254E+02 -0.90310868103E+02 -0.79553492805E+02  0.12985986757E+03  0.10566000000E+00 0.  1.
         13    1    1    2    0    0  0.43879228558E+03  0.32790523069E+03 -0.97097818396E+03  0.11148359319E+04  0.10566000000E+00 0. -1.
         -4    1    1    2    0  502 -0.39001972232E+03 -0.23759436258E+03 -0.92692706655E+03  0.10333248529E+04  0.00000000000E+00 0. -1.
</event>
<event>
 5    1  0.2540860E-005  0.3440588E+03  0.7818608E-02  0.9915006E-01
         21   -1    0    0  501  502  0.00000000000E+00  0.00000000000E+00  0.22061625112E+04  0.22061625112E+04  0.00000000000E+00 0.  1.
         -4   -1    0    0    0  501 -0.00000000000E+00 -0.00000000000E+00 -0.25256087729E+03  0.25256087729E+03  0.00000000000E+00 0. -1.
        -13    1    1    2    0    0 -0.42347183018E+02  0.33138132615E+03  0.93847292566E+03  0.99616178936E+03  0.10566000000E+00 0.  1.
         13    1    1    2    0    0  0.28309501394E+01  0.56653340564E+02 -0.18874250378E+03  0.19708211277E+03  0.10566000000E+00 0. -1.
         -4    1    1    2    0  502  0.39516232879E+02 -0.38803466672E+03  0.12038712121E+04  0.12654794864E+04  0.00000000000E+00 0. -1.
</event>
<event>
 5    1  0.2540860E-005  0.6804712E+03  0.7818608E-02  0.9151799E-01
         21   -1    0    0  501  502  0.00000000000E+00  0.00000000000E+00  0.19348793079E+03  0.19348793079E+03  0.00000000000E+00 0.  1.
          4   -1    0    0  502    0 -0.00000000000E+00 -0.00000000000E+00 -0.41647193374E+04  0.41647193374E+04  0.00000000000E+00 0.  1.
        -13    1    1    2    0    0 -0.56732834224E+02 -0.85068240009E+03 -0.14920743266E+04  0.17184775144E+04  0.10566000000E+00 0.  1.
         13    1    1    2    0    0 -0.10434519936E+03  0.59563911678E+03 -0.16242700583E+04  0.17331840963E+04  0.10566000000E+00 0. -1.
          4    1    1    2  501    0  0.16107803359E+03  0.25504328331E+03 -0.85488702168E+03  0.90654565748E+03  0.00000000000E+00 0.  1.
</event>
<event>
 5    1  0.2540860E-005  0.6053161E+02  0.7818608E-02  0.1254007E+00
         21   -1    0    0  501  502  0.00000000000E+00  0.00000000000E+00  0.37741416073E+02  0.37741416073E+02  0.00000000000E+00 0.  1.
         -4   -1    0    0    0  501 -0.00000000000E+00 -0.00000000000E+00 -0.16779500756E+03  0.16779500756E+03  0.00000000000E+00 0. -1.
        -13    1    1    2    0    0 -0.26131573866E+02  0.37727304214E+02 -0.22995113896E+02  0.51332202983E+02  0.10566000000E+00 0.  1.
         13    1    1    2    0    0  0.27553209999E+02 -0.70032780432E+02 -0.91035657754E+02  0.11811550221E+03  0.10566000000E+00 0. -1.
         -4    1    1    2    0  502 -0.14216361333E+01  0.32305476218E+02 -0.16022819837E+02  0.36088718438E+02  0.00000000000E+00 0. -1.
</event>
<event>
 5    1  0.2540860E-005  0.3868991E+03  0.7818608E-02  0.9767662E-01
         -4   -1    0    0    0  501 -0.00000000000E+00  0.00000000000E+00  0.24611504455E+04  0.24611504455E+04  0.00000000000E+00 0. -1.
         21   -1    0    0  501  502  0.00000000000E+00 -0.00000000000E+00 -0.40412040321E+03  0.40412040321E+03  0.00000000000E+00 0. -1.
        -13    1    1    2    0    0 -0.84047581938E+02 -0.37477585965E+03  0.17231175230E+04  0.17654050386E+04  0.10566000000E+00 0.  1.
         13    1    1    2    0    0 -0.10463307467E+03  0.46650034316E+03 -0.20603202977E+03  0.52059567703E+03  0.10566000000E+00 0. -1.
         -4    1    1    2    0  502  0.18868065661E+03 -0.91724483511E+02  0.53994454906E+03  0.57927013311E+03  0.00000000000E+00 0. -1.
</event>
<event>
 5    1  0.2540860E-005  0.2784232E+03  0.7818608E-02  0.1049046E+00
         21   -1    0    0  501  502  0.00000000000E+00  0.00000000000E+00  0.10964735915E+04  0.10964735915E+04  0.00000000000E+00 0.  1.
          4   -1    0    0  502    0 -0.00000000000E+00 -0.00000000000E+00 -0.19621697221E+03  0.19621697221E+03  0.00000000000E+00 0.  1.
        -13    1    1    2    0    0  0.17190447795E+03 -0.27698151580E+03  0.40785748867E+02  0.32853218732E+03  0.10566000000E+00 0.  1.
         13    1    1    2    0    0  0.33351706250E+02  0.97242622300E+02  0.59136164559E+02  0.11859831797E+03  0.10566000000E+00 0. -1.
          4    1    1    2  501    0 -0.20525618420E+03  0.17973889350E+03  0.80033470582E+03  0.84556005838E+03  0.00000000000E+00 0.  1.
</event>
<event>
 5    1  0.2540860E-005  0.4745603E+03  0.7818608E-02  0.9588459E-01
         21   -1    0    0  501  502  0.00000000000E+00  0.00000000000E+00  0.21839508225E+03  0.21839508225E+03  0.00000000000E+00 0.  1.
          4   -1    0    0  502    0 -0.00000000000E+00 -0.00000000000E+00 -0.29914957613E+04  0.29914957613E+04  0.00000000000E+00 0.  1.
        -13    1    1    2    0    0  0.17690196602E+03 -0.61609658629E+03 -0.85670818403E+03  0.10699617904E+04  0.10566000000E+00 0.  1.
         13    1    1    2    0    0  0.15913309327E+03  0.35883236459E+03 -0.14834293931E+04  0.15344858366E+04  0.10566000000E+00 0. -1.
          4    1    1    2  501    0 -0.33603505929E+03  0.25726422170E+03 -0.43296310196E+03  0.60544321657E+03  0.00000000000E+00 0.  1.
</event>
<event>
 5    1  0.2540860E-005  0.8259378E+02  0.7818608E-02  0.1209454E+00
         21   -1    0    0  501  502  0.00000000000E+00  0.00000000000E+00  0.29626881450E+03  0.29626881450E+03  0.00000000000E+00 0. -1.
         -4   -1    0    0    0  501 -0.00000000000E+00 -0.00000000000E+00 -0.18096352455E+03  0.18096352455E+03  0.00000000000E+00 0. -1.
        -13    1    1    2    0    0 -0.82394361631E+01  0.13711870098E+03  0.13441476529E+03  0.19218940335E+03  0.10566000000E+00 0.  1.
         13    1    1    2    0    0 -0.14871435118E+02 -0.57824184638E+02 -0.13216832269E+03  0.14502852340E+03  0.10566000000E+00 0. -1.
         -4    1    1    2    0  502  0.23110871281E+02 -0.79294516338E+02  0.11305884734E+03  0.14001441231E+03  0.00000000000E+00 0. -1.
</event>
<event>
 5    1  0.2540860E-005  0.5021781E+03  0.7818608E-02  0.9535154E-01
         21   -1    0    0  501  502  0.00000000000E+00  0.00000000000E+00  0.54052818687E+03  0.54052818687E+03  0.00000000000E+00 0.  1.
          4   -1    0    0  502    0 -0.00000000000E+00 -0.00000000000E+00 -0.22409187920E+04  0.22409187920E+04  0.00000000000E+00 0.  1.
        -13    1    1    2    0    0  0.31504242085E+03 -0.70273058031E+01 -0.52279527812E+02  0.31942803595E+03  0.10566000000E+00 0.  1.
         13    1    1    2    0    0  0.44497204755E+03 -0.34317517137E+03 -0.15134907147E+04  0.16144421563E+04  0.10566000000E+00 0. -1.
          4    1    1    2  501    0 -0.76001446840E+03  0.35020247718E+03 -0.13462036260E+03  0.84757678662E+03  0.00000000000E+00 0.  1.
</event>
<event>
 5    1  0.2540860E-005  0.3122820E+03  0.7818608E-02  0.1002933E+00
         -4   -1    0    0    0  501 -0.00000000000E+00  0.00000000000E+00  0.29788292284E+03  0.29788292284E+03  0.00000000000E+00 0. -1.
         21   -1    0    0  501  502  0.00000000000E+00 -0.00000000000E+00 -0.13660486112E+04  0.13660486112E+04  0.00000000000E+00 0. -1.
        -13    1    1    2    0    0  0.26973200659E+03  0.16310232805E+03 -0.36321366713E+02  0.31729635617E+03  0.10566000000E+00 0.  1.
         13    1    1    2    0    0 -0.25261291148E+03  0.20315945298E+03 -0.90064281660E+03  0.95720663425E+03  0.10566000000E+00 0. -1.
         -4    1    1    2    0  502 -0.17119095116E+02 -0.36626178103E+03 -0.13120150502E+03  0.38942854361E+03  0.00000000000E+00 0. -1.
</event>
<event>
 5    1  0.2540860E-005  0.1941068E+03  0.7818608E-02  0.1064253E+00
         21   -1    0    0  501  502  0.00000000000E+00  0.00000000000E+00  0.33075192400E+03  0.33075192400E+03  0.00000000000E+00 0.  1.
         -4   -1    0    0    0  501 -0.00000000000E+00 -0.00000000000E+00 -0.21075259118E+03  0.21075259118E+03  0.00000000000E+00 0. -1.
        -13    1    1    2    0    0  0.20480987826E+03 -0.32143555248E+02  0.36320426090E+02  0.21047441387E+03  0.10566000000E+00 0.  1.
         13    1    1    2    0    0 -0.18497488925E+03  0.24179472298E+02 -0.52013917183E+02  0.19366418172E+03  0.10566000000E+00 0. -1.
         -4    1    1    2    0  502 -0.19834989010E+02  0.79640829493E+01  0.13569282391E+03  0.13736591960E+03  0.00000000000E+00 0. -1.
</event>
<event>
 5    1  0.2540860E-005  0.4791023E+03  0.7818608E-02  0.9756104E-01
         21   -1    0    0  501  502  0.00000000000E+00  0.00000000000E+00  0.26308918113E+04  0.26308918113E+04  0.00000000000E+00 0.  1.
          4   -1    0    0  502    0 -0.00000000000E+00 -0.00000000000E+00 -0.30876704523E+03  0.30876704523E+03  0.00000000000E+00 0.  1.
        -13    1    1    2    0    0 -0.18645334214E+03  0.36003442248E+03  0.10820814964E+04  0.11555474937E+04  0.10566000000E+00 0.  1.
         13    1    1    2    0    0 -0.26771596643E+02  0.21032211588E+03 -0.15455786736E+03  0.26237426768E+03  0.10566000000E+00 0. -1.
          4    1    1    2  501    0  0.21322493879E+03 -0.57035653836E+03  0.13946011371E+04  0.15217370952E+04  0.00000000000E+00 0.  1.
</event>
<event>
 5    1  0.2540860E-005  0.2766872E+03  0.7818608E-02  0.1021062E+00
         21   -1    0    0  501  502  0.00000000000E+00  0.00000000000E+00  0.13283322867E+03  0.13283322867E+03  0.00000000000E+00 0.  1.
          4   -1    0    0  502    0 -0.00000000000E+00 -0.00000000000E+00 -0.17079022801E+04  0.17079022801E+04  0.00000000000E+00 0.  1.
        -13    1    1    2    0    0 -0.29492539233E+02 -0.33294258675E+03 -0.66474520879E+03  0.74404756549E+03  0.10566000000E+00 0.  1.
         13    1    1    2    0    0 -0.19099328201E+03  0.15606152399E+03 -0.70617367670E+03  0.74800728999E+03  0.10566000000E+00 0. -1.
          4    1    1    2  501    0  0.22048582124E+03  0.17688106276E+03 -0.20415016598E+03  0.34868065332E+03  0.00000000000E+00 0.  1.
</event>
<event>
 5    1  0.2540860E-005  0.7561604E+03  0.7818608E-02  0.9045261E-01
          4   -1    0    0  502    0 -0.00000000000E+00  0.00000000000E+00  0.24091806525E+04  0.24091806525E+04  0.00000000000E+00 0.  1.
         21   -1    0    0  501  502  0.00000000000E+00 -0.00000000000E+00 -0.35624483630E+03  0.35624483630E+03  0.00000000000E+00 0. -1.
        -13    1    1    2    0    0  0.11309884777E+03 -0.90708785600E+03  0.10077742163E+04  0.13605912722E+04  0.10566000000E+00 0.  1.
         13    1    1    2    0    0  0.89363144873E+01  0.64134112119E+03  0.64937333370E+03  0.91273436942E+03  0.10566000000E+00 0. -1.
          4    1    1    2  501    0 -0.12203516226E+03  0.26574673481E+03  0.39578826617E+03  0.49209984711E+03  0.00000000000E+00 0.  1.
</event>
<event>
 5    1  0.2540860E-005  0.4989281E+03  0.7818608E-02  0.9644436E-01
         -4   -1    0    0    0  501 -0.00000000000E+00  0.00000000000E+00  0.22717313100E+04  0.22717313100E+04  0.00000000000E+00 0. -1.
         21   -1    0    0  501  502  0.00000000000E+00 -0.00000000000E+00 -0.22849824435E+03  0.22849824435E+03  0.00000000000E+00 0. -1.
        -13    1    1    2    0    0 -0.13947260155E+03  0.23931139208E+03  0.88354240289E+03  0.92594262124E+03  0.10566000000E+00 0.  1.
         13    1    1    2    0    0 -0.37225777819E+03 -0.34455925551E+03  0.77191178439E+03  0.92365835028E+03  0.10566000000E+00 0. -1.
         -4    1    1    2    0  502  0.51173037974E+03  0.10524786343E+03  0.38777887841E+03  0.65062858287E+03  0.00000000000E+00 0. -1.
</event>
<event>
 5    1  0.2540860E-005  0.4995645E+03  0.7818608E-02  0.1022442E+00
         21   -1    0    0  501  502  0.00000000000E+00  0.00000000000E+00  0.32552452112E+03  0.32552452112E+03  0.00000000000E+00 0.  1.
          4   -1    0    0  502    0 -0.00000000000E+00 -0.00000000000E+00 -0.10142939587E+04  0.10142939587E+04  0.00000000000E+00 0.  1.
        -13    1    1    2    0    0  0.23750549928E+03 -0.46306605834E+03 -0.25522646788E+03  0.57963747088E+03  0.10566000000E+00 0.  1.
         13    1    1    2    0    0 -0.87694322799E+01  0.39157202262E+02 -0.23629143733E+03  0.23967445411E+03  0.10566000000E+00 0. -1.
          4    1    1    2  501    0 -0.22873606700E+03  0.42390885608E+03 -0.19725153238E+03  0.52050655484E+03  0.00000000000E+00 0.  1.
</event>
<event>
 5    1  0.2540860E-005  0.1193944E+03  0.7818608E-02  0.1135941E+00
         -4   -1    0    0    0  501 -0.00000000000E+00  0.00000000000E+00  0.76047392170E+03  0.76047392170E+03  0.00000000000E+00 0. -1.
         21   -1    0    0  501  502  0.00000000000E+00 -0.00000000000E+00 -0.57172083317E+02  0.57172083317E+02  0.00000000000E+00 0.  1.
        -13    1    1    2    0    0 -0.79102641125E+02  0.91401103687E+02  0.11974596762E+03  0.17014845728E+03  0.10566000000E+00 0.  1.
         13    1    1    2    0    0  0.20171347290E+02 -0.12106115762E+03  0.56610249379E+03  0.57925359885E+03  0.10566000000E+00 0. -1.
         -4    1    1    2    0  502  0.58931293835E+02  0.29660053935E+02  0.17453376970E+02  0.68243948891E+02  0.00000000000E+00 0. -1.
</event>
<event>
 5    1  0.2540860E-005  0.1613641E+03  0.7818608E-02  0.1090415E+00
         21   -1    0    0  501  502  0.00000000000E+00  0.00000000000E+00  0.15198631292E+03  0.15198631292E+03  0.00000000000E+00 0. -1.
          4   -1    0    0  502    0 -0.00000000000E+00 -0.00000000000E+00 -0.25598136572E+03  0.25598136572E+03  0.00000000000E+00 0.  1.
        -13    1    1    2    0    0 -0.14001747284E+03  0.75961405136E+02 -0.11133124973E+03  0.19434424638E+03  0.10566000000E+00 0.  1.
         13    1    1    2    0    0  0.15685467962E+03 -0.54868912317E+02 -0.28665498234E+02  0.16862891215E+03  0.10566000000E+00 0. -1.
          4    1    1    2  501    0 -0.16837206785E+02 -0.21092492819E+02  0.36001695164E+02  0.44994520115E+02  0.00000000000E+00 0.  1.
</event>
<event>
 5    1  0.2540860E-005  0.4367342E+03  0.7818608E-02  0.9628588E-01
         21   -1    0    0  501  502  0.00000000000E+00  0.00000000000E+00  0.31395433646E+03  0.31395433646E+03  0.00000000000E+00 0.  1.
          4   -1    0    0  502    0 -0.00000000000E+00 -0.00000000000E+00 -0.23890902934E+04  0.23890902934E+04  0.00000000000E+00 0.  1.
        -13    1    1    2    0    0 -0.19890598353E+03  0.68293206699E+03 -0.72347478914E+03  0.10145814803E+04  0.10566000000E+00 0.  1.
         13    1    1    2    0    0  0.88732798527E+02 -0.37403473433E+03 -0.13010144567E+04  0.13566186345E+04  0.10566000000E+00 0. -1.
          4    1    1    2  501    0  0.11017318501E+03 -0.30889733266E+03 -0.50646711161E+02  0.33184451505E+03  0.00000000000E+00 0.  1.
</event>
<event>
 5    1  0.2540860E-005  0.4945318E+03  0.7818608E-02  0.9729379E-01
         -4   -1    0    0    0  501 -0.00000000000E+00  0.00000000000E+00  0.17664818151E+04  0.17664818151E+04  0.00000000000E+00 0. -1.
         21   -1    0    0  501  502  0.00000000000E+00 -0.00000000000E+00 -0.24269738181E+03  0.24269738181E+03  0.00000000000E+00 0. -1.
        -13    1    1    2    0    0  0.19574812279E+03  0.79894714937E+02  0.48578842191E+03  0.52980269448E+03  0.10566000000E+00 0.  1.
         13    1    1    2    0    0 -0.38235654696E+03  0.35471898818E+03  0.29671007908E+03  0.60004914113E+03  0.10566000000E+00 0. -1.
         -4    1    1    2    0  502  0.18660842417E+03 -0.43461370312E+03  0.74128593231E+03  0.87932736131E+03  0.00000000000E+00 0. -1.
</event>
<event>
 5    1  0.2540860E-005  0.2399876E+02  0.7818608E-02  0.1472687E+00
         21   -1    0    0  501  502  0.00000000000E+00  0.00000000000E+00  0.73697156100E+02  0.73697156100E+02  0.00000000000E+00 0.  1.
          4   -1    0    0  502    0 -0.00000000000E+00 -0.00000000000E+00 -0.42114591834E+02  0.42114591834E+02  0.00000000000E+00 0.  1.
        -13    1    1    2    0    0  0.30605132433E+02 -0.18804026853E+02 -0.14386929158E+02  0.38694449883E+02  0.10566000000E+00 0.  1.
         13    1    1    2    0    0 -0.19931487587E+02 -0.19070280991E+01 -0.53765607866E+01  0.20732089222E+02  0.10566000000E+00 0. -1.
          4    1    1    2  501    0 -0.10673644846E+02  0.20711054952E+02  0.51346054211E+02  0.56385208828E+02  0.00000000000E+00 0.  1.
</event>
<event>
 5    1  0.2540860E-005  0.4592497E+03  0.7818608E-02  0.9843298E-01
         -4   -1    0    0    0  501 -0.00000000000E+00  0.00000000000E+00  0.23726135936E+03  0.23726135936E+03  0.00000000000E+00 0. -1.
         21   -1    0    0  501  502  0.00000000000E+00 -0.00000000000E+00 -0.15419589754E+04  0.15419589754E+04  0.00000000000E+00 0. -1.
        -13    1    1    2    0    0 -0.16689127160E+03  0.63999811516E+02 -0.31339314422E+03  0.36078240869E+03  0.10566000000E+00 0.  1.
         13    1    1    2    0    0  0.29817726105E+03 -0.46621998346E+03 -0.36620421989E+03  0.66360853958E+03  0.10566000000E+00 0. -1.
         -4    1    1    2    0  502 -0.13128598945E+03  0.40222017194E+03 -0.62510025198E+03  0.75482938653E+03  0.00000000000E+00 0. -1.
</event>
<event>
 5    1  0.2540860E-005  0.4109526E+02  0.7818608E-02  0.1332998E+00
         21   -1    0    0  501  502  0.00000000000E+00  0.00000000000E+00  0.11135539345E+03  0.11135539345E+03  0.00000000000E+00 0.  1.
         -4   -1    0    0    0  501 -0.00000000000E+00 -0.00000000000E+00 -0.40280019102E+02  0.40280019102E+02  0.00000000000E+00 0. -1.
        -13    1    1    2    0    0 -0.14166359991E+02  0.37375721958E+02  0.38296075136E+02  0.55355495501E+02  0.10566000000E+00 0.  1.
         13    1    1    2    0    0 -0.80502676775E+01 -0.42263406548E+02 -0.13181779754E+02  0.44997475755E+02  0.10566000000E+00 0. -1.
         -4    1    1    2    0  502  0.22216627668E+02  0.48876845907E+01  0.45961078970E+02  0.51282441300E+02  0.00000000000E+00 0. -1.
</event>
<event>
 5    1  0.2540860E-005  0.2361861E+03  0.7818608E-02  0.1038903E+00
         -4   -1    0    0    0  501 -0.00000000000E+00  0.00000000000E+00  0.12941131497E+04  0.12941131497E+04  0.00000000000E+00 0. -1.
         21   -1    0    0  501  502  0.00000000000E+00 -0.00000000000E+00 -0.43844210244E+03  0.43844210244E+03  0.00000000000E+00 0. -1.
        -13    1    1    2    0    0  0.28241395164E+03  0.20897411809E+03  0.49179510821E+03  0.60439247326E+03  0.10566000000E+00 0.  1.
         13    1    1    2    0    0 -0.42294004591E+02 -0.21184621794E+03  0.69007891754E+03  0.72310201665E+03  0.10566000000E+00 0. -1.
         -4    1    1    2    0  502 -0.24011994705E+03  0.28720998554E+01 -0.32620297849E+03  0.40506076224E+03  0.00000000000E+00 0. -1.
</event>
<event>
 5    1  0.2540860E-005  0.2223783E+03  0.7818608E-02  0.1050650E+00
         21   -1    0    0  501  502  0.00000000000E+00  0.00000000000E+00  0.10358043394E+04  0.10358043394E+04  0.00000000000E+00 0.  1.
          4   -1    0    0  502    0 -0.00000000000E+00 -0.00000000000E+00 -0.18324001315E+03  0.18324001315E+03  0.00000000000E+00 0.  1.
        -13    1    1    2    0    0  0.31355999476E+03 -0.21179778912E+03  0.13270247671E+03  0.40098395514E+03  0.10566000000E+00 0.  1.
         13    1    1    2    0    0 -0.13084594564E+03  0.14100691147E+03  0.34045133565E+03  0.39103802077E+03  0.10566000000E+00 0. -1.
          4    1    1    2  501    0 -0.18271404911E+03  0.70790877650E+02  0.37941051384E+03  0.42702237660E+03  0.00000000000E+00 0.  1.
</event>
<event>
 5    1  0.2540860E-005  0.2660297E+03  0.7818608E-02  0.1022405E+00
          4   -1    0    0  502    0 -0.00000000000E+00  0.00000000000E+00  0.73051812021E+03  0.73051812021E+03  0.00000000000E+00 0.  1.
         21   -1    0    0  501  502  0.00000000000E+00 -0.00000000000E+00 -0.13393562549E+03  0.13393562549E+03  0.00000000000E+00 0. -1.
        -13    1    1    2    0    0 -0.23213491218E+03 -0.15627017041E+03  0.28882330349E+03  0.40215158263E+03  0.10566000000E+00 0.  1.
         13    1    1    2    0    0  0.22914014428E+03  0.11470654617E+03  0.32779220194E+03  0.41606554324E+03  0.10566000000E+00 0. -1.
          4    1    1    2  501    0  0.29947678967E+01  0.41563624242E+02 -0.20033010705E+02  0.46236619824E+02  0.00000000000E+00 0.  1.
</event>
<event>
 5    1  0.2540860E-005  0.1291572E+03  0.7818608E-02  0.1123701E+00
         21   -1    0    0  501  502  0.00000000000E+00  0.00000000000E+00  0.21288279284E+03  0.21288279284E+03  0.00000000000E+00 0.  1.
         -4   -1    0    0    0  501 -0.00000000000E+00 -0.00000000000E+00 -0.23677242456E+03  0.23677242456E+03  0.00000000000E+00 0. -1.
        -13    1    1    2    0    0  0.60592117301E+02 -0.93624575479E+02  0.53820833068E+02  0.12382915266E+03  0.10566000000E+00 0.  1.
         13    1    1    2    0    0 -0.50635737054E+02  0.12410925596E+03 -0.17669041366E+03  0.22178051927E+03  0.10566000000E+00 0. -1.
         -4    1    1    2    0  502 -0.99563802467E+01 -0.30484680482E+02  0.98979948881E+02  0.10404554547E+03  0.00000000000E+00 0. -1.
</event>
<event>
 5    1  0.2540860E-005  0.1252815E+03  0.7818608E-02  0.1128414E+00
          4   -1    0    0  502    0 -0.00000000000E+00  0.00000000000E+00  0.96736200470E+03  0.96736200470E+03  0.00000000000E+00 0.  1.
         21   -1    0    0  501  502  0.00000000000E+00 -0.00000000000E+00 -0.38611739183E+02  0.38611739183E+02  0.00000000000E+00 0. -1.
        -13    1    1    2    0    0 -0.11799045712E+03 -0.23967368213E+02  0.68512463380E+03  0.69562343097E+03  0.10566000000E+00 0.  1.
         13    1    1    2    0    0  0.14378414539E+03  0.13216579286E+02  0.24268400989E+03  0.28238997548E+03  0.10566000000E+00 0. -1.
          4    1    1    2  501    0 -0.25793688273E+02  0.10750788926E+02  0.94162182435E+00  0.27960337425E+02  0.00000000000E+00 0.  1.
</event>
<event>
 5    1  0.2540860E-005  0.3051040E+03  0.7818608E-02  0.1005221E+00
         21   -1    0    0  501  502  0.00000000000E+00  0.00000000000E+00  0.15040652324E+04  0.15040652324E+04  0.00000000000E+00 0. -1.
         -4   -1    0    0    0  501 -0.00000000000E+00 -0.00000000000E+00 -0.13339778073E+03  0.13339778073E+03  0.00000000000E+00 0. -1.
        -13    1    1    2    0    0 -0.21516986086E+02  0.30265276033E+03  0.29142515016E+03  0.42070215513E+03  0.10566000000E+00 0.  1.
         13    1    1    2    0    0 -0.83830724037E+01 -0.30735038960E+03  0.27667348321E+03  0.41362152430E+03  0.10566000000E+00 0. -1.
         -4    1    1    2    0  502  0.29900058489E+02  0.46976292689E+01  0.80256881828E+03  0.80313933368E+03  0.00000000000E+00 0. -1.
</event>
<event>
 5    1  0.2540860E-005  0.8846295E+03  0.7818608E-02  0.8891269E-01
         21   -1    0    0  501  502  0.00000000000E+00  0.00000000000E+00  0.16615377512E+04  0.16615377512E+04  0.00000000000E+00 0. -1.
          4   -1    0    0  502    0 -0.00000000000E+00 -0.00000000000E+00 -0.11455464094E+04  0.11455464094E+04  0.00000000000E+00 0.  1.
        -13    1    1    2    0    0 -0.37291343878E+03  0.63623190078E+03 -0.16347554018E+03  0.75536728007E+03  0.10566000000E+00 0.  1.
         13    1    1    2    0    0  0.70918839765E+03 -0.90711047082E+03 -0.10505049080E+03  0.11562150347E+04  0.10566000000E+00 0. -1.
          4    1    1    2  501    0 -0.33627495887E+03  0.27087857004E+03  0.78451737279E+03  0.89550184583E+03  0.00000000000E+00 0.  1.
</event>
<event>
 5    1  0.2540860E-005  0.4158069E+03  0.7818608E-02  0.9684472E-01
          4   -1    0    0  502    0 -0.00000000000E+00  0.00000000000E+00  0.17819647110E+04  0.17819647110E+04  0.00000000000E+00 0.  1.
         21   -1    0    0  501  502  0.00000000000E+00 -0.00000000000E+00 -0.29190996555E+03  0.29190996555E+03  0.00000000000E+00 0.  1.
        -13    1    1    2    0    0 -0.23904938746E+03 -0.35990233333E+03  0.15531203236E+04  0.16120970969E+04  0.10566000000E+00 0.  1.
         13    1    1    2    0    0  0.13824211616E+03  0.29774082860E+03 -0.14412787575E+01  0.32827210077E+03  0.10566000000E+00 0. -1.
          4    1    1    2  501    0  0.10080727130E+03  0.62161504729E+02 -0.61624299361E+02  0.13350547888E+03  0.00000000000E+00 0.  1.
</event>
<event>
 5    1  0.2540860E-005  0.3438536E+03  0.7818608E-02  0.9906900E-01
         21   -1    0    0  501  502  0.00000000000E+00  0.00000000000E+00  0.69493400579E+03  0.69493400579E+03  0.00000000000E+00 0. -1.
         -4   -1    0    0    0  501 -0.00000000000E+00 -0.00000000000E+00 -0.82000711002E+03  0.82000711002E+03  0.00000000000E+00 0. -1.
        -13    1    1    2    0    0 -0.11242278412E+03 -0.32590430610E+03 -0.66287167128E+03  0.74716220654E+03  0.10566000000E+00 0.  1.
         13    1    1    2    0    0  0.26395346960E+03  0.25800422861E+03  0.44284926882E+03  0.57650073907E+03  0.10566000000E+00 0. -1.
         -4    1    1    2    0  502 -0.15153068548E+03  0.67900077489E+02  0.94949298229E+02  0.19127817021E+03  0.00000000000E+00 0. -1.
</event>
<event>
 5    1  0.2540860E-005  0.1460203E+02  0.7818608E-02  0.1614936E+00
         -4   -1    0    0    0  501 -0.00000000000E+00  0.00000000000E+00  0.51617528883E+02  0.51617528883E+02  0.00000000000E+00 0. -1.
         21   -1    0    0  501  502  0.00000000000E+00 -0.00000000000E+00 -0.36968072527E+02  0.36968072527E+02  0.00000000000E+00 0. -1.
        -13    1    1    2    0    0 -0.42849738794E+01  0.11754949883E+02  0.12567980121E+02  0.17734292663E+02  0.10566000000E+00 0.  1.
         13    1    1    2    0    0  0.15308024166E+02 -0.20558633228E+02  0.30067816918E+02  0.39510476868E+02  0.10566000000E+00 0. -1.
         -4    1    1    2    0  502 -0.11023050287E+02  0.88036833450E+01 -0.27986340683E+02  0.31340831879E+02  0.00000000000E+00 0. -1.
</event>
<event>
 5    1  0.2540860E-005  0.1553463E+02  0.7818608E-02  0.1583563E+00
         21   -1    0    0  501  502  0.00000000000E+00  0.00000000000E+00  0.74589447253E+03  0.74589447253E+03  0.00000000000E+00 0.  1.
          4   -1    0    0  502    0 -0.00000000000E+00 -0.00000000000E+00 -0.56935941312E+02  0.56935941312E+02  0.00000000000E+00 0.  1.
        -13    1    1    2    0    0 -0.15767470744E+02  0.20081005956E+01 -0.53652160343E+02  0.55957225407E+02  0.10566000000E+00 0.  1.
         13    1    1    2    0    0  0.67191451380E+01 -0.12010622660E+02  0.20827179368E+02  0.24963664244E+02  0.10566000000E+00 0. -1.
          4    1    1    2  501    0  0.90483256062E+01  0.10002522064E+02  0.72178351220E+03  0.72190952420E+03  0.00000000000E+00 0.  1.
</event>
<event>
 5    1  0.2540860E-005  0.2786628E+03  0.7818608E-02  0.1016523E+00
          4   -1    0    0  502    0 -0.00000000000E+00  0.00000000000E+00  0.86754539260E+03  0.86754539260E+03  0.00000000000E+00 0.  1.
         21   -1    0    0  501  502  0.00000000000E+00 -0.00000000000E+00 -0.20404790384E+03  0.20404790384E+03  0.00000000000E+00 0. -1.
        -13    1    1    2    0    0  0.37886471216E+02 -0.28002918331E+03  0.69385971115E+03  0.74919492666E+03  0.10566000000E+00 0.  1.
         13    1    1    2    0    0 -0.34450346791E+02  0.25955095367E+03  0.25244239163E+02  0.26304145438E+03  0.10566000000E+00 0. -1.
          4    1    1    2  501    0 -0.34361244244E+01  0.20478229635E+02 -0.55606461553E+02  0.59356915406E+02  0.00000000000E+00 0.  1.
</event>
<event>
 5    1  0.3241110E-005  0.5151920E+03  0.7818608E-02  0.9445282E-01
         21   -1    0    0  501  502  0.00000000000E+00  0.00000000000E+00  0.38726307908E+03  0.38726307908E+03  0.00000000000E+00 0.  1.
          4   -1    0    0  502    0 -0.00000000000E+00 -0.00000000000E+00 -0.17696333262E+04  0.17696333262E+04  0.00000000000E+00 0.  1.
        -13    1    1    2    0    0  0.52330822621E+03 -0.20547198169E+02 -0.10251194630E+04  0.11511488225E+04  0.10566000000E+00 0.  1.
         13    1    1    2    0    0 -0.48252474546E+03  0.19434920012E+03 -0.54032800382E+03  0.75003740203E+03  0.10566000000E+00 0. -1.
          4    1    1    2  501    0 -0.40783480747E+02 -0.17380200195E+03  0.18307721968E+03  0.25571018077E+03  0.00000000000E+00 0.  1.
</event>
<event>
 5    1  0.2540860E-005  0.2846328E+03  0.7818608E-02  0.1013858E+00
         21   -1    0    0  501  502  0.00000000000E+00  0.00000000000E+00  0.93714344671E+02  0.93714344671E+02  0.00000000000E+00 0. -1.
          4   -1    0    0  502    0 -0.00000000000E+00 -0.00000000000E+00 -0.10461509741E+04  0.10461509741E+04  0.00000000000E+00 0.  1.
        -13    1    1    2    0    0 -0.88113381823E+02  0.26365636324E+03 -0.43777783963E+03  0.51858277446E+03  0.10566000000E+00 0.  1.
         13    1    1    2    0    0  0.60197679984E+02 -0.28570251473E+03 -0.50674424345E+03  0.58484136912E+03  0.10566000000E+00 0. -1.
          4    1    1    2  501    0  0.27915701839E+02  0.22046151493E+02 -0.79145463381E+01  0.36441175180E+02  0.00000000000E+00 0.  1.
</event>
<event>
 5    1  0.2540860E-005  0.2666526E+03  0.7818608E-02  0.1022107E+00
          4   -1    0    0  502    0 -0.00000000000E+00  0.00000000000E+00  0.21525462420E+04  0.21525462420E+04  0.00000000000E+00 0.  1.
         21   -1    0    0  501  502  0.00000000000E+00 -0.00000000000E+00 -0.41189759384E+02  0.41189759384E+02  0.00000000000E+00 0.  1.
        -13    1    1    2    0    0  0.27129506646E+02  0.27921359469E+03  0.11649020986E+04  0.11982041362E+04  0.10566000000E+00 0.  1.
         13    1    1    2    0    0  0.36215490017E-01 -0.25283224969E+03  0.90377991926E+03  0.93847871655E+03  0.10566000000E+00 0. -1.
          4    1    1    2  501    0 -0.27165722136E+02 -0.26381345001E+02  0.42674464747E+02  0.57053148596E+02  0.00000000000E+00 0.  1.
</event>
<event>
 5    1  0.2540860E-005  0.4578649E+03  0.7818608E-02  0.9575437E-01
          4   -1    0    0  502    0 -0.00000000000E+00  0.00000000000E+00  0.36941092318E+03  0.36941092318E+03  0.00000000000E+00 0.  1.
         21   -1    0    0  501  502  0.00000000000E+00 -0.00000000000E+00 -0.10688989338E+04  0.10688989338E+04  0.00000000000E+00 0.  1.
        -13    1    1    2    0    0 -0.53565043317E+03 -0.27636799328E+01 -0.72215249071E+02  0.54050354101E+03  0.10566000000E+00 0.  1.
         13    1    1    2    0    0  0.38130102814E+03  0.28348058929E+02 -0.17739807736E+03  0.42150228413E+03  0.10566000000E+00 0. -1.
          4    1    1    2  501    0  0.15434940503E+03 -0.25584378996E+02 -0.44987468416E+03  0.47630403182E+03  0.00000000000E+00 0.  1.
</event>
<event>
 5    1  0.2540860E-005  0.3402164E+03  0.7818608E-02  0.9919650E-01
         21   -1    0    0  501  502  0.00000000000E+00  0.00000000000E+00  0.22922091028E+03  0.22922091028E+03  0.00000000000E+00 0.  1.
         -4   -1    0    0    0  501 -0.00000000000E+00 -0.00000000000E+00 -0.55722894347E+03  0.55722894347E+03  0.00000000000E+00 0. -1.
        -13    1    1    2    0    0 -0.62152912248E+02 -0.33929273247E+03 -0.15033985124E+03  0.37627732438E+03  0.10566000000E+00 0.  1.
         13    1    1    2    0    0  0.54174402465E+02  0.33181247882E+03 -0.19575004222E+03  0.38904045699E+03  0.10566000000E+00 0. -1.
         -4    1    1    2    0  502  0.79785097831E+01  0.74802536505E+01  0.18081860260E+02  0.21132072390E+02  0.00000000000E+00 0. -1.
</event>
<event>
 5    1  0.2540860E-005  0.4703231E+03  0.7818608E-02  0.9673921E-01
          4   -1    0    0  502    0 -0.00000000000E+00  0.00000000000E+00  0.24269667406E+04  0.24269667406E+04  0.00000000000E+00 0.  1.
         21   -1    0    0  501  502  0.00000000000E+00 -0.00000000000E+00 -0.41185846681E+03  0.41185846681E+03  0.00000000000E+00 0.  1.
        -13    1    1    2    0    0 -0.53332406659E+03 -0.37453676220E+03  0.14306141839E+03  0.66721730106E+03  0.10566000000E+00 0.  1.
         13    1    1    2    0    0  0.20470473541E+03  0.21674148889E+03  0.17673662039E+04  0.17923348491E+04  0.10566000000E+00 0. -1.
          4    1    1    2  501    0  0.32861933119E+03  0.15779527331E+03  0.10468065151E+03  0.37927305719E+03  0.00000000000E+00 0.  1.
</event>
<event>
 5    1  0.2540860E-005  0.7119084E+03  0.7818608E-02  0.9105880E-01
         21   -1    0    0  501  502  0.00000000000E+00  0.00000000000E+00  0.38291622008E+03  0.38291622008E+03  0.00000000000E+00 0.  1.
         -4   -1    0    0    0  501 -0.00000000000E+00 -0.00000000000E+00 -0.24071320060E+04  0.24071320060E+04  0.00000000000E+00 0. -1.
        -13    1    1    2    0    0  0.66833991611E+03  0.67350808309E+02 -0.88534321099E+03  0.11113266789E+04  0.10566000000E+00 0.  1.
         13    1    1    2    0    0 -0.75160064217E+03  0.21348166307E+03 -0.11444793514E+04  0.13857528433E+04  0.10566000000E+00 0. -1.
         -4    1    1    2    0  502  0.83260726052E+02 -0.28083247137E+03  0.56067765059E+01  0.29296870383E+03  0.00000000000E+00 0. -1.
</event>
<event>
 5    1  0.2540860E-005  0.1291822E+03  0.7818608E-02  0.1123672E+00
         21   -1    0    0  501  502  0.00000000000E+00  0.00000000000E+00  0.30625585427E+03  0.30625585427E+03  0.00000000000E+00 0.  1.
         -4   -1    0    0    0  501 -0.00000000000E+00 -0.00000000000E+00 -0.10825646017E+03  0.10825646017E+03  0.00000000000E+00 0. -1.
        -13    1    1    2    0    0  0.88920091981E+02  0.10929693304E+03  0.17743520134E+03  0.22657419131E+03  0.10566000000E+00 0.  1.
         13    1    1    2    0    0 -0.88608316323E+02 -0.90242457826E+02 -0.33316478740E+02  0.13078659654E+03  0.10566000000E+00 0. -1.
         -4    1    1    2    0  502 -0.31177565866E+00 -0.19054475211E+02  0.53880671499E+02  0.57151526583E+02  0.00000000000E+00 0. -1.
</event>
<event>
 5    1  0.8706193E-005  0.4016982E+03  0.7818608E-02  0.1035041E+00
         21   -1    0    0  501  502  0.00000000000E+00  0.00000000000E+00  0.20131752978E+03  0.20131752978E+03  0.00000000000E+00 0.  1.
          4   -1    0    0  502    0 -0.00000000000E+00 -0.00000000000E+00 -0.14424791822E+04  0.14424791822E+04  0.00000000000E+00 0.  1.
        -13    1    1    2    0    0  0.67555727602E+02 -0.36092514621E+03 -0.98240386286E+03  0.10487841048E+04  0.10566000000E+00 0.  1.
         13    1    1    2    0    0 -0.22354199948E+02 -0.47216223873E+02 -0.16600494167E+03  0.17403084174E+03  0.10566000000E+00 0. -1.
          4    1    1    2  501    0 -0.45201527654E+02  0.40814137009E+03 -0.92752847918E+02  0.42098176549E+03  0.00000000000E+00 0.  1.
</event>
<event>
 5    1  0.2540860E-005  0.9740477E+03  0.7818608E-02  0.8799365E-01
         21   -1    0    0  501  502  0.00000000000E+00  0.00000000000E+00  0.51916356433E+03  0.51916356433E+03  0.00000000000E+00 0.  1.
         -4   -1    0    0    0  501 -0.00000000000E+00 -0.00000000000E+00 -0.24348689338E+04  0.24348689338E+04  0.00000000000E+00 0. -1.
        -13    1    1    2    0    0 -0.14436679571E+03 -0.87418384916E+03 -0.60579663490E+03  0.10733260212E+04  0.10566000000E+00 0.  1.
         13    1    1    2    0    0  0.18155329085E+03  0.10595813029E+04 -0.80937195372E+03  0.13456437514E+04  0.10566000000E+00 0. -1.
         -4    1    1    2    0  502 -0.37186495139E+02 -0.18539745376E+03 -0.50053678081E+03  0.53506272550E+03  0.00000000000E+00 0. -1.
</event>
<event>
 5    1  0.2540860E-005  0.4866461E+03  0.7818608E-02  0.9997315E-01
         21   -1    0    0  501  502  0.00000000000E+00  0.00000000000E+00  0.20416207993E+03  0.20416207993E+03  0.00000000000E+00 0. -1.
         -4   -1    0    0    0  501 -0.00000000000E+00 -0.00000000000E+00 -0.14086430345E+04  0.14086430345E+04  0.00000000000E+00 0. -1.
        -13    1    1    2    0    0  0.16748511392E+02 -0.88352687446E+02 -0.76509886232E+02  0.11806982624E+03  0.10566000000E+00 0.  1.
         13    1    1    2    0    0  0.69590339063E+02  0.52099274049E+03 -0.48657646400E+03  0.71626316212E+03  0.10566000000E+00 0. -1.
         -4    1    1    2    0  502 -0.86338850454E+02 -0.43264005304E+03 -0.64139460433E+03  0.77847212607E+03  0.00000000000E+00 0. -1.
</event>
<event>
 5    1  0.2540860E-005  0.5117038E+03  0.7818608E-02  0.9463943E-01
         -4   -1    0    0    0  501 -0.00000000000E+00  0.00000000000E+00  0.79333530367E+03  0.79333530367E+03  0.00000000000E+00 0. -1.
         21   -1    0    0  501  502  0.00000000000E+00 -0.00000000000E+00 -0.96666596151E+03  0.96666596151E+03  0.00000000000E+00 0. -1.
        -13    1    1    2    0    0 -0.37882726264E+03  0.35967058069E+03  0.21078384419E+03  0.56329642434E+03  0.10566000000E+00 0.  1.
         13    1    1    2    0    0  0.52051268593E+03  0.19489061059E+03 -0.13197839856E+03  0.57125661060E+03  0.10566000000E+00 0. -1.
         -4    1    1    2    0  502 -0.14168542329E+03 -0.55456119128E+03 -0.25213610347E+03  0.62544823025E+03  0.00000000000E+00 0. -1.
</event>
<event>
 5    1  0.2540860E-005  0.3707570E+03  0.7818608E-02  0.9824618E-01
          4   -1    0    0  502    0 -0.00000000000E+00  0.00000000000E+00  0.28170498952E+04  0.28170498952E+04  0.00000000000E+00 0.  1.
         21   -1    0    0  501  502  0.00000000000E+00 -0.00000000000E+00 -0.22102366953E+03  0.22102366953E+03  0.00000000000E+00 0.  1.
        -13    1    1    2    0    0 -0.46222880402E+02 -0.23065419852E+03 -0.29495383789E+02  0.23708205920E+03  0.10566000000E+00 0.  1.
         13    1    1    2    0    0  0.42112776201E+03  0.21442037327E+03  0.73662496527E+03  0.87518057510E+03  0.10566000000E+00 0. -1.
          4    1    1    2  501    0 -0.37490488161E+03  0.16233825248E+02  0.18888966442E+04  0.19258109305E+04  0.00000000000E+00 0.  1.
</event>
<event>
 5    1  0.2540860E-005  0.4772779E+03  0.7818608E-02  0.9529215E-01
          4   -1    0    0  502    0 -0.00000000000E+00  0.00000000000E+00  0.16546135909E+04  0.16546135909E+04  0.00000000000E+00 0.  1.
         21   -1    0    0  501  502  0.00000000000E+00 -0.00000000000E+00 -0.40160866095E+03  0.40160866095E+03  0.00000000000E+00 0.  1.
        -13    1    1    2    0    0 -0.45484219692E+03  0.24292188628E+03 -0.39852008683E+02  0.51718532529E+03  0.10566000000E+00 0.  1.
         13    1    1    2    0    0  0.48449881495E+03  0.65656794789E+02  0.56055643348E+03  0.74382352926E+03  0.10566000000E+00 0. -1.
          4    1    1    2  501    0 -0.29656618036E+02 -0.30857868107E+03  0.73230050514E+03  0.79521339729E+03  0.00000000000E+00 0.  1.
</event>
<event>
 5    1  0.2540860E-005  0.1176437E+03  0.7818608E-02  0.1138271E+00
         -4   -1    0    0    0  501 -0.00000000000E+00  0.00000000000E+00  0.39375612650E+03  0.39375612650E+03  0.00000000000E+00 0. -1.
         21   -1    0    0  501  502  0.00000000000E+00 -0.00000000000E+00 -0.11234481744E+03  0.11234481744E+03  0.00000000000E+00 0.  1.
        -13    1    1    2    0    0 -0.27239112968E+02  0.10895269117E+03 -0.39766758624E+02  0.11913884524E+03  0.10566000000E+00 0.  1.
         13    1    1    2    0    0  0.39571752339E+02 -0.11155870742E+03  0.34239772781E+03  0.36228094617E+03  0.10566000000E+00 0. -1.
         -4    1    1    2    0  502 -0.12332639370E+02  0.26060162457E+01 -0.21219660124E+02  0.24681152531E+02  0.00000000000E+00 0. -1.
</event>
<event>
 5    1  0.2540860E-005  0.1293275E+03  0.7818608E-02  0.1123498E+00
         21   -1    0    0  501  502  0.00000000000E+00  0.00000000000E+00  0.23261209645E+02  0.23261209645E+02  0.00000000000E+00 0.  1.
         -4   -1    0    0    0  501 -0.00000000000E+00 -0.00000000000E+00 -0.10264041781E+04  0.10264041781E+04  0.00000000000E+00 0. -1.
        -13    1    1    2    0    0  0.97294206417E+02  0.80390534869E+02 -0.63824468602E+03  0.65060363594E+03  0.10566000000E+00 0.  1.
         13    1    1    2    0    0 -0.11127325712E+03 -0.77986221824E+02 -0.35871484588E+03  0.38358824325E+03  0.10566000000E+00 0. -1.
         -4    1    1    2    0  502  0.13979050701E+02 -0.24043130451E+01 -0.61834365792E+01  0.15473508576E+02  0.00000000000E+00 0. -1.
</event>
<event>
 5    1  0.2540860E-005  0.2537662E+03  0.7818608E-02  0.1028721E+00
         21   -1    0    0  501  502  0.00000000000E+00  0.00000000000E+00  0.44495517175E+03  0.44495517175E+03  0.00000000000E+00 0. -1.
         -4   -1    0    0    0  501 -0.00000000000E+00 -0.00000000000E+00 -0.10914519109E+04  0.10914519109E+04  0.00000000000E+00 0. -1.
        -13    1    1    2    0    0  0.25110871285E+03 -0.17479291355E+02 -0.42688840655E+03  0.49557525574E+03  0.10566000000E+00 0.  1.
         13    1    1    2    0    0  0.23442852311E+03  0.28034751835E+02  0.26488610535E+03  0.35483424261E+03  0.10566000000E+00 0. -1.
         -4    1    1    2    0  502 -0.48553723596E+03 -0.10555460480E+02 -0.48449443797E+03  0.68599758430E+03  0.00000000000E+00 0. -1.
</event>
<event>
 5    1  0.2540860E-005  0.1690967E+02  0.7818608E-02  0.1572036E+00
         -4   -1    0    0    0  501 -0.00000000000E+00  0.00000000000E+00  0.27199982672E+02  0.27199982672E+02  0.00000000000E+00 0. -1.
         21   -1    0    0  501  502  0.00000000000E+00 -0.00000000000E+00 -0.47156263258E+03  0.47156263258E+03  0.00000000000E+00 0. -1.
        -13    1    1    2    0    0 -0.13390747696E+02  0.29622164184E+02 -0.82559533495E+02  0.88729208662E+02  0.10566000000E+00 0.  1.
         13    1    1    2    0    0  0.96506238964E+01 -0.11431650649E+02  0.21548118452E+02  0.26232608544E+02  0.10566000000E+00 0. -1.
         -4    1    1    2    0  502  0.37401237994E+01 -0.18190513535E+02 -0.38335123486E+03  0.38380079804E+03  0.00000000000E+00 0. -1.
</event>
<event>
 5    1  0.2540860E-005  0.6730802E+03  0.7818608E-02  0.9162971E-01
          4   -1    0    0  502    0 -0.00000000000E+00  0.00000000000E+00  0.55624840037E+03  0.55624840037E+03  0.00000000000E+00 0.  1.
         21   -1    0    0  501  502  0.00000000000E+00 -0.00000000000E+00 -0.13817571679E+04  0.13817571679E+04  0.00000000000E+00 0.  1.
        -13    1    1    2    0    0  0.33735610262E+03  0.73728229930E+03 -0.26820027727E+03  0.85400569596E+03  0.10566000000E+00 0.  1.
         13    1    1    2    0    0 -0.42009297696E+03 -0.39416985159E+03 -0.32426049668E+03  0.66105435637E+03  0.10566000000E+00 0. -1.
          4    1    1    2  501    0  0.82736874342E+02 -0.34311244771E+03 -0.23304799362E+03  0.42294551597E+03  0.00000000000E+00 0.  1.
</event>
<event>
 5    1  0.2540860E-005  0.4089242E+03  0.7818608E-02  0.9940879E-01
         -4   -1    0    0    0  501 -0.00000000000E+00  0.00000000000E+00  0.30004996545E+03  0.30004996545E+03  0.00000000000E+00 0. -1.
         21   -1    0    0  501  502  0.00000000000E+00 -0.00000000000E+00 -0.12747264039E+04  0.12747264039E+04  0.00000000000E+00 0. -1.
        -13    1    1    2    0    0  0.16534141070E+03  0.77430343741E+02 -0.29546658375E+02  0.18494933471E+03  0.10566000000E+00 0.  1.
         13    1    1    2    0    0 -0.36618724411E+03 -0.39526343801E+03 -0.23817283209E+03  0.58911169764E+03  0.10566000000E+00 0. -1.
         -4    1    1    2    0  502  0.20084583341E+03  0.31783309427E+03 -0.70695694801E+03  0.80071533703E+03  0.00000000000E+00 0. -1.
</event>
<event>
 5    1  0.2540860E-005  0.5347098E+03  0.7818608E-02  0.9404976E-01
         21   -1    0    0  501  502  0.00000000000E+00  0.00000000000E+00  0.30393287913E+03  0.30393287913E+03  0.00000000000E+00 0.  1.
          4   -1    0    0  502    0 -0.00000000000E+00 -0.00000000000E+00 -0.21509263228E+04  0.21509263228E+04  0.00000000000E+00 0.  1.
        -13    1    1    2    0    0  0.37654610235E+03  0.58594790345E+03 -0.76455557877E+03  0.10342471450E+04  0.10566000000E+00 0.  1.
         13    1    1    2    0    0  0.19634832733E+02 -0.48676910276E+03 -0.74843380120E+03  0.89301895389E+03  0.10566000000E+00 0. -1.
          4    1    1    2  501    0 -0.39618093508E+03 -0.99178800689E+02 -0.33400406373E+03  0.52759310308E+03  0.00000000000E+00 0.  1.
</event>
<event>
 5    1  0.2540860E-005  0.3765566E+03  0.7818608E-02  0.9799304E-01
         21   -1    0    0  501  502  0.00000000000E+00  0.00000000000E+00  0.36009688535E+03  0.36009688535E+03  0.00000000000E+00 0. -1.
          4   -1    0    0  502    0 -0.00000000000E+00 -0.00000000000E+00 -0.13616564117E+04  0.13616564117E+04  0.00000000000E+00 0.  1.
        -13    1    1    2    0    0 -0.24526938349E+03 -0.53037999527E+03 -0.84729004885E+02  0.59045662440E+03  0.10566000000E+00 0.  1.
         13    1    1    2    0    0 -0.77725350937E+01  0.33510473043E+03 -0.38178992922E+03  0.50805428241E+03  0.10566000000E+00 0. -1.
          4    1    1    2  501    0  0.25304191859E+03  0.19527526485E+03 -0.53504059220E+03  0.62324239019E+03  0.00000000000E+00 0.  1.
</event>
<event>
 5    1  0.2540860E-005  0.1478525E+02  0.7818608E-02  0.1598841E+00
          4   -1    0    0  502    0 -0.00000000000E+00  0.00000000000E+00  0.40488933156E+02  0.40488933156E+02  0.00000000000E+00 0.  1.
         21   -1    0    0  501  502  0.00000000000E+00 -0.00000000000E+00 -0.18859649665E+02  0.18859649665E+02  0.00000000000E+00 0. -1.
        -13    1    1    2    0    0 -0.87189819751E+01  0.86029195610E+01  0.12823662116E+02  0.17733819266E+02  0.10566000000E+00 0.  1.
         13    1    1    2    0    0  0.18528564255E+02 -0.18810318564E+02  0.42534548630E+01  0.26743949225E+02  0.10566000000E+00 0. -1.
          4    1    1    2  501    0 -0.98095822801E+01  0.10207399003E+02  0.45521665119E+01  0.14870814331E+02  0.00000000000E+00 0.  1.
</event>
<event>
 5    1  0.2540860E-005  0.2515930E+03  0.7818608E-02  0.1029571E+00
         -4   -1    0    0    0  501 -0.00000000000E+00  0.00000000000E+00  0.46741061898E+03  0.46741061898E+03  0.00000000000E+00 0. -1.
         21   -1    0    0  501  502  0.00000000000E+00 -0.00000000000E+00 -0.61780527902E+03  0.61780527902E+03  0.00000000000E+00 0.  1.
        -13    1    1    2    0    0  0.12808616073E+03  0.27141914516E+03 -0.42586962670E+03  0.52099843286E+03  0.10566000000E+00 0.  1.
         13    1    1    2    0    0 -0.12477918834E+03 -0.21415381470E+03  0.37490512716E+03  0.44942804510E+03  0.10566000000E+00 0. -1.
         -4    1    1    2    0  502 -0.33069723844E+01 -0.57265330459E+02 -0.99430160487E+02  0.11478942004E+03  0.00000000000E+00 0. -1.
</event>
<event>
 5    1  0.2540860E-005  0.5037186E+03  0.7818608E-02  0.9973767E-01
          4   -1    0    0  502    0 -0.00000000000E+00  0.00000000000E+00  0.11994021331E+04  0.11994021331E+04  0.00000000000E+00 0.  1.
         21   -1    0    0  501  502  0.00000000000E+00 -0.00000000000E+00 -0.25830298214E+03  0.25830298214E+03  0.00000000000E+00 0.  1.
        -13    1    1    2    0    0  0.46206505744E+03  0.28506446958E+03  0.42363448540E+03  0.68864508821E+03  0.10566000000E+00 0.  1.
         13    1    1    2    0    0 -0.51773757969E+02 -0.70681285266E+02  0.20683021233E+02  0.90023133874E+02  0.10566000000E+00 0. -1.
          4    1    1    2  501    0 -0.41029129947E+03 -0.21438318432E+03  0.49678164431E+03  0.67903689315E+03  0.00000000000E+00 0.  1.
</event>
<event>
 5    1  0.2540860E-005  0.2128647E+03  0.7818608E-02  0.1051657E+00
          4   -1    0    0  502    0 -0.00000000000E+00  0.00000000000E+00  0.14792377410E+04  0.14792377410E+04  0.00000000000E+00 0.  1.
         21   -1    0    0  501  502  0.00000000000E+00 -0.00000000000E+00 -0.72354629219E+02  0.72354629219E+02  0.00000000000E+00 0. -1.
        -13    1    1    2    0    0 -0.12796402416E+03  0.16537324372E+03  0.11201250481E+04  0.11394749825E+04  0.10566000000E+00 0.  1.
         13    1    1    2    0    0  0.12749167981E+03 -0.18894632769E+03  0.30608412219E+03  0.38163116250E+03  0.10566000000E+00 0. -1.
          4    1    1    2  501    0  0.47234435662E+00  0.23573083975E+02 -0.19326058437E+02  0.30486225283E+02  0.00000000000E+00 0.  1.
</event>
<event>
 5    1  0.2540860E-005  0.4026543E+03  0.7818608E-02  0.9855757E-01
         21   -1    0    0  501  502  0.00000000000E+00  0.00000000000E+00  0.50705561374E+03  0.50705561374E+03  0.00000000000E+00 0. -1.
         -4   -1    0    0    0  501 -0.00000000000E+00 -0.00000000000E+00 -0.86975752674E+03  0.86975752674E+03  0.00000000000E+00 0. -1.
        -13    1    1    2    0    0 -0.17316250020E+03  0.18618641001E+03 -0.89995116866E+02  0.26972163979E+03  0.10566000000E+00 0.  1.
         13    1    1    2    0    0 -0.10302869770E+03  0.34549650563E+03  0.13215160985E+03  0.38398802989E+03  0.10566000000E+00 0. -1.
         -4    1    1    2    0  502  0.27619119789E+03 -0.53168291564E+03 -0.40485840598E+03  0.72310347079E+03  0.00000000000E+00 0. -1.
</event>
<event>
 5    1  0.2540860E-005  0.2868442E+03  0.7818608E-02  0.1031088E+00
         21   -1    0    0  501  502  0.00000000000E+00  0.00000000000E+00  0.21204798672E+03  0.21204798672E+03  0.00000000000E+00 0. -1.
         -4   -1    0    0    0  501 -0.00000000000E+00 -0.00000000000E+00 -0.16249668564E+04  0.16249668564E+04  0.00000000000E+00 0. -1.
        -13    1    1    2    0    0 -0.13439804728E+03  0.90444083063E+02 -0.34286563154E+03  0.37920946683E+03  0.10566000000E+00 0.  1.
         13    1    1    2    0    0  0.39373142981E+03  0.88183911758E+01 -0.11095111192E+04  0.11773347603E+04  0.10566000000E+00 0. -1.
         -4    1    1    2    0  502 -0.25933338253E+03 -0.99262474239E+02  0.39457881082E+02  0.28047061605E+03  0.00000000000E+00 0. -1.
</event>
<event>
 5    1  0.2540860E-005  0.4489184E+03  0.7818608E-02  0.9781510E-01
         21   -1    0    0  501  502  0.00000000000E+00  0.00000000000E+00  0.58314566393E+03  0.58314566393E+03  0.00000000000E+00 0.  1.
          4   -1    0    0  502    0 -0.00000000000E+00 -0.00000000000E+00 -0.87184868308E+03  0.87184868308E+03  0.00000000000E+00 0.  1.
        -13    1    1    2    0    0  0.15538314741E+03  0.39803515637E+03 -0.25286619624E+03  0.49650501767E+03  0.10566000000E+00 0.  1.
         13    1    1    2    0    0 -0.22602256884E+03  0.68534642195E+02 -0.32747041183E+03  0.40375745268E+03  0.10566000000E+00 0. -1.
          4    1    1    2  501    0  0.70639421428E+02 -0.46656979857E+03  0.29163358893E+03  0.55473187666E+03  0.00000000000E+00 0.  1.
</event>
<event>
 5    1  0.2540860E-005  0.7482925E+02  0.7818608E-02  0.1214598E+00
         -4   -1    0    0    0  501 -0.00000000000E+00  0.00000000000E+00  0.91445682365E+02  0.91445682365E+02  0.00000000000E+00 0. -1.
         21   -1    0    0  501  502  0.00000000000E+00 -0.00000000000E+00 -0.21185746886E+03  0.21185746886E+03  0.00000000000E+00 0.  1.
        -13    1    1    2    0    0 -0.10161930192E+02 -0.88095238661E+02 -0.14691209384E+03  0.17160189503E+03  0.10566000000E+00 0.  1.
         13    1    1    2    0    0  0.16633637394E+02  0.71451281003E+02  0.59315644911E+02  0.94341509131E+02  0.10566000000E+00 0. -1.
         -4    1    1    2    0  502 -0.64717072023E+01  0.16643957658E+02 -0.32815337564E+02  0.37359747056E+02  0.00000000000E+00 0. -1.
</event>
<event>
 5    1  0.2540860E-005  0.4981136E+02  0.7818608E-02  0.1292559E+00
         -4   -1    0    0    0  501 -0.00000000000E+00  0.00000000000E+00  0.49223080575E+02  0.49223080575E+02  0.00000000000E+00 0. -1.
         21   -1    0    0  501  502  0.00000000000E+00 -0.00000000000E+00 -0.30885163933E+03  0.30885163933E+03  0.00000000000E+00 0. -1.
        -13    1    1    2    0    0 -0.29341135634E+02 -0.54596173431E+02 -0.83798006797E+02  0.10422936967E+03  0.10566000000E+00 0.  1.
         13    1    1    2    0    0  0.15235185825E+02  0.45518250504E+02  0.23754506636E+02  0.53556603380E+02  0.10566000000E+00 0. -1.
         -4    1    1    2    0  502  0.14105949809E+02  0.90779229266E+01 -0.19958505860E+03  0.20028874686E+03  0.00000000000E+00 0. -1.
</event>
<event>
 5    1  0.2540860E-005  0.4642820E+03  0.7818608E-02  0.9612288E-01
         -4   -1    0    0    0  501 -0.00000000000E+00  0.00000000000E+00  0.13598090853E+04  0.13598090853E+04  0.00000000000E+00 0. -1.
         21   -1    0    0  501  502  0.00000000000E+00 -0.00000000000E+00 -0.39771258351E+03  0.39771258351E+03  0.00000000000E+00 0. -1.
        -13    1    1    2    0    0 -0.27188972320E+03  0.27275153438E+03  0.39056013088E+03  0.54850218603E+03  0.10566000000E+00 0.  1.
         13    1    1    2    0    0 -0.14031689310E+03  0.31653100305E+03  0.18258295638E+03  0.39142975552E+03  0.10566000000E+00 0. -1.
         -4    1    1    2    0  502  0.41220661630E+03 -0.58928253743E+03  0.38895341454E+03  0.81758972726E+03  0.00000000000E+00 0. -1.
</event>
<event>
 5    1  0.2540860E-005  0.2444555E+02  0.7818608E-02  0.1466146E+00
         -4   -1    0    0    0  501 -0.00000000000E+00  0.00000000000E+00  0.45356284442E+02  0.45356284442E+02  0.00000000000E+00 0. -1.
         21   -1    0    0  501  502  0.00000000000E+00 -0.00000000000E+00 -0.19845877715E+03  0.19845877715E+03  0.00000000000E+00 0.  1.
        -13    1    1    2    0    0  0.32489857508E+02 -0.56514689050E+01 -0.65078351807E+02  0.72957062575E+02  0.10566000000E+00 0.  1.
         13    1    1    2    0    0 -0.10418580075E+02  0.20178553968E+02  0.36813494660E+02  0.43254657601E+02  0.10566000000E+00 0. -1.
         -4    1    1    2    0  502 -0.22071277433E+02 -0.14527085063E+02 -0.12483763556E+03  0.12760334141E+03  0.00000000000E+00 0. -1.
</event>
<event>
 5    1  0.2540860E-005  0.4320105E+03  0.7818608E-02  0.1079650E+00
         21   -1    0    0  501  502  0.00000000000E+00  0.00000000000E+00  0.84492238143E+02  0.84492238143E+02  0.00000000000E+00 0.  1.
          4   -1    0    0  502    0 -0.00000000000E+00 -0.00000000000E+00 -0.31471771675E+04  0.31471771675E+04  0.00000000000E+00 0.  1.
        -13    1    1    2    0    0  0.26454671056E+03 -0.33785991424E+03 -0.23444695762E+04  0.23834160125E+04  0.10566000000E+00 0.  1.
         13    1    1    2    0    0  0.10746485885E+02  0.36457147556E+01 -0.22969717595E+01  0.11578663059E+02  0.10566000000E+00 0. -1.
          4    1    1    2  501    0 -0.27529319644E+03  0.33421419948E+03 -0.71591838137E+03  0.83667473006E+03  0.00000000000E+00 0.  1.
</event>
<event>
 5    1  0.2540860E-005  0.4610863E+03  0.7818608E-02  0.9590900E-01
         21   -1    0    0  501  502  0.00000000000E+00  0.00000000000E+00  0.11470746308E+04  0.11470746308E+04  0.00000000000E+00 0. -1.
         -4   -1    0    0    0  501 -0.00000000000E+00 -0.00000000000E+00 -0.83853928921E+03  0.83853928921E+03  0.00000000000E+00 0. -1.
        -13    1    1    2    0    0 -0.39774886108E+03  0.29476260947E+03 -0.39223524500E+03  0.63161511304E+03  0.10566000000E+00 0.  1.
         13    1    1    2    0    0 -0.35725778977E+02 -0.45192604801E+03 -0.67153068784E+02  0.45828269656E+03  0.10566000000E+00 0. -1.
         -4    1    1    2    0  502  0.43347464005E+03  0.15716343854E+03  0.76792365537E+03  0.89571611042E+03  0.00000000000E+00 0. -1.
</event>
<event>
 5    1  0.2540860E-005  0.2229820E+03  0.7818608E-02  0.1045429E+00
         21   -1    0    0  501  502  0.00000000000E+00  0.00000000000E+00  0.71152969179E+02  0.71152969179E+02  0.00000000000E+00 0.  1.
         -4   -1    0    0    0  501 -0.00000000000E+00 -0.00000000000E+00 -0.13317211246E+04  0.13317211246E+04  0.00000000000E+00 0. -1.
        -13    1    1    2    0    0 -0.15550175544E+03 -0.16381952513E+03 -0.16845871917E+03  0.28177292984E+03  0.10566000000E+00 0.  1.
         13    1    1    2    0    0  0.13440074345E+03  0.17747040655E+03 -0.10355633081E+04  0.10592217337E+04  0.10566000000E+00 0. -1.
         -4    1    1    2    0  502  0.21101011993E+02 -0.13650881419E+02 -0.56546128211E+02  0.61879430236E+02  0.00000000000E+00 0. -1.
</event>
<event>
 5    1  0.2540860E-005  0.5006704E+03  0.7818608E-02  0.9682919E-01
         21   -1    0    0  501  502  0.00000000000E+00  0.00000000000E+00  0.78261610798E+03  0.78261610798E+03  0.00000000000E+00 0.  1.
          4   -1    0    0  502    0 -0.00000000000E+00 -0.00000000000E+00 -0.91210460020E+03  0.91210460020E+03  0.00000000000E+00 0.  1.
        -13    1    1    2    0    0  0.25100607084E+02 -0.45049365475E+03  0.19761038435E+03  0.49256923230E+03  0.10566000000E+00 0.  1.
         13    1    1    2    0    0 -0.21053144019E+03 -0.11413522523E+03 -0.52396205597E+03  0.57609598523E+03  0.10566000000E+00 0. -1.
          4    1    1    2  501    0  0.18543083311E+03  0.56462887998E+03  0.19686317940E+03  0.62605549065E+03  0.00000000000E+00 0.  1.
</event>
<event>
 5    1  0.2540860E-005  0.9582032E+03  0.7818608E-02  0.8814885E-01
         21   -1    0    0  501  502  0.00000000000E+00  0.00000000000E+00  0.49295185356E+03  0.49295185356E+03  0.00000000000E+00 0.  1.
         -4   -1    0    0    0  501 -0.00000000000E+00 -0.00000000000E+00 -0.24992070150E+04  0.24992070150E+04  0.00000000000E+00 0. -1.
        -13    1    1    2    0    0 -0.85355259993E+03  0.19357135977E+03 -0.10157551679E+04  0.13408133667E+04  0.10566000000E+00 0.  1.
         13    1    1    2    0    0  0.10776016910E+04 -0.19342797905E+03 -0.85870447200E+03  0.13914069028E+04  0.10566000000E+00 0. -1.
         -4    1    1    2    0  502 -0.22404909112E+03 -0.14338071691E+00 -0.13179552156E+03  0.25993859908E+03  0.00000000000E+00 0. -1.
</event>
<event>
 5    1  0.2540860E-005  0.5232962E+03  0.7818608E-02  0.9453033E-01
          4   -1    0    0  502    0 -0.00000000000E+00  0.00000000000E+00  0.10894515673E+04  0.10894515673E+04  0.00000000000E+00 0.  1.
         21   -1    0    0  501  502  0.00000000000E+00 -0.00000000000E+00 -0.14079950355E+04  0.14079950355E+04  0.00000000000E+00 0.  1.
        -13    1    1    2    0    0 -0.57621510573E+02 -0.23243073859E+03  0.17201993332E+02  0.24008374885E+03  0.10566000000E+00 0.  1.
         13    1    1    2    0    0  0.20218688696E+03 -0.50893551393E+03  0.75372746764E+03  0.93166517657E+03  0.10566000000E+00 0. -1.
          4    1    1    2  501    0 -0.14456537638E+03  0.74136625252E+03 -0.10894729292E+04  0.13256976774E+04  0.00000000000E+00 0.  1.
</event>
<event>
 5    1  0.2540860E-005  0.4573572E+02  0.7818608E-02  0.1310197E+00
         21   -1    0    0  501  502  0.00000000000E+00  0.00000000000E+00  0.22440309973E+03  0.22440309973E+03  0.00000000000E+00 0. -1.
          4   -1    0    0  502    0 -0.00000000000E+00 -0.00000000000E+00 -0.26595000152E+02  0.26595000152E+02  0.00000000000E+00 0.  1.
        -13    1    1    2    0    0 -0.33415310831E+02 -0.30846800743E+02  0.50120400186E+01  0.45751937917E+02  0.10566000000E+00 0.  1.
         13    1    1    2    0    0  0.24991199223E+02  0.41294078280E+02  0.95255025317E+02  0.10678619738E+03  0.10566000000E+00 0. -1.
          4    1    1    2  501    0  0.84241116079E+01 -0.10447277537E+02  0.97541034244E+02  0.98459964583E+02  0.00000000000E+00 0.  1.
</event>
<event>
 5    1  0.2540860E-005  0.4800812E+03  0.7818608E-02  0.9896824E-01
         21   -1    0    0  501  502  0.00000000000E+00  0.00000000000E+00  0.12535731237E+03  0.12535731237E+03  0.00000000000E+00 0. -1.
         -4   -1    0    0    0  501 -0.00000000000E+00 -0.00000000000E+00 -0.25826460773E+04  0.25826460773E+04  0.00000000000E+00 0. -1.
        -13    1    1    2    0    0  0.11718238653E+03  0.57823986670E+02 -0.24341429860E+03  0.27627134682E+03  0.10566000000E+00 0.  1.
         13    1    1    2    0    0 -0.51580203101E+03 -0.10269942629E+03 -0.76494096676E+03  0.92829607408E+03  0.10566000000E+00 0. -1.
         -4    1    1    2    0  502  0.39861964448E+03  0.44875439616E+02 -0.14489334996E+04  0.15034359688E+04  0.00000000000E+00 0. -1.
</event>
<event>
 5    1  0.2540860E-005  0.4338236E+03  0.7818608E-02  0.9675414E-01
         21   -1    0    0  501  502  0.00000000000E+00  0.00000000000E+00  0.79227108685E+03  0.79227108685E+03  0.00000000000E+00 0.  1.
          4   -1    0    0  502    0 -0.00000000000E+00 -0.00000000000E+00 -0.70549618959E+03  0.70549618959E+03  0.00000000000E+00 0.  1.
        -13    1    1    2    0    0 -0.20368919549E+03  0.40134233342E+03  0.35790577268E+03  0.57503174716E+03  0.10566000000E+00 0.  1.
         13    1    1    2    0    0 -0.27741068888E+03 -0.25662554183E+03 -0.14482896882E+03  0.40470829050E+03  0.10566000000E+00 0. -1.
          4    1    1    2  501    0  0.48109988437E+03 -0.14471679159E+03 -0.12630190660E+03  0.51802723879E+03  0.00000000000E+00 0.  1.
</event>
<event>
 5    1  0.2540860E-005  0.6858928E+02  0.7818608E-02  0.1230478E+00
         21   -1    0    0  501  502  0.00000000000E+00  0.00000000000E+00  0.39609395233E+03  0.39609395233E+03  0.00000000000E+00 0. -1.
          4   -1    0    0  502    0 -0.00000000000E+00 -0.00000000000E+00 -0.97790269110E+02  0.97790269110E+02  0.00000000000E+00 0.  1.
        -13    1    1    2    0    0 -0.66487488947E+02 -0.18486974779E+02 -0.71867284986E+02  0.99635697610E+02  0.10566000000E+00 0.  1.
         13    1    1    2    0    0  0.46847456012E+02  0.47031399209E+02  0.34523685431E+03  0.35156099526E+03  0.10566000000E+00 0. -1.
          4    1    1    2  501    0  0.19640032935E+02 -0.28544424430E+02  0.24934113888E+02  0.42687528566E+02  0.00000000000E+00 0.  1.
</event>
<event>
 5    1  0.2540860E-005  0.3622570E+03  0.7818608E-02  0.9844867E-01
         21   -1    0    0  501  502  0.00000000000E+00  0.00000000000E+00  0.15010373380E+04  0.15010373380E+04  0.00000000000E+00 0. -1.
         -4   -1    0    0    0  501 -0.00000000000E+00 -0.00000000000E+00 -0.40516325219E+03  0.40516325219E+03  0.00000000000E+00 0. -1.
        -13    1    1    2    0    0  0.37249544676E+03  0.20092421248E+02 -0.10358364384E+01  0.37303839932E+03  0.10566000000E+00 0.  1.
         13    1    1    2    0    0 -0.35137336578E+03 -0.45975965514E+02 -0.73803347653E+02  0.36197234269E+03  0.10566000000E+00 0. -1.
         -4    1    1    2    0  502 -0.21122080980E+02  0.25883544267E+02  0.11707132699E+04  0.11711898482E+04  0.00000000000E+00 0. -1.
</event>
<event>
 5    1  0.2540860E-005  0.4972970E+03  0.7818608E-02  0.9649048E-01
         21   -1    0    0  501  502  0.00000000000E+00  0.00000000000E+00  0.34140519378E+03  0.34140519378E+03  0.00000000000E+00 0. -1.
         -4   -1    0    0    0  501 -0.00000000000E+00 -0.00000000000E+00 -0.20651806938E+04  0.20651806938E+04  0.00000000000E+00 0. -1.
        -13    1    1    2    0    0  0.69074982739E+02  0.26640563339E+03 -0.12290312310E+04  0.12594685755E+04  0.10566000000E+00 0.  1.
         13    1    1    2    0    0  0.14105766016E+02 -0.63830752384E+03 -0.21252993981E+03  0.67290746326E+03  0.10566000000E+00 0. -1.
         -4    1    1    2    0  502 -0.83180748754E+02  0.37190189045E+03 -0.28221432916E+03  0.47420984876E+03  0.00000000000E+00 0. -1.
</event>
<event>
 5    1  0.2540860E-005  0.1983025E+03  0.7818608E-02  0.1061306E+00
         21   -1    0    0  501  502  0.00000000000E+00  0.00000000000E+00  0.66434390722E+02  0.66434390722E+02  0.00000000000E+00 0. -1.
          4   -1    0    0  502    0 -0.00000000000E+00 -0.00000000000E+00 -0.10677398899E+04  0.10677398899E+04  0.00000000000E+00 0.  1.
        -13    1    1    2    0    0 -0.16128644672E+03 -0.52184046686E+02 -0.29656492507E+03  0.34159516766E+03  0.10566000000E+00 0.  1.
         13    1    1    2    0    0  0.22881321664E+03 -0.79179815295E+01 -0.64447052125E+03  0.68393014736E+03  0.10566000000E+00 0. -1.
          4    1    1    2  501    0 -0.67526769918E+02  0.60102028215E+02 -0.60270052823E+02  0.10864896557E+03  0.00000000000E+00 0.  1.
</event>
<event>
 5    1  0.2540860E-005  0.2182532E+03  0.7818608E-02  0.1048295E+00
         21   -1    0    0  501  502  0.00000000000E+00  0.00000000000E+00  0.14086687598E+03  0.14086687598E+03  0.00000000000E+00 0. -1.
         -4   -1    0    0    0  501 -0.00000000000E+00 -0.00000000000E+00 -0.18295703354E+04  0.18295703354E+04  0.00000000000E+00 0. -1.
        -13    1    1    2    0    0  0.23272470427E+03  0.18800719128E+03 -0.53514659287E+03  0.61309818054E+03  0.10566000000E+00 0.  1.
         13    1    1    2    0    0 -0.94121080026E+02 -0.18153370739E+03 -0.11951246179E+04  0.12124917022E+04  0.10566000000E+00 0. -1.
         -4    1    1    2    0  502 -0.13860362424E+03 -0.64734838926E+01  0.41567751329E+02  0.14484732858E+03  0.00000000000E+00 0. -1.
</event>
<event>
 5    1  0.2621623E-005  0.3027817E+03  0.7818608E-02  0.1037133E+00
          4   -1    0    0  502    0 -0.00000000000E+00  0.00000000000E+00  0.14472158370E+04  0.14472158370E+04  0.00000000000E+00 0.  1.
         21   -1    0    0  501  502  0.00000000000E+00 -0.00000000000E+00 -0.26654136411E+03  0.26654136411E+03  0.00000000000E+00 0.  1.
        -13    1    1    2    0    0  0.15553462753E+03  0.26699249049E+03  0.87333279546E+03  0.92638339424E+03  0.10566000000E+00 0.  1.
         13    1    1    2    0    0  0.83275719002E+02 -0.78499044643E+02  0.44060897257E+03  0.45522875926E+03  0.10566000000E+00 0. -1.
          4    1    1    2  501    0 -0.23881034653E+03 -0.18849344584E+03 -0.13326729509E+03  0.33214504765E+03  0.00000000000E+00 0.  1.
</event>
<event>
 5    1  0.2540860E-005  0.5943928E+03  0.7818608E-02  0.9292108E-01
         21   -1    0    0  501  502  0.00000000000E+00  0.00000000000E+00  0.31110840388E+03  0.31110840388E+03  0.00000000000E+00 0. -1.
          4   -1    0    0  502    0 -0.00000000000E+00 -0.00000000000E+00 -0.20690468014E+04  0.20690468014E+04  0.00000000000E+00 0.  1.
        -13    1    1    2    0    0  0.39740029496E+03 -0.56169545451E+03 -0.12659440812E+04  0.14408480857E+04  0.10566000000E+00 0.  1.
         13    1    1    2    0    0 -0.21970752315E+03  0.44195216895E+03 -0.52718676749E+03  0.72216273398E+03  0.10566000000E+00 0. -1.
          4    1    1    2  501    0 -0.17769277180E+03  0.11974328556E+03  0.35192451185E+02  0.21714438562E+03  0.00000000000E+00 0.  1.
</event>
<event>
 5    1  0.2540860E-005  0.3588200E+03  0.7818608E-02  0.1004690E+00
          4   -1    0    0  502    0 -0.00000000000E+00  0.00000000000E+00  0.33117243203E+03  0.33117243203E+03  0.00000000000E+00 0.  1.
         21   -1    0    0  501  502  0.00000000000E+00 -0.00000000000E+00 -0.11010778787E+04  0.11010778787E+04  0.00000000000E+00 0.  1.
        -13    1    1    2    0    0  0.32160743459E+03 -0.17456412002E+02  0.10083617880E+03  0.33749668802E+03  0.10566000000E+00 0.  1.
         13    1    1    2    0    0  0.86996320759E+01  0.19063113458E+03 -0.56267549438E+02  0.19895215845E+03  0.10566000000E+00 0. -1.
          4    1    1    2  501    0 -0.33030706667E+03 -0.17317472258E+03 -0.81447407608E+03  0.89580146429E+03  0.00000000000E+00 0.  1.
</event>
<event>
 5    1  0.2540860E-005  0.8732725E+02  0.7818608E-02  0.1187418E+00
          4   -1    0    0  502    0 -0.00000000000E+00  0.00000000000E+00  0.82571219518E+02  0.82571219518E+02  0.00000000000E+00 0.  1.
         21   -1    0    0  501  502  0.00000000000E+00 -0.00000000000E+00 -0.24366259193E+03  0.24366259193E+03  0.00000000000E+00 0.  1.
        -13    1    1    2    0    0 -0.90994275634E+02 -0.11331724016E+02  0.58138195657E+01  0.91881324704E+02  0.10566000000E+00 0.  1.
         13    1    1    2    0    0  0.79516252022E+02  0.22605511610E+02 -0.18030006243E+02  0.84610494502E+02  0.10566000000E+00 0. -1.
          4    1    1    2  501    0  0.11478023613E+02 -0.11273787594E+02 -0.14887518574E+03  0.14974199225E+03  0.00000000000E+00 0.  1.
</event>
<event>
 5    1  0.2540860E-005  0.4967795E+03  0.7818608E-02  0.9750769E-01
          4   -1    0    0  502    0 -0.00000000000E+00  0.00000000000E+00  0.29036926532E+04  0.29036926532E+04  0.00000000000E+00 0.  1.
         21   -1    0    0  501  502  0.00000000000E+00 -0.00000000000E+00 -0.14375465346E+03  0.14375465346E+03  0.00000000000E+00 0.  1.
        -13    1    1    2    0    0 -0.35402900446E+03  0.44285615971E+03  0.74135495364E+03  0.93330878740E+03  0.10566000000E+00 0.  1.
         13    1    1    2    0    0  0.28792522021E+02 -0.19155805841E+03  0.94323632347E+03  0.96292173729E+03  0.10566000000E+00 0. -1.
          4    1    1    2  501    0  0.32523648244E+03 -0.25129810130E+03  0.10753467226E+04  0.11512167820E+04  0.00000000000E+00 0.  1.
</event>
<event>
 5    1  0.2540860E-005  0.2160011E+02  0.7818608E-02  0.1488742E+00
         21   -1    0    0  501  502  0.00000000000E+00  0.00000000000E+00  0.45776953682E+02  0.45776953682E+02  0.00000000000E+00 0.  1.
          4   -1    0    0  502    0 -0.00000000000E+00 -0.00000000000E+00 -0.40337550439E+02  0.40337550439E+02  0.00000000000E+00 0.  1.
        -13    1    1    2    0    0  0.19673351155E+02  0.28804350313E+02  0.18509861516E+02  0.39488700662E+02  0.10566000000E+00 0.  1.
         13    1    1    2    0    0 -0.56674116814E+01 -0.19084186300E+02 -0.20003195788E+02  0.28221706675E+02  0.10566000000E+00 0. -1.
          4    1    1    2  501    0 -0.14005939473E+02 -0.97201640133E+01  0.69327375151E+01  0.18404096784E+02  0.00000000000E+00 0.  1.
</event>
<event>
 5    1  0.2540860E-005  0.9845595E+03  0.7818608E-02  0.9044715E-01
          4   -1    0    0  502    0 -0.00000000000E+00  0.00000000000E+00  0.32450067554E+04  0.32450067554E+04  0.00000000000E+00 0.  1.
         21   -1    0    0  501  502  0.00000000000E+00 -0.00000000000E+00 -0.53863459985E+03  0.53863459985E+03  0.00000000000E+00 0. -1.
        -13    1    1    2    0    0  0.27443424359E+03 -0.81467699957E+02  0.75460706125E+03  0.80708299960E+03  0.10566000000E+00 0.  1.
         13    1    1    2    0    0 -0.23137995813E+03  0.10650853365E+04  0.15898646336E+04  0.19275925460E+04  0.10566000000E+00 0. -1.
          4    1    1    2  501    0 -0.43054285459E+02 -0.98361763654E+03  0.36190046074E+03  0.10489658097E+04  0.00000000000E+00 0.  1.
</event>
<event>
 5    1  0.2540860E-005  0.4188828E+03  0.7818608E-02  0.9676042E-01
         21   -1    0    0  501  502  0.00000000000E+00  0.00000000000E+00  0.52063386568E+03  0.52063386568E+03  0.00000000000E+00 0. -1.
          4   -1    0    0  502    0 -0.00000000000E+00 -0.00000000000E+00 -0.51955815572E+03  0.51955815572E+03  0.00000000000E+00 0.  1.
        -13    1    1    2    0    0  0.25485369281E+03  0.35217582788E+03  0.11926191593E+02  0.43487982673E+03  0.10566000000E+00 0.  1.
         13    1    1    2    0    0 -0.22940523326E+03 -0.33895397038E+03 -0.17029996455E+03  0.44330423432E+03  0.10566000000E+00 0. -1.
          4    1    1    2  501    0 -0.25448459557E+02 -0.13221857510E+02  0.15944948292E+03  0.16200796034E+03  0.00000000000E+00 0.  1.
</event>
<event>
 5    1  0.2540860E-005  0.1369527E+03  0.7818608E-02  0.1114744E+00
         21   -1    0    0  501  502  0.00000000000E+00  0.00000000000E+00  0.25407714731E+03  0.25407714731E+03  0.00000000000E+00 0.  1.
          4   -1    0    0  502    0 -0.00000000000E+00 -0.00000000000E+00 -0.52868796823E+03  0.52868796823E+03  0.00000000000E+00 0.  1.
        -13    1    1    2    0    0  0.83912417797E+02 -0.10167106971E+03 -0.23056012455E+03  0.26558667601E+03  0.10566000000E+00 0.  1.
         13    1    1    2    0    0 -0.84410325151E+02  0.11461755407E+03 -0.26235842961E+03  0.29848658838E+03  0.10566000000E+00 0. -1.
          4    1    1    2  501    0  0.49790735430E+00 -0.12946484360E+02  0.21830773324E+03  0.21869185116E+03  0.00000000000E+00 0.  1.
</event>
<event>
 5    1  0.2540860E-005  0.3148559E+02  0.7818608E-02  0.1393362E+00
         21   -1    0    0  501  502  0.00000000000E+00  0.00000000000E+00  0.12428888260E+03  0.12428888260E+03  0.00000000000E+00 0. -1.
          4   -1    0    0  502    0 -0.00000000000E+00 -0.00000000000E+00 -0.55365354014E+02  0.55365354014E+02  0.00000000000E+00 0.  1.
        -13    1    1    2    0    0 -0.26197361368E+02  0.16692928349E+02 -0.40303171755E+02  0.50885286843E+02  0.10566000000E+00 0.  1.
         13    1    1    2    0    0  0.19354382701E+02 -0.33615659214E+02  0.34719368453E+02  0.52058144261E+02  0.10566000000E+00 0. -1.
          4    1    1    2  501    0  0.68429786667E+01  0.16922730865E+02  0.74507331884E+02  0.76710805506E+02  0.00000000000E+00 0.  1.
</event>
<event>
 5    1  0.2540860E-005  0.3781216E+03  0.7818608E-02  0.1008648E+00
         21   -1    0    0  501  502  0.00000000000E+00  0.00000000000E+00  0.86603275408E+02  0.86603275408E+02  0.00000000000E+00 0. -1.
         -4   -1    0    0    0  501 -0.00000000000E+00 -0.00000000000E+00 -0.30092073370E+04  0.30092073370E+04  0.00000000000E+00 0. -1.
        -13    1    1    2    0    0  0.98360746266E+02  0.10445558158E+03 -0.26895833644E+03  0.30483504201E+03  0.10566000000E+00 0.  1.
         13    1    1    2    0    0  0.29291009353E+03 -0.17579337375E+03 -0.19753876539E+04  0.20047084644E+04  0.10566000000E+00 0. -1.
         -4    1    1    2    0  502 -0.39127083979E+03  0.71337792163E+02 -0.67825807126E+03  0.78626710595E+03  0.00000000000E+00 0. -1.
</event>
<event>
 5    1  0.2540860E-005  0.4257501E+03  0.7818608E-02  0.9657494E-01
         21   -1    0    0  501  502  0.00000000000E+00  0.00000000000E+00  0.97343077960E+03  0.97343077960E+03  0.00000000000E+00 0. -1.
         -4   -1    0    0    0  501 -0.00000000000E+00 -0.00000000000E+00 -0.73658897217E+03  0.73658897217E+03  0.00000000000E+00 0. -1.
        -13    1    1    2    0    0 -0.87152434475E+02  0.46322020525E+03 -0.24886061964E+03  0.53301043569E+03  0.10566000000E+00 0.  1.
         13    1    1    2    0    0 -0.13324518144E+03 -0.38972339205E+03 -0.19648984990E+03  0.45634074218E+03  0.10566000000E+00 0. -1.
         -4    1    1    2    0  502  0.22039761592E+03 -0.73496813194E+02  0.68219227697E+03  0.72066857390E+03  0.00000000000E+00 0. -1.
</event>
<event>
 5    1  0.2540860E-005  0.4529678E+03  0.7818608E-02  0.9737803E-01
         21   -1    0    0  501  502  0.00000000000E+00  0.00000000000E+00  0.22259527667E+03  0.22259527667E+03  0.00000000000E+00 0. -1.
         -4   -1    0    0    0  501 -0.00000000000E+00 -0.00000000000E+00 -0.18628538981E+04  0.18628538981E+04  0.00000000000E+00 0. -1.
        -13    1    1    2    0    0 -0.17665255611E+03 -0.20050930586E+03 -0.39036972403E+03  0.47307360941E+03  0.10566000000E+00 0.  1.
         13    1    1    2    0    0  0.43471743071E+02  0.58515229365E+03 -0.90650138984E+03  0.10798322926E+04  0.10566000000E+00 0. -1.
         -4    1    1    2    0  502  0.13318081303E+03 -0.38464298779E+03 -0.34338750760E+03  0.53254327279E+03  0.00000000000E+00 0. -1.
</event>
<event>
 5    1  0.2540860E-005  0.5101639E+03  0.7818608E-02  0.9601096E-01
          4   -1    0    0  502    0 -0.00000000000E+00  0.00000000000E+00  0.19264152401E+04  0.19264152401E+04  0.00000000000E+00 0.  1.
         21   -1    0    0  501  502  0.00000000000E+00 -0.00000000000E+00 -0.95145037997E+03  0.95145037997E+03  0.00000000000E+00 0.  1.
        -13    1    1    2    0    0 -0.11152288516E+03  0.40605210608E+03 -0.14700084625E+03  0.44601000743E+03  0.10566000000E+00 0.  1.
         13    1    1    2    0    0 -0.29382241938E+03  0.70019859969E+02  0.16103702870E+04  0.16384525832E+04  0.10566000000E+00 0. -1.
          4    1    1    2  501    0  0.40534530454E+03 -0.47607196605E+03 -0.48840458062E+03  0.79340302945E+03  0.00000000000E+00 0.  1.
</event>
<event>
 5    1  0.2540860E-005  0.2488313E+03  0.7818608E-02  0.1031000E+00
         21   -1    0    0  501  502  0.00000000000E+00  0.00000000000E+00  0.26903735401E+03  0.26903735401E+03  0.00000000000E+00 0. -1.
          4   -1    0    0  502    0 -0.00000000000E+00 -0.00000000000E+00 -0.55950290085E+03  0.55950290085E+03  0.00000000000E+00 0.  1.
        -13    1    1    2    0    0 -0.18605116375E+03  0.14307368771E+03 -0.33394820759E+03  0.40817463439E+03  0.10566000000E+00 0.  1.
         13    1    1    2    0    0  0.21523581359E+03 -0.20549696361E+03 -0.52530740730E+02  0.30218363190E+03  0.10566000000E+00 0. -1.
          4    1    1    2  501    0 -0.29184649841E+02  0.62423275903E+02  0.96013401477E+02  0.11818198858E+03  0.00000000000E+00 0.  1.
</event>
<event>
 5    1  0.2540860E-005  0.1962099E+03  0.7818608E-02  0.1062766E+00
         21   -1    0    0  501  502  0.00000000000E+00  0.00000000000E+00  0.19633078778E+03  0.19633078778E+03  0.00000000000E+00 0.  1.
          4   -1    0    0  502    0 -0.00000000000E+00 -0.00000000000E+00 -0.10742588481E+04  0.10742588481E+04  0.00000000000E+00 0.  1.
        -13    1    1    2    0    0  0.42778845390E+02 -0.17115258002E+03 -0.50884662578E+03  0.53856117108E+03  0.10566000000E+00 0.  1.
         13    1    1    2    0    0 -0.86239282461E+02  0.21291716561E+03 -0.52056255792E+03  0.56899588849E+03  0.10566000000E+00 0. -1.
          4    1    1    2  501    0  0.43460437071E+02 -0.41764585587E+02  0.15148112337E+03  0.16303257631E+03  0.00000000000E+00 0.  1.
</event>
<event>
 5    1  0.2540860E-005  0.3278784E+03  0.7818608E-02  0.9964197E-01
         21   -1    0    0  501  502  0.00000000000E+00  0.00000000000E+00  0.11706727000E+04  0.11706727000E+04  0.00000000000E+00 0.  1.
         -4   -1    0    0    0  501 -0.00000000000E+00 -0.00000000000E+00 -0.18249483473E+03  0.18249483473E+03  0.00000000000E+00 0. -1.
        -13    1    1    2    0    0 -0.29243050544E+03  0.12750765918E+03  0.75938902412E+03  0.82367803465E+03  0.10566000000E+00 0.  1.
         13    1    1    2    0    0  0.31038967775E+03 -0.11217868848E+03  0.32332214056E+02  0.33161904866E+03  0.10566000000E+00 0. -1.
         -4    1    1    2    0  502 -0.17959172308E+02 -0.15328970700E+02  0.19645662710E+03  0.19787045142E+03  0.00000000000E+00 0. -1.
</event>
<event>
 5    1  0.2540860E-005  0.4062076E+03  0.7818608E-02  0.9711287E-01
         21   -1    0    0  501  502  0.00000000000E+00  0.00000000000E+00  0.51507859632E+03  0.51507859632E+03  0.00000000000E+00 0. -1.
         -4   -1    0    0    0  501 -0.00000000000E+00 -0.00000000000E+00 -0.10859413412E+04  0.10859413412E+04  0.00000000000E+00 0. -1.
        -13    1    1    2    0    0 -0.33389701037E+03 -0.17861783596E+03 -0.41263816061E+03  0.56005518265E+03  0.10566000000E+00 0.  1.
         13    1    1    2    0    0  0.35973626716E+03  0.24922367311E+03 -0.51529999433E+03  0.67605969889E+03  0.10566000000E+00 0. -1.
         -4    1    1    2    0  502 -0.25839256790E+02 -0.70605837154E+02  0.35707541004E+03  0.36490505599E+03  0.00000000000E+00 0. -1.
</event>
<event>
 5    1  0.2540860E-005  0.4378341E+03  0.7818608E-02  0.9905574E-01
         -4   -1    0    0    0  501 -0.00000000000E+00  0.00000000000E+00  0.15660852357E+04  0.15660852357E+04  0.00000000000E+00 0. -1.
         21   -1    0    0  501  502  0.00000000000E+00 -0.00000000000E+00 -0.29649887047E+03  0.29649887047E+03  0.00000000000E+00 0. -1.
        -13    1    1    2    0    0 -0.15609236940E+03 -0.60197264008E+02  0.65619385610E+03  0.67718455854E+03  0.10566000000E+00 0.  1.
         13    1    1    2    0    0  0.21498509910E+03 -0.38593497969E+03  0.22074522600E+02  0.44232532947E+03  0.10566000000E+00 0. -1.
         -4    1    1    2    0  502 -0.58892729698E+02  0.44613224370E+03  0.59131798648E+03  0.74307421810E+03  0.00000000000E+00 0. -1.
</event>
<event>
 5    1  0.2540860E-005  0.2072448E+03  0.7818608E-02  0.1063910E+00
         -4   -1    0    0    0  501 -0.00000000000E+00  0.00000000000E+00  0.12640597106E+04  0.12640597106E+04  0.00000000000E+00 0. -1.
         21   -1    0    0  501  502  0.00000000000E+00 -0.00000000000E+00 -0.12917201581E+03  0.12917201581E+03  0.00000000000E+00 0.  1.
        -13    1    1    2    0    0 -0.12821660648E+03 -0.97490817821E+02  0.22214100668E+03  0.27439131865E+03  0.10566000000E+00 0.  1.
         13    1    1    2    0    0  0.18185950664E+03  0.28049112903E+03  0.85741267093E+03  0.92027422709E+03  0.10566000000E+00 0. -1.
         -4    1    1    2    0  502 -0.53642900164E+02 -0.18300031121E+03  0.55334017152E+02  0.19856618064E+03  0.00000000000E+00 0. -1.
</event>
<event>
 5    1  0.2540860E-005  0.1433149E+03  0.7818608E-02  0.1107898E+00
         -4   -1    0    0    0  501 -0.00000000000E+00  0.00000000000E+00  0.70454772567E+03  0.70454772567E+03  0.00000000000E+00 0. -1.
         21   -1    0    0  501  502  0.00000000000E+00 -0.00000000000E+00 -0.80450367923E+02  0.80450367923E+02  0.00000000000E+00 0.  1.
        -13    1    1    2    0    0 -0.55316935283E+02 -0.11638224183E+03  0.20200592225E+03  0.23960632990E+03  0.10566000000E+00 0.  1.
         13    1    1    2    0    0  0.80986897618E+02  0.12987527336E+03  0.46727426588E+03  0.49170287261E+03  0.10566000000E+00 0. -1.
         -4    1    1    2    0  502 -0.25669962336E+02 -0.13493031522E+02 -0.45182830370E+02  0.53688891088E+02  0.00000000000E+00 0. -1.
</event>
<event>
 5    1  0.2540860E-005  0.4866746E+03  0.7818608E-02  0.9686715E-01
         21   -1    0    0  501  502  0.00000000000E+00  0.00000000000E+00  0.15279466078E+04  0.15279466078E+04  0.00000000000E+00 0. -1.
         -4   -1    0    0    0  501 -0.00000000000E+00 -0.00000000000E+00 -0.28544317316E+03  0.28544317316E+03  0.00000000000E+00 0. -1.
        -13    1    1    2    0    0 -0.20253699662E+02  0.25650663443E+03  0.68498274013E+02  0.26626657800E+03  0.10566000000E+00 0.  1.
         13    1    1    2    0    0  0.48429520308E+03 -0.22210272917E+02  0.50722230886E+03  0.70164779036E+03  0.10566000000E+00 0. -1.
         -4    1    1    2    0  502 -0.46404150342E+03 -0.23429636151E+03  0.66678285181E+03  0.84547541265E+03  0.00000000000E+00 0. -1.
</event>
<event>
 5    1  0.2540860E-005  0.3084759E+03  0.7818608E-02  0.1037915E+00
         21   -1    0    0  501  502  0.00000000000E+00  0.00000000000E+00  0.15313111092E+04  0.15313111092E+04  0.00000000000E+00 0.  1.
          4   -1    0    0  502    0 -0.00000000000E+00 -0.00000000000E+00 -0.19970152884E+03  0.19970152884E+03  0.00000000000E+00 0.  1.
        -13    1    1    2    0    0 -0.15305713343E+03 -0.26417072705E+03  0.11927706670E+04  0.12312248107E+04  0.10566000000E+00 0.  1.
         13    1    1    2    0    0  0.74498031597E+02 -0.74949294205E+02  0.10675302777E+03  0.15021176224E+03  0.10566000000E+00 0. -1.
          4    1    1    2  501    0  0.78559101830E+02  0.33912002125E+03  0.32085885626E+02  0.34957606519E+03  0.00000000000E+00 0.  1.
</event>
<event>
 5    1  0.2540860E-005  0.4913607E+03  0.7818608E-02  0.9651752E-01
         21   -1    0    0  501  502  0.00000000000E+00  0.00000000000E+00  0.10527563876E+03  0.10527563876E+03  0.00000000000E+00 0.  1.
          4   -1    0    0  502    0 -0.00000000000E+00 -0.00000000000E+00 -0.41403829785E+04  0.41403829785E+04  0.00000000000E+00 0.  1.
        -13    1    1    2    0    0 -0.57020720421E+03  0.14426968730E+03 -0.14294359716E+04  0.15457157586E+04  0.10566000000E+00 0.  1.
         13    1    1    2    0    0  0.18740801169E+03 -0.21153296992E+03 -0.69725402296E+03  0.75235041298E+03  0.10566000000E+00 0. -1.
          4    1    1    2  501    0  0.38279919252E+03  0.67263282620E+02 -0.19084173452E+04  0.19475924457E+04  0.00000000000E+00 0.  1.
</event>
<event>
 5    1  0.2540860E-005  0.4740773E+03  0.7818608E-02  0.9686225E-01
          4   -1    0    0  502    0 -0.00000000000E+00  0.00000000000E+00  0.14629996194E+04  0.14629996194E+04  0.00000000000E+00 0.  1.
         21   -1    0    0  501  502  0.00000000000E+00 -0.00000000000E+00 -0.30335929650E+03  0.30335929650E+03  0.00000000000E+00 0.  1.
        -13    1    1    2    0    0 -0.23338925273E+03  0.53782702774E+03  0.52662004779E+03  0.78807178668E+03  0.10566000000E+00 0.  1.
         13    1    1    2    0    0 -0.98386658037E+02 -0.26090876977E+03  0.39916349974E+03  0.48691357684E+03  0.10566000000E+00 0. -1.
          4    1    1    2  501    0  0.33177591076E+03 -0.27691825797E+03  0.23385677532E+03  0.49137355232E+03  0.00000000000E+00 0.  1.
</event>
<event>
 5    1  0.2540860E-005  0.4620614E+03  0.7818608E-02  0.9565242E-01
         21   -1    0    0  501  502  0.00000000000E+00  0.00000000000E+00  0.67075444671E+03  0.67075444671E+03  0.00000000000E+00 0. -1.
          4   -1    0    0  502    0 -0.00000000000E+00 -0.00000000000E+00 -0.97509089083E+03  0.97509089083E+03  0.00000000000E+00 0.  1.
        -13    1    1    2    0    0 -0.23996034755E+03  0.38465563717E+03 -0.66982140228E+03  0.80882732997E+03  0.10566000000E+00 0.  1.
         13    1    1    2    0    0  0.39824756532E+03 -0.33804466861E+03  0.11150486366E+03  0.53414292754E+03  0.10566000000E+00 0. -1.
          4    1    1    2  501    0 -0.15828721777E+03 -0.46610968555E+02  0.25398009450E+03  0.30287508003E+03  0.00000000000E+00 0.  1.
</event>
<event>
 5    1  0.2540860E-005  0.3077004E+03  0.7818608E-02  0.1005726E+00
         -4   -1    0    0    0  501 -0.00000000000E+00  0.00000000000E+00  0.25296082448E+04  0.25296082448E+04  0.00000000000E+00 0. -1.
         21   -1    0    0  501  502  0.00000000000E+00 -0.00000000000E+00 -0.22816326720E+03  0.22816326720E+03  0.00000000000E+00 0. -1.
        -13    1    1    2    0    0  0.27644026820E+03 -0.15212047583E+03  0.11139759938E+04  0.11578006681E+04  0.10566000000E+00 0.  1.
         13    1    1    2    0    0  0.21866266262E+03 -0.15906343107E+03 -0.65141037861E+01  0.27047546995E+03  0.10566000000E+00 0. -1.
         -4    1    1    2    0  502 -0.49510293083E+03  0.31118390690E+03  0.11939830876E+04  0.13294953740E+04  0.00000000000E+00 0. -1.
</event>
<event>
 5    1  0.2540860E-005  0.2652046E+03  0.7818608E-02  0.1022802E+00
         21   -1    0    0  501  502  0.00000000000E+00  0.00000000000E+00  0.41404495169E+03  0.41404495169E+03  0.00000000000E+00 0. -1.
          4   -1    0    0  502    0 -0.00000000000E+00 -0.00000000000E+00 -0.29234909833E+03  0.29234909833E+03  0.00000000000E+00 0.  1.
        -13    1    1    2    0    0  0.19833421154E+02  0.32058185900E+03  0.67769533110E+02  0.32826637613E+03  0.10566000000E+00 0.  1.
         13    1    1    2    0    0  0.64462936972E+02 -0.21733402613E+03  0.83527069127E+02  0.24159124901E+03  0.10566000000E+00 0. -1.
          4    1    1    2  501    0 -0.84296358126E+02 -0.10324783288E+03 -0.29600748871E+02  0.13653642488E+03  0.00000000000E+00 0.  1.
</event>
<event>
 5    1  0.2540860E-005  0.7324079E+02  0.7818608E-02  0.1218472E+00
          4   -1    0    0  502    0 -0.00000000000E+00  0.00000000000E+00  0.12782264926E+03  0.12782264926E+03  0.00000000000E+00 0.  1.
         21   -1    0    0  501  502  0.00000000000E+00 -0.00000000000E+00 -0.16826348269E+03  0.16826348269E+03  0.00000000000E+00 0. -1.
        -13    1    1    2    0    0 -0.55556353466E+02 -0.48023681818E+02  0.10359622112E+03  0.12698413531E+03  0.10566000000E+00 0.  1.
         13    1    1    2    0    0  0.44171028795E+02  0.57649363791E+02 -0.10849072579E+03  0.13055564973E+03  0.10566000000E+00 0. -1.
          4    1    1    2  501    0  0.11385324671E+02 -0.96256819729E+01 -0.35546328764E+02  0.38546346907E+02  0.00000000000E+00 0.  1.
</event>
<event>
 5    1  0.2540860E-005  0.4263317E+02  0.7818608E-02  0.1325081E+00
          4   -1    0    0  502    0 -0.00000000000E+00  0.00000000000E+00  0.15504072009E+03  0.15504072009E+03  0.00000000000E+00 0.  1.
         21   -1    0    0  501  502  0.00000000000E+00 -0.00000000000E+00 -0.49953801868E+02  0.49953801868E+02  0.00000000000E+00 0.  1.
        -13    1    1    2    0    0  0.37207964852E+02 -0.18188895445E+02  0.11537520963E+03  0.12258351735E+03  0.10566000000E+00 0.  1.
         13    1    1    2    0    0 -0.46904498153E+02  0.13931884955E+02  0.18054364008E+02  0.52154583587E+02  0.10566000000E+00 0. -1.
          4    1    1    2  501    0  0.96965333009E+01  0.42570104901E+01 -0.28342655419E+02  0.30256421014E+02  0.00000000000E+00 0.  1.
</event>
<event>
 5    1  0.2540860E-005  0.4211290E+03  0.7818608E-02  0.1008349E+00
         -4   -1    0    0    0  501 -0.00000000000E+00  0.00000000000E+00  0.21869041386E+04  0.21869041386E+04  0.00000000000E+00 0. -1.
         21   -1    0    0  501  502  0.00000000000E+00 -0.00000000000E+00 -0.14740370343E+03  0.14740370343E+03  0.00000000000E+00 0. -1.
        -13    1    1    2    0    0 -0.63870868506E+02 -0.83166713810E+02  0.36637218202E+03  0.38108368773E+03  0.10566000000E+00 0.  1.
         13    1    1    2    0    0  0.21187995597E+03 -0.35303480368E+03  0.31296086191E+03  0.51717617946E+03  0.10566000000E+00 0. -1.
         -4    1    1    2    0  502 -0.14800908746E+03  0.43620151749E+03  0.13601673912E+04  0.14360479748E+04  0.00000000000E+00 0. -1.
</event>
<event>
 5    1  0.2540860E-005  0.1246350E+03  0.7818608E-02  0.1129219E+00
          4   -1    0    0  502    0 -0.00000000000E+00  0.00000000000E+00  0.16319640360E+03  0.16319640360E+03  0.00000000000E+00 0.  1.
         21   -1    0    0  501  502  0.00000000000E+00 -0.00000000000E+00 -0.36251018452E+03  0.36251018452E+03  0.00000000000E+00 0. -1.
        -13    1    1    2    0    0  0.11383692023E+03  0.47557421894E+02  0.81493249624E+02  0.14785707181E+03  0.10566000000E+00 0.  1.
         13    1    1    2    0    0 -0.13685528828E+03  0.14706639364E+01 -0.58158335240E+02  0.14870755161E+03  0.10566000000E+00 0. -1.
          4    1    1    2  501    0  0.23018368048E+02 -0.49028085830E+02 -0.22264869531E+03  0.22914196471E+03  0.00000000000E+00 0.  1.
</event>
<event>
 5    1  0.2540860E-005  0.4715937E+03  0.7818608E-02  0.9597621E-01
         -4   -1    0    0    0  501 -0.00000000000E+00  0.00000000000E+00  0.72165699009E+03  0.72165699009E+03  0.00000000000E+00 0. -1.
         21   -1    0    0  501  502  0.00000000000E+00 -0.00000000000E+00 -0.75330396849E+03  0.75330396849E+03  0.00000000000E+00 0. -1.
        -13    1    1    2    0    0 -0.81946978163E+02  0.37837287298E+03  0.84095988162E+02  0.39617355367E+03  0.10566000000E+00 0.  1.
         13    1    1    2    0    0 -0.38515276309E+03 -0.81865049533E+02  0.20013738237E+03  0.44170071342E+03  0.10566000000E+00 0. -1.
         -4    1    1    2    0  502  0.46709974125E+03 -0.29650782345E+03 -0.31588034892E+03  0.63708669149E+03  0.00000000000E+00 0. -1.
</event>
<event>
 5    1  0.2540860E-005  0.3128107E+03  0.7818608E-02  0.1002153E+00
          4   -1    0    0  502    0 -0.00000000000E+00  0.00000000000E+00  0.28197352750E+04  0.28197352750E+04  0.00000000000E+00 0.  1.
         21   -1    0    0  501  502  0.00000000000E+00 -0.00000000000E+00 -0.46943054967E+02  0.46943054967E+02  0.00000000000E+00 0. -1.
        -13    1    1    2    0    0  0.10130286047E+03  0.28754125029E+03  0.13543024090E+04  0.13881920856E+04  0.10566000000E+00 0.  1.
         13    1    1    2    0    0 -0.10930347825E+03 -0.30202959815E+03  0.14249627526E+04  0.14607148887E+04  0.10566000000E+00 0. -1.
          4    1    1    2  501    0  0.80006177839E+01  0.14488347859E+02 -0.64729416627E+01  0.17771355671E+02  0.00000000000E+00 0.  1.
</event>
<event>
 5    1  0.2540860E-005  0.4466614E+03  0.7818608E-02  0.1012941E+00
         21   -1    0    0  501  502  0.00000000000E+00  0.00000000000E+00  0.27333232671E+03  0.27333232671E+03  0.00000000000E+00 0. -1.
         -4   -1    0    0    0  501 -0.00000000000E+00 -0.00000000000E+00 -0.12555435812E+04  0.12555435812E+04  0.00000000000E+00 0. -1.
        -13    1    1    2    0    0 -0.58805932940E+02  0.47897983496E+02 -0.23642543270E+03  0.24829287337E+03  0.10566000000E+00 0.  1.
         13    1    1    2    0    0 -0.34898876499E+03 -0.24772449551E+03 -0.70486817894E+03  0.82462097027E+03  0.10566000000E+00 0. -1.
         -4    1    1    2    0  502  0.40779469793E+03  0.19982651202E+03 -0.40917642851E+02  0.45596206428E+03  0.00000000000E+00 0. -1.
</event>
<event>
 5    1  0.2540860E-005  0.2169026E+03  0.7818608E-02  0.1049128E+00
         21   -1    0    0  501  502  0.00000000000E+00  0.00000000000E+00  0.27931677458E+03  0.27931677458E+03  0.00000000000E+00 0. -1.
          4   -1    0    0  502    0 -0.00000000000E+00 -0.00000000000E+00 -0.44680221542E+03  0.44680221542E+03  0.00000000000E+00 0.  1.
        -13    1    1    2    0    0  0.80176645097E+02 -0.20325721663E+03 -0.35759088489E+03  0.41906209880E+03  0.10566000000E+00 0.  1.
         13    1    1    2    0    0 -0.47157859833E+02  0.20249425458E+03  0.15974455087E+03  0.26219481226E+03  0.10566000000E+00 0. -1.
          4    1    1    2  501    0 -0.33018785264E+02  0.76296205529E+00  0.30360893185E+02  0.44862078935E+02  0.00000000000E+00 0.  1.
</event>
<event>
 5    1  0.2540860E-005  0.2013281E+03  0.7818608E-02  0.1059229E+00
          4   -1    0    0  502    0 -0.00000000000E+00  0.00000000000E+00  0.17078185077E+04  0.17078185077E+04  0.00000000000E+00 0.  1.
         21   -1    0    0  501  502  0.00000000000E+00 -0.00000000000E+00 -0.20474207300E+03  0.20474207300E+03  0.00000000000E+00 0.  1.
        -13    1    1    2    0    0  0.18499617338E+02 -0.34613838184E+03  0.51048601024E+03  0.61704942512E+03  0.10566000000E+00 0.  1.
         13    1    1    2    0    0 -0.14270180584E+02  0.18041006778E+03  0.10888648564E+04  0.11038016658E+04  0.10566000000E+00 0. -1.
          4    1    1    2  501    0 -0.42294367547E+01  0.16572831406E+03 -0.96274432005E+02  0.19170948978E+03  0.00000000000E+00 0.  1.
</event>
<event>
 5    1  0.2540860E-005  0.1440230E+03  0.7818608E-02  0.1107160E+00
          4   -1    0    0  502    0 -0.00000000000E+00  0.00000000000E+00  0.23736409544E+03  0.23736409544E+03  0.00000000000E+00 0.  1.
         21   -1    0    0  501  502  0.00000000000E+00 -0.00000000000E+00 -0.23938388434E+03  0.23938388434E+03  0.00000000000E+00 0. -1.
        -13    1    1    2    0    0  0.10685872089E+03 -0.53749398629E+02  0.53746430970E+02  0.13113532739E+03  0.10566000000E+00 0.  1.
         13    1    1    2    0    0 -0.15277335910E+03  0.15553781767E+03  0.58104248427E+01  0.21809512644E+03  0.10566000000E+00 0. -1.
          4    1    1    2  501    0  0.45914638211E+02 -0.10178841904E+03 -0.61576644715E+02  0.12751752596E+03  0.00000000000E+00 0.  1.
</event>
<event>
 5    1  0.2540860E-005  0.6437977E+02  0.7818608E-02  0.1242293E+00
         21   -1    0    0  501  502  0.00000000000E+00  0.00000000000E+00  0.47709887003E+02  0.47709887003E+02  0.00000000000E+00 0.  1.
          4   -1    0    0  502    0 -0.00000000000E+00 -0.00000000000E+00 -0.14455487443E+03  0.14455487443E+03  0.00000000000E+00 0.  1.
        -13    1    1    2    0    0 -0.63482743802E+02  0.35641425054E+02 -0.83914000320E+01  0.73285719612E+02  0.10566000000E+00 0.  1.
         13    1    1    2    0    0  0.57296427704E+02 -0.21286423633E+02 -0.55737097242E+02  0.82720176690E+02  0.10566000000E+00 0. -1.
          4    1    1    2  501    0  0.61863160986E+01 -0.14355001421E+02 -0.32716490155E+02  0.36258865133E+02  0.00000000000E+00 0.  1.
</event>
<event>
 5    1  0.2540860E-005  0.3811559E+03  0.7818608E-02  0.9897908E-01
         -4   -1    0    0    0  501 -0.00000000000E+00  0.00000000000E+00  0.19854022007E+03  0.19854022007E+03  0.00000000000E+00 0. -1.
         21   -1    0    0  501  502  0.00000000000E+00 -0.00000000000E+00 -0.21055361117E+04  0.21055361117E+04  0.00000000000E+00 0. -1.
        -13    1    1    2    0    0 -0.16743138363E+03 -0.19912678310E+03 -0.26563560789E+03  0.37181585673E+03  0.10566000000E+00 0.  1.
         13    1    1    2    0    0 -0.21174257660E+02  0.50957330736E+03 -0.42835691526E+03  0.66603525640E+03  0.10566000000E+00 0. -1.
         -4    1    1    2    0  502  0.18860564129E+03 -0.31044652426E+03 -0.12130033685E+04  0.12662252186E+04  0.00000000000E+00 0. -1.
</event>
<event>
 5    1  0.2540860E-005  0.1079848E+03  0.7818608E-02  0.1160041E+00
         21   -1    0    0  501  502  0.00000000000E+00  0.00000000000E+00  0.13486699713E+03  0.13486699713E+03  0.00000000000E+00 0. -1.
         -4   -1    0    0    0  501 -0.00000000000E+00 -0.00000000000E+00 -0.28750437262E+03  0.28750437262E+03  0.00000000000E+00 0. -1.
        -13    1    1    2    0    0  0.81182535030E+02 -0.35520092761E+02 -0.26371207570E+02  0.92453949274E+02  0.10566000000E+00 0.  1.
         13    1    1    2    0    0  0.39438682418E+02  0.17618011006E+02 -0.18823854387E+03  0.19313095181E+03  0.10566000000E+00 0. -1.
         -4    1    1    2    0  502 -0.12062121745E+03  0.17902081755E+02  0.61972375948E+02  0.13678646867E+03  0.00000000000E+00 0. -1.
</event>
<event>
 5    1  0.2540860E-005  0.4836314E+03  0.7818608E-02  0.9597407E-01
         -4   -1    0    0    0  501 -0.00000000000E+00  0.00000000000E+00  0.11430369343E+04  0.11430369343E+04  0.00000000000E+00 0. -1.
         21   -1    0    0  501  502  0.00000000000E+00 -0.00000000000E+00 -0.45036673172E+03  0.45036673172E+03  0.00000000000E+00 0.  1.
        -13    1    1    2    0    0 -0.16202369400E+02  0.35885808444E+03  0.26884033524E+03  0.44868338342E+03  0.10566000000E+00 0.  1.
         13    1    1    2    0    0  0.49196734181E+03 -0.26774663956E+03  0.33375419038E+03  0.65200613429E+03  0.10566000000E+00 0. -1.
         -4    1    1    2    0  502 -0.47576497241E+03 -0.91111444879E+02  0.90075676949E+02  0.49271414830E+03  0.00000000000E+00 0. -1.
</event>
<event>
 5    1  0.2540860E-005  0.1387480E+03  0.7818608E-02  0.1112772E+00
         -4   -1    0    0    0  501 -0.00000000000E+00  0.00000000000E+00  0.96107014498E+02  0.96107014498E+02  0.00000000000E+00 0. -1.
         21   -1    0    0  501  502  0.00000000000E+00 -0.00000000000E+00 -0.53762023625E+03  0.53762023625E+03  0.00000000000E+00 0. -1.
        -13    1    1    2    0    0  0.10007164921E+03 -0.54431070315E+02 -0.22690039687E+03  0.25389146826E+03  0.10566000000E+00 0.  1.
         13    1    1    2    0    0 -0.12681757873E+03  0.71225598428E+02  0.16673807768E+02  0.14640290699E+03  0.10566000000E+00 0. -1.
         -4    1    1    2    0  502  0.26745929521E+02 -0.16794528113E+02 -0.23128663266E+03  0.23343287551E+03  0.00000000000E+00 0. -1.
</event>
<event>
 5    1  0.2540860E-005  0.4947565E+03  0.7818608E-02  0.9687131E-01
          4   -1    0    0  502    0 -0.00000000000E+00  0.00000000000E+00  0.15179980256E+04  0.15179980256E+04  0.00000000000E+00 0.  1.
         21   -1    0    0  501  502  0.00000000000E+00 -0.00000000000E+00 -0.28061053707E+03  0.28061053707E+03  0.00000000000E+00 0.  1.
        -13    1    1    2    0    0  0.14667352763E+03  0.54502328817E+03  0.51907915183E+03  0.76681593970E+03  0.10566000000E+00 0.  1.
         13    1    1    2    0    0  0.15527053578E+03 -0.18892736376E+03  0.39258564334E+03  0.46252133635E+03  0.10566000000E+00 0. -1.
          4    1    1    2  501    0 -0.30194406341E+03 -0.35609592441E+03  0.32572269341E+03  0.56927128666E+03  0.00000000000E+00 0.  1.
</event>
<event>
 5    1  0.2540860E-005  0.4547732E+03  0.7818608E-02  0.9701641E-01
          4   -1    0    0  502    0 -0.00000000000E+00  0.00000000000E+00  0.15983620548E+04  0.15983620548E+04  0.00000000000E+00 0.  1.
         21   -1    0    0  501  502  0.00000000000E+00 -0.00000000000E+00 -0.61523579232E+03  0.61523579232E+03  0.00000000000E+00 0.  1.
        -13    1    1    2    0    0  0.82286720684E+02  0.41863549983E+03 -0.21362020154E+03  0.47713770317E+03  0.10566000000E+00 0.  1.
         13    1    1    2    0    0 -0.27081427331E+03  0.12755331234E+03  0.11130716633E+04  0.11526225562E+04  0.10566000000E+00 0. -1.
          4    1    1    2  501    0  0.18852755262E+03 -0.54618881217E+03  0.83674800690E+02  0.58383758778E+03  0.00000000000E+00 0.  1.
</event>
<event>
 5    1  0.2540860E-005  0.2075901E+03  0.7818608E-02  0.1055054E+00
         21   -1    0    0  501  502  0.00000000000E+00  0.00000000000E+00  0.24596844913E+03  0.24596844913E+03  0.00000000000E+00 0. -1.
         -4   -1    0    0    0  501 -0.00000000000E+00 -0.00000000000E+00 -0.16818988130E+04  0.16818988130E+04  0.00000000000E+00 0. -1.
        -13    1    1    2    0    0 -0.23459394518E+03 -0.12335978677E+03 -0.38989506498E+03  0.47145533083E+03  0.10566000000E+00 0.  1.
         13    1    1    2    0    0  0.19598361207E+03 -0.80587909377E+02 -0.11868280066E+04  0.12055972445E+04  0.10566000000E+00 0. -1.
         -4    1    1    2    0  502  0.38610333110E+02  0.20394769615E+03  0.14079270774E+03  0.25081468685E+03  0.00000000000E+00 0. -1.
</event>
<event>
 5    1  0.2540860E-005  0.7159158E+02  0.7818608E-02  0.1222612E+00
          4   -1    0    0  502    0 -0.00000000000E+00  0.00000000000E+00  0.38021718573E+03  0.38021718573E+03  0.00000000000E+00 0.  1.
         21   -1    0    0  501  502  0.00000000000E+00 -0.00000000000E+00 -0.10484786827E+03  0.10484786827E+03  0.00000000000E+00 0. -1.
        -13    1    1    2    0    0  0.16943465189E+02  0.68966549751E+02  0.33294557118E+03  0.34043535440E+03  0.10566000000E+00 0.  1.
         13    1    1    2    0    0  0.10631530711E+02 -0.89635498382E+02 -0.62540068200E+02  0.10981267372E+03  0.10566000000E+00 0. -1.
          4    1    1    2  501    0 -0.27574995900E+02  0.20668948631E+02  0.49638144883E+01  0.34817025873E+02  0.00000000000E+00 0.  1.
</event>
<event>
 5    1  0.2540860E-005  0.4599312E+03  0.7818608E-02  0.9957177E-01
         21   -1    0    0  501  502  0.00000000000E+00  0.00000000000E+00  0.10068728138E+04  0.10068728138E+04  0.00000000000E+00 0. -1.
         -4   -1    0    0    0  501 -0.00000000000E+00 -0.00000000000E+00 -0.59218665365E+03  0.59218665365E+03  0.00000000000E+00 0. -1.
        -13    1    1    2    0    0 -0.96497777049E+02 -0.73951413602E+02 -0.33602231498E+03  0.35733967018E+03  0.10566000000E+00 0.  1.
         13    1    1    2    0    0  0.27245493650E+03  0.41577548819E+03  0.69316698958E+03  0.85298384253E+03  0.10566000000E+00 0. -1.
         -4    1    1    2    0  502 -0.17595715945E+03 -0.34182407459E+03  0.57541485521E+02  0.38873595471E+03  0.00000000000E+00 0. -1.
</event>
<event>
 5    1  0.2540860E-005  0.7329771E+03  0.7818608E-02  0.9076465E-01
         -4   -1    0    0    0  501 -0.00000000000E+00  0.00000000000E+00  0.92810919497E+03  0.92810919497E+03  0.00000000000E+00 0. -1.
         21   -1    0    0  501  502  0.00000000000E+00 -0.00000000000E+00 -0.90159360091E+03  0.90159360091E+03  0.00000000000E+00 0.  1.
        -13    1    1    2    0    0  0.65913291867E+03 -0.11166916304E+03  0.23854275907E+03  0.70980903454E+03  0.10566000000E+00 0.  1.
         13    1    1    2    0    0 -0.86885407952E+03  0.51146945376E+02 -0.10463140602E+03  0.87662487063E+03  0.10566000000E+00 0. -1.
         -4    1    1    2    0  502  0.20972116085E+03  0.60522217665E+02 -0.10739575899E+03  0.24326889071E+03  0.00000000000E+00 0. -1.
</event>
<event>
 5    1  0.2540860E-005  0.2340021E+03  0.7818608E-02  0.1039034E+00
         21   -1    0    0  501  502  0.00000000000E+00  0.00000000000E+00  0.36187002216E+03  0.36187002216E+03  0.00000000000E+00 0.  1.
         -4   -1    0    0    0  501 -0.00000000000E+00 -0.00000000000E+00 -0.20267185483E+03  0.20267185483E+03  0.00000000000E+00 0. -1.
        -13    1    1    2    0    0 -0.11257177953E+02 -0.24454095097E+03  0.15080149799E+03  0.28752061442E+03  0.10566000000E+00 0.  1.
         13    1    1    2    0    0  0.35328737259E+01  0.22913214571E+03 -0.33614461932E+02  0.23161166769E+03  0.10566000000E+00 0. -1.
         -4    1    1    2    0  502  0.77243042270E+01  0.15408805257E+02  0.42011131279E+02  0.45409594873E+02  0.00000000000E+00 0. -1.
</event>
<event>
 5    1  0.2540860E-005  0.2082842E+03  0.7818608E-02  0.1054600E+00
         21   -1    0    0  501  502  0.00000000000E+00  0.00000000000E+00  0.17240522717E+03  0.17240522717E+03  0.00000000000E+00 0.  1.
          4   -1    0    0  502    0 -0.00000000000E+00 -0.00000000000E+00 -0.12464799561E+04  0.12464799561E+04  0.00000000000E+00 0.  1.
        -13    1    1    2    0    0 -0.13101779784E+03  0.15828751652E+03 -0.96234281442E+03  0.98403470715E+03  0.10566000000E+00 0.  1.
         13    1    1    2    0    0  0.15852744711E+03 -0.15391194222E+03 -0.22669527620E+03  0.31656057376E+03  0.10566000000E+00 0. -1.
          4    1    1    2  501    0 -0.27509649267E+02 -0.43755743029E+01  0.11496336173E+03  0.11828990233E+03  0.00000000000E+00 0.  1.
</event>
<event>
 5    1  0.2540860E-005  0.1679558E+02  0.7818608E-02  0.1560041E+00
         21   -1    0    0  501  502  0.00000000000E+00  0.00000000000E+00  0.18781582450E+02  0.18781582450E+02  0.00000000000E+00 0. -1.
          4   -1    0    0  502    0 -0.00000000000E+00 -0.00000000000E+00 -0.49331820710E+02  0.49331820710E+02  0.00000000000E+00 0.  1.
        -13    1    1    2    0    0 -0.14418181211E+02  0.63565622208E+01 -0.27086863430E+02  0.31336865944E+02  0.10566000000E+00 0.  1.
         13    1    1    2    0    0  0.17193252803E+02 -0.17372856594E+02  0.12561875515E+01  0.24474747382E+02  0.10566000000E+00 0. -1.
          4    1    1    2  501    0 -0.27750715921E+01  0.11016294373E+02 -0.47195623818E+01  0.12301789835E+02  0.00000000000E+00 0.  1.
</event>
<event>
 5    1  0.2540860E-005  0.2635005E+03  0.7818608E-02  0.1023625E+00
         21   -1    0    0  501  502  0.00000000000E+00  0.00000000000E+00  0.32463909449E+03  0.32463909449E+03  0.00000000000E+00 0. -1.
          4   -1    0    0  502    0 -0.00000000000E+00 -0.00000000000E+00 -0.14185221993E+04  0.14185221993E+04  0.00000000000E+00 0.  1.
        -13    1    1    2    0    0 -0.72651195220E+02 -0.26604220968E+03 -0.11512072163E+04  0.11837798442E+04  0.10566000000E+00 0.  1.
         13    1    1    2    0    0 -0.17204594946E+03  0.21921824875E+03 -0.58330748968E+02  0.28470851190E+03  0.10566000000E+00 0. -1.
          4    1    1    2  501    0  0.24469714468E+03  0.46823960934E+02  0.11565486049E+03  0.27467293767E+03  0.00000000000E+00 0.  1.
</event>
<event>
 5    1  0.2540860E-005  0.4575312E+03  0.7818608E-02  0.9887574E-01
         -4   -1    0    0    0  501 -0.00000000000E+00  0.00000000000E+00  0.15175826553E+04  0.15175826553E+04  0.00000000000E+00 0. -1.
         21   -1    0    0  501  502  0.00000000000E+00 -0.00000000000E+00 -0.32418336711E+03  0.32418336711E+03  0.00000000000E+00 0. -1.
        -13    1    1    2    0    0  0.13669578502E+00  0.15571369620E+03  0.70901466448E+03  0.72591223952E+03  0.10566000000E+00 0.  1.
         13    1    1    2    0    0 -0.21281763107E+03 -0.51318268394E+03  0.41661075828E+03  0.69441511091E+03  0.10566000000E+00 0. -1.
         -4    1    1    2    0  502  0.21268093528E+03  0.35746898774E+03  0.67773865470E+02  0.42143867201E+03  0.00000000000E+00 0. -1.
</event>
<event>
 5    1  0.2540860E-005  0.9398275E+03  0.7818608E-02  0.9025365E-01
         21   -1    0    0  501  502  0.00000000000E+00  0.00000000000E+00  0.11196973032E+04  0.11196973032E+04  0.00000000000E+00 0.  1.
          4   -1    0    0  502    0 -0.00000000000E+00 -0.00000000000E+00 -0.15697329950E+04  0.15697329950E+04  0.00000000000E+00 0.  1.
        -13    1    1    2    0    0  0.37161595932E+03 -0.64717523297E+03 -0.86821547214E+03  0.11448721853E+04  0.10566000000E+00 0.  1.
         13    1    1    2    0    0 -0.19801992842E+03 -0.37782525470E+03  0.24108386531E+03  0.48998495530E+03  0.10566000000E+00 0. -1.
          4    1    1    2  501    0 -0.17359603090E+03  0.10250004877E+04  0.17709591498E+03  0.10545731576E+04  0.00000000000E+00 0.  1.
</event>
<event>
 5    1  0.2540860E-005  0.1815723E+03  0.7818608E-02  0.1073560E+00
         21   -1    0    0  501  502  0.00000000000E+00  0.00000000000E+00  0.36774691542E+03  0.36774691542E+03  0.00000000000E+00 0. -1.
          4   -1    0    0  502    0 -0.00000000000E+00 -0.00000000000E+00 -0.17633314579E+03  0.17633314579E+03  0.00000000000E+00 0.  1.
        -13    1    1    2    0    0  0.22040699645E+02  0.17711086217E+03 -0.61025561727E+02  0.18862179165E+03  0.10566000000E+00 0.  1.
         13    1    1    2    0    0 -0.48788022029E+02 -0.18544920072E+03  0.13447343225E+03  0.23421099950E+03  0.10566000000E+00 0. -1.
          4    1    1    2  501    0  0.26747322385E+02  0.83383385494E+01  0.11796589910E+03  0.12124727005E+03  0.00000000000E+00 0.  1.
</event>
<event>
 5    1  0.2540860E-005  0.4843513E+03  0.7818608E-02  0.9961969E-01
         -4   -1    0    0    0  501 -0.00000000000E+00  0.00000000000E+00  0.74554166392E+03  0.74554166392E+03  0.00000000000E+00 0. -1.
         21   -1    0    0  501  502  0.00000000000E+00 -0.00000000000E+00 -0.66959377618E+03  0.66959377618E+03  0.00000000000E+00 0. -1.
        -13    1    1    2    0    0  0.76223080625E+02  0.68473583843E+02  0.36218278128E+03  0.37639735377E+03  0.10566000000E+00 0.  1.
         13    1    1    2    0    0 -0.49740147190E+03  0.13515395883E+03 -0.59470917444E+02  0.51885606677E+03  0.10566000000E+00 0. -1.
         -4    1    1    2    0  502  0.42117839128E+03 -0.20362754267E+03 -0.22676397609E+03  0.51988201957E+03  0.00000000000E+00 0. -1.
</event>
<event>
 5    1  0.2540860E-005  0.4213857E+03  0.7818608E-02  0.9757987E-01
         21   -1    0    0  501  502  0.00000000000E+00  0.00000000000E+00  0.15666872434E+04  0.15666872434E+04  0.00000000000E+00 0.  1.
          4   -1    0    0  502    0 -0.00000000000E+00 -0.00000000000E+00 -0.34608484447E+03  0.34608484447E+03  0.00000000000E+00 0.  1.
        -13    1    1    2    0    0 -0.15221570380E+03  0.10112117281E+03 -0.10436985942E+03  0.21044759631E+03  0.10566000000E+00 0.  1.
         13    1    1    2    0    0 -0.29058094646E+03  0.10684517140E+03  0.21814323532E+02  0.31036922040E+03  0.10566000000E+00 0. -1.
          4    1    1    2  501    0  0.44279665026E+03 -0.20796634421E+03  0.13031579348E+04  0.13919552712E+04  0.00000000000E+00 0.  1.
</event>
<event>
 5    1  0.2540860E-005  0.6629092E+03  0.7818608E-02  0.9178593E-01
          4   -1    0    0  502    0 -0.00000000000E+00  0.00000000000E+00  0.15994582966E+04  0.15994582966E+04  0.00000000000E+00 0.  1.
         21   -1    0    0  501  502  0.00000000000E+00 -0.00000000000E+00 -0.50299321944E+03  0.50299321944E+03  0.00000000000E+00 0. -1.
        -13    1    1    2    0    0 -0.53426135609E+03  0.51364338218E+03  0.10645416341E+04  0.12971174282E+04  0.10566000000E+00 0.  1.
         13    1    1    2    0    0  0.25393333439E+03 -0.41558731097E+03 -0.68525089205E+02  0.49182380012E+03  0.10566000000E+00 0. -1.
          4    1    1    2  501    0  0.28032802170E+03 -0.98056071215E+02  0.10044853224E+03  0.31351028768E+03  0.00000000000E+00 0.  1.
</event>
<event>
 5    1  0.2540860E-005  0.3135591E+03  0.7818608E-02  0.1001860E+00
         -4   -1    0    0    0  501 -0.00000000000E+00  0.00000000000E+00  0.57465105806E+03  0.57465105806E+03  0.00000000000E+00 0. -1.
         21   -1    0    0  501  502  0.00000000000E+00 -0.00000000000E+00 -0.31909172067E+03  0.31909172067E+03  0.00000000000E+00 0.  1.
        -13    1    1    2    0    0 -0.20293579263E+03  0.21984529335E+03 -0.33203139683E+02  0.30102715589E+03  0.10566000000E+00 0.  1.
         13    1    1    2    0    0  0.20465115395E+03 -0.24420295936E+03  0.38136541461E+03  0.49694745276E+03  0.10566000000E+00 0. -1.
         -4    1    1    2    0  502 -0.17153613286E+01  0.24357666009E+02 -0.92602937539E+02  0.95768170071E+02  0.00000000000E+00 0. -1.
</event>
<event>
 5    1  0.2540860E-005  0.3152301E+03  0.7818608E-02  0.1001209E+00
         -4   -1    0    0    0  501 -0.00000000000E+00  0.00000000000E+00  0.20450793725E+04  0.20450793725E+04  0.00000000000E+00 0. -1.
         21   -1    0    0  501  502  0.00000000000E+00 -0.00000000000E+00 -0.25092037462E+03  0.25092037462E+03  0.00000000000E+00 0. -1.
        -13    1    1    2    0    0 -0.28015069492E+03 -0.54437863161E+02  0.87558876521E+03  0.92092539857E+03  0.10566000000E+00 0.  1.
         13    1    1    2    0    0  0.30588212860E+03  0.21319551397E+03  0.10828090495E+04  0.11452037603E+04  0.10566000000E+00 0. -1.
         -4    1    1    2    0  502 -0.25731433678E+02 -0.15875765081E+03 -0.16423881684E+03  0.22987058822E+03  0.00000000000E+00 0. -1.
</event>
<event>
 5    1  0.2540860E-005  0.5074906E+03  0.7818608E-02  0.9671388E-01
          4   -1    0    0  502    0 -0.00000000000E+00  0.00000000000E+00  0.17407298371E+04  0.17407298371E+04  0.00000000000E+00 0.  1.
         21   -1    0    0  501  502  0.00000000000E+00 -0.00000000000E+00 -0.25034151608E+03  0.25034151608E+03  0.00000000000E+00 0.  1.
        -13    1    1    2    0    0  0.42108922285E+03  0.52694677960E+02  0.43144905768E+03  0.60517862092E+03  0.10566000000E+00 0.  1.
         13    1    1    2    0    0  0.18324643903E+03  0.15408820660E+03  0.41363272166E+03  0.47792726688E+03  0.10566000000E+00 0. -1.
          4    1    1    2  501    0 -0.60433566188E+03 -0.20678288456E+03  0.64530654165E+03  0.90796546535E+03  0.00000000000E+00 0.  1.
</event>
<event>
 5    1  0.2540860E-005  0.4416560E+03  0.7818608E-02  0.9615927E-01
         21   -1    0    0  501  502  0.00000000000E+00  0.00000000000E+00  0.35468982197E+03  0.35468982197E+03  0.00000000000E+00 0. -1.
          4   -1    0    0  502    0 -0.00000000000E+00 -0.00000000000E+00 -0.73758855841E+03  0.73758855841E+03  0.00000000000E+00 0.  1.
        -13    1    1    2    0    0 -0.23601130508E+03  0.34720105546E+03 -0.76846998520E+02  0.42679665109E+03  0.10566000000E+00 0.  1.
         13    1    1    2    0    0  0.25953662120E+03 -0.37382275282E+03 -0.37384041488E+03  0.58894768463E+03  0.10566000000E+00 0. -1.
          4    1    1    2  501    0 -0.23525316121E+02  0.26621697358E+02  0.67788676958E+02  0.76534044663E+02  0.00000000000E+00 0.  1.
</event>
<event>
 5    1  0.2540860E-005  0.6257489E+03  0.7818608E-02  0.9337147E-01
         21   -1    0    0  501  502  0.00000000000E+00  0.00000000000E+00  0.39065243331E+03  0.39065243331E+03  0.00000000000E+00 0. -1.
          4   -1    0    0  502    0 -0.00000000000E+00 -0.00000000000E+00 -0.28648307123E+04  0.28648307123E+04  0.00000000000E+00 0.  1.
        -13    1    1    2    0    0  0.26764955994E+03 -0.16391631670E+03 -0.65025274420E+03  0.72203427087E+03  0.10566000000E+00 0.  1.
         13    1    1    2    0    0  0.48547756341E+03  0.57833881464E+03 -0.13626752649E+04  0.15578986288E+04  0.10566000000E+00 0. -1.
          4    1    1    2  501    0 -0.75312712335E+03 -0.41442249794E+03 -0.46125026988E+03  0.97555024585E+03  0.00000000000E+00 0.  1.
</event>
<event>
 5    1  0.2540860E-005  0.6206368E+03  0.7818608E-02  0.9246814E-01
          4   -1    0    0  502    0 -0.00000000000E+00  0.00000000000E+00  0.27774816946E+04  0.27774816946E+04  0.00000000000E+00 0.  1.
         21   -1    0    0  501  502  0.00000000000E+00 -0.00000000000E+00 -0.20333849178E+03  0.20333849178E+03  0.00000000000E+00 0. -1.
        -13    1    1    2    0    0  0.59932619080E+03  0.23420612519E+03  0.10597892174E+04  0.12398377267E+04  0.10566000000E+00 0.  1.
         13    1    1    2    0    0 -0.55712389050E+03 -0.23939760695E+03  0.15629217961E+04  0.16764315660E+04  0.10566000000E+00 0. -1.
          4    1    1    2  501    0 -0.42202300303E+02  0.51914817571E+01 -0.48567810720E+02  0.64550893657E+02  0.00000000000E+00 0.  1.
</event>
<event>
 5    1  0.2540860E-005  0.1595120E+03  0.7818608E-02  0.1092092E+00
         -4   -1    0    0    0  501 -0.00000000000E+00  0.00000000000E+00  0.28155974536E+03  0.28155974536E+03  0.00000000000E+00 0. -1.
         21   -1    0    0  501  502  0.00000000000E+00 -0.00000000000E+00 -0.52472781811E+03  0.52472781811E+03  0.00000000000E+00 0. -1.
        -13    1    1    2    0    0  0.20277126818E+02 -0.12911279433E+03 -0.11141268173E+03  0.17173838344E+03  0.10566000000E+00 0.  1.
         13    1    1    2    0    0 -0.63012142642E+02  0.15326216473E+03  0.22221076179E+03  0.27719569816E+03  0.10566000000E+00 0. -1.
         -4    1    1    2    0  502  0.42735015825E+02 -0.24149370398E+02 -0.35396615281E+03  0.35735348187E+03  0.00000000000E+00 0. -1.
</event>
<event>
 5    1  0.2540860E-005  0.8061549E+03  0.7818608E-02  0.8981776E-01
         21   -1    0    0  501  502  0.00000000000E+00  0.00000000000E+00  0.41618846498E+03  0.41618846498E+03  0.00000000000E+00 0.  1.
         -4   -1    0    0    0  501 -0.00000000000E+00 -0.00000000000E+00 -0.26108471194E+04  0.26108471194E+04  0.00000000000E+00 0. -1.
        -13    1    1    2    0    0 -0.64662429178E+02  0.80266454664E+03 -0.12338338768E+04  0.14733627018E+04  0.10566000000E+00 0.  1.
         13    1    1    2    0    0  0.39520687009E+03 -0.74987258329E+03 -0.85165192873E+03  0.12015857773E+04  0.10566000000E+00 0. -1.
         -4    1    1    2    0  502 -0.33054444091E+03 -0.52791963349E+02 -0.10917284886E+03  0.35208710533E+03  0.00000000000E+00 0. -1.
</event>
<event>
 5    1  0.2540860E-005  0.4478259E+03  0.7818608E-02  0.9600301E-01
          4   -1    0    0  502    0 -0.00000000000E+00  0.00000000000E+00  0.15807855878E+03  0.15807855878E+03  0.00000000000E+00 0.  1.
         21   -1    0    0  501  502  0.00000000000E+00 -0.00000000000E+00 -0.18191811579E+04  0.18191811579E+04  0.00000000000E+00 0. -1.
        -13    1    1    2    0    0 -0.43256510956E+03  0.10051991172E+03 -0.40413742595E+03  0.60045307633E+03  0.10566000000E+00 0.  1.
         13    1    1    2    0    0  0.45739859626E+03 -0.31578533121E+02 -0.87466710588E+03  0.98754910606E+03  0.10566000000E+00 0. -1.
          4    1    1    2  501    0 -0.24833486702E+02 -0.68941378603E+02 -0.38229806731E+03  0.38925753430E+03  0.00000000000E+00 0.  1.
</event>
<event>
 5    1  0.2540860E-005  0.2303179E+03  0.7818608E-02  0.1045704E+00
         -4   -1    0    0    0  501 -0.00000000000E+00  0.00000000000E+00  0.16167869058E+04  0.16167869058E+04  0.00000000000E+00 0. -1.
         21   -1    0    0  501  502  0.00000000000E+00 -0.00000000000E+00 -0.18178982907E+03  0.18178982907E+03  0.00000000000E+00 0.  1.
        -13    1    1    2    0    0 -0.21940524447E+03  0.11287453660E+03  0.11626413036E+04  0.11885344481E+04  0.10566000000E+00 0.  1.
         13    1    1    2    0    0  0.75839084787E+02  0.18431474043E+03  0.32259352859E+02  0.20190138021E+03  0.10566000000E+00 0. -1.
         -4    1    1    2    0  502  0.14356615968E+03 -0.29718927704E+03  0.24009642032E+03  0.40814090660E+03  0.00000000000E+00 0. -1.
</event>
<event>
 5    1  0.2540860E-005  0.4113836E+03  0.7818608E-02  0.9704954E-01
         21   -1    0    0  501  502  0.00000000000E+00  0.00000000000E+00  0.39757911216E+03  0.39757911216E+03  0.00000000000E+00 0.  1.
          4   -1    0    0  502    0 -0.00000000000E+00 -0.00000000000E+00 -0.13953802342E+04  0.13953802342E+04  0.00000000000E+00 0.  1.
        -13    1    1    2    0    0 -0.26205411133E+03  0.85038217612E+02 -0.76070754759E+03  0.80906108536E+03  0.10566000000E+00 0.  1.
         13    1    1    2    0    0  0.16956343287E+03  0.38131271159E+03 -0.28606442234E+03  0.50594862059E+03  0.10566000000E+00 0. -1.
          4    1    1    2  501    0  0.92490678463E+02 -0.46635092920E+03  0.48970847942E+02  0.47794964035E+03  0.00000000000E+00 0.  1.
</event>
<event>
 5    1  0.2540860E-005  0.2121880E+03  0.7818608E-02  0.1052087E+00
         21   -1    0    0  501  502  0.00000000000E+00  0.00000000000E+00  0.37362737493E+03  0.37362737493E+03  0.00000000000E+00 0.  1.
         -4   -1    0    0    0  501 -0.00000000000E+00 -0.00000000000E+00 -0.17435077178E+03  0.17435077178E+03  0.00000000000E+00 0. -1.
        -13    1    1    2    0    0  0.27839500219E+01  0.19677212509E+03  0.16759647466E+03  0.25848715456E+03  0.10566000000E+00 0.  1.
         13    1    1    2    0    0  0.24856382810E+02 -0.21832820777E+03 -0.26742390710E+02  0.22135991665E+03  0.10566000000E+00 0. -1.
         -4    1    1    2    0  502 -0.27640332832E+02  0.21556082674E+02  0.58422519202E+02  0.68131075503E+02  0.00000000000E+00 0. -1.
</event>
<event>
 5    1  0.2540860E-005  0.4017009E+03  0.7818608E-02  0.1028097E+00
         21   -1    0    0  501  502  0.00000000000E+00  0.00000000000E+00  0.35830562372E+03  0.35830562372E+03  0.00000000000E+00 0.  1.
          4   -1    0    0  502    0 -0.00000000000E+00 -0.00000000000E+00 -0.99607242597E+03  0.99607242597E+03  0.00000000000E+00 0.  1.
        -13    1    1    2    0    0 -0.38542203363E+03  0.25589384935E+02 -0.52014544911E+03  0.64788599307E+03  0.10566000000E+00 0.  1.
         13    1    1    2    0    0 -0.19342154631E+02 -0.61740454506E+02 -0.26609127988E+03  0.27384408531E+03  0.10566000000E+00 0. -1.
          4    1    1    2  501    0  0.40476418826E+03  0.36151069571E+02  0.14846992673E+03  0.43264797131E+03  0.00000000000E+00 0.  1.
</event>
<event>
 5    1  0.2540860E-005  0.1069984E+04  0.7818608E-02  0.9239161E-01
         21   -1    0    0  501  502  0.00000000000E+00  0.00000000000E+00  0.76078074595E+03  0.76078074595E+03  0.00000000000E+00 0.  1.
          4   -1    0    0  502    0 -0.00000000000E+00 -0.00000000000E+00 -0.17632569333E+04  0.17632569333E+04  0.00000000000E+00 0.  1.
        -13    1    1    2    0    0 -0.10350537926E+04  0.82187110023E+01 -0.30707589844E+03  0.10796756547E+04  0.10566000000E+00 0.  1.
         13    1    1    2    0    0 -0.83192937985E+02  0.92934300665E+02 -0.20955201910E+01  0.12474875366E+03  0.10566000000E+00 0. -1.
          4    1    1    2  501    0  0.11182467306E+04 -0.10115301167E+03 -0.69330476872E+03  0.13196132709E+04  0.00000000000E+00 0.  1.
</event>
<event>
 5    1  0.2540860E-005  0.2119439E+03  0.7818608E-02  0.1052243E+00
          4   -1    0    0  502    0 -0.00000000000E+00  0.00000000000E+00  0.64715091074E+03  0.64715091074E+03  0.00000000000E+00 0.  1.
         21   -1    0    0  501  502  0.00000000000E+00 -0.00000000000E+00 -0.10013870580E+03  0.10013870580E+03  0.00000000000E+00 0.  1.
        -13    1    1    2    0    0 -0.92134252756E+02  0.19149035793E+03  0.24772393171E+03  0.32638081319E+03  0.10566000000E+00 0.  1.
         13    1    1    2    0    0  0.70871096792E+02 -0.19984875000E+03  0.32402245194E+03  0.38723738942E+03  0.10566000000E+00 0. -1.
          4    1    1    2  501    0  0.21263155964E+02  0.83583920706E+01 -0.24734178707E+02  0.33671413928E+02  0.00000000000E+00 0.  1.
</event>
<event>
 5    1  0.2540860E-005  0.4525808E+03  0.7818608E-02  0.9875972E-01
         -4   -1    0    0    0  501 -0.00000000000E+00  0.00000000000E+00  0.22691606605E+04  0.22691606605E+04  0.00000000000E+00 0. -1.
         21   -1    0    0  501  502  0.00000000000E+00 -0.00000000000E+00 -0.18059154738E+03  0.18059154738E+03  0.00000000000E+00 0. -1.
        -13    1    1    2    0    0  0.53435994678E+02  0.15850595006E+03  0.80636689448E+03  0.82353331530E+03  0.10566000000E+00 0.  1.
         13    1    1    2    0    0  0.35780395297E+03  0.10997588450E+03  0.98124445536E+03  0.10502185755E+04  0.10566000000E+00 0. -1.
         -4    1    1    2    0  502 -0.41123994765E+03 -0.26848183455E+03  0.30095776331E+03  0.57600031712E+03  0.00000000000E+00 0. -1.
</event>
<event>
 5    1  0.2540860E-005  0.1027037E+03  0.7818608E-02  0.1160158E+00
         -4   -1    0    0    0  501 -0.00000000000E+00  0.00000000000E+00  0.14442493826E+03  0.14442493826E+03  0.00000000000E+00 0. -1.
         21   -1    0    0  501  502  0.00000000000E+00 -0.00000000000E+00 -0.14691651930E+03  0.14691651930E+03  0.00000000000E+00 0.  1.
        -13    1    1    2    0    0 -0.21904958796E+02  0.93956289081E+02  0.68165301714E+02  0.11812760473E+03  0.10566000000E+00 0.  1.
         13    1    1    2    0    0  0.32984260540E+02 -0.11824920086E+03 -0.33125362974E+02  0.12715398454E+03  0.10566000000E+00 0. -1.
         -4    1    1    2    0  502 -0.11079301743E+02  0.24292911780E+02 -0.37531519783E+02  0.46059868293E+02  0.00000000000E+00 0. -1.
</event>
<event>
 5    1  0.2540860E-005  0.3738013E+02  0.7818608E-02  0.1353862E+00
         -4   -1    0    0    0  501 -0.00000000000E+00  0.00000000000E+00  0.43459360943E+02  0.43459360943E+02  0.00000000000E+00 0. -1.
         21   -1    0    0  501  502  0.00000000000E+00 -0.00000000000E+00 -0.70038993227E+02  0.70038993227E+02  0.00000000000E+00 0.  1.
        -13    1    1    2    0    0  0.17429350389E+02  0.22465538803E+02 -0.32197840180E+02  0.42955730293E+02  0.10566000000E+00 0.  1.
         13    1    1    2    0    0 -0.17565658240E+02 -0.36176836771E+02  0.24587229294E+02  0.47136598059E+02  0.10566000000E+00 0. -1.
         -4    1    1    2    0  502  0.13630785120E+00  0.13711297968E+02 -0.18969021398E+02  0.23406025818E+02  0.00000000000E+00 0. -1.
</event>
<event>
 5    1  0.2540860E-005  0.7327938E+03  0.7818608E-02  0.9076717E-01
         -4   -1    0    0    0  501 -0.00000000000E+00  0.00000000000E+00  0.14964462682E+04  0.14964462682E+04  0.00000000000E+00 0. -1.
         21   -1    0    0  501  502  0.00000000000E+00 -0.00000000000E+00 -0.68666773473E+03  0.68666773473E+03  0.00000000000E+00 0.  1.
        -13    1    1    2    0    0 -0.26527916972E+03 -0.68292830685E+03 -0.15936472630E+03  0.74977412421E+03  0.10566000000E+00 0.  1.
         13    1    1    2    0    0  0.25045163482E+03  0.68874181813E+03  0.10888868570E+04  0.13125417754E+04  0.10566000000E+00 0. -1.
         -4    1    1    2    0  502  0.14827534902E+02 -0.58135112766E+01 -0.11974359725E+03  0.12079810341E+03  0.00000000000E+00 0. -1.
</event>
<event>
 5    1  0.2540860E-005  0.4760121E+03  0.7818608E-02  0.9532157E-01
         21   -1    0    0  501  502  0.00000000000E+00  0.00000000000E+00  0.24488080285E+03  0.24488080285E+03  0.00000000000E+00 0. -1.
          4   -1    0    0  502    0 -0.00000000000E+00 -0.00000000000E+00 -0.32015079365E+04  0.32015079365E+04  0.00000000000E+00 0.  1.
        -13    1    1    2    0    0  0.49287238154E+03  0.10937273255E+03 -0.11690094762E+04  0.12733690532E+04  0.10566000000E+00 0.  1.
         13    1    1    2    0    0 -0.43372821477E+03 -0.16078021205E+03 -0.19439068606E+04  0.19981852604E+04  0.10566000000E+00 0. -1.
          4    1    1    2  501    0 -0.59144166770E+02  0.51407479505E+02  0.15628920314E+03  0.17483442576E+03  0.00000000000E+00 0.  1.
</event>
<event>
 5    1  0.2540860E-005  0.1767369E+03  0.7818608E-02  0.1077371E+00
         21   -1    0    0  501  502  0.00000000000E+00  0.00000000000E+00  0.98205377684E+02  0.98205377684E+02  0.00000000000E+00 0. -1.
          4   -1    0    0  502    0 -0.00000000000E+00 -0.00000000000E+00 -0.44746047267E+03  0.44746047267E+03  0.00000000000E+00 0.  1.
        -13    1    1    2    0    0  0.15424357683E+03  0.84607869601E+02 -0.26110401755E+03  0.31484105790E+03  0.10566000000E+00 0.  1.
         13    1    1    2    0    0 -0.14986980728E+03 -0.97105275769E+02 -0.10670586850E+03  0.20803015948E+03  0.10566000000E+00 0. -1.
          4    1    1    2  501    0 -0.43737695495E+01  0.12497406167E+02  0.18554791072E+02  0.22794632980E+02  0.00000000000E+00 0.  1.
</event>
<event>
 5    1  0.2540860E-005  0.4888882E+03  0.7818608E-02  0.9564025E-01
          4   -1    0    0  502    0 -0.00000000000E+00  0.00000000000E+00  0.24330024981E+04  0.24330024981E+04  0.00000000000E+00 0.  1.
         21   -1    0    0  501  502  0.00000000000E+00 -0.00000000000E+00 -0.26067702391E+03  0.26067702391E+03  0.00000000000E+00 0.  1.
        -13    1    1    2    0    0 -0.39651445245E+03 -0.65332820810E+02  0.40256129040E+03  0.56881252814E+03  0.10566000000E+00 0.  1.
         13    1    1    2    0    0 -0.12549305426E+03 -0.37115826438E+03  0.11098352497E+04  0.11769627252E+04  0.10566000000E+00 0. -1.
          4    1    1    2  501    0  0.52200750671E+03  0.43649108519E+03  0.65992893411E+03  0.94790426868E+03  0.00000000000E+00 0.  1.
</event>
<event>
 5    1  0.2540860E-005  0.3478458E+03  0.7818608E-02  0.9941624E-01
         21   -1    0    0  501  502  0.00000000000E+00  0.00000000000E+00  0.48879534144E+03  0.48879534144E+03  0.00000000000E+00 0. -1.
          4   -1    0    0  502    0 -0.00000000000E+00 -0.00000000000E+00 -0.92522474038E+03  0.92522474038E+03  0.00000000000E+00 0.  1.
        -13    1    1    2    0    0  0.49505524349E+03  0.21032301827E+01 -0.54595774782E+03  0.73698981760E+03  0.10566000000E+00 0.  1.
         13    1    1    2    0    0 -0.22091508097E+03 -0.19684753486E+03 -0.57710562897E+02  0.30146798373E+03  0.10566000000E+00 0. -1.
          4    1    1    2  501    0 -0.27414016252E+03  0.19474430468E+03  0.16723891178E+03  0.37556228049E+03  0.00000000000E+00 0.  1.
</event>
<event>
 5    1  0.2540860E-005  0.2392526E+02  0.7818608E-02  0.1461601E+00
         -4   -1    0    0    0  501 -0.00000000000E+00  0.00000000000E+00  0.70342508923E+02  0.70342508923E+02  0.00000000000E+00 0. -1.
         21   -1    0    0  501  502  0.00000000000E+00 -0.00000000000E+00 -0.17663907153E+02  0.17663907153E+02  0.00000000000E+00 0. -1.
        -13    1    1    2    0    0 -0.21530837321E+02 -0.15631757396E+02  0.36612002097E+02  0.45259017407E+02  0.10566000000E+00 0.  1.
         13    1    1    2    0    0  0.11829536823E+02  0.18501883783E+02  0.21945535120E+02  0.31046341503E+02  0.10566000000E+00 0. -1.
         -4    1    1    2    0  502  0.97013004974E+01 -0.28701263873E+01 -0.58789354475E+01  0.11701057167E+02  0.00000000000E+00 0. -1.
</event>
<event>
 5    1  0.2540860E-005  0.1022110E+03  0.7818608E-02  0.1169561E+00
          4   -1    0    0  502    0 -0.00000000000E+00  0.00000000000E+00  0.41565313590E+03  0.41565313590E+03  0.00000000000E+00 0.  1.
         21   -1    0    0  501  502  0.00000000000E+00 -0.00000000000E+00 -0.26784234556E+03  0.26784234556E+03  0.00000000000E+00 0. -1.
        -13    1    1    2    0    0 -0.18816036008E+02  0.85720894792E+02  0.31366937497E+03  0.32571552461E+03  0.10566000000E+00 0.  1.
         13    1    1    2    0    0  0.96972095195E+01 -0.19876652710E+03 -0.75765997674E+02  0.21293817351E+03  0.10566000000E+00 0. -1.
          4    1    1    2  501    0  0.91188264883E+01  0.11304563231E+03 -0.90092586954E+02  0.14484178335E+03  0.00000000000E+00 0.  1.
</event>
<event>
 5    1  0.2540860E-005  0.4469534E+03  0.7818608E-02  0.9804246E-01
          4   -1    0    0  502    0 -0.00000000000E+00  0.00000000000E+00  0.89558548812E+03  0.89558548812E+03  0.00000000000E+00 0.  1.
         21   -1    0    0  501  502  0.00000000000E+00 -0.00000000000E+00 -0.40537649984E+03  0.40537649984E+03  0.00000000000E+00 0.  1.
        -13    1    1    2    0    0 -0.37674572468E+03  0.15133117826E+03  0.25134210351E+03  0.47750532012E+03  0.10566000000E+00 0.  1.
         13    1    1    2    0    0  0.48567620071E+02  0.21602424811E+03  0.24578706275E+03  0.33081200231E+03  0.10566000000E+00 0. -1.
          4    1    1    2  501    0  0.32817810461E+03 -0.36735542636E+03 -0.69201779834E+01  0.49264466554E+03  0.00000000000E+00 0.  1.
</event>
<event>
 5    1  0.2540860E-005  0.2025984E+03  0.7818608E-02  0.1058369E+00
         21   -1    0    0  501  502  0.00000000000E+00  0.00000000000E+00  0.12535755726E+04  0.12535755726E+04  0.00000000000E+00 0.  1.
         -4   -1    0    0    0  501 -0.00000000000E+00 -0.00000000000E+00 -0.15075603894E+03  0.15075603894E+03  0.00000000000E+00 0. -1.
        -13    1    1    2    0    0  0.93958308585E+02  0.88988754832E+02  0.69950556391E+03  0.71137557404E+03  0.10566000000E+00 0.  1.
         13    1    1    2    0    0 -0.45835542440E+02 -0.20885913613E+03 -0.51676796016E+02  0.21998531339E+03  0.10566000000E+00 0. -1.
         -4    1    1    2    0  502 -0.48122766145E+02  0.11987038130E+03  0.45499076572E+03  0.47297072407E+03  0.00000000000E+00 0. -1.
</event>
<event>
 5    1  0.2540860E-005  0.4367736E+03  0.7818608E-02  0.9628486E-01
          4   -1    0    0  502    0 -0.00000000000E+00  0.00000000000E+00  0.19046762905E+04  0.19046762905E+04  0.00000000000E+00 0.  1.
         21   -1    0    0  501  502  0.00000000000E+00 -0.00000000000E+00 -0.30744766934E+03  0.30744766934E+03  0.00000000000E+00 0.  1.
        -13    1    1    2    0    0 -0.27377573921E+03  0.57702266530E+03  0.71576353584E+03  0.95928398405E+03  0.10566000000E+00 0.  1.
         13    1    1    2    0    0 -0.57723988628E+02 -0.38146432550E+03  0.75473857312E+03  0.84763047103E+03  0.10566000000E+00 0. -1.
          4    1    1    2  501    0  0.33149972784E+03 -0.19555833980E+03  0.12672651215E+03  0.40520950471E+03  0.00000000000E+00 0.  1.
</event>
<event>
 5    1  0.2540860E-005  0.3331584E+03  0.7818608E-02  0.9945557E-01
         21   -1    0    0  501  502  0.00000000000E+00  0.00000000000E+00  0.32475083789E+03  0.32475083789E+03  0.00000000000E+00 0. -1.
         -4   -1    0    0    0  501 -0.00000000000E+00 -0.00000000000E+00 -0.17238299615E+04  0.17238299615E+04  0.00000000000E+00 0. -1.
        -13    1    1    2    0    0  0.26054596129E+03 -0.20822828984E+03 -0.70635032252E+03  0.78113635680E+03  0.10566000000E+00 0.  1.
         13    1    1    2    0    0  0.99898412485E+02  0.23863764182E+03 -0.83846232331E+03  0.87746606526E+03  0.10566000000E+00 0. -1.
         -4    1    1    2    0  502 -0.36044437377E+03 -0.30409351986E+02  0.14573352223E+03  0.38997837731E+03  0.00000000000E+00 0. -1.
</event>
<event>
 5    1  0.2540860E-005  0.1366814E+03  0.7818608E-02  0.1153929E+00
          4   -1    0    0  502    0 -0.00000000000E+00  0.00000000000E+00  0.10187949743E+04  0.10187949743E+04  0.00000000000E+00 0.  1.
         21   -1    0    0  501  502  0.00000000000E+00 -0.00000000000E+00 -0.27803188455E+03  0.27803188455E+03  0.00000000000E+00 0.  1.
        -13    1    1    2    0    0 -0.99808283088E+02 -0.14412692414E+03  0.93199141973E+03  0.94833658648E+03  0.10566000000E+00 0.  1.
         13    1    1    2    0    0  0.91122896511E+00  0.50743594218E+02  0.50198526769E+02  0.71383793302E+02  0.10566000000E+00 0. -1.
          4    1    1    2  501    0  0.98897054123E+02  0.93383329920E+02 -0.24142685671E+03  0.27710647911E+03  0.00000000000E+00 0.  1.
</event>
<event>
 5    1  0.2540860E-005  0.4963248E+03  0.7818608E-02  0.9486064E-01
         21   -1    0    0  501  502  0.00000000000E+00  0.00000000000E+00  0.13945868569E+03  0.13945868569E+03  0.00000000000E+00 0. -1.
          4   -1    0    0  502    0 -0.00000000000E+00 -0.00000000000E+00 -0.19949216953E+04  0.19949216953E+04  0.00000000000E+00 0.  1.
        -13    1    1    2    0    0  0.49493422608E+03  0.35667514997E+02 -0.11655769810E+04  0.12668077082E+04  0.10566000000E+00 0.  1.
         13    1    1    2    0    0 -0.49634268384E+03 -0.18319325392E+02 -0.68999447037E+03  0.85016706463E+03  0.10566000000E+00 0. -1.
          4    1    1    2  501    0  0.14084577560E+01 -0.17348189605E+02  0.10844175515E+00  0.17405608161E+02  0.00000000000E+00 0.  1.
</event>
<event>
 5    1  0.2540860E-005  0.2642505E+03  0.7818608E-02  0.1041316E+00
         -4   -1    0    0    0  501 -0.00000000000E+00  0.00000000000E+00  0.13505227360E+04  0.13505227360E+04  0.00000000000E+00 0. -1.
         21   -1    0    0  501  502  0.00000000000E+00 -0.00000000000E+00 -0.14827246239E+03  0.14827246239E+03  0.00000000000E+00 0. -1.
        -13    1    1    2    0    0 -0.11987034046E+03  0.92872704223E+02  0.49758945162E+03  0.52018219043E+03  0.10566000000E+00 0.  1.
         13    1    1    2    0    0 -0.45776569114E+02 -0.29737857347E+03  0.64061682037E+03  0.70775661915E+03  0.10566000000E+00 0. -1.
         -4    1    1    2    0  502  0.16564690957E+03  0.20450586925E+03  0.64044001602E+02  0.27085638879E+03  0.00000000000E+00 0. -1.
</event>
<event>
 5    1  0.2540860E-005  0.7377521E+02  0.7818608E-02  0.1217157E+00
         -4   -1    0    0    0  501 -0.00000000000E+00  0.00000000000E+00  0.50015970230E+03  0.50015970230E+03  0.00000000000E+00 0. -1.
         21   -1    0    0  501  502  0.00000000000E+00 -0.00000000000E+00 -0.43141697691E+02  0.43141697691E+02  0.00000000000E+00 0.  1.
        -13    1    1    2    0    0 -0.42529419148E+02  0.50187811418E+02  0.15189418865E+02  0.67515165092E+02  0.10566000000E+00 0.  1.
         13    1    1    2    0    0  0.56727331081E+02 -0.48756354877E+02  0.45207317545E+03  0.45821975007E+03  0.10566000000E+00 0. -1.
         -4    1    1    2    0  502 -0.14197911933E+02 -0.14314565412E+01 -0.10244589701E+02  0.17566484829E+02  0.00000000000E+00 0. -1.
</event>
<event>
 5    1  0.2540860E-005  0.3286678E+03  0.7818608E-02  0.9979152E-01
         -4   -1    0    0    0  501 -0.00000000000E+00  0.00000000000E+00  0.15167131366E+04  0.15167131366E+04  0.00000000000E+00 0. -1.
         21   -1    0    0  501  502  0.00000000000E+00 -0.00000000000E+00 -0.33973223467E+03  0.33973223467E+03  0.00000000000E+00 0. -1.
        -13    1    1    2    0    0 -0.10303481144E+02  0.30969127311E+03  0.55856720463E+03  0.63875831080E+03  0.10566000000E+00 0.  1.
         13    1    1    2    0    0 -0.31882486662E+03 -0.24877428203E+03  0.75475413041E+03  0.85626616627E+03  0.10566000000E+00 0. -1.
         -4    1    1    2    0  502  0.32912834777E+03 -0.60916991083E+02 -0.13634043307E+03  0.36142089424E+03  0.00000000000E+00 0. -1.
</event>
<event>
 5    1  0.2540860E-005  0.3774784E+03  0.7818608E-02  0.9796441E-01
         -4   -1    0    0    0  501 -0.00000000000E+00  0.00000000000E+00  0.24389073134E+04  0.24389073134E+04  0.00000000000E+00 0. -1.
         21   -1    0    0  501  502  0.00000000000E+00 -0.00000000000E+00 -0.10722286783E+03  0.10722286783E+03  0.00000000000E+00 0. -1.
        -13    1    1    2    0    0 -0.36053470324E+03 -0.51998550392E+02  0.58585763926E+03  0.68986832521E+03  0.10566000000E+00 0.  1.
         13    1    1    2    0    0  0.38030867180E+03  0.42754645279E+02  0.17772573684E+04  0.18179951623E+04  0.10566000000E+00 0. -1.
         -4    1    1    2    0  502 -0.19773968554E+02  0.92439051133E+01 -0.31430562079E+02  0.38266693700E+02  0.00000000000E+00 0. -1.
</event>
<event>
 5    1  0.2540860E-005  0.5554411E+03  0.7818608E-02  0.9364087E-01
          4   -1    0    0  502    0 -0.00000000000E+00  0.00000000000E+00  0.13705324405E+04  0.13705324405E+04  0.00000000000E+00 0.  1.
         21   -1    0    0  501  502  0.00000000000E+00 -0.00000000000E+00 -0.61707214729E+03  0.61707214729E+03  0.00000000000E+00 0. -1.
        -13    1    1    2    0    0 -0.73694857125E+03  0.36420299418E+02  0.22655318515E+03  0.77184583418E+03  0.10566000000E+00 0.  1.
         13    1    1    2    0    0  0.44058417264E+03  0.27952128488E+03  0.57904166784E+03  0.77944584555E+03  0.10566000000E+00 0. -1.
          4    1    1    2  501    0  0.29636439861E+03 -0.31594158429E+03 -0.52134559751E+02  0.43631290810E+03  0.00000000000E+00 0.  1.
</event>
<event>
 5    1  0.2540860E-005  0.4956888E+03  0.7818608E-02  0.9783641E-01
         -4   -1    0    0    0  501 -0.00000000000E+00  0.00000000000E+00  0.24293729939E+04  0.24293729939E+04  0.00000000000E+00 0. -1.
         21   -1    0    0  501  502  0.00000000000E+00 -0.00000000000E+00 -0.17696434891E+03  0.17696434891E+03  0.00000000000E+00 0. -1.
        -13    1    1    2    0    0 -0.17222668353E+03  0.25901720496E+02  0.91398610561E+03  0.93043191156E+03  0.10566000000E+00 0.  1.
         13    1    1    2    0    0  0.56511263714E+02  0.48299160192E+03  0.62100744416E+03  0.78874879861E+03  0.10566000000E+00 0. -1.
         -4    1    1    2    0  502  0.11571541981E+03 -0.50889332242E+03  0.71741509526E+03  0.88715663267E+03  0.00000000000E+00 0. -1.
</event>
<event>
 5    1  0.2540860E-005  0.4704598E+03  0.7818608E-02  0.9545180E-01
         21   -1    0    0  501  502  0.00000000000E+00  0.00000000000E+00  0.18440980392E+03  0.18440980392E+03  0.00000000000E+00 0. -1.
          4   -1    0    0  502    0 -0.00000000000E+00 -0.00000000000E+00 -0.13365681290E+04  0.13365681290E+04  0.00000000000E+00 0.  1.
        -13    1    1    2    0    0 -0.38707363295E+03 -0.26085766773E+03 -0.73160913464E+03  0.86782755037E+03  0.10566000000E+00 0.  1.
         13    1    1    2    0    0  0.39728230999E+03  0.26259359496E+03 -0.42808143018E+03  0.64034549423E+03  0.10566000000E+00 0. -1.
          4    1    1    2  501    0 -0.10208677044E+02 -0.17359272322E+01  0.75322397217E+01  0.12804888347E+02  0.00000000000E+00 0.  1.
</event>
<event>
 5    1  0.2540860E-005  0.2260043E+03  0.7818608E-02  0.1043636E+00
         -4   -1    0    0    0  501 -0.00000000000E+00  0.00000000000E+00  0.37446436542E+03  0.37446436542E+03  0.00000000000E+00 0. -1.
         21   -1    0    0  501  502  0.00000000000E+00 -0.00000000000E+00 -0.32018432630E+03  0.32018432630E+03  0.00000000000E+00 0.  1.
        -13    1    1    2    0    0 -0.18501665411E+03  0.11201764011E+03  0.22740019841E+03  0.31383112560E+03  0.10566000000E+00 0.  1.
         13    1    1    2    0    0  0.22408644751E+03 -0.14747113706E+03 -0.91119693045E+02  0.28331128084E+03  0.10566000000E+00 0. -1.
         -4    1    1    2    0  502 -0.39069793405E+02  0.35453496955E+02 -0.82000466257E+02  0.97506285282E+02  0.00000000000E+00 0. -1.
</event>
<event>
 5    1  0.2540860E-005  0.4434368E+03  0.7818608E-02  0.1007422E+00
         21   -1    0    0  501  502  0.00000000000E+00  0.00000000000E+00  0.96220072007E+02  0.96220072007E+02  0.00000000000E+00 0.  1.
          4   -1    0    0  502    0 -0.00000000000E+00 -0.00000000000E+00 -0.28134458447E+04  0.28134458447E+04  0.00000000000E+00 0.  1.
        -13    1    1    2    0    0 -0.28103987123E+03 -0.30462388325E+03 -0.79717539834E+03  0.89848079910E+03  0.10566000000E+00 0.  1.
         13    1    1    2    0    0 -0.81327186467E+02 -0.44167951198E+02 -0.23127328580E+03  0.24910291661E+03  0.10566000000E+00 0. -1.
          4    1    1    2  501    0  0.36236705769E+03  0.34879183445E+03 -0.16887770886E+04  0.17620822010E+04  0.00000000000E+00 0.  1.
</event>
<event>
 5    1  0.2540860E-005  0.5810991E+03  0.7818608E-02  0.9316002E-01
          4   -1    0    0  502    0 -0.00000000000E+00  0.00000000000E+00  0.19175148752E+04  0.19175148752E+04  0.00000000000E+00 0.  1.
         21   -1    0    0  501  502  0.00000000000E+00 -0.00000000000E+00 -0.69036267622E+03  0.69036267622E+03  0.00000000000E+00 0.  1.
        -13    1    1    2    0    0 -0.41908098638E+03  0.35330712946E+03  0.11691227816E+04  0.12912408336E+04  0.10566000000E+00 0.  1.
         13    1    1    2    0    0  0.36469704253E+03 -0.61883647978E+03  0.44441139032E+03  0.84466799190E+03  0.10566000000E+00 0. -1.
          4    1    1    2  501    0  0.54383943850E+02  0.26552935032E+03 -0.38638197291E+03  0.47196872589E+03  0.00000000000E+00 0.  1.
</event>
<event>
 5    1  0.2540860E-005  0.4963776E+03  0.7818608E-02  0.9801064E-01
         21   -1    0    0  501  502  0.00000000000E+00  0.00000000000E+00  0.89284681685E+03  0.89284681685E+03  0.00000000000E+00 0. -1.
         -4   -1    0    0    0  501 -0.00000000000E+00 -0.00000000000E+00 -0.42412328533E+03  0.42412328533E+03  0.00000000000E+00 0. -1.
        -13    1    1    2    0    0 -0.62920642501E+02  0.15080899413E+03 -0.62660879591E+02  0.17501073384E+03  0.10566000000E+00 0.  1.
         13    1    1    2    0    0 -0.25337790615E+03 -0.48710303838E+03  0.28242094929E+03  0.61743933879E+03  0.10566000000E+00 0. -1.
         -4    1    1    2    0  502  0.31629854865E+03  0.33629404425E+03  0.24896346182E+03  0.52452002955E+03  0.00000000000E+00 0. -1.
</event>
<event>
 5    1  0.2540860E-005  0.4961875E+03  0.7818608E-02  0.9761850E-01
         -4   -1    0    0    0  501 -0.00000000000E+00  0.00000000000E+00  0.10591778076E+04  0.10591778076E+04  0.00000000000E+00 0. -1.
         21   -1    0    0  501  502  0.00000000000E+00 -0.00000000000E+00 -0.38655488406E+03  0.38655488406E+03  0.00000000000E+00 0. -1.
        -13    1    1    2    0    0  0.18620770450E+03 -0.18503682210E+02  0.32474129655E+03  0.37479676669E+03  0.10566000000E+00 0.  1.
         13    1    1    2    0    0 -0.96395755707E+02 -0.48619617812E+03  0.22184024570E+03  0.54303956681E+03  0.10566000000E+00 0. -1.
         -4    1    1    2    0  502 -0.89811948789E+02  0.50469986033E+03  0.12604138128E+03  0.52789635816E+03  0.00000000000E+00 0. -1.
</event>
<event>
 5    1  0.2540860E-005  0.1312450E+03  0.7818608E-02  0.1121236E+00
          4   -1    0    0  502    0 -0.00000000000E+00  0.00000000000E+00  0.41805019624E+02  0.41805019624E+02  0.00000000000E+00 0.  1.
         21   -1    0    0  501  502  0.00000000000E+00 -0.00000000000E+00 -0.46613522726E+03  0.46613522726E+03  0.00000000000E+00 0. -1.
        -13    1    1    2    0    0 -0.50650220971E+02  0.12094352278E+03 -0.15277356148E+03  0.20132697991E+03  0.10566000000E+00 0.  1.
         13    1    1    2    0    0  0.40931719392E+02 -0.12516240513E+03 -0.24835837537E+03  0.28111016896E+03  0.10566000000E+00 0. -1.
          4    1    1    2  501    0  0.97185015792E+01  0.42188823499E+01 -0.23198270781E+02  0.25503098017E+02  0.00000000000E+00 0.  1.
</event>
<event>
 5    1  0.2540860E-005  0.4538675E+02  0.7818608E-02  0.1311804E+00
         21   -1    0    0  501  502  0.00000000000E+00  0.00000000000E+00  0.45439182748E+02  0.45439182748E+02  0.00000000000E+00 0. -1.
          4   -1    0    0  502    0 -0.00000000000E+00 -0.00000000000E+00 -0.20956827596E+03  0.20956827596E+03  0.00000000000E+00 0.  1.
        -13    1    1    2    0    0 -0.45012664019E+02 -0.69871328024E+01 -0.16840628680E+03  0.17445815700E+03  0.10566000000E+00 0.  1.
         13    1    1    2    0    0  0.38670289401E+02  0.30860262969E+02  0.17565560839E+02  0.52500544802E+02  0.10566000000E+00 0. -1.
          4    1    1    2  501    0  0.63423746178E+01 -0.23873130167E+02 -0.13288367253E+02  0.28048756907E+02  0.00000000000E+00 0.  1.
</event>
<event>
 5    1  0.2540860E-005  0.1364549E+03  0.7818608E-02  0.1115296E+00
         21   -1    0    0  501  502  0.00000000000E+00  0.00000000000E+00  0.28625311560E+03  0.28625311560E+03  0.00000000000E+00 0. -1.
          4   -1    0    0  502    0 -0.00000000000E+00 -0.00000000000E+00 -0.87400180859E+02  0.87400180859E+02  0.00000000000E+00 0.  1.
        -13    1    1    2    0    0 -0.12531625120E+03 -0.46274363190E+02  0.56360565268E+02  0.14498966854E+03  0.10566000000E+00 0.  1.
         13    1    1    2    0    0  0.13372806918E+03  0.40863573733E+02  0.71652834393E+02  0.15712150707E+03  0.10566000000E+00 0. -1.
          4    1    1    2  501    0 -0.84118179818E+01  0.54107894571E+01  0.70839535082E+02  0.71542120845E+02  0.00000000000E+00 0.  1.
</event>
<event>
 5    1  0.2540860E-005  0.5513227E+03  0.7818608E-02  0.9550834E-01
         -4   -1    0    0    0  501 -0.00000000000E+00  0.00000000000E+00  0.21386980416E+04  0.21386980416E+04  0.00000000000E+00 0. -1.
         21   -1    0    0  501  502  0.00000000000E+00 -0.00000000000E+00 -0.27365309257E+03  0.27365309257E+03  0.00000000000E+00 0. -1.
        -13    1    1    2    0    0  0.27100662279E+03 -0.92765649420E+02  0.77845637921E+03  0.82948441867E+03  0.10566000000E+00 0.  1.
         13    1    1    2    0    0  0.28099594920E+03 -0.34345612199E+03  0.48264949467E+03  0.65564577103E+03  0.10566000000E+00 0. -1.
         -4    1    1    2    0  502 -0.55200257200E+03  0.43622177141E+03  0.60393907511E+03  0.92722094443E+03  0.00000000000E+00 0. -1.
</event>
<event>
 5    1  0.2540860E-005  0.1685306E+03  0.7818608E-02  0.1084148E+00
          4   -1    0    0  502    0 -0.00000000000E+00  0.00000000000E+00  0.66489193774E+02  0.66489193774E+02  0.00000000000E+00 0.  1.
         21   -1    0    0  501  502  0.00000000000E+00 -0.00000000000E+00 -0.78147854765E+03  0.78147854765E+03  0.00000000000E+00 0. -1.
        -13    1    1    2    0    0 -0.15098737870E+03  0.82640986986E+02 -0.82979104775E+02  0.19108182606E+03  0.10566000000E+00 0.  1.
         13    1    1    2    0    0  0.14178465659E+03 -0.63050754652E+02 -0.51417502313E+03  0.53707937224E+03  0.10566000000E+00 0. -1.
          4    1    1    2  501    0  0.92027221043E+01 -0.19590232334E+02 -0.11783522597E+03  0.11980654313E+03  0.00000000000E+00 0.  1.
</event>
<event>
 5    1  0.2540860E-005  0.1741684E+03  0.7818608E-02  0.1079449E+00
          4   -1    0    0  502    0 -0.00000000000E+00  0.00000000000E+00  0.16983950174E+04  0.16983950174E+04  0.00000000000E+00 0.  1.
         21   -1    0    0  501  502  0.00000000000E+00 -0.00000000000E+00 -0.27001853837E+03  0.27001853837E+03  0.00000000000E+00 0.  1.
        -13    1    1    2    0    0 -0.77975469652E+02  0.12615583391E+03 -0.23732362744E+03  0.27985350382E+03  0.10566000000E+00 0.  1.
         13    1    1    2    0    0  0.50167366005E+02 -0.16812669083E+03  0.70367854761E+03  0.72522193728E+03  0.10566000000E+00 0. -1.
          4    1    1    2  501    0  0.27808103647E+02  0.41970856922E+02  0.96202155889E+03  0.96333811470E+03  0.00000000000E+00 0.  1.
</event>
<event>
 5    1  0.2540860E-005  0.5716167E+03  0.7818608E-02  0.9333461E-01
         21   -1    0    0  501  502  0.00000000000E+00  0.00000000000E+00  0.47109140501E+03  0.47109140501E+03  0.00000000000E+00 0.  1.
          4   -1    0    0  502    0 -0.00000000000E+00 -0.00000000000E+00 -0.16930831642E+04  0.16930831642E+04  0.00000000000E+00 0.  1.
        -13    1    1    2    0    0 -0.38648127088E+03 -0.58592911990E+03 -0.66680642109E+03  0.96814850135E+03  0.10566000000E+00 0.  1.
         13    1    1    2    0    0  0.22991272809E+03  0.45108566932E+03 -0.75469831415E+03  0.90879464135E+03  0.10566000000E+00 0. -1.
          4    1    1    2  501    0  0.15656854280E+03  0.13484345059E+03  0.19951297606E+03  0.28723142651E+03  0.00000000000E+00 0.  1.
</event>
<event>
 5    1  0.2540860E-005  0.3480779E+03  0.7818608E-02  0.9892302E-01
         21   -1    0    0  501  502  0.00000000000E+00  0.00000000000E+00  0.13938296461E+03  0.13938296461E+03  0.00000000000E+00 0.  1.
         -4   -1    0    0    0  501 -0.00000000000E+00 -0.00000000000E+00 -0.16758563601E+04  0.16758563601E+04  0.00000000000E+00 0. -1.
        -13    1    1    2    0    0  0.26775262903E+03 -0.19104259073E+03 -0.99177404178E+03  0.10448944937E+04  0.10566000000E+00 0.  1.
         13    1    1    2    0    0 -0.32925571516E+03  0.21233512258E+03 -0.57719198152E+03  0.69760026157E+03  0.10566000000E+00 0. -1.
         -4    1    1    2    0  502  0.61503086131E+02 -0.21292531855E+02  0.32492627836E+02  0.72744569420E+02  0.00000000000E+00 0. -1.
</event>
<event>
 5    1  0.2540860E-005  0.4671525E+03  0.7818608E-02  0.9994844E-01
         21   -1    0    0  501  502  0.00000000000E+00  0.00000000000E+00  0.68641535448E+03  0.68641535448E+03  0.00000000000E+00 0.  1.
          4   -1    0    0  502    0 -0.00000000000E+00 -0.00000000000E+00 -0.65324888924E+03  0.65324888924E+03  0.00000000000E+00 0.  1.
        -13    1    1    2    0    0 -0.41230041127E+03 -0.18499062377E+03  0.29937014285E+03  0.54206609708E+03  0.10566000000E+00 0.  1.
         13    1    1    2    0    0 -0.14977538685E+01 -0.10247634669E+03 -0.27520233805E+03  0.29366644843E+03  0.10566000000E+00 0. -1.
          4    1    1    2  501    0  0.41379816514E+03  0.28746697046E+03  0.89986604395E+01  0.50393169821E+03  0.00000000000E+00 0.  1.
</event>
<event>
 5    1  0.2540860E-005  0.3200609E+03  0.7818608E-02  0.1006573E+00
          4   -1    0    0  502    0 -0.00000000000E+00  0.00000000000E+00  0.56897028578E+03  0.56897028578E+03  0.00000000000E+00 0.  1.
         21   -1    0    0  501  502  0.00000000000E+00 -0.00000000000E+00 -0.93977538669E+03  0.93977538669E+03  0.00000000000E+00 0.  1.
        -13    1    1    2    0    0 -0.34382809651E+02 -0.25340686661E+03 -0.48155087043E+03  0.54524166167E+03  0.10566000000E+00 0.  1.
         13    1    1    2    0    0 -0.22083389412E+03 -0.28431976777E+03  0.71139330224E+02  0.36696887417E+03  0.10566000000E+00 0. -1.
          4    1    1    2  501    0  0.25521670377E+03  0.53772663438E+03  0.39606439298E+02  0.59653513663E+03  0.00000000000E+00 0.  1.
</event>
<event>
 5    1  0.2540860E-005  0.1773267E+03  0.7818608E-02  0.1076899E+00
          4   -1    0    0  502    0 -0.00000000000E+00  0.00000000000E+00  0.20998952166E+03  0.20998952166E+03  0.00000000000E+00 0.  1.
         21   -1    0    0  501  502  0.00000000000E+00 -0.00000000000E+00 -0.20413592613E+03  0.20413592613E+03  0.00000000000E+00 0. -1.
        -13    1    1    2    0    0  0.10096096891E+02 -0.18252381008E+03 -0.36767464236E+02  0.18646374985E+03  0.10566000000E+00 0.  1.
         13    1    1    2    0    0 -0.18642107652E+02  0.17362032329E+03  0.77217799573E+02  0.19092968489E+03  0.10566000000E+00 0. -1.
          4    1    1    2  501    0  0.85460107606E+01  0.89034867955E+01 -0.34596739809E+02  0.36732013047E+02  0.00000000000E+00 0.  1.
</event>
<event>
 5    1  0.2540860E-005  0.8288443E+02  0.7818608E-02  0.1196472E+00
         -4   -1    0    0    0  501 -0.00000000000E+00  0.00000000000E+00  0.32027621814E+02  0.32027621814E+02  0.00000000000E+00 0. -1.
         21   -1    0    0  501  502  0.00000000000E+00 -0.00000000000E+00 -0.54930567476E+03  0.54930567476E+03  0.00000000000E+00 0.  1.
        -13    1    1    2    0    0 -0.64742557823E+02  0.29308912753E+02 -0.30739294448E+03  0.31550125934E+03  0.10566000000E+00 0.  1.
         13    1    1    2    0    0  0.77153795545E+02 -0.36577945461E+02 -0.38192244484E+02  0.93537762235E+02  0.10566000000E+00 0. -1.
         -4    1    1    2    0  502 -0.12411237721E+02  0.72690327080E+01 -0.17169286398E+03  0.17229427501E+03  0.00000000000E+00 0. -1.
</event>
<event>
 5    1  0.2540860E-005  0.5429889E+02  0.7818608E-02  0.1275412E+00
         21   -1    0    0  501  502  0.00000000000E+00  0.00000000000E+00  0.58626421471E+02  0.58626421471E+02  0.00000000000E+00 0.  1.
         -4   -1    0    0    0  501 -0.00000000000E+00 -0.00000000000E+00 -0.16680482786E+03  0.16680482786E+03  0.00000000000E+00 0. -1.
        -13    1    1    2    0    0 -0.52084854459E+02  0.30103208609E+02 -0.39540340116E+01  0.60288313806E+02  0.10566000000E+00 0.  1.
         13    1    1    2    0    0  0.53145621428E+02  0.24295267812E+02 -0.92615207602E+02  0.10950938297E+03  0.10566000000E+00 0. -1.
         -4    1    1    2    0  502 -0.10607669690E+01 -0.54398476422E+02 -0.11609164780E+02  0.55633552560E+02  0.00000000000E+00 0. -1.
</event>
<event>
 5    1  0.2540860E-005  0.9015143E+03  0.7818608E-02  0.8873074E-01
          4   -1    0    0  502    0 -0.00000000000E+00  0.00000000000E+00  0.35810400470E+04  0.35810400470E+04  0.00000000000E+00 0.  1.
         21   -1    0    0  501  502  0.00000000000E+00 -0.00000000000E+00 -0.37480863927E+03  0.37480863927E+03  0.00000000000E+00 0.  1.
        -13    1    1    2    0    0  0.15720749222E+03  0.98241949414E+03  0.13046206259E+04  0.16407002307E+04  0.10566000000E+00 0.  1.
         13    1    1    2    0    0  0.19464738455E+03 -0.84660402514E+03  0.16408851965E+04  0.18566448823E+04  0.10566000000E+00 0. -1.
          4    1    1    2  501    0 -0.35185487678E+03 -0.13581546899E+03  0.26072558532E+03  0.45850357334E+03  0.00000000000E+00 0.  1.
</event>
<event>
 5    1  0.2540860E-005  0.1880390E+03  0.7818608E-02  0.1068660E+00
          4   -1    0    0  502    0 -0.00000000000E+00  0.00000000000E+00  0.11697203544E+04  0.11697203544E+04  0.00000000000E+00 0.  1.
         21   -1    0    0  501  502  0.00000000000E+00 -0.00000000000E+00 -0.36531165218E+02  0.36531165218E+02  0.00000000000E+00 0. -1.
        -13    1    1    2    0    0 -0.17153708830E+03 -0.57354259949E+02  0.62146243930E+03  0.64724806560E+03  0.10566000000E+00 0.  1.
         13    1    1    2    0    0  0.18450309512E+03  0.75052680578E+02  0.48574438041E+03  0.52499705831E+03  0.10566000000E+00 0. -1.
          4    1    1    2  501    0 -0.12966006818E+02 -0.17698420628E+02  0.25982369455E+02  0.34006395693E+02  0.00000000000E+00 0.  1.
</event>
<event>
 5    1  0.2540860E-005  0.3513347E+03  0.7818608E-02  0.9882852E-01
         21   -1    0    0  501  502  0.00000000000E+00  0.00000000000E+00  0.27152481434E+03  0.27152481434E+03  0.00000000000E+00 0. -1.
          4   -1    0    0  502    0 -0.00000000000E+00 -0.00000000000E+00 -0.19832154054E+04  0.19832154054E+04  0.00000000000E+00 0.  1.
        -13    1    1    2    0    0 -0.22362939240E+02  0.36336004582E+03 -0.94168771015E+01  0.36416934617E+03  0.10566000000E+00 0.  1.
         13    1    1    2    0    0 -0.31979368676E+03 -0.14072534259E+03 -0.42794892766E+03  0.55245988088E+03  0.10566000000E+00 0. -1.
          4    1    1    2  501    0  0.34215662600E+03 -0.22263470323E+03 -0.12743247863E+04  0.13381109927E+04  0.00000000000E+00 0.  1.
</event>
<event>
 5    1  0.2540860E-005  0.4857736E+03  0.7818608E-02  0.9522068E-01
         21   -1    0    0  501  502  0.00000000000E+00  0.00000000000E+00  0.32232668095E+03  0.32232668095E+03  0.00000000000E+00 0. -1.
         -4   -1    0    0    0  501 -0.00000000000E+00 -0.00000000000E+00 -0.20373335929E+04  0.20373335929E+04  0.00000000000E+00 0. -1.
        -13    1    1    2    0    0 -0.50956493652E+02  0.46171128922E+03 -0.76922557942E+03  0.89859995663E+03  0.10566000000E+00 0.  1.
         13    1    1    2    0    0  0.26427088027E+03  0.13140634286E+03 -0.74213471909E+03  0.79866806468E+03  0.10566000000E+00 0. -1.
         -4    1    1    2    0  502 -0.21331438662E+03 -0.59311763208E+03 -0.20364661339E+03  0.66239225250E+03  0.00000000000E+00 0. -1.
</event>
<event>
 5    1  0.2540860E-005  0.4812544E+03  0.7818608E-02  0.9520033E-01
         21   -1    0    0  501  502  0.00000000000E+00  0.00000000000E+00  0.69605877238E+03  0.69605877238E+03  0.00000000000E+00 0. -1.
          4   -1    0    0  502    0 -0.00000000000E+00 -0.00000000000E+00 -0.99808778979E+03  0.99808778979E+03  0.00000000000E+00 0.  1.
        -13    1    1    2    0    0 -0.25711241797E+03  0.39712829074E+03 -0.40493831680E+03  0.62273005898E+03  0.10566000000E+00 0.  1.
         13    1    1    2    0    0  0.48105092253E+02 -0.52492573083E+03 -0.29506057299E+03  0.60408763908E+03  0.10566000000E+00 0. -1.
          4    1    1    2  501    0  0.20900732572E+03  0.12779744009E+03  0.39796987239E+03  0.46732886411E+03  0.00000000000E+00 0.  1.
</event>
<event>
 5    1  0.2540860E-005  0.6587332E+02  0.7818608E-02  0.1237990E+00
          4   -1    0    0  502    0 -0.00000000000E+00  0.00000000000E+00  0.95149472573E+02  0.95149472573E+02  0.00000000000E+00 0.  1.
         21   -1    0    0  501  502  0.00000000000E+00 -0.00000000000E+00 -0.20467394762E+03  0.20467394762E+03  0.00000000000E+00 0.  1.
        -13    1    1    2    0    0 -0.66448518779E+02  0.24212590609E+02  0.68093082173E+02  0.98175018186E+02  0.10566000000E+00 0.  1.
         13    1    1    2    0    0  0.32890995588E+02 -0.37445841382E+02 -0.56826931544E+02  0.75586506337E+02  0.10566000000E+00 0. -1.
          4    1    1    2  501    0  0.33557523191E+02  0.13233250773E+02 -0.12079062567E+03  0.12606189567E+03  0.00000000000E+00 0.  1.
</event>
<event>
 5    1  0.2540860E-005  0.4967154E+03  0.7818608E-02  0.9485201E-01
         -4   -1    0    0    0  501 -0.00000000000E+00  0.00000000000E+00  0.36669096506E+04  0.36669096506E+04  0.00000000000E+00 0. -1.
         21   -1    0    0  501  502  0.00000000000E+00 -0.00000000000E+00 -0.98371986350E+02  0.98371986350E+02  0.00000000000E+00 0.  1.
        -13    1    1    2    0    0  0.39278238174E+03 -0.31358129872E+03  0.15686763685E+04  0.16472270003E+04  0.10566000000E+00 0.  1.
         13    1    1    2    0    0 -0.39114471539E+03  0.29901446887E+03  0.20276867050E+04  0.20866042331E+04  0.10566000000E+00 0. -1.
         -4    1    1    2    0  502 -0.16376663569E+01  0.14566829849E+02 -0.27825409225E+02  0.31450403518E+02  0.00000000000E+00 0. -1.
</event>
<event>
 5    1  0.2540860E-005  0.4168493E+02  0.7818608E-02  0.1329917E+00
          4   -1    0    0  502    0 -0.00000000000E+00  0.00000000000E+00  0.41732203048E+02  0.41732203048E+02  0.00000000000E+00 0.  1.
         21   -1    0    0  501  502  0.00000000000E+00 -0.00000000000E+00 -0.19447485655E+03  0.19447485655E+03  0.00000000000E+00 0. -1.
        -13    1    1    2    0    0 -0.40715845531E+02  0.73732389308E+01  0.23445943099E+02  0.47559101563E+02  0.10566000000E+00 0.  1.
         13    1    1    2    0    0  0.40969141660E+02 -0.25929423260E+02 -0.13591821665E+03  0.14430723593E+03  0.10566000000E+00 0. -1.
          4    1    1    2  501    0 -0.25329612835E+00  0.18556184329E+02 -0.40270379943E+02  0.44340722102E+02  0.00000000000E+00 0.  1.
</event>
<event>
 5    1  0.2540860E-005  0.7420612E+02  0.7818608E-02  0.1216105E+00
         21   -1    0    0  501  502  0.00000000000E+00  0.00000000000E+00  0.15650370917E+03  0.15650370917E+03  0.00000000000E+00 0. -1.
          4   -1    0    0  502    0 -0.00000000000E+00 -0.00000000000E+00 -0.22605473400E+03  0.22605473400E+03  0.00000000000E+00 0.  1.
        -13    1    1    2    0    0  0.26095391380E+02  0.68154059042E+02 -0.19200638954E+03  0.20540791125E+03  0.10566000000E+00 0.  1.
         13    1    1    2    0    0 -0.12837329748E+02 -0.91319115921E+02  0.62157575703E+02  0.11120950206E+03  0.10566000000E+00 0. -1.
          4    1    1    2  501    0 -0.13258061632E+02  0.23165056879E+02  0.60297789011E+02  0.65941029853E+02  0.00000000000E+00 0.  1.
</event>
<event>
 5    1  0.2540860E-005  0.4032958E+03  0.7818608E-02  0.1000489E+00
          4   -1    0    0  502    0 -0.00000000000E+00  0.00000000000E+00  0.66910814689E+03  0.66910814689E+03  0.00000000000E+00 0.  1.
         21   -1    0    0  501  502  0.00000000000E+00 -0.00000000000E+00 -0.51036987862E+03  0.51036987862E+03  0.00000000000E+00 0.  1.
        -13    1    1    2    0    0  0.32856089925E+03 -0.53049621985E+02  0.33151954434E+03  0.46975711421E+03  0.10566000000E+00 0.  1.
         13    1    1    2    0    0  0.92937012072E+02  0.12295345313E+03  0.11696638400E+03  0.19348381328E+03  0.10566000000E+00 0. -1.
          4    1    1    2  501    0 -0.42149791132E+03 -0.69903831149E+02 -0.28974766006E+03  0.51623709802E+03  0.00000000000E+00 0.  1.
</event>
<event>
 5    1  0.2540860E-005  0.3384734E+02  0.7818608E-02  0.1395637E+00
         -4   -1    0    0    0  501 -0.00000000000E+00  0.00000000000E+00  0.21617739371E+03  0.21617739371E+03  0.00000000000E+00 0. -1.
         21   -1    0    0  501  502  0.00000000000E+00 -0.00000000000E+00 -0.40890443040E+02  0.40890443040E+02  0.00000000000E+00 0. -1.
        -13    1    1    2    0    0 -0.22430404190E+02 -0.95787966157E+01  0.28392854562E+02  0.37430491995E+02  0.10566000000E+00 0.  1.
         13    1    1    2    0    0  0.29746827359E+02  0.41938588555E+02  0.17104196249E+03  0.17860314399E+03  0.10566000000E+00 0. -1.
         -4    1    1    2    0  502 -0.73164231695E+01 -0.32359791939E+02 -0.24147866375E+02  0.41034200769E+02  0.00000000000E+00 0. -1.
</event>
<event>
 5    1  0.2540860E-005  0.2178531E+03  0.7818608E-02  0.1048541E+00
         21   -1    0    0  501  502  0.00000000000E+00  0.00000000000E+00  0.31564522695E+03  0.31564522695E+03  0.00000000000E+00 0.  1.
          4   -1    0    0  502    0 -0.00000000000E+00 -0.00000000000E+00 -0.34060791804E+03  0.34060791804E+03  0.00000000000E+00 0.  1.
        -13    1    1    2    0    0  0.73520535244E+02  0.28766502338E+03 -0.12427920963E+03  0.32187228506E+03  0.10566000000E+00 0.  1.
         13    1    1    2    0    0 -0.56784935972E+02 -0.14722786100E+03 -0.62075184089E+01  0.15792123498E+03  0.10566000000E+00 0. -1.
          4    1    1    2  501    0 -0.16735599272E+02 -0.14043716238E+03  0.10552403695E+03  0.17645962495E+03  0.00000000000E+00 0.  1.
</event>
<event>
 5    1  0.2540860E-005  0.1030584E+03  0.7818608E-02  0.1159592E+00
         21   -1    0    0  501  502  0.00000000000E+00  0.00000000000E+00  0.24356491945E+03  0.24356491945E+03  0.00000000000E+00 0.  1.
          4   -1    0    0  502    0 -0.00000000000E+00 -0.00000000000E+00 -0.99928849733E+02  0.99928849733E+02  0.00000000000E+00 0.  1.
        -13    1    1    2    0    0  0.11049381695E+03  0.16870531209E+02 -0.21314237676E+02  0.11378842779E+03  0.10566000000E+00 0.  1.
         13    1    1    2    0    0 -0.88301817290E+02 -0.21504971633E+02  0.34359028770E+02  0.97160839662E+02  0.10566000000E+00 0. -1.
          4    1    1    2  501    0 -0.22191999659E+02  0.46344404241E+01  0.13059127863E+03  0.13254450173E+03  0.00000000000E+00 0.  1.
</event>
<event>
 5    1  0.2540860E-005  0.5804822E+03  0.7818608E-02  0.9317127E-01
          4   -1    0    0  502    0 -0.00000000000E+00  0.00000000000E+00  0.66025122981E+03  0.66025122981E+03  0.00000000000E+00 0.  1.
         21   -1    0    0  501  502  0.00000000000E+00 -0.00000000000E+00 -0.10656710952E+04  0.10656710952E+04  0.00000000000E+00 0.  1.
        -13    1    1    2    0    0 -0.60611713762E+03 -0.35654619796E+03 -0.24647647926E+03  0.74515356927E+03  0.10566000000E+00 0.  1.
         13    1    1    2    0    0  0.23157643571E+03  0.47103266586E+03 -0.24583428641E+03  0.57959807230E+03  0.10566000000E+00 0. -1.
          4    1    1    2  501    0  0.37454070192E+03 -0.11448646790E+03  0.86890900253E+02  0.40117068346E+03  0.00000000000E+00 0.  1.
</event>
<event>
 5    1  0.1151792E-004  0.8006783E+03  0.7818608E-02  0.9073942E-01
          4   -1    0    0  502    0 -0.00000000000E+00  0.00000000000E+00  0.21950219344E+04  0.21950219344E+04  0.00000000000E+00 0.  1.
         21   -1    0    0  501  502  0.00000000000E+00 -0.00000000000E+00 -0.67631082974E+03  0.67631082974E+03  0.00000000000E+00 0. -1.
        -13    1    1    2    0    0  0.50543317918E+03 -0.70393928733E+02  0.68782647305E+03  0.85645973169E+03  0.10566000000E+00 0.  1.
         13    1    1    2    0    0 -0.52017287800E+03  0.87093656087E+03  0.61222077940E+03  0.11848732464E+04  0.10566000000E+00 0. -1.
          4    1    1    2  501    0  0.14739698819E+02 -0.80054263214E+03  0.21866385218E+03  0.82999978605E+03  0.00000000000E+00 0.  1.
</event>
<event>
 5    1  0.2540860E-005  0.4823157E+03  0.7818608E-02  0.1013643E+00
          4   -1    0    0  502    0 -0.00000000000E+00  0.00000000000E+00  0.27272098973E+04  0.27272098973E+04  0.00000000000E+00 0.  1.
         21   -1    0    0  501  502  0.00000000000E+00 -0.00000000000E+00 -0.97599490428E+02  0.97599490428E+02  0.00000000000E+00 0.  1.
        -13    1    1    2    0    0 -0.31564015680E+03 -0.33357668672E+03  0.10990965401E+04  0.11911823244E+04  0.10566000000E+00 0.  1.
         13    1    1    2    0    0 -0.15047442207E+02 -0.56946187543E+02  0.13695489661E+03  0.14908369684E+03  0.10566000000E+00 0. -1.
          4    1    1    2  501    0  0.33068759901E+03  0.39052287427E+03  0.13935589702E+04  0.14845433665E+04  0.00000000000E+00 0.  1.
</event>
<event>
 5    1  0.2540860E-005  0.4857130E+03  0.7818608E-02  0.9715448E-01
          4   -1    0    0  502    0 -0.00000000000E+00  0.00000000000E+00  0.54994918108E+03  0.54994918108E+03  0.00000000000E+00 0.  1.
         21   -1    0    0  501  502  0.00000000000E+00 -0.00000000000E+00 -0.71013418804E+03  0.71013418804E+03  0.00000000000E+00 0.  1.
        -13    1    1    2    0    0 -0.27220564156E+03  0.45200410424E+03 -0.20801893407E+03  0.56716444674E+03  0.10566000000E+00 0.  1.
         13    1    1    2    0    0 -0.11147715513E+03 -0.20596112502E+03 -0.36636290858E+01  0.23422334315E+03  0.10566000000E+00 0. -1.
          4    1    1    2  501    0  0.38368279669E+03 -0.24604297922E+03  0.51497556203E+02  0.45869557922E+03  0.00000000000E+00 0.  1.
</event>
<event>
 5    1  0.2540860E-005  0.3496237E+03  0.7818608E-02  0.9887015E-01
         21   -1    0    0  501  502  0.00000000000E+00  0.00000000000E+00  0.10074864330E+03  0.10074864330E+03  0.00000000000E+00 0.  1.
         -4   -1    0    0    0  501 -0.00000000000E+00 -0.00000000000E+00 -0.23797354896E+04  0.23797354896E+04  0.00000000000E+00 0. -1.
        -13    1    1    2    0    0  0.33381966436E+03 -0.76220866903E+01 -0.40617949548E+03  0.52580933639E+03  0.10566000000E+00 0.  1.
         13    1    1    2    0    0 -0.35303625636E+03  0.26694768914E+02 -0.18898205479E+04  0.19226983443E+04  0.10566000000E+00 0. -1.
         -4    1    1    2    0  502  0.19216592000E+02 -0.19072682224E+02  0.17013197094E+02  0.31976452128E+02  0.00000000000E+00 0. -1.
</event>
<event>
 5    1  0.7672137E-005  0.4896889E+03  0.7818608E-02  0.1013050E+00
         21   -1    0    0  501  502  0.00000000000E+00  0.00000000000E+00  0.88164473944E+03  0.88164473944E+03  0.00000000000E+00 0.  1.
          4   -1    0    0  502    0 -0.00000000000E+00 -0.00000000000E+00 -0.35419492672E+03  0.35419492672E+03  0.00000000000E+00 0.  1.
        -13    1    1    2    0    0 -0.19601991767E+03  0.41715950820E+03  0.13377277452E+03  0.47993856875E+03  0.10566000000E+00 0.  1.
         13    1    1    2    0    0  0.92624777467E+01  0.56603123269E+02 -0.53315326027E+02  0.78308634334E+02  0.10566000000E+00 0. -1.
          4    1    1    2  501    0  0.18675743992E+03 -0.47376263147E+03  0.44699236423E+03  0.67759246308E+03  0.00000000000E+00 0.  1.
</event>
<event>
 5    1  0.2540860E-005  0.5016982E+03  0.7818608E-02  0.9687345E-01
         21   -1    0    0  501  502  0.00000000000E+00  0.00000000000E+00  0.12832829553E+04  0.12832829553E+04  0.00000000000E+00 0.  1.
          4   -1    0    0  502    0 -0.00000000000E+00 -0.00000000000E+00 -0.35513150080E+03  0.35513150080E+03  0.00000000000E+00 0.  1.
        -13    1    1    2    0    0 -0.12460628760E+03 -0.48160911703E+03  0.46508867618E+03  0.68101509263E+03  0.10566000000E+00 0.  1.
         13    1    1    2    0    0 -0.22187455145E+03  0.75469786344E+02 -0.22915271320E+02  0.23547638110E+03  0.10566000000E+00 0. -1.
          4    1    1    2  501    0  0.34648083906E+03  0.40613933068E+03  0.48597804967E+03  0.72192298240E+03  0.00000000000E+00 0.  1.
</event>
<event>
 5    1  0.2540860E-005  0.8823318E+02  0.7818608E-02  0.1185644E+00
          4   -1    0    0  502    0 -0.00000000000E+00  0.00000000000E+00  0.51645987685E+03  0.51645987685E+03  0.00000000000E+00 0.  1.
         21   -1    0    0  501  502  0.00000000000E+00 -0.00000000000E+00 -0.41110550962E+02  0.41110550962E+02  0.00000000000E+00 0.  1.
        -13    1    1    2    0    0  0.65501879879E+02  0.59870754951E+02  0.35998104162E+03  0.37075782535E+03  0.10566000000E+00 0.  1.
         13    1    1    2    0    0 -0.92582834507E+02 -0.22978984939E+02  0.10080945955E+03  0.13878823182E+03  0.10566000000E+00 0. -1.
          4    1    1    2  501    0  0.27080954628E+02 -0.36891770011E+02  0.14558824720E+02  0.48024370640E+02  0.00000000000E+00 0.  1.
</event>
<event>
 5    1  0.2540860E-005  0.5349824E+02  0.7818608E-02  0.1278166E+00
         -4   -1    0    0    0  501 -0.00000000000E+00  0.00000000000E+00  0.49871740621E+02  0.49871740621E+02  0.00000000000E+00 0. -1.
         21   -1    0    0  501  502  0.00000000000E+00 -0.00000000000E+00 -0.24956538554E+03  0.24956538554E+03  0.00000000000E+00 0. -1.
        -13    1    1    2    0    0  0.66379902723E+02 -0.16802087734E+01 -0.38960135859E+02  0.76987128387E+02  0.10566000000E+00 0.  1.
         13    1    1    2    0    0 -0.48305623133E+02 -0.10546847006E+02  0.99014473757E+01  0.50425380833E+02  0.10566000000E+00 0. -1.
         -4    1    1    2    0  502 -0.18074279591E+02  0.12227055779E+02 -0.17063495643E+03  0.17202461694E+03  0.00000000000E+00 0. -1.
</event>
<event>
 5    1  0.2540860E-005  0.4915545E+03  0.7818608E-02  0.9848273E-01
          4   -1    0    0  502    0 -0.00000000000E+00  0.00000000000E+00  0.15526256729E+04  0.15526256729E+04  0.00000000000E+00 0.  1.
         21   -1    0    0  501  502  0.00000000000E+00 -0.00000000000E+00 -0.23093734309E+03  0.23093734309E+03  0.00000000000E+00 0.  1.
        -13    1    1    2    0    0 -0.39185473315E+03 -0.31863421151E+03  0.35247841303E+03  0.61588873626E+03  0.10566000000E+00 0.  1.
         13    1    1    2    0    0  0.11818960994E+03 -0.81091803091E+02  0.37221570752E+03  0.39885988581E+03  0.10566000000E+00 0. -1.
          4    1    1    2  501    0  0.27366512321E+03  0.39972601460E+03  0.59699420928E+03  0.76881439394E+03  0.00000000000E+00 0.  1.
</event>
<event>
 5    1  0.2540860E-005  0.4371762E+03  0.7818608E-02  0.1004178E+00
          4   -1    0    0  502    0 -0.00000000000E+00  0.00000000000E+00  0.28475706673E+03  0.28475706673E+03  0.00000000000E+00 0.  1.
         21   -1    0    0  501  502  0.00000000000E+00 -0.00000000000E+00 -0.10940696518E+04  0.10940696518E+04  0.00000000000E+00 0.  1.
        -13    1    1    2    0    0 -0.90901377442E+02  0.50876272309E+03 -0.17182389508E+03  0.54463385032E+03  0.10566000000E+00 0.  1.
         13    1    1    2    0    0  0.14615727887E+02 -0.10628047536E+03 -0.50953117468E+02  0.11876611591E+03  0.10566000000E+00 0. -1.
          4    1    1    2  501    0  0.76285649555E+02 -0.40248224773E+03 -0.58653557250E+03  0.71542675228E+03  0.00000000000E+00 0.  1.
</event>
<event>
 5    1  0.2540860E-005  0.4074810E+03  0.7818608E-02  0.9944146E-01
         -4   -1    0    0    0  501 -0.00000000000E+00  0.00000000000E+00  0.73175469051E+03  0.73175469051E+03  0.00000000000E+00 0. -1.
         21   -1    0    0  501  502  0.00000000000E+00 -0.00000000000E+00 -0.51783013577E+03  0.51783013577E+03  0.00000000000E+00 0. -1.
        -13    1    1    2    0    0 -0.16406607206E+03  0.80002254685E+02  0.92997001726E+02  0.20485724358E+03  0.10566000000E+00 0.  1.
         13    1    1    2    0    0 -0.80509185580E+02  0.28386849439E+03  0.42052191929E+03  0.51371368177E+03  0.10566000000E+00 0. -1.
         -4    1    1    2    0  502  0.24457525764E+03 -0.36387074908E+03 -0.29959436628E+03  0.53101390093E+03  0.00000000000E+00 0. -1.
</event>
<event>
 5    1  0.2540860E-005  0.6247017E+02  0.7818608E-02  0.1275080E+00
         21   -1    0    0  501  502  0.00000000000E+00  0.00000000000E+00  0.92802312313E+02  0.92802312313E+02  0.00000000000E+00 0.  1.
         -4   -1    0    0    0  501 -0.00000000000E+00 -0.00000000000E+00 -0.80092706013E+02  0.80092706013E+02  0.00000000000E+00 0. -1.
        -13    1    1    2    0    0  0.16583221436E+02  0.31672740060E+02  0.18376250276E+02  0.40197803850E+02  0.10566000000E+00 0.  1.
         13    1    1    2    0    0 -0.71993363564E+02 -0.11424436070E+02 -0.98424000632E+01  0.73555734921E+02  0.10566000000E+00 0. -1.
         -4    1    1    2    0  502  0.55410142128E+02 -0.20248303990E+02  0.41757560870E+01  0.59141479555E+02  0.00000000000E+00 0. -1.
</event>
<event>
 5    1  0.2540860E-005  0.2049142E+03  0.7818608E-02  0.1056818E+00
         21   -1    0    0  501  502  0.00000000000E+00  0.00000000000E+00  0.71475451830E+03  0.71475451830E+03  0.00000000000E+00 0. -1.
          4   -1    0    0  502    0 -0.00000000000E+00 -0.00000000000E+00 -0.23278294504E+03  0.23278294504E+03  0.00000000000E+00 0.  1.
        -13    1    1    2    0    0  0.11224867594E+03  0.17262051556E+03 -0.10500138302E+03  0.23113396384E+03  0.10566000000E+00 0.  1.
         13    1    1    2    0    0 -0.23445049222E+03 -0.74807627412E+02  0.42532745441E+03  0.49139258140E+03  0.10566000000E+00 0. -1.
          4    1    1    2  501    0  0.12220181628E+03 -0.97812888145E+02  0.16164550187E+03  0.22501091810E+03  0.00000000000E+00 0.  1.
</event>
<event>
 5    1  0.2540860E-005  0.9310812E+02  0.7818608E-02  0.1200667E+00
         21   -1    0    0  501  502  0.00000000000E+00  0.00000000000E+00  0.52589878904E+03  0.52589878904E+03  0.00000000000E+00 0. -1.
         -4   -1    0    0    0  501 -0.00000000000E+00 -0.00000000000E+00 -0.48538889747E+02  0.48538889747E+02  0.00000000000E+00 0. -1.
        -13    1    1    2    0    0  0.30856898425E+02  0.43253583946E+02  0.11376501477E+02  0.54336513087E+02  0.10566000000E+00 0.  1.
         13    1    1    2    0    0 -0.85170853522E+02  0.36513796134E+02  0.80589909491E+02  0.12280910501E+03  0.10566000000E+00 0. -1.
         -4    1    1    2    0  502  0.54313955097E+02 -0.79767380080E+02  0.38539348833E+03  0.39729206069E+03  0.00000000000E+00 0. -1.
</event>
<event>
 5    1  0.2540860E-005  0.5479321E+03  0.7818608E-02  0.9390331E-01
         21   -1    0    0  501  502  0.00000000000E+00  0.00000000000E+00  0.15400542613E+04  0.15400542613E+04  0.00000000000E+00 0. -1.
          4   -1    0    0  502    0 -0.00000000000E+00 -0.00000000000E+00 -0.91327155917E+03  0.91327155917E+03  0.00000000000E+00 0.  1.
        -13    1    1    2    0    0  0.19111376169E+03  0.43540116488E+03 -0.40317971423E+03  0.62342003289E+03  0.10566000000E+00 0.  1.
         13    1    1    2    0    0 -0.70753288876E+03 -0.61854292196E+03  0.48681598965E+03  0.10583893206E+04  0.10566000000E+00 0. -1.
          4    1    1    2  501    0  0.51641912707E+03  0.18314175708E+03  0.54314642676E+03  0.77151646703E+03  0.00000000000E+00 0.  1.
</event>
<event>
 5    1  0.2540860E-005  0.4046482E+03  0.7818608E-02  0.9715717E-01
          4   -1    0    0  502    0 -0.00000000000E+00  0.00000000000E+00  0.23332334951E+04  0.23332334951E+04  0.00000000000E+00 0.  1.
         21   -1    0    0  501  502  0.00000000000E+00 -0.00000000000E+00 -0.86963958492E+02  0.86963958492E+02  0.00000000000E+00 0. -1.
        -13    1    1    2    0    0  0.40802959461E+03 -0.58985216469E+02  0.14952758669E+04  0.15510697389E+04  0.10566000000E+00 0.  1.
         13    1    1    2    0    0 -0.38864468678E+03  0.47934139163E+02  0.75083328588E+03  0.84681344381E+03  0.10566000000E+00 0. -1.
          4    1    1    2  501    0 -0.19384907833E+02  0.11051077307E+02  0.16038387697E+00  0.22314270867E+02  0.00000000000E+00 0.  1.
</event>
<event>
 5    1  0.2540860E-005  0.5041901E+03  0.7818608E-02  0.9754546E-01
         -4   -1    0    0    0  501 -0.00000000000E+00  0.00000000000E+00  0.78767557076E+03  0.78767557076E+03  0.00000000000E+00 0. -1.
         21   -1    0    0  501  502  0.00000000000E+00 -0.00000000000E+00 -0.46550604996E+03  0.46550604996E+03  0.00000000000E+00 0. -1.
        -13    1    1    2    0    0  0.54840383759E+02  0.17448193972E+03  0.55118394529E+02  0.19102215463E+03  0.10566000000E+00 0.  1.
         13    1    1    2    0    0  0.65032825284E+02 -0.57628898339E+03  0.30542977864E+02  0.58075050185E+03  0.10566000000E+00 0. -1.
         -4    1    1    2    0  502 -0.11987320904E+03  0.40180704367E+03  0.23650814841E+03  0.48140896424E+03  0.00000000000E+00 0. -1.
</event>
<event>
 5    1  0.2540860E-005  0.4464296E+03  0.7818608E-02  0.1004536E+00
         21   -1    0    0  501  502  0.00000000000E+00  0.00000000000E+00  0.13255861999E+04  0.13255861999E+04  0.00000000000E+00 0. -1.
         -4   -1    0    0    0  501 -0.00000000000E+00 -0.00000000000E+00 -0.53744428610E+03  0.53744428610E+03  0.00000000000E+00 0. -1.
        -13    1    1    2    0    0  0.21133975342E+02 -0.97315517839E+02 -0.86862646889E+02  0.13214418457E+03  0.10566000000E+00 0.  1.
         13    1    1    2    0    0  0.34963169623E+03 -0.16416050355E+03 -0.28846862547E+03  0.48208417624E+03  0.10566000000E+00 0. -1.
         -4    1    1    2    0  502 -0.37076567157E+03  0.26147602139E+03  0.11634731862E+04  0.12488021252E+04  0.00000000000E+00 0. -1.
</event>
<event>
 5    1  0.2540860E-005  0.4435985E+03  0.7818608E-02  0.9615460E-01
         21   -1    0    0  501  502  0.00000000000E+00  0.00000000000E+00  0.16189095203E+04  0.16189095203E+04  0.00000000000E+00 0.  1.
          4   -1    0    0  502    0 -0.00000000000E+00 -0.00000000000E+00 -0.39721228680E+03  0.39721228680E+03  0.00000000000E+00 0.  1.
        -13    1    1    2    0    0 -0.10198001221E+02 -0.37470807365E+03  0.53244075294E+03  0.65115536260E+03  0.10566000000E+00 0.  1.
         13    1    1    2    0    0 -0.40489291617E+03 -0.18972276878E+03  0.12198662921E+03  0.46348004427E+03  0.10566000000E+00 0. -1.
          4    1    1    2  501    0  0.41509091740E+03  0.56443084243E+03  0.56726985138E+03  0.90148640027E+03  0.00000000000E+00 0.  1.
</event>
<event>
 5    1  0.2540860E-005  0.8336092E+03  0.7818608E-02  0.8948932E-01
         -4   -1    0    0    0  501 -0.00000000000E+00  0.00000000000E+00  0.10538029684E+04  0.10538029684E+04  0.00000000000E+00 0. -1.
         21   -1    0    0  501  502  0.00000000000E+00 -0.00000000000E+00 -0.11364404363E+04  0.11364404363E+04  0.00000000000E+00 0. -1.
        -13    1    1    2    0    0  0.37229861809E+03 -0.67325478146E+03  0.36226506212E+03  0.85036124570E+03  0.10566000000E+00 0.  1.
         13    1    1    2    0    0 -0.51561677072E+03  0.85970525054E+03 -0.24682991049E+03  0.10324140584E+04  0.10566000000E+00 0. -1.
         -4    1    1    2    0  502  0.14331815263E+03 -0.18645046908E+03 -0.19807261957E+03  0.30746810065E+03  0.00000000000E+00 0. -1.
</event>
<event>
 5    1  0.2540860E-005  0.1367170E+03  0.7818608E-02  0.1115005E+00
          4   -1    0    0  502    0 -0.00000000000E+00  0.00000000000E+00  0.66022145043E+03  0.66022145043E+03  0.00000000000E+00 0.  1.
         21   -1    0    0  501  502  0.00000000000E+00 -0.00000000000E+00 -0.15242810933E+03  0.15242810933E+03  0.00000000000E+00 0.  1.
        -13    1    1    2    0    0  0.16552342384E+03  0.21768646193E+02  0.49276937084E+03  0.52028217517E+03  0.10566000000E+00 0.  1.
         13    1    1    2    0    0 -0.99486327148E+02  0.10437130769E+02  0.12500531395E+03  0.16010247552E+03  0.10566000000E+00 0. -1.
          4    1    1    2  501    0 -0.66037096687E+02 -0.32205776963E+02 -0.10998134369E+03  0.13226490906E+03  0.00000000000E+00 0.  1.
</event>
<event>
 5    1  0.2540860E-005  0.9347486E+02  0.7818608E-02  0.1175827E+00
         21   -1    0    0  501  502  0.00000000000E+00  0.00000000000E+00  0.79394564875E+02  0.79394564875E+02  0.00000000000E+00 0.  1.
          4   -1    0    0  502    0 -0.00000000000E+00 -0.00000000000E+00 -0.43847422862E+03  0.43847422862E+03  0.00000000000E+00 0.  1.
        -13    1    1    2    0    0  0.80544340045E+02  0.52522447182E+02 -0.37054654639E+03  0.38281947753E+03  0.10566000000E+00 0.  1.
         13    1    1    2    0    0 -0.80928829412E+02 -0.20850485607E+02 -0.24533570064E+02  0.87098366254E+02  0.10566000000E+00 0. -1.
          4    1    1    2  501    0  0.38448936657E+00 -0.31671961575E+02  0.36000452713E+02  0.47950949705E+02  0.00000000000E+00 0.  1.
</event>
<event>
 5    1  0.2540860E-005  0.5723262E+02  0.7818608E-02  0.1264852E+00
         21   -1    0    0  501  502  0.00000000000E+00  0.00000000000E+00  0.33316830172E+03  0.33316830172E+03  0.00000000000E+00 0. -1.
         -4   -1    0    0    0  501 -0.00000000000E+00 -0.00000000000E+00 -0.43693433463E+02  0.43693433463E+02  0.00000000000E+00 0. -1.
        -13    1    1    2    0    0 -0.20884428875E-02 -0.62316408084E+02  0.37947535983E+02  0.72961369039E+02  0.10566000000E+00 0.  1.
         13    1    1    2    0    0  0.15524098824E+02  0.53133252256E+02  0.37651820227E+01  0.55482681075E+02  0.10566000000E+00 0. -1.
         -4    1    1    2    0  502 -0.15522010381E+02  0.91831558286E+01  0.24776215025E+03  0.24841768506E+03  0.00000000000E+00 0. -1.
</event>
<event>
 5    1  0.2540860E-005  0.7509762E+03  0.7818608E-02  0.9052138E-01
         21   -1    0    0  501  502  0.00000000000E+00  0.00000000000E+00  0.51223195770E+03  0.51223195770E+03  0.00000000000E+00 0.  1.
          4   -1    0    0  502    0 -0.00000000000E+00 -0.00000000000E+00 -0.17609041315E+04  0.17609041315E+04  0.00000000000E+00 0.  1.
        -13    1    1    2    0    0  0.79539639300E+02 -0.87720114801E+03 -0.58846406577E+03  0.10592914501E+04  0.10566000000E+00 0.  1.
         13    1    1    2    0    0 -0.24751597675E+03  0.63298150797E+03 -0.60991902206E+03  0.91319821113E+03  0.10566000000E+00 0. -1.
          4    1    1    2  501    0  0.16797633745E+03  0.24421964004E+03 -0.50289085989E+02  0.30064642804E+03  0.00000000000E+00 0.  1.
</event>
<event>
 5    1  0.2540860E-005  0.4289570E+03  0.7818608E-02  0.9715143E-01
         -4   -1    0    0    0  501 -0.00000000000E+00  0.00000000000E+00  0.11450497757E+04  0.11450497757E+04  0.00000000000E+00 0. -1.
         21   -1    0    0  501  502  0.00000000000E+00 -0.00000000000E+00 -0.42893069056E+03  0.42893069056E+03  0.00000000000E+00 0. -1.
        -13    1    1    2    0    0 -0.82648075462E+02 -0.33016937382E+03  0.28938596826E+03  0.44675135095E+03  0.10566000000E+00 0.  1.
         13    1    1    2    0    0  0.65476720102E+02 -0.34298730535E+03  0.42010057564E+02  0.35169923032E+03  0.10566000000E+00 0. -1.
         -4    1    1    2    0  502  0.17171355360E+02  0.67315667917E+03  0.38472305934E+03  0.77552988501E+03  0.00000000000E+00 0. -1.
</event>
<event>
 5    1  0.2540860E-005  0.4781038E+03  0.7818608E-02  0.9908309E-01
         21   -1    0    0  501  502  0.00000000000E+00  0.00000000000E+00  0.13757330505E+03  0.13757330505E+03  0.00000000000E+00 0.  1.
          4   -1    0    0  502    0 -0.00000000000E+00 -0.00000000000E+00 -0.24281118053E+04  0.24281118053E+04  0.00000000000E+00 0.  1.
        -13    1    1    2    0    0 -0.24728102055E+03 -0.48335827090E+03 -0.11691767358E+04  0.12890916849E+04  0.10566000000E+00 0.  1.
         13    1    1    2    0    0  0.11146001271E+03  0.61530961248E+02 -0.48293673791E+03  0.49943698063E+03  0.10566000000E+00 0. -1.
          4    1    1    2  501    0  0.13582100784E+03  0.42182730965E+03 -0.63842502653E+03  0.77715644490E+03  0.00000000000E+00 0.  1.
</event>
<event>
 5    1  0.2540860E-005  0.5684531E+03  0.7818608E-02  0.9339366E-01
         -4   -1    0    0    0  501 -0.00000000000E+00  0.00000000000E+00  0.21213717395E+04  0.21213717395E+04  0.00000000000E+00 0. -1.
         21   -1    0    0  501  502  0.00000000000E+00 -0.00000000000E+00 -0.31914442595E+03  0.31914442595E+03  0.00000000000E+00 0. -1.
        -13    1    1    2    0    0 -0.52292746973E+03  0.44200787298E+02  0.20780145011E+03  0.56443626923E+03  0.10566000000E+00 0.  1.
         13    1    1    2    0    0  0.52635921545E+03 -0.26998033955E+03  0.15313375460E+04  0.16416266623E+04  0.10566000000E+00 0. -1.
         -4    1    1    2    0  502 -0.34317457195E+01  0.22577955225E+03  0.63088317417E+02  0.23445323390E+03  0.00000000000E+00 0. -1.
</event>
<event>
 5    1  0.2540860E-005  0.4626687E+03  0.7818608E-02  0.1008039E+00
         21   -1    0    0  501  502  0.00000000000E+00  0.00000000000E+00  0.17932951270E+03  0.17932951270E+03  0.00000000000E+00 0. -1.
         -4   -1    0    0    0  501 -0.00000000000E+00 -0.00000000000E+00 -0.18540030539E+04  0.18540030539E+04  0.00000000000E+00 0. -1.
        -13    1    1    2    0    0  0.65808276725E+02 -0.45264919627E+02 -0.44177003718E+03  0.44893253296E+03  0.10566000000E+00 0.  1.
         13    1    1    2    0    0 -0.36112452490E+03 -0.30681472264E+03 -0.89941644266E+03  0.10166101244E+04  0.10566000000E+00 0. -1.
         -4    1    1    2    0  502  0.29531624818E+03  0.35207964226E+03 -0.33348706132E+03  0.56778990921E+03  0.00000000000E+00 0. -1.
</event>
<event>
 5    1  0.2540860E-005  0.7318697E+03  0.7818608E-02  0.9077986E-01
          4   -1    0    0  502    0 -0.00000000000E+00  0.00000000000E+00  0.39767698847E+03  0.39767698847E+03  0.00000000000E+00 0.  1.
         21   -1    0    0  501  502  0.00000000000E+00 -0.00000000000E+00 -0.35282849630E+04  0.35282849630E+04  0.00000000000E+00 0.  1.
        -13    1    1    2    0    0 -0.46997197296E+03  0.90039957222E+03 -0.20772695514E+04  0.23122806589E+04  0.10566000000E+00 0.  1.
         13    1    1    2    0    0  0.32779119796E+03 -0.58729158075E+03 -0.21266798029E+03  0.70539786737E+03  0.10566000000E+00 0. -1.
          4    1    1    2  501    0  0.14218077499E+03 -0.31310799147E+03 -0.84067044288E+03  0.90828342528E+03  0.00000000000E+00 0.  1.
</event>
<event>
 5    1  0.2540860E-005  0.4800165E+03  0.7818608E-02  0.9706270E-01
         -4   -1    0    0    0  501 -0.00000000000E+00  0.00000000000E+00  0.44190489180E+03  0.44190489180E+03  0.00000000000E+00 0. -1.
         21   -1    0    0  501  502  0.00000000000E+00 -0.00000000000E+00 -0.99640818822E+03  0.99640818822E+03  0.00000000000E+00 0. -1.
        -13    1    1    2    0    0  0.14305966044E+03 -0.20562528589E+03  0.52583886070E+02  0.25595488055E+03  0.10566000000E+00 0.  1.
         13    1    1    2    0    0  0.72802591382E+02 -0.38175749432E+03 -0.22200549187E+03  0.44757731329E+03  0.10566000000E+00 0. -1.
         -4    1    1    2    0  502 -0.21586225182E+03  0.58738278021E+03 -0.38508169062E+03  0.73478088618E+03  0.00000000000E+00 0. -1.
</event>
<event>
 5    1  0.2540860E-005  0.4558875E+03  0.7818608E-02  0.9609292E-01
         21   -1    0    0  501  502  0.00000000000E+00  0.00000000000E+00  0.79642919394E+03  0.79642919394E+03  0.00000000000E+00 0.  1.
         -4   -1    0    0    0  501 -0.00000000000E+00 -0.00000000000E+00 -0.71625383281E+03  0.71625383281E+03  0.00000000000E+00 0. -1.
        -13    1    1    2    0    0  0.12899476022E+03  0.39037720531E+03 -0.34850979158E+02  0.41261193936E+03  0.10566000000E+00 0.  1.
         13    1    1    2    0    0  0.36317305423E+03 -0.27712461501E+03 -0.20654625178E+03  0.50135225625E+03  0.10566000000E+00 0. -1.
         -4    1    1    2    0  502 -0.49216781445E+03 -0.11325259030E+03  0.32157259207E+03  0.59871883114E+03  0.00000000000E+00 0. -1.
</event>
<event>
 5    1  0.2540860E-005  0.1634318E+03  0.7818608E-02  0.1124513E+00
          4   -1    0    0  502    0 -0.00000000000E+00  0.00000000000E+00  0.68821359830E+03  0.68821359830E+03  0.00000000000E+00 0.  1.
         21   -1    0    0  501  502  0.00000000000E+00 -0.00000000000E+00 -0.84654861072E+02  0.84654861072E+02  0.00000000000E+00 0.  1.
        -13    1    1    2    0    0  0.16509466459E+03 -0.41260548867E+02  0.49561624096E+02  0.17724290371E+03  0.10566000000E+00 0.  1.
         13    1    1    2    0    0 -0.23388949856E+02  0.57871024455E+02  0.85334148500E+02  0.10572618650E+03  0.10566000000E+00 0. -1.
          4    1    1    2  501    0 -0.14170571474E+03 -0.16610475588E+02  0.46866296463E+03  0.48989936916E+03  0.00000000000E+00 0.  1.
</event>
<event>
 5    1  0.2540860E-005  0.4185895E+03  0.7818608E-02  0.9843641E-01
          4   -1    0    0  502    0 -0.00000000000E+00  0.00000000000E+00  0.34138261599E+03  0.34138261599E+03  0.00000000000E+00 0.  1.
         21   -1    0    0  501  502  0.00000000000E+00 -0.00000000000E+00 -0.14020983673E+04  0.14020983673E+04  0.00000000000E+00 0.  1.
        -13    1    1    2    0    0 -0.35755897493E+03  0.40151443118E+03 -0.33470588435E+03  0.63331690265E+03  0.10566000000E+00 0.  1.
         13    1    1    2    0    0  0.33089563052E+01 -0.23575466302E+03  0.50129964085E+02  0.24104820014E+03  0.10566000000E+00 0. -1.
          4    1    1    2  501    0  0.35425001862E+03 -0.16575976816E+03 -0.77613983109E+03  0.86911588056E+03  0.00000000000E+00 0.  1.
</event>
<event>
 5    1  0.2540860E-005  0.1040161E+03  0.7818608E-02  0.1158077E+00
         21   -1    0    0  501  502  0.00000000000E+00  0.00000000000E+00  0.11249758766E+03  0.11249758766E+03  0.00000000000E+00 0. -1.
         -4   -1    0    0    0  501 -0.00000000000E+00 -0.00000000000E+00 -0.54380327634E+03  0.54380327634E+03  0.00000000000E+00 0. -1.
        -13    1    1    2    0    0 -0.99427849884E+02 -0.51719860512E+02 -0.10659362680E+03  0.15467079150E+03  0.10566000000E+00 0.  1.
         13    1    1    2    0    0  0.93104653363E+02  0.41528867303E+02 -0.40643809962E+03  0.41902871416E+03  0.10566000000E+00 0. -1.
         -4    1    1    2    0  502  0.63231965212E+01  0.10190993209E+02  0.81726037743E+02  0.82601358354E+02  0.00000000000E+00 0. -1.
</event>
<event>
 5    1  0.2540860E-005  0.3927045E+03  0.7818608E-02  0.1009766E+00
         -4   -1    0    0    0  501 -0.00000000000E+00  0.00000000000E+00  0.79144224133E+03  0.79144224133E+03  0.00000000000E+00 0. -1.
         21   -1    0    0  501  502  0.00000000000E+00 -0.00000000000E+00 -0.76466369134E+03  0.76466369134E+03  0.00000000000E+00 0. -1.
        -13    1    1    2    0    0 -0.11751947231E+03  0.38143291228E+02  0.44295598215E+03  0.45986492617E+03  0.10566000000E+00 0.  1.
         13    1    1    2    0    0 -0.31865841366E+03 -0.20249791287E+03 -0.49599029128E+03  0.62334177585E+03  0.10566000000E+00 0. -1.
         -4    1    1    2    0  502  0.43617788597E+03  0.16435462164E+03  0.79812859118E+02  0.47289923065E+03  0.00000000000E+00 0. -1.
</event>
<event>
 5    1  0.2540860E-005  0.1669234E+03  0.7818608E-02  0.1085524E+00
         -4   -1    0    0    0  501 -0.00000000000E+00  0.00000000000E+00  0.12100761779E+04  0.12100761779E+04  0.00000000000E+00 0. -1.
         21   -1    0    0  501  502  0.00000000000E+00 -0.00000000000E+00 -0.29144997860E+02  0.29144997860E+02  0.00000000000E+00 0.  1.
        -13    1    1    2    0    0 -0.16285646967E+03  0.49042247706E+02  0.62521268770E+03  0.64793386066E+03  0.10566000000E+00 0.  1.
         13    1    1    2    0    0  0.16262188220E+03 -0.24093458738E+02  0.53215275155E+03  0.55696762335E+03  0.10566000000E+00 0. -1.
         -4    1    1    2    0  502  0.23458746634E+00 -0.24948788968E+02  0.23565740814E+02  0.34319691758E+02  0.00000000000E+00 0. -1.
</event>
<event>
 5    1  0.2540860E-005  0.4613515E+03  0.7818608E-02  0.9605533E-01
         -4   -1    0    0    0  501 -0.00000000000E+00  0.00000000000E+00  0.18763931076E+04  0.18763931076E+04  0.00000000000E+00 0. -1.
         21   -1    0    0  501  502  0.00000000000E+00 -0.00000000000E+00 -0.33823304989E+03  0.33823304989E+03  0.00000000000E+00 0. -1.
        -13    1    1    2    0    0 -0.30194579009E+03  0.26544220122E+03  0.82515087826E+03  0.91788060520E+03  0.10566000000E+00 0.  1.
         13    1    1    2    0    0 -0.97486281159E+02  0.34122567514E+03  0.19843890806E+03  0.40659137691E+03  0.10566000000E+00 0. -1.
         -4    1    1    2    0  502  0.39943207125E+03 -0.60666787635E+03  0.51457027140E+03  0.89015417538E+03  0.00000000000E+00 0. -1.
</event>
<event>
 5    1  0.2540860E-005  0.3117879E+03  0.7818608E-02  0.1002555E+00
         -4   -1    0    0    0  501 -0.00000000000E+00  0.00000000000E+00  0.25064505402E+04  0.25064505402E+04  0.00000000000E+00 0. -1.
         21   -1    0    0  501  502  0.00000000000E+00 -0.00000000000E+00 -0.58224500491E+02  0.58224500491E+02  0.00000000000E+00 0.  1.
        -13    1    1    2    0    0 -0.27710028488E+03  0.11620531534E+03  0.59650735587E+03  0.66791412619E+03  0.10566000000E+00 0.  1.
         13    1    1    2    0    0  0.28300693416E+03 -0.14110249872E+03  0.18426875569E+04  0.18696257068E+04  0.10566000000E+00 0. -1.
         -4    1    1    2    0  502 -0.59066492736E+01  0.24897183383E+02  0.90311269860E+01  0.27135207769E+02  0.00000000000E+00 0. -1.
</event>
<event>
 5    1  0.2540860E-005  0.1065803E+03  0.7818608E-02  0.1154105E+00
         21   -1    0    0  501  502  0.00000000000E+00  0.00000000000E+00  0.11793245652E+03  0.11793245652E+03  0.00000000000E+00 0. -1.
         -4   -1    0    0    0  501 -0.00000000000E+00 -0.00000000000E+00 -0.55101329280E+03  0.55101329280E+03  0.00000000000E+00 0. -1.
        -13    1    1    2    0    0  0.12256662828E+03 -0.35389907626E+01 -0.62955944049E+02  0.13783528169E+03  0.10566000000E+00 0.  1.
         13    1    1    2    0    0 -0.98684719146E+02 -0.36282413290E+02 -0.43712528793E+03  0.44959272216E+03  0.10566000000E+00 0. -1.
         -4    1    1    2    0  502 -0.23881909132E+02  0.39821404053E+02  0.67000395697E+02  0.81517745480E+02  0.00000000000E+00 0. -1.
</event>
<event>
 5    1  0.2540860E-005  0.3366245E+03  0.7818608E-02  0.9932408E-01
         21   -1    0    0  501  502  0.00000000000E+00  0.00000000000E+00  0.84174759329E+03  0.84174759329E+03  0.00000000000E+00 0.  1.
          4   -1    0    0  502    0 -0.00000000000E+00 -0.00000000000E+00 -0.82204101799E+03  0.82204101799E+03  0.00000000000E+00 0.  1.
        -13    1    1    2    0    0 -0.13943990458E+03 -0.57352212642E+03  0.58482081061E+03  0.83089500429E+03  0.10566000000E+00 0.  1.
         13    1    1    2    0    0  0.38007717049E+02  0.31472921279E+03 -0.39701757429E+03  0.50805711234E+03  0.10566000000E+00 0. -1.
          4    1    1    2  501    0  0.10143218753E+03  0.25879291363E+03 -0.16809666102E+03  0.32483649465E+03  0.00000000000E+00 0.  1.
</event>
<event>
 5    1  0.2540860E-005  0.2804927E+03  0.7818608E-02  0.1060364E+00
          4   -1    0    0  502    0 -0.00000000000E+00  0.00000000000E+00  0.84289824429E+03  0.84289824429E+03  0.00000000000E+00 0.  1.
         21   -1    0    0  501  502  0.00000000000E+00 -0.00000000000E+00 -0.23088289008E+03  0.23088289008E+03  0.00000000000E+00 0.  1.
        -13    1    1    2    0    0 -0.20190201933E+03  0.24456652684E+03  0.65156485477E+03  0.72464748851E+03  0.10566000000E+00 0.  1.
         13    1    1    2    0    0  0.71983199785E+02 -0.23662128440E+01 -0.96945196469E+01  0.72671692493E+02  0.10566000000E+00 0. -1.
          4    1    1    2  501    0  0.12991881955E+03 -0.24220031400E+03 -0.29854980915E+02  0.27646195337E+03  0.00000000000E+00 0.  1.
</event>
<event>
 5    1  0.2540860E-005  0.3044594E+03  0.7818608E-02  0.1005482E+00
         -4   -1    0    0    0  501 -0.00000000000E+00  0.00000000000E+00  0.16382436881E+04  0.16382436881E+04  0.00000000000E+00 0. -1.
         21   -1    0    0  501  502  0.00000000000E+00 -0.00000000000E+00 -0.11812179845E+03  0.11812179845E+03  0.00000000000E+00 0.  1.
        -13    1    1    2    0    0  0.26972184847E+03 -0.11151982771E+03  0.20143460608E+03  0.35463003145E+03  0.10566000000E+00 0.  1.
         13    1    1    2    0    0 -0.28747713908E+03  0.10871231086E+03  0.13394577084E+04  0.13742665083E+04  0.10566000000E+00 0. -1.
         -4    1    1    2    0  502  0.17755290617E+02  0.28075168441E+01 -0.20770424794E+02  0.27468946864E+02  0.00000000000E+00 0. -1.
</event>
<event>
 5    1  0.2540860E-005  0.4809021E+03  0.7818608E-02  0.9695792E-01
         -4   -1    0    0    0  501 -0.00000000000E+00  0.00000000000E+00  0.19644225863E+04  0.19644225863E+04  0.00000000000E+00 0. -1.
         21   -1    0    0  501  502  0.00000000000E+00 -0.00000000000E+00 -0.21557513955E+03  0.21557513955E+03  0.00000000000E+00 0. -1.
        -13    1    1    2    0    0  0.15466725041E+03 -0.20696101983E+03  0.48175691570E+03  0.54666677150E+03  0.10566000000E+00 0.  1.
         13    1    1    2    0    0 -0.56976700024E+03  0.22380230388E+03  0.81592128589E+03  0.10200242456E+04  0.10566000000E+00 0. -1.
         -4    1    1    2    0  502  0.41509974983E+03 -0.16841284053E+02  0.45116924515E+03  0.61330670869E+03  0.00000000000E+00 0. -1.
</event>
<event>
 5    1  0.2540860E-005  0.4736403E+03  0.7818608E-02  0.9600710E-01
         -4   -1    0    0    0  501 -0.00000000000E+00  0.00000000000E+00  0.14678829910E+04  0.14678829910E+04  0.00000000000E+00 0. -1.
         21   -1    0    0  501  502  0.00000000000E+00 -0.00000000000E+00 -0.35990120342E+03  0.35990120342E+03  0.00000000000E+00 0. -1.
        -13    1    1    2    0    0 -0.36510871239E+03 -0.97762151089E+02  0.37529901742E+03  0.53264544838E+03  0.10566000000E+00 0.  1.
         13    1    1    2    0    0 -0.53599486619E+02 -0.40543873832E+03  0.22538088519E+03  0.46695827444E+03  0.10566000000E+00 0. -1.
         -4    1    1    2    0  502  0.41870819901E+03  0.50320088941E+03  0.50730188495E+03  0.82818047157E+03  0.00000000000E+00 0. -1.
</event>
<event>
 5    1  0.2540860E-005  0.5599515E+03  0.7818608E-02  0.9355438E-01
         -4   -1    0    0    0  501 -0.00000000000E+00  0.00000000000E+00  0.23781750121E+04  0.23781750121E+04  0.00000000000E+00 0. -1.
         21   -1    0    0  501  502  0.00000000000E+00 -0.00000000000E+00 -0.33523682913E+03  0.33523682913E+03  0.00000000000E+00 0. -1.
        -13    1    1    2    0    0  0.55616470741E+03  0.66009498020E+02  0.11298556525E+04  0.12610512449E+04  0.10566000000E+00 0.  1.
         13    1    1    2    0    0 -0.56679062737E+03  0.34976333316E+03  0.35016577226E+03  0.75246400826E+03  0.10566000000E+00 0. -1.
         -4    1    1    2    0  502  0.10625919963E+02 -0.41577283118E+03  0.56291675815E+03  0.69989658802E+03  0.00000000000E+00 0. -1.
</event>
<event>
 5    1  0.2540860E-005  0.4970500E+03  0.7818608E-02  0.9484461E-01
         -4   -1    0    0    0  501 -0.00000000000E+00  0.00000000000E+00  0.84318966808E+03  0.84318966808E+03  0.00000000000E+00 0. -1.
         21   -1    0    0  501  502  0.00000000000E+00 -0.00000000000E+00 -0.16816796694E+04  0.16816796694E+04  0.00000000000E+00 0. -1.
        -13    1    1    2    0    0  0.48063235369E+03  0.26436613515E+02  0.56925185954E+03  0.74548913118E+03  0.10566000000E+00 0.  1.
         13    1    1    2    0    0 -0.72154483845E+03 -0.19567240973E+03 -0.12179414076E+04  0.14290891957E+04  0.10566000000E+00 0. -1.
         -4    1    1    2    0  502  0.24091248476E+03  0.16923579622E+03 -0.18980045324E+03  0.35029101057E+03  0.00000000000E+00 0. -1.
</event>
<event>
 5    1  0.2540860E-005  0.2969754E+02  0.7818608E-02  0.1407354E+00
         21   -1    0    0  501  502  0.00000000000E+00  0.00000000000E+00  0.49739205547E+02  0.49739205547E+02  0.00000000000E+00 0. -1.
         -4   -1    0    0    0  501 -0.00000000000E+00 -0.00000000000E+00 -0.10087762352E+03  0.10087762352E+03  0.00000000000E+00 0. -1.
        -13    1    1    2    0    0  0.22413064714E+02  0.14395187674E+02  0.87884037851E+01  0.28050206829E+02  0.10566000000E+00 0.  1.
         13    1    1    2    0    0 -0.17634791373E+02 -0.24710771275E+02 -0.87566841678E+02  0.92679938548E+02  0.10566000000E+00 0. -1.
         -4    1    1    2    0  502 -0.47782733404E+01  0.10315583601E+02  0.27640019917E+02  0.29886683693E+02  0.00000000000E+00 0. -1.
</event>
<event>
 5    1  0.2540860E-005  0.3587757E+03  0.7818608E-02  0.9988331E-01
         21   -1    0    0  501  502  0.00000000000E+00  0.00000000000E+00  0.15359790709E+03  0.15359790709E+03  0.00000000000E+00 0. -1.
         -4   -1    0    0    0  501 -0.00000000000E+00 -0.00000000000E+00 -0.18952118204E+04  0.18952118204E+04  0.00000000000E+00 0. -1.
        -13    1    1    2    0    0 -0.97387010668E+02  0.20961473244E+03 -0.13246671799E+03  0.26640196779E+03  0.10566000000E+00 0.  1.
         13    1    1    2    0    0  0.32363451143E+03 -0.36584851827E+03 -0.95002981288E+03  0.10682420568E+04  0.10566000000E+00 0. -1.
         -4    1    1    2    0  502 -0.22624750077E+03  0.15623378583E+03 -0.65911738245E+03  0.71416570296E+03  0.00000000000E+00 0. -1.
</event>
<event>
 5    1  0.2540860E-005  0.4919798E+03  0.7818608E-02  0.9599671E-01
         21   -1    0    0  501  502  0.00000000000E+00  0.00000000000E+00  0.20607257962E+03  0.20607257962E+03  0.00000000000E+00 0.  1.
          4   -1    0    0  502    0 -0.00000000000E+00 -0.00000000000E+00 -0.23226253660E+04  0.23226253660E+04  0.00000000000E+00 0.  1.
        -13    1    1    2    0    0  0.51839301489E+03 -0.36761122202E+03 -0.85487596080E+03  0.10652146488E+04  0.10566000000E+00 0.  1.
         13    1    1    2    0    0 -0.33838467725E+03  0.91125405150E+01 -0.52513914044E+03  0.62478664853E+03  0.10566000000E+00 0. -1.
          4    1    1    2  501    0 -0.18000833764E+03  0.35849868150E+03 -0.73653768511E+03  0.83869664828E+03  0.00000000000E+00 0.  1.
</event>
<event>
 5    1  0.2704170E-005  0.3159697E+03  0.7818608E-02  0.1024442E+00
         21   -1    0    0  501  502  0.00000000000E+00  0.00000000000E+00  0.26501349915E+04  0.26501349915E+04  0.00000000000E+00 0. -1.
         -4   -1    0    0    0  501 -0.00000000000E+00 -0.00000000000E+00 -0.13307522139E+03  0.13307522139E+03  0.00000000000E+00 0. -1.
        -13    1    1    2    0    0 -0.13224930281E+03  0.68564575827E+02  0.17072505455E+03  0.22657898086E+03  0.10566000000E+00 0.  1.
         13    1    1    2    0    0  0.33408820614E+03  0.16914893305E+03  0.28174169734E+03  0.46861998059E+03  0.10566000000E+00 0. -1.
         -4    1    1    2    0  502 -0.20183890333E+03 -0.23771350888E+03  0.20645930182E+04  0.20880112514E+04  0.00000000000E+00 0. -1.
</event>
<event>
 5    1  0.2540860E-005  0.1297216E+03  0.7818608E-02  0.1177622E+00
         21   -1    0    0  501  502  0.00000000000E+00  0.00000000000E+00  0.16390364758E+03  0.16390364758E+03  0.00000000000E+00 0.  1.
          4   -1    0    0  502    0 -0.00000000000E+00 -0.00000000000E+00 -0.17442992417E+03  0.17442992417E+03  0.00000000000E+00 0.  1.
        -13    1    1    2    0    0 -0.76615503042E+02  0.12643108723E+03 -0.42892590620E+02  0.15393031092E+03  0.10566000000E+00 0.  1.
         13    1    1    2    0    0 -0.42152591855E+01 -0.33252607688E+02 -0.31061958196E+02  0.45698585745E+02  0.10566000000E+00 0. -1.
          4    1    1    2  501    0  0.80830762228E+02 -0.93178479541E+02  0.63428272230E+02  0.13870467508E+03  0.00000000000E+00 0.  1.
</event>
<event>
 5    1  0.2540860E-005  0.5681545E+03  0.7818608E-02  0.9339925E-01
         -4   -1    0    0    0  501 -0.00000000000E+00  0.00000000000E+00  0.94653777342E+03  0.94653777342E+03  0.00000000000E+00 0. -1.
         21   -1    0    0  501  502  0.00000000000E+00 -0.00000000000E+00 -0.94741270009E+03  0.94741270009E+03  0.00000000000E+00 0. -1.
        -13    1    1    2    0    0  0.62798219316E+03  0.79321079609E+02  0.25956883551E+03  0.68412678658E+03  0.10566000000E+00 0.  1.
         13    1    1    2    0    0 -0.42827276471E+03  0.44604804974E+03 -0.16183205948E+03  0.63919171639E+03  0.10566000000E+00 0. -1.
         -4    1    1    2    0  502 -0.19970942845E+03 -0.52536912935E+03 -0.98611702689E+02  0.57063197053E+03  0.00000000000E+00 0. -1.
</event>
<event>
 5    1  0.2540860E-005  0.1346737E+03  0.7818608E-02  0.1137513E+00
         -4   -1    0    0    0  501 -0.00000000000E+00  0.00000000000E+00  0.12445353283E+04  0.12445353283E+04  0.00000000000E+00 0. -1.
         21   -1    0    0  501  502  0.00000000000E+00 -0.00000000000E+00 -0.41026131300E+02  0.41026131300E+02  0.00000000000E+00 0. -1.
        -13    1    1    2    0    0  0.38219739499E+02 -0.70210169927E+02  0.49945654323E+02  0.94259195829E+02  0.10566000000E+00 0.  1.
         13    1    1    2    0    0 -0.90099973417E+02  0.16531937872E+03  0.77491819312E+03  0.79746267586E+03  0.10566000000E+00 0. -1.
         -4    1    1    2    0  502  0.51880233918E+02 -0.95109208792E+02  0.37864534953E+03  0.39383958789E+03  0.00000000000E+00 0. -1.
</event>
<event>
 5    1  0.2540860E-005  0.5308712E+03  0.7818608E-02  0.9465218E-01
         21   -1    0    0  501  502  0.00000000000E+00  0.00000000000E+00  0.22642710579E+03  0.22642710579E+03  0.00000000000E+00 0. -1.
         -4   -1    0    0    0  501 -0.00000000000E+00 -0.00000000000E+00 -0.36254406384E+04  0.36254406384E+04  0.00000000000E+00 0. -1.
        -13    1    1    2    0    0 -0.35772383394E+03 -0.46245423822E+03 -0.18187121071E+04  0.19103779740E+04  0.10566000000E+00 0.  1.
         13    1    1    2    0    0  0.15257131310E+03 -0.25709306237E+03 -0.82859648271E+03  0.88087853341E+03  0.10566000000E+00 0. -1.
         -4    1    1    2    0  502  0.20515252084E+03  0.71954730059E+03 -0.75170494281E+03  0.10606112368E+04  0.00000000000E+00 0. -1.
</event>
<event>
 5    1  0.2540860E-005  0.1241428E+03  0.7818608E-02  0.1130909E+00
         -4   -1    0    0    0  501 -0.00000000000E+00  0.00000000000E+00  0.17144441982E+04  0.17144441982E+04  0.00000000000E+00 0. -1.
         21   -1    0    0  501  502  0.00000000000E+00 -0.00000000000E+00 -0.45851325081E+02  0.45851325081E+02  0.00000000000E+00 0.  1.
        -13    1    1    2    0    0 -0.18791032668E+03  0.10562586569E+03  0.10500516538E+04  0.10719494396E+04  0.10566000000E+00 0.  1.
         13    1    1    2    0    0  0.80203299051E+02 -0.40498675087E+02  0.52211378848E+03  0.52978819461E+03  0.10566000000E+00 0. -1.
         -4    1    1    2    0  502  0.10770702763E+03 -0.65127190599E+02  0.96427430889E+02  0.15855788906E+03  0.00000000000E+00 0. -1.
</event>
<event>
 5    1  0.2540860E-005  0.4563191E+02  0.7818608E-02  0.1310673E+00
         -4   -1    0    0    0  501 -0.00000000000E+00  0.00000000000E+00  0.18620182054E+03  0.18620182054E+03  0.00000000000E+00 0. -1.
         21   -1    0    0  501  502  0.00000000000E+00 -0.00000000000E+00 -0.16165052053E+02  0.16165052053E+02  0.00000000000E+00 0.  1.
        -13    1    1    2    0    0 -0.33117034492E+02 -0.22469840112E+02  0.36836645196E+02  0.54392842190E+02  0.10566000000E+00 0.  1.
         13    1    1    2    0    0  0.46470863270E+02  0.17038375919E+02  0.11056076890E+03  0.12113439714E+03  0.10566000000E+00 0. -1.
         -4    1    1    2    0  502 -0.13353828778E+02  0.54314641927E+01  0.22639354389E+02  0.26839633258E+02  0.00000000000E+00 0. -1.
</event>
<event>
 5    1  0.2540860E-005  0.3217097E+03  0.7818608E-02  0.9987262E-01
         -4   -1    0    0    0  501 -0.00000000000E+00  0.00000000000E+00  0.48306694742E+03  0.48306694742E+03  0.00000000000E+00 0. -1.
         21   -1    0    0  501  502  0.00000000000E+00 -0.00000000000E+00 -0.14546171450E+04  0.14546171450E+04  0.00000000000E+00 0. -1.
        -13    1    1    2    0    0  0.30283189099E+03  0.10380869836E+03  0.35880503430E+03  0.48085804959E+03  0.10566000000E+00 0.  1.
         13    1    1    2    0    0 -0.31254201229E+03 -0.11537369643E+03 -0.37605041722E+03  0.50240175828E+03  0.10566000000E+00 0. -1.
         -4    1    1    2    0  502  0.97101212924E+01  0.11564998070E+02 -0.95430481470E+03  0.95442428458E+03  0.00000000000E+00 0. -1.
</event>
<event>
 5    1  0.2540860E-005  0.3473441E+03  0.7818608E-02  0.1026195E+00
         21   -1    0    0  501  502  0.00000000000E+00  0.00000000000E+00  0.21117142423E+03  0.21117142423E+03  0.00000000000E+00 0.  1.
          4   -1    0    0  502    0 -0.00000000000E+00 -0.00000000000E+00 -0.18007273081E+04  0.18007273081E+04  0.00000000000E+00 0.  1.
        -13    1    1    2    0    0 -0.43404469519E+02 -0.43696257390E+03 -0.10572784440E+04  0.11448397085E+04  0.10566000000E+00 0.  1.
         13    1    1    2    0    0  0.15258542736E+02  0.10506868530E+03 -0.52318573761E+03  0.53384977190E+03  0.10566000000E+00 0. -1.
          4    1    1    2  501    0  0.28145926783E+02  0.33189388860E+03 -0.90917022684E+01  0.33320925188E+03  0.00000000000E+00 0.  1.
</event>
<event>
 5    1  0.2540860E-005  0.4848904E+02  0.7818608E-02  0.1298066E+00
         21   -1    0    0  501  502  0.00000000000E+00  0.00000000000E+00  0.10353426733E+03  0.10353426733E+03  0.00000000000E+00 0.  1.
         -4   -1    0    0    0  501 -0.00000000000E+00 -0.00000000000E+00 -0.55576173821E+02  0.55576173821E+02  0.00000000000E+00 0. -1.
        -13    1    1    2    0    0  0.30200146939E+02 -0.35381474086E+02  0.67905894010E+02  0.82311112185E+02  0.10566000000E+00 0.  1.
         13    1    1    2    0    0 -0.39169710573E+02  0.29429071994E+02 -0.33604095916E+02  0.59410293141E+02  0.10566000000E+00 0. -1.
         -4    1    1    2    0  502  0.89695636338E+01  0.59524020923E+01  0.13656295411E+02  0.17389035822E+02  0.00000000000E+00 0. -1.
</event>
<event>
 5    1  0.2540860E-005  0.4861138E+03  0.7818608E-02  0.9861346E-01
         -4   -1    0    0    0  501 -0.00000000000E+00  0.00000000000E+00  0.15047665772E+04  0.15047665772E+04  0.00000000000E+00 0. -1.
         21   -1    0    0  501  502  0.00000000000E+00 -0.00000000000E+00 -0.23452222353E+03  0.23452222353E+03  0.00000000000E+00 0. -1.
        -13    1    1    2    0    0  0.13367854294E+03 -0.47304056707E+02  0.17704550412E+03  0.22683198257E+03  0.10566000000E+00 0.  1.
         13    1    1    2    0    0  0.43607555449E+03  0.92966224910E+02  0.31078132379E+03  0.54349760862E+03  0.10566000000E+00 0. -1.
         -4    1    1    2    0  502 -0.56975409743E+03 -0.45662168204E+02  0.78241752573E+03  0.96895920952E+03  0.00000000000E+00 0. -1.
</event>
<event>
 5    1  0.2540860E-005  0.5272777E+03  0.7818608E-02  0.9420109E-01
         -4   -1    0    0    0  501 -0.00000000000E+00  0.00000000000E+00  0.25435214621E+04  0.25435214621E+04  0.00000000000E+00 0. -1.
         21   -1    0    0  501  502  0.00000000000E+00 -0.00000000000E+00 -0.12729887131E+03  0.12729887131E+03  0.00000000000E+00 0.  1.
        -13    1    1    2    0    0  0.52830620499E+03 -0.96383446835E+02  0.11794015195E+04  0.12959109423E+04  0.10566000000E+00 0.  1.
         13    1    1    2    0    0 -0.49816076818E+03  0.14808066305E+03  0.11912790791E+04  0.12997068474E+04  0.10566000000E+00 0. -1.
         -4    1    1    2    0  502 -0.30145436808E+02 -0.51697216217E+02  0.45541992194E+02  0.75202543693E+02  0.00000000000E+00 0. -1.
</event>
<event>
 5    1  0.2540860E-005  0.1079019E+04  0.7818608E-02  0.8703696E-01
         -4   -1    0    0    0  501 -0.00000000000E+00  0.00000000000E+00  0.35675153695E+04  0.35675153695E+04  0.00000000000E+00 0. -1.
         21   -1    0    0  501  502  0.00000000000E+00 -0.00000000000E+00 -0.58253845061E+03  0.58253845061E+03  0.00000000000E+00 0.  1.
        -13    1    1    2    0    0 -0.16439829443E+03  0.10605059242E+04  0.23122896957E+04  0.25491926687E+04  0.10566000000E+00 0.  1.
         13    1    1    2    0    0  0.75140985172E+02 -0.10923080029E+04  0.85913072788E+03  0.13917214375E+04  0.10566000000E+00 0. -1.
         -4    1    1    2    0  502  0.89257309258E+02  0.31802078748E+02 -0.18644350469E+03  0.20913971385E+03  0.00000000000E+00 0. -1.
</event>
<event>
 5    1  0.2540860E-005  0.4795428E+03  0.7818608E-02  0.9602281E-01
         21   -1    0    0  501  502  0.00000000000E+00  0.00000000000E+00  0.31436078273E+03  0.31436078273E+03  0.00000000000E+00 0. -1.
         -4   -1    0    0    0  501 -0.00000000000E+00 -0.00000000000E+00 -0.16775821299E+04  0.16775821299E+04  0.00000000000E+00 0. -1.
        -13    1    1    2    0    0 -0.20118086231E+03  0.30113754787E+03 -0.58068953431E+03  0.68436679385E+03  0.10566000000E+00 0.  1.
         13    1    1    2    0    0  0.59571151747E+03 -0.10509161987E+03 -0.49342503260E+03  0.78063098489E+03  0.10566000000E+00 0. -1.
         -4    1    1    2    0  502 -0.39453065517E+03 -0.19604592800E+03 -0.28910678031E+03  0.52694513393E+03  0.00000000000E+00 0. -1.
</event>
<event>
 5    1  0.2540860E-005  0.8633819E+02  0.7818608E-02  0.1189381E+00
          4   -1    0    0  502    0 -0.00000000000E+00  0.00000000000E+00  0.93917535376E+02  0.93917535376E+02  0.00000000000E+00 0.  1.
         21   -1    0    0  501  502  0.00000000000E+00 -0.00000000000E+00 -0.19444708742E+03  0.19444708742E+03  0.00000000000E+00 0. -1.
        -13    1    1    2    0    0  0.85372404313E+02  0.24856893382E+02  0.57851999942E+02  0.10608099560E+03  0.10566000000E+00 0.  1.
         13    1    1    2    0    0 -0.69751336204E+02 -0.20832374828E+02 -0.11615870192E+03  0.13708425124E+03  0.10566000000E+00 0. -1.
          4    1    1    2  501    0 -0.15621068109E+02 -0.40245185544E+01 -0.42222850075E+02  0.45199375958E+02  0.00000000000E+00 0.  1.
</event>
<event>
 5    1  0.2540860E-005  0.4212360E+03  0.7818608E-02  0.9881128E-01
          4   -1    0    0  502    0 -0.00000000000E+00  0.00000000000E+00  0.31139490795E+03  0.31139490795E+03  0.00000000000E+00 0.  1.
         21   -1    0    0  501  502  0.00000000000E+00 -0.00000000000E+00 -0.12260180536E+04  0.12260180536E+04  0.00000000000E+00 0.  1.
        -13    1    1    2    0    0 -0.39821037045E+03  0.42738525468E+02 -0.66635351100E+03  0.77744780756E+03  0.10566000000E+00 0.  1.
         13    1    1    2    0    0 -0.97308614970E+02 -0.17917742960E+03 -0.58963192744E+02  0.21225029350E+03  0.10566000000E+00 0. -1.
          4    1    1    2  501    0  0.49551898542E+03  0.13643890413E+03 -0.18930644192E+03  0.54771486051E+03  0.00000000000E+00 0.  1.
</event>
<event>
 5    1  0.2540860E-005  0.2434293E+03  0.7818608E-02  0.1033855E+00
          4   -1    0    0  502    0 -0.00000000000E+00  0.00000000000E+00  0.74690037546E+03  0.74690037546E+03  0.00000000000E+00 0.  1.
         21   -1    0    0  501  502  0.00000000000E+00 -0.00000000000E+00 -0.24708107371E+03  0.24708107371E+03  0.00000000000E+00 0.  1.
        -13    1    1    2    0    0  0.19107998221E+03 -0.15821372629E+03  0.45847609669E+03  0.52129021206E+03  0.10566000000E+00 0.  1.
         13    1    1    2    0    0 -0.17402067013E+03  0.15881834838E+03  0.20248053224E+03  0.31065227911E+03  0.10566000000E+00 0. -1.
          4    1    1    2  501    0 -0.17059312089E+02 -0.60462209691E+00 -0.16113732718E+03  0.16203895799E+03  0.00000000000E+00 0.  1.
</event>
<event>
 5    1  0.2540860E-005  0.3185664E+03  0.7818608E-02  0.1003083E+00
         -4   -1    0    0    0  501 -0.00000000000E+00  0.00000000000E+00  0.85611457468E+03  0.85611457468E+03  0.00000000000E+00 0. -1.
         21   -1    0    0  501  502  0.00000000000E+00 -0.00000000000E+00 -0.29313307316E+03  0.29313307316E+03  0.00000000000E+00 0. -1.
        -13    1    1    2    0    0 -0.15139293237E+03 -0.24419674897E+03  0.76306955719E+02  0.29727871574E+03  0.10566000000E+00 0.  1.
         13    1    1    2    0    0  0.35129012846E+03 -0.37299402803E+02  0.22616763465E+03  0.41946133306E+03  0.10566000000E+00 0. -1.
         -4    1    1    2    0  502 -0.19989719609E+03  0.28149615177E+03  0.26050691115E+03  0.43250759904E+03  0.00000000000E+00 0. -1.
</event>
<event>
 5    1  0.2540860E-005  0.1500868E+03  0.7818608E-02  0.1101026E+00
         21   -1    0    0  501  502  0.00000000000E+00  0.00000000000E+00  0.51497557767E+03  0.51497557767E+03  0.00000000000E+00 0.  1.
          4   -1    0    0  502    0 -0.00000000000E+00 -0.00000000000E+00 -0.68568115399E+03  0.68568115399E+03  0.00000000000E+00 0.  1.
        -13    1    1    2    0    0 -0.55684802899E+02  0.15374578151E+03 -0.54334042756E+03  0.56741289551E+03  0.10566000000E+00 0.  1.
         13    1    1    2    0    0 -0.55910450755E+01 -0.12375069087E+03 -0.97835829541E+02  0.15785231700E+03  0.10566000000E+00 0. -1.
          4    1    1    2  501    0  0.61275847975E+02 -0.29995090644E+02  0.47047068078E+03  0.47539151915E+03  0.00000000000E+00 0.  1.
</event>
<event>
 5    1  0.2540860E-005  0.4918696E+03  0.7818608E-02  0.9646653E-01
         21   -1    0    0  501  502  0.00000000000E+00  0.00000000000E+00  0.31933425098E+03  0.31933425098E+03  0.00000000000E+00 0.  1.
          4   -1    0    0  502    0 -0.00000000000E+00 -0.00000000000E+00 -0.15327574740E+04  0.15327574740E+04  0.00000000000E+00 0.  1.
        -13    1    1    2    0    0 -0.55984232891E+03 -0.61136445994E+02 -0.40443904783E+03  0.69334843539E+03  0.10566000000E+00 0.  1.
         13    1    1    2    0    0  0.18257635557E+03 -0.22122488227E+03 -0.55180233603E+03  0.62190063785E+03  0.10566000000E+00 0. -1.
          4    1    1    2  501    0  0.37726597335E+03  0.28236132827E+03 -0.25718183918E+03  0.53684265176E+03  0.00000000000E+00 0.  1.
</event>
<event>
 5    1  0.2540860E-005  0.3435713E+03  0.7818608E-02  0.1044532E+00
         -4   -1    0    0    0  501 -0.00000000000E+00  0.00000000000E+00  0.37878285470E+03  0.37878285470E+03  0.00000000000E+00 0. -1.
         21   -1    0    0  501  502  0.00000000000E+00 -0.00000000000E+00 -0.10982978743E+04  0.10982978743E+04  0.00000000000E+00 0. -1.
        -13    1    1    2    0    0  0.16172546592E+02  0.60495719123E+02  0.14807599833E+03  0.16077249684E+03  0.10566000000E+00 0.  1.
         13    1    1    2    0    0 -0.18293734450E+03 -0.30075216100E+03 -0.94944972223E+03  0.10126068934E+04  0.10566000000E+00 0. -1.
         -4    1    1    2    0  502  0.16676479791E+03  0.24025644188E+03  0.81858704315E+02  0.30370133875E+03  0.00000000000E+00 0. -1.
</event>
<event>
 5    1  0.2540860E-005  0.4857335E+03  0.7818608E-02  0.9721575E-01
          4   -1    0    0  502    0 -0.00000000000E+00  0.00000000000E+00  0.18925069029E+04  0.18925069029E+04  0.00000000000E+00 0.  1.
         21   -1    0    0  501  502  0.00000000000E+00 -0.00000000000E+00 -0.25449305376E+03  0.25449305376E+03  0.00000000000E+00 0.  1.
        -13    1    1    2    0    0 -0.37278145980E+03 -0.26245121468E+03  0.28905407804E+03  0.53981379016E+03  0.10566000000E+00 0.  1.
         13    1    1    2    0    0  0.76278531243E+02 -0.21617604046E+03  0.75390321199E+03  0.78798512613E+03  0.10566000000E+00 0. -1.
          4    1    1    2  501    0  0.29650292855E+03  0.47862725514E+03  0.59505655912E+03  0.81920104037E+03  0.00000000000E+00 0.  1.
</event>
<event>
 5    1  0.2540860E-005  0.4317589E+03  0.7818608E-02  0.9699262E-01
         21   -1    0    0  501  502  0.00000000000E+00  0.00000000000E+00  0.26959184887E+03  0.26959184887E+03  0.00000000000E+00 0.  1.
          4   -1    0    0  502    0 -0.00000000000E+00 -0.00000000000E+00 -0.47686120189E+04  0.47686120189E+04  0.00000000000E+00 0.  1.
        -13    1    1    2    0    0  0.25822135064E+03  0.19303961706E+03 -0.12909199622E+04  0.13305701484E+04  0.10566000000E+00 0.  1.
         13    1    1    2    0    0 -0.56816004152E+03  0.17044809634E+03 -0.31737566086E+04  0.32287132744E+04  0.10566000000E+00 0. -1.
          4    1    1    2  501    0  0.30993869087E+03 -0.36348771341E+03 -0.34343599252E+02  0.47892044507E+03  0.00000000000E+00 0.  1.
</event>
<event>
 5    1  0.2540860E-005  0.4983004E+02  0.7818608E-02  0.1292482E+00
         21   -1    0    0  501  502  0.00000000000E+00  0.00000000000E+00  0.44919405194E+03  0.44919405194E+03  0.00000000000E+00 0.  1.
         -4   -1    0    0    0  501 -0.00000000000E+00 -0.00000000000E+00 -0.25381772066E+02  0.25381772066E+02  0.00000000000E+00 0. -1.
        -13    1    1    2    0    0 -0.10140144089E+02  0.83386761506E+02  0.23688754151E+03  0.25134019377E+03  0.10566000000E+00 0.  1.
         13    1    1    2    0    0  0.15348670528E+02 -0.42786780452E+02  0.17130699895E+02  0.48577384773E+02  0.10566000000E+00 0. -1.
         -4    1    1    2    0  502 -0.52085264394E+01 -0.40599981054E+02  0.16979403847E+03  0.17465824546E+03  0.00000000000E+00 0. -1.
</event>
<event>
 5    1  0.4488621E-005  0.4157296E+03  0.7818608E-02  0.9884959E-01
         -4   -1    0    0    0  501 -0.00000000000E+00  0.00000000000E+00  0.13967746068E+04  0.13967746068E+04  0.00000000000E+00 0. -1.
         21   -1    0    0  501  502  0.00000000000E+00 -0.00000000000E+00 -0.43629508048E+03  0.43629508048E+03  0.00000000000E+00 0. -1.
        -13    1    1    2    0    0 -0.20386975672E+03 -0.47784558101E+02  0.76404700456E+03  0.79222097803E+03  0.10566000000E+00 0.  1.
         13    1    1    2    0    0 -0.23461967139E+03 -0.97681317377E+02  0.44780879029E+03  0.51489878015E+03  0.10566000000E+00 0. -1.
         -4    1    1    2    0  502  0.43848942812E+03  0.14546587548E+03 -0.25137626856E+03  0.52594992907E+03  0.00000000000E+00 0. -1.
</event>
<event>
 5    1  0.2540860E-005  0.9969930E+02  0.7818608E-02  0.1165054E+00
         21   -1    0    0  501  502  0.00000000000E+00  0.00000000000E+00  0.64209871118E+03  0.64209871118E+03  0.00000000000E+00 0. -1.
          4   -1    0    0  502    0 -0.00000000000E+00 -0.00000000000E+00 -0.62113387088E+02  0.62113387088E+02  0.00000000000E+00 0.  1.
        -13    1    1    2    0    0  0.51504659119E+02  0.85599840812E+02 -0.86836779071E+01  0.10027701673E+03  0.10566000000E+00 0.  1.
         13    1    1    2    0    0 -0.72179010445E+02 -0.70618848581E+02  0.36159148580E+03  0.37542675064E+03  0.10566000000E+00 0. -1.
          4    1    1    2  501    0  0.20674351326E+02 -0.14980992231E+02  0.22707751620E+03  0.22850833091E+03  0.00000000000E+00 0.  1.
</event>
<event>
 5    1  0.2540860E-005  0.3103283E+02  0.7818608E-02  0.1453455E+00
          4   -1    0    0  502    0 -0.00000000000E+00  0.00000000000E+00  0.31667122805E+03  0.31667122805E+03  0.00000000000E+00 0.  1.
         21   -1    0    0  501  502  0.00000000000E+00 -0.00000000000E+00 -0.52146145202E+01  0.52146145202E+01  0.00000000000E+00 0.  1.
        -13    1    1    2    0    0 -0.28451390444E+02 -0.25354349879E+02  0.18860572248E+03  0.19241739629E+03  0.10566000000E+00 0.  1.
         13    1    1    2    0    0  0.12042156841E+02  0.30886879154E+01  0.27354128639E+02  0.30046847623E+02  0.10566000000E+00 0. -1.
          4    1    1    2  501    0  0.16409233602E+02  0.22265661964E+02  0.95496762404E+02  0.99421598658E+02  0.00000000000E+00 0.  1.
</event>
<event>
 5    1  0.2540860E-005  0.5113352E+03  0.7818608E-02  0.9586642E-01
         21   -1    0    0  501  502  0.00000000000E+00  0.00000000000E+00  0.84245622889E+03  0.84245622889E+03  0.00000000000E+00 0.  1.
          4   -1    0    0  502    0 -0.00000000000E+00 -0.00000000000E+00 -0.94643935051E+03  0.94643935051E+03  0.00000000000E+00 0.  1.
        -13    1    1    2    0    0 -0.23204943552E+03  0.56765458746E+03  0.54245010568E+03  0.81873732021E+03  0.10566000000E+00 0.  1.
         13    1    1    2    0    0 -0.66598572825E+00 -0.31582801919E+03 -0.51258155800E+03  0.60206946942E+03  0.10566000000E+00 0. -1.
          4    1    1    2  501    0  0.23271542125E+03 -0.25182656827E+03 -0.13385166930E+03  0.36808878976E+03  0.00000000000E+00 0.  1.
</event>
<event>
 5    1  0.2540860E-005  0.3575485E+03  0.7818608E-02  0.1025573E+00
          4   -1    0    0  502    0 -0.00000000000E+00  0.00000000000E+00  0.50075401996E+03  0.50075401996E+03  0.00000000000E+00 0.  1.
         21   -1    0    0  501  502  0.00000000000E+00 -0.00000000000E+00 -0.50494887962E+03  0.50494887962E+03  0.00000000000E+00 0.  1.
        -13    1    1    2    0    0  0.31468517064E+03 -0.20318960959E+03 -0.28795377124E+03  0.47247239031E+03  0.10566000000E+00 0.  1.
         13    1    1    2    0    0 -0.46042163393E+02  0.87916084982E+02 -0.30697807091E+02  0.10388207416E+03  0.10566000000E+00 0. -1.
          4    1    1    2  501    0 -0.26864300725E+03  0.11527352460E+03  0.31445671866E+03  0.42934843511E+03  0.00000000000E+00 0.  1.
</event>
<event>
 5    1  0.2540860E-005  0.1422183E+03  0.7818608E-02  0.1109050E+00
         21   -1    0    0  501  502  0.00000000000E+00  0.00000000000E+00  0.96168439632E+03  0.96168439632E+03  0.00000000000E+00 0.  1.
         -4   -1    0    0    0  501 -0.00000000000E+00 -0.00000000000E+00 -0.13553281301E+03  0.13553281301E+03  0.00000000000E+00 0. -1.
        -13    1    1    2    0    0 -0.91655914699E+02 -0.10882785266E+03  0.57408475584E+03  0.59145382429E+03  0.10566000000E+00 0.  1.
         13    1    1    2    0    0  0.80873549042E+02  0.11702997243E+03 -0.86786933411E+02  0.16663891609E+03  0.10566000000E+00 0. -1.
         -4    1    1    2    0  502  0.10782365657E+02 -0.82021197620E+01  0.33885376088E+03  0.33912446895E+03  0.00000000000E+00 0. -1.
</event>
<event>
 5    1  0.2540860E-005  0.7430073E+03  0.7818608E-02  0.9062820E-01
         21   -1    0    0  501  502  0.00000000000E+00  0.00000000000E+00  0.27162401879E+03  0.27162401879E+03  0.00000000000E+00 0.  1.
         -4   -1    0    0    0  501 -0.00000000000E+00 -0.00000000000E+00 -0.37164669079E+04  0.37164669079E+04  0.00000000000E+00 0. -1.
        -13    1    1    2    0    0 -0.53422461426E+03  0.51425327487E+03 -0.14200755739E+04  0.16020196678E+04  0.10566000000E+00 0.  1.
         13    1    1    2    0    0  0.71499741675E+03 -0.28446612106E+03 -0.19315661390E+04  0.20792041844E+04  0.10566000000E+00 0. -1.
         -4    1    1    2    0  502 -0.18077280250E+03 -0.22978715381E+03 -0.93201176231E+02  0.30686707453E+03  0.00000000000E+00 0. -1.
</event>
<event>
 5    1  0.2540860E-005  0.5753527E+03  0.7818608E-02  0.9434322E-01
         -4   -1    0    0    0  501 -0.00000000000E+00  0.00000000000E+00  0.19211544260E+04  0.19211544260E+04  0.00000000000E+00 0. -1.
         21   -1    0    0  501  502  0.00000000000E+00 -0.00000000000E+00 -0.73681064483E+03  0.73681064483E+03  0.00000000000E+00 0. -1.
        -13    1    1    2    0    0  0.32334721316E+03 -0.20918134487E+03  0.24322303418E+03  0.45548623560E+03  0.10566000000E+00 0.  1.
         13    1    1    2    0    0 -0.11624516873E+03  0.73686029442E+03  0.13231153173E+04  0.15189174391E+04  0.10566000000E+00 0. -1.
         -4    1    1    2    0  502 -0.20710204443E+03 -0.52767894955E+03 -0.38199457028E+03  0.68356139617E+03  0.00000000000E+00 0. -1.
</event>
<event>
 5    1  0.2540860E-005  0.2046032E+03  0.7818608E-02  0.1057025E+00
         21   -1    0    0  501  502  0.00000000000E+00  0.00000000000E+00  0.17161499297E+03  0.17161499297E+03  0.00000000000E+00 0. -1.
          4   -1    0    0  502    0 -0.00000000000E+00 -0.00000000000E+00 -0.33847030851E+03  0.33847030851E+03  0.00000000000E+00 0.  1.
        -13    1    1    2    0    0 -0.19075937376E+03  0.72702776047E+02 -0.77660409732E+02  0.21841699276E+03  0.10566000000E+00 0.  1.
         13    1    1    2    0    0  0.19580847533E+03 -0.61151443166E+02 -0.13406627475E+03  0.24505965641E+03  0.10566000000E+00 0. -1.
          4    1    1    2  501    0 -0.50491015641E+01 -0.11551332881E+02  0.44871368952E+02  0.46608652303E+02  0.00000000000E+00 0.  1.
</event>
<event>
 5    1  0.2540860E-005  0.9644650E+02  0.7818608E-02  0.1170573E+00
         21   -1    0    0  501  502  0.00000000000E+00  0.00000000000E+00  0.91085900782E+02  0.91085900782E+02  0.00000000000E+00 0.  1.
         -4   -1    0    0    0  501 -0.00000000000E+00 -0.00000000000E+00 -0.29074427242E+03  0.29074427242E+03  0.00000000000E+00 0. -1.
        -13    1    1    2    0    0 -0.92779167018E+02 -0.82577636512E+02 -0.13417152893E+02  0.12492826358E+03  0.10566000000E+00 0.  1.
         13    1    1    2    0    0  0.66184859280E+02  0.63202564610E+02 -0.20099009415E+03  0.22084390162E+03  0.10566000000E+00 0. -1.
         -4    1    1    2    0  502  0.26594307738E+02  0.19375071903E+02  0.14748875410E+02  0.36058008003E+02  0.00000000000E+00 0. -1.
</event>
<event>
 5    1  0.2540860E-005  0.6660815E+03  0.7818608E-02  0.9173689E-01
          4   -1    0    0  502    0 -0.00000000000E+00  0.00000000000E+00  0.19559879124E+04  0.19559879124E+04  0.00000000000E+00 0.  1.
         21   -1    0    0  501  502  0.00000000000E+00 -0.00000000000E+00 -0.39334317404E+03  0.39334317404E+03  0.00000000000E+00 0. -1.
        -13    1    1    2    0    0 -0.34979306544E+03 -0.58646007728E+03  0.92702619423E+03  0.11513766486E+04  0.10566000000E+00 0.  1.
         13    1    1    2    0    0  0.17593326159E+03  0.63607304531E+03  0.73810968133E+03  0.99012491351E+03  0.10566000000E+00 0. -1.
          4    1    1    2  501    0  0.17385980385E+03 -0.49612968032E+02 -0.10249113722E+03  0.20782952437E+03  0.00000000000E+00 0.  1.
</event>
<event>
 5    1  0.2540860E-005  0.4962659E+03  0.7818608E-02  0.1011644E+00
         21   -1    0    0  501  502  0.00000000000E+00  0.00000000000E+00  0.54517399049E+03  0.54517399049E+03  0.00000000000E+00 0.  1.
          4   -1    0    0  502    0 -0.00000000000E+00 -0.00000000000E+00 -0.71928977044E+03  0.71928977044E+03  0.00000000000E+00 0.  1.
        -13    1    1    2    0    0  0.49536660273E+02 -0.51213520577E+03  0.98682089591E+02  0.52390315485E+03  0.10566000000E+00 0.  1.
         13    1    1    2    0    0  0.37289613217E+02  0.43955073258E+02 -0.25779546190E+03  0.26416107787E+03  0.10566000000E+00 0. -1.
          4    1    1    2  501    0 -0.86826273490E+02  0.46818013251E+03 -0.15002407643E+02  0.47639952821E+03  0.00000000000E+00 0.  1.
</event>
<event>
 5    1  0.2540860E-005  0.3502111E+03  0.7818608E-02  0.1031699E+00
          4   -1    0    0  502    0 -0.00000000000E+00  0.00000000000E+00  0.15928029746E+04  0.15928029746E+04  0.00000000000E+00 0.  1.
         21   -1    0    0  501  502  0.00000000000E+00 -0.00000000000E+00 -0.10848702176E+03  0.10848702176E+03  0.00000000000E+00 0.  1.
        -13    1    1    2    0    0 -0.36499145232E+03 -0.16429635267E+03  0.90288765250E+03  0.98763261184E+03  0.10566000000E+00 0.  1.
         13    1    1    2    0    0  0.87211417129E+02 -0.49491481769E+01  0.14618742174E+03  0.17029708977E+03  0.10566000000E+00 0. -1.
          4    1    1    2  501    0  0.27778003519E+03  0.16924550085E+03  0.43524087856E+03  0.54336029472E+03  0.00000000000E+00 0.  1.
</event>
<event>
 5    1  0.2540860E-005  0.4890567E+03  0.7818608E-02  0.9801857E-01
         21   -1    0    0  501  502  0.00000000000E+00  0.00000000000E+00  0.49888464909E+03  0.49888464909E+03  0.00000000000E+00 0.  1.
          4   -1    0    0  502    0 -0.00000000000E+00 -0.00000000000E+00 -0.98320529769E+03  0.98320529769E+03  0.00000000000E+00 0.  1.
        -13    1    1    2    0    0 -0.16169364922E+03 -0.41223282314E+03 -0.22920599060E+02  0.44340286613E+03  0.10566000000E+00 0.  1.
         13    1    1    2    0    0  0.99519319917E+02 -0.13831369119E+03 -0.45364016893E+03  0.48458661376E+03  0.10566000000E+00 0. -1.
          4    1    1    2  501    0  0.62174329306E+02  0.55054651432E+03 -0.77598806152E+01  0.55410046689E+03  0.00000000000E+00 0.  1.
</event>
<event>
 5    1  0.2540860E-005  0.4960878E+03  0.7818608E-02  0.9782988E-01
         21   -1    0    0  501  502  0.00000000000E+00  0.00000000000E+00  0.95514321775E+03  0.95514321775E+03  0.00000000000E+00 0. -1.
         -4   -1    0    0    0  501 -0.00000000000E+00 -0.00000000000E+00 -0.71563839638E+03  0.71563839638E+03  0.00000000000E+00 0. -1.
        -13    1    1    2    0    0 -0.66750210158E+02 -0.16083084166E+03 -0.42195626887E+03  0.45647481222E+03  0.10566000000E+00 0.  1.
         13    1    1    2    0    0  0.37688916377E+03  0.45498944486E+03  0.39085898700E+03  0.70840073093E+03  0.10566000000E+00 0. -1.
         -4    1    1    2    0  502 -0.31013895361E+03 -0.29415860320E+03  0.27060210324E+03  0.50590607099E+03  0.00000000000E+00 0. -1.
</event>
<event>
 5    1  0.2540860E-005  0.4408032E+03  0.7818608E-02  0.9768324E-01
         21   -1    0    0  501  502  0.00000000000E+00  0.00000000000E+00  0.18513126794E+03  0.18513126794E+03  0.00000000000E+00 0. -1.
         -4   -1    0    0    0  501 -0.00000000000E+00 -0.00000000000E+00 -0.24145635061E+04  0.24145635061E+04  0.00000000000E+00 0. -1.
        -13    1    1    2    0    0  0.26024991381E+03 -0.20002054321E+02 -0.71494423144E+03  0.76110141575E+03  0.10566000000E+00 0.  1.
         13    1    1    2    0    0  0.97188455369E+02 -0.31652875304E+03 -0.12243528221E+04  0.12683358749E+04  0.10566000000E+00 0. -1.
         -4    1    1    2    0  502 -0.35743836918E+03  0.33653080736E+03 -0.29013518469E+03  0.57025748348E+03  0.00000000000E+00 0. -1.
</event>
<event>
 5    1  0.2540860E-005  0.8495655E+03  0.7818608E-02  0.8930445E-01
         -4   -1    0    0    0  501 -0.00000000000E+00  0.00000000000E+00  0.38441066757E+04  0.38441066757E+04  0.00000000000E+00 0. -1.
         21   -1    0    0  501  502  0.00000000000E+00 -0.00000000000E+00 -0.49197164569E+03  0.49197164569E+03  0.00000000000E+00 0. -1.
        -13    1    1    2    0    0 -0.44686600000E+03  0.71294310552E+03  0.27871317012E+04  0.29113708498E+04  0.10566000000E+00 0.  1.
         13    1    1    2    0    0  0.52015739903E+03 -0.70599954277E+03  0.79473336082E+03  0.11834695603E+04  0.10566000000E+00 0. -1.
         -4    1    1    2    0  502 -0.73291399033E+02 -0.69435627558E+01 -0.22973003206E+03  0.24123791134E+03  0.00000000000E+00 0. -1.
</event>
<event>
 5    1  0.2540860E-005  0.4693006E+03  0.7818608E-02  0.9550666E-01
         21   -1    0    0  501  502  0.00000000000E+00  0.00000000000E+00  0.18035949222E+03  0.18035949222E+03  0.00000000000E+00 0.  1.
          4   -1    0    0  502    0 -0.00000000000E+00 -0.00000000000E+00 -0.32155241897E+04  0.32155241897E+04  0.00000000000E+00 0.  1.
        -13    1    1    2    0    0  0.16969965809E+03  0.29421849597E+03 -0.98128527946E+03  0.10384042123E+04  0.10566000000E+00 0.  1.
         13    1    1    2    0    0 -0.30240950907E+03  0.35283003518E+03 -0.11295602463E+04  0.12214118495E+04  0.10566000000E+00 0. -1.
          4    1    1    2  501    0  0.13270985098E+03 -0.64704853115E+03 -0.92431917171E+03  0.11360676201E+04  0.00000000000E+00 0.  1.
</event>
<event>
 5    1  0.2540860E-005  0.4050364E+03  0.7818608E-02  0.9714612E-01
         -4   -1    0    0    0  501 -0.00000000000E+00  0.00000000000E+00  0.17229386688E+04  0.17229386688E+04  0.00000000000E+00 0. -1.
         21   -1    0    0  501  502  0.00000000000E+00 -0.00000000000E+00 -0.45337467766E+03  0.45337467766E+03  0.00000000000E+00 0. -1.
        -13    1    1    2    0    0  0.30898099329E+03  0.25471141894E+03  0.12839140744E+04  0.13449098567E+04  0.10566000000E+00 0.  1.
         13    1    1    2    0    0 -0.33545248991E+03 -0.25558244117E+03  0.29898225445E+03  0.51695372797E+03  0.10566000000E+00 0. -1.
         -4    1    1    2    0  502  0.26471496619E+02  0.87102223666E+00 -0.31333233771E+03  0.31444976176E+03  0.00000000000E+00 0. -1.
</event>
<event>
 5    1  0.2540860E-005  0.4560270E+03  0.7818608E-02  0.1002596E+00
         21   -1    0    0  501  502  0.00000000000E+00  0.00000000000E+00  0.28435005895E+03  0.28435005895E+03  0.00000000000E+00 0. -1.
         -4   -1    0    0    0  501 -0.00000000000E+00 -0.00000000000E+00 -0.12159791014E+04  0.12159791014E+04  0.00000000000E+00 0. -1.
        -13    1    1    2    0    0  0.53953084982E+02  0.83619206779E+02 -0.33135790192E+03  0.34597857946E+03  0.10566000000E+00 0.  1.
         13    1    1    2    0    0  0.41275656064E+03 -0.17883591616E+03 -0.94614791115E+02  0.45967622641E+03  0.10566000000E+00 0. -1.
         -4    1    1    2    0  502 -0.46670964562E+03  0.95216709386E+02 -0.50565634942E+03  0.69467435448E+03  0.00000000000E+00 0. -1.
</event>
<event>
 5    1  0.2540860E-005  0.6783000E+02  0.7818608E-02  0.1232539E+00
         21   -1    0    0  501  502  0.00000000000E+00  0.00000000000E+00  0.43569100613E+03  0.43569100613E+03  0.00000000000E+00 0.  1.
          4   -1    0    0  502    0 -0.00000000000E+00 -0.00000000000E+00 -0.81572619391E+02  0.81572619391E+02  0.00000000000E+00 0.  1.
        -13    1    1    2    0    0  0.51626245968E+02  0.47559205118E+02 -0.61966991486E+02  0.93632614307E+02  0.10566000000E+00 0.  1.
         13    1    1    2    0    0 -0.38861881096E+02 -0.20922518072E+02  0.16451580815E+03  0.17033337858E+03  0.10566000000E+00 0. -1.
          4    1    1    2  501    0 -0.12764364872E+02 -0.26636687045E+02  0.25156957008E+03  0.25329763263E+03  0.00000000000E+00 0.  1.
</event>
<event>
 5    1  0.2540860E-005  0.1228832E+03  0.7818608E-02  0.1131425E+00
         -4   -1    0    0    0  501 -0.00000000000E+00  0.00000000000E+00  0.26379995271E+03  0.26379995271E+03  0.00000000000E+00 0. -1.
         21   -1    0    0  501  502  0.00000000000E+00 -0.00000000000E+00 -0.86772299543E+02  0.86772299543E+02  0.00000000000E+00 0.  1.
        -13    1    1    2    0    0 -0.49896372396E+02 -0.10285831424E+03  0.54815841394E+02  0.12678433822E+03  0.10566000000E+00 0.  1.
         13    1    1    2    0    0  0.37886289956E+02  0.12375468539E+03  0.14234247053E+03  0.19238498695E+03  0.10566000000E+00 0. -1.
         -4    1    1    2    0  502  0.12010082440E+02 -0.20896371148E+02 -0.20130658758E+02  0.31402927083E+02  0.00000000000E+00 0. -1.
</event>
<event>
 5    1  0.2540860E-005  0.4961607E+03  0.7818608E-02  0.9698258E-01
         -4   -1    0    0    0  501 -0.00000000000E+00  0.00000000000E+00  0.26525696840E+04  0.26525696840E+04  0.00000000000E+00 0. -1.
         21   -1    0    0  501  502  0.00000000000E+00 -0.00000000000E+00 -0.16929752758E+03  0.16929752758E+03  0.00000000000E+00 0. -1.
        -13    1    1    2    0    0 -0.23309847569E+03 -0.82775666286E+01  0.74607937116E+03  0.78168910489E+03  0.10566000000E+00 0.  1.
         13    1    1    2    0    0  0.22303642420E+03  0.49658800362E+03  0.11781165932E+04  0.12978072315E+04  0.10566000000E+00 0. -1.
         -4    1    1    2    0  502  0.10062051488E+02 -0.48831043700E+03  0.55907619204E+03  0.74237087514E+03  0.00000000000E+00 0. -1.
</event>
<event>
 5    1  0.2540860E-005  0.1143590E+03  0.7818608E-02  0.1142765E+00
         -4   -1    0    0    0  501 -0.00000000000E+00  0.00000000000E+00  0.35510513312E+02  0.35510513312E+02  0.00000000000E+00 0. -1.
         21   -1    0    0  501  502  0.00000000000E+00 -0.00000000000E+00 -0.50300186398E+03  0.50300186398E+03  0.00000000000E+00 0.  1.
        -13    1    1    2    0    0  0.36329091457E+02 -0.11073247958E+03 -0.18524386468E+03  0.21885334241E+03  0.10566000000E+00 0.  1.
         13    1    1    2    0    0 -0.17215417357E+02  0.11184434796E+03 -0.16030352000E+03  0.19622119777E+03  0.10566000000E+00 0. -1.
         -4    1    1    2    0  502 -0.19113674100E+02 -0.11118683785E+01 -0.12194396599E+03  0.12343783711E+03  0.00000000000E+00 0. -1.
</event>
<event>
 5    1  0.2540860E-005  0.2168233E+03  0.7818608E-02  0.1049177E+00
          4   -1    0    0  502    0 -0.00000000000E+00  0.00000000000E+00  0.13498861247E+04  0.13498861247E+04  0.00000000000E+00 0.  1.
         21   -1    0    0  501  502  0.00000000000E+00 -0.00000000000E+00 -0.26839660287E+03  0.26839660287E+03  0.00000000000E+00 0. -1.
        -13    1    1    2    0    0  0.11771952424E+03  0.18356294803E+03  0.12809330897E+04  0.12993624720E+04  0.10566000000E+00 0.  1.
         13    1    1    2    0    0 -0.10088574416E+03 -0.16674484554E+03 -0.10469687553E+03  0.22123115468E+03  0.10566000000E+00 0. -1.
          4    1    1    2  501    0 -0.16833780077E+02 -0.16818102487E+02 -0.94746692321E+02  0.97689100870E+02  0.00000000000E+00 0.  1.
</event>
<event>
 5    1  0.2540860E-005  0.3719488E+03  0.7818608E-02  0.1001557E+00
         21   -1    0    0  501  502  0.00000000000E+00  0.00000000000E+00  0.86922608080E+03  0.86922608080E+03  0.00000000000E+00 0.  1.
          4   -1    0    0  502    0 -0.00000000000E+00 -0.00000000000E+00 -0.46466771261E+03  0.46466771261E+03  0.00000000000E+00 0.  1.
        -13    1    1    2    0    0  0.24870890203E+03 -0.26738089142E+03 -0.14921760863E+03  0.39448011982E+03  0.10566000000E+00 0.  1.
         13    1    1    2    0    0  0.11429883049E+03  0.15143596974E+03 -0.75130234899E+02  0.20406283087E+03  0.10566000000E+00 0. -1.
          4    1    1    2  501    0 -0.36300773252E+03  0.11594492169E+03  0.62890621173E+03  0.73535084271E+03  0.00000000000E+00 0.  1.
</event>
<event>
 5    1  0.2540860E-005  0.1174548E+03  0.7818608E-02  0.1138525E+00
         21   -1    0    0  501  502  0.00000000000E+00  0.00000000000E+00  0.25854362363E+02  0.25854362363E+02  0.00000000000E+00 0.  1.
         -4   -1    0    0    0  501 -0.00000000000E+00 -0.00000000000E+00 -0.67585383545E+03  0.67585383545E+03  0.00000000000E+00 0. -1.
        -13    1    1    2    0    0 -0.81155569820E+02 -0.96656044201E+02 -0.29775967155E+03  0.32340292293E+03  0.10566000000E+00 0.  1.
         13    1    1    2    0    0  0.57266399634E+02  0.95715508060E+02 -0.31383945924E+03  0.33307073776E+03  0.10566000000E+00 0. -1.
         -4    1    1    2    0  502  0.23889170186E+02  0.94053614123E+00 -0.38400342286E+02  0.45234537116E+02  0.00000000000E+00 0. -1.
</event>
<event>
 5    1  0.2540860E-005  0.1411476E+03  0.7818608E-02  0.1110186E+00
         21   -1    0    0  501  502  0.00000000000E+00  0.00000000000E+00  0.48265325678E+02  0.48265325678E+02  0.00000000000E+00 0.  1.
         -4   -1    0    0    0  501 -0.00000000000E+00 -0.00000000000E+00 -0.92942303359E+03  0.92942303359E+03  0.00000000000E+00 0. -1.
        -13    1    1    2    0    0  0.12990219339E+03  0.34205813938E+02 -0.95616649113E+02  0.16488533078E+03  0.10566000000E+00 0.  1.
         13    1    1    2    0    0 -0.13202194468E+03 -0.53903544527E+02 -0.77899251454E+03  0.79193733013E+03  0.10566000000E+00 0. -1.
         -4    1    1    2    0  502  0.21197512911E+01  0.19697730589E+02 -0.65485442635E+01  0.20865698356E+02  0.00000000000E+00 0. -1.
</event>
<event>
 5    1  0.2540860E-005  0.2245914E+03  0.7818608E-02  0.1044471E+00
         21   -1    0    0  501  502  0.00000000000E+00  0.00000000000E+00  0.33185245526E+03  0.33185245526E+03  0.00000000000E+00 0.  1.
          4   -1    0    0  502    0 -0.00000000000E+00 -0.00000000000E+00 -0.98622359876E+03  0.98622359876E+03  0.00000000000E+00 0.  1.
        -13    1    1    2    0    0  0.58637853577E+02  0.22306490938E+03 -0.79456648249E+03  0.82736464629E+03  0.10566000000E+00 0.  1.
         13    1    1    2    0    0 -0.81085235462E+02 -0.18749844005E+03 -0.11340477207E+03  0.23364745649E+03  0.10566000000E+00 0. -1.
          4    1    1    2  501    0  0.22447381885E+02 -0.35566469328E+02  0.25360011106E+03  0.25706395123E+03  0.00000000000E+00 0.  1.
</event>
<event>
 5    1  0.2540860E-005  0.1513270E+03  0.7818608E-02  0.1099810E+00
          4   -1    0    0  502    0 -0.00000000000E+00  0.00000000000E+00  0.15341841630E+03  0.15341841630E+03  0.00000000000E+00 0.  1.
         21   -1    0    0  501  502  0.00000000000E+00 -0.00000000000E+00 -0.60371432791E+03  0.60371432791E+03  0.00000000000E+00 0. -1.
        -13    1    1    2    0    0 -0.60649425165E+02  0.12459295063E+03 -0.38505291976E+03  0.40922795396E+03  0.10566000000E+00 0.  1.
         13    1    1    2    0    0  0.48827456966E+02 -0.14475541006E+03  0.98977297833E+02  0.18202957437E+03  0.10566000000E+00 0. -1.
          4    1    1    2  501    0  0.11821968199E+02  0.20162459438E+02 -0.16422028967E+03  0.16587521588E+03  0.00000000000E+00 0.  1.
</event>
<event>
 5    1  0.2540860E-005  0.9704948E+02  0.7818608E-02  0.1186352E+00
         21   -1    0    0  501  502  0.00000000000E+00  0.00000000000E+00  0.33949187697E+03  0.33949187697E+03  0.00000000000E+00 0.  1.
          4   -1    0    0  502    0 -0.00000000000E+00 -0.00000000000E+00 -0.10827033552E+03  0.10827033552E+03  0.00000000000E+00 0.  1.
        -13    1    1    2    0    0  0.76829298771E+02 -0.44297239063E+02  0.17002181085E+03  0.19176134612E+03  0.10566000000E+00 0.  1.
         13    1    1    2    0    0  0.52241620598E+02  0.39046942459E+02 -0.52644218275E+02  0.83816916669E+02  0.10566000000E+00 0. -1.
          4    1    1    2  501    0 -0.12907091937E+03  0.52502966046E+01  0.11384394888E+03  0.17218394971E+03  0.00000000000E+00 0.  1.
</event>
<event>
 5    1  0.2540860E-005  0.2151082E+03  0.7818608E-02  0.1054729E+00
         21   -1    0    0  501  502  0.00000000000E+00  0.00000000000E+00  0.17650545531E+04  0.17650545531E+04  0.00000000000E+00 0. -1.
         -4   -1    0    0    0  501 -0.00000000000E+00 -0.00000000000E+00 -0.20344071381E+03  0.20344071381E+03  0.00000000000E+00 0. -1.
        -13    1    1    2    0    0  0.11630639247E+03 -0.14817565409E+03  0.33589153941E+03  0.38510562032E+03  0.10566000000E+00 0.  1.
         13    1    1    2    0    0 -0.29854535564E+03  0.24510869057E+03  0.49779744986E+02  0.38946839890E+03  0.10566000000E+00 0. -1.
         -4    1    1    2    0  502  0.18223896317E+03 -0.96933036482E+02  0.11759425549E+04  0.11939212477E+04  0.00000000000E+00 0. -1.
</event>
<event>
 5    1  0.2540860E-005  0.1240093E+03  0.7818608E-02  0.1157386E+00
         21   -1    0    0  501  502  0.00000000000E+00  0.00000000000E+00  0.14523090910E+03  0.14523090910E+03  0.00000000000E+00 0. -1.
          4   -1    0    0  502    0 -0.00000000000E+00 -0.00000000000E+00 -0.90138674836E+03  0.90138674836E+03  0.00000000000E+00 0.  1.
        -13    1    1    2    0    0 -0.11296700113E+03  0.10081842880E+03 -0.69183112914E+03  0.70820634094E+03  0.10566000000E+00 0.  1.
         13    1    1    2    0    0  0.62072313799E+02  0.66438509947E+01  0.11053993790E+03  0.12694960390E+03  0.10566000000E+00 0. -1.
          4    1    1    2  501    0  0.50894687332E+02 -0.10746227980E+03 -0.17486464802E+03  0.21146171262E+03  0.00000000000E+00 0.  1.
</event>
<event>
 5    1  0.2540860E-005  0.4695148E+03  0.7818608E-02  0.9642271E-01
         -4   -1    0    0    0  501 -0.00000000000E+00  0.00000000000E+00  0.20942386262E+04  0.20942386262E+04  0.00000000000E+00 0. -1.
         21   -1    0    0  501  502  0.00000000000E+00 -0.00000000000E+00 -0.24449383934E+03  0.24449383934E+03  0.00000000000E+00 0. -1.
        -13    1    1    2    0    0 -0.31140107435E+03  0.12329147401E+03  0.76737761143E+03  0.83728121104E+03  0.10566000000E+00 0.  1.
         13    1    1    2    0    0 -0.17500491833E+03  0.33120406923E+03  0.37260438963E+03  0.52835300628E+03  0.10566000000E+00 0. -1.
         -4    1    1    2    0  502  0.48640599268E+03 -0.45449554324E+03  0.70976278578E+03  0.97309824819E+03  0.00000000000E+00 0. -1.
</event>
<event>
 5    1  0.2540860E-005  0.7181309E+02  0.7818608E-02  0.1222049E+00
          4   -1    0    0  502    0 -0.00000000000E+00  0.00000000000E+00  0.76910768592E+02  0.76910768592E+02  0.00000000000E+00 0.  1.
         21   -1    0    0  501  502  0.00000000000E+00 -0.00000000000E+00 -0.13491959193E+03  0.13491959193E+03  0.00000000000E+00 0.  1.
        -13    1    1    2    0    0 -0.24287147764E+02  0.74517400493E+02  0.10598062907E+02  0.79088802141E+02  0.10566000000E+00 0.  1.
         13    1    1    2    0    0  0.28051133634E+02 -0.59189898484E+02 -0.33315105600E+01  0.65585214091E+02  0.10566000000E+00 0. -1.
          4    1    1    2  501    0 -0.37639858706E+01 -0.15327502009E+02 -0.65275375687E+02  0.67156344291E+02  0.00000000000E+00 0.  1.
</event>
<event>
 5    1  0.2540860E-005  0.3285589E+03  0.7818608E-02  0.1021100E+00
         21   -1    0    0  501  502  0.00000000000E+00  0.00000000000E+00  0.42837669681E+03  0.42837669681E+03  0.00000000000E+00 0.  1.
         -4   -1    0    0    0  501 -0.00000000000E+00 -0.00000000000E+00 -0.22211836054E+04  0.22211836054E+04  0.00000000000E+00 0. -1.
        -13    1    1    2    0    0  0.58294339344E+03 -0.20275909731E+03 -0.11457690658E+04  0.13014303726E+04  0.10566000000E+00 0.  1.
         13    1    1    2    0    0 -0.94257223300E+02  0.15519816434E+03 -0.81053785411E+03  0.83062778575E+03  0.10566000000E+00 0. -1.
         -4    1    1    2    0  502 -0.48868617014E+03  0.47560932976E+02  0.16350001126E+03  0.51750214387E+03  0.00000000000E+00 0. -1.
</event>
<event>
 5    1  0.2540860E-005  0.7008691E+02  0.7818608E-02  0.1228333E+00
         21   -1    0    0  501  502  0.00000000000E+00  0.00000000000E+00  0.32831599600E+03  0.32831599600E+03  0.00000000000E+00 0. -1.
          4   -1    0    0  502    0 -0.00000000000E+00 -0.00000000000E+00 -0.47094907160E+02  0.47094907160E+02  0.00000000000E+00 0.  1.
        -13    1    1    2    0    0 -0.37426049674E+02 -0.81096674287E+02  0.41209152677E+02  0.98364552573E+02  0.10566000000E+00 0.  1.
         13    1    1    2    0    0 -0.30231656564E+02  0.60179332351E+02  0.12473687128E+03  0.14175614033E+03  0.10566000000E+00 0. -1.
          4    1    1    2  501    0  0.67657706238E+02  0.20917341936E+02  0.11527506488E+03  0.13529021025E+03  0.00000000000E+00 0.  1.
</event>
<event>
 5    1  0.2540860E-005  0.4049073E+03  0.7818608E-02  0.1003487E+00
          4   -1    0    0  502    0 -0.00000000000E+00  0.00000000000E+00  0.19827870947E+04  0.19827870947E+04  0.00000000000E+00 0.  1.
         21   -1    0    0  501  502  0.00000000000E+00 -0.00000000000E+00 -0.16973291467E+03  0.16973291467E+03  0.00000000000E+00 0.  1.
        -13    1    1    2    0    0 -0.28494776701E+03 -0.24168892573E+03  0.13782343040E+04  0.14279840946E+04  0.10566000000E+00 0.  1.
         13    1    1    2    0    0 -0.10382670495E+03  0.91055504394E+02  0.20863398777E+03  0.25019840438E+03  0.10566000000E+00 0. -1.
          4    1    1    2  501    0  0.38877447196E+03  0.15063342134E+03  0.22618588831E+03  0.47433751037E+03  0.00000000000E+00 0.  1.
</event>
<event>
 5    1  0.2540860E-005  0.5652308E+03  0.7818608E-02  0.9473033E-01
         21   -1    0    0  501  502  0.00000000000E+00  0.00000000000E+00  0.66205952302E+03  0.66205952302E+03  0.00000000000E+00 0.  1.
         -4   -1    0    0    0  501 -0.00000000000E+00 -0.00000000000E+00 -0.15456405736E+04  0.15456405736E+04  0.00000000000E+00 0. -1.
        -13    1    1    2    0    0  0.72542919943E+03  0.13075712248E+03 -0.53740984787E+03  0.91222491975E+03  0.10566000000E+00 0.  1.
         13    1    1    2    0    0 -0.22271650523E+03  0.37886883997E+03 -0.37690717111E+03  0.57896741394E+03  0.10566000000E+00 0. -1.
         -4    1    1    2    0  502 -0.50271269420E+03 -0.50962596246E+03  0.30735968442E+02  0.71650776288E+03  0.00000000000E+00 0. -1.
</event>
<event>
 5    1  0.2540860E-005  0.4865989E+03  0.7818608E-02  0.9642056E-01
         -4   -1    0    0    0  501 -0.00000000000E+00  0.00000000000E+00  0.10847471098E+04  0.10847471098E+04  0.00000000000E+00 0. -1.
         21   -1    0    0  501  502  0.00000000000E+00 -0.00000000000E+00 -0.44634903541E+03  0.44634903541E+03  0.00000000000E+00 0. -1.
        -13    1    1    2    0    0  0.24291860759E+03  0.17790197652E+03  0.37108415771E+03  0.47787239555E+03  0.10566000000E+00 0.  1.
         13    1    1    2    0    0  0.23011936476E+03  0.24587070873E+03  0.24730382956E+03  0.41781158760E+03  0.10566000000E+00 0. -1.
         -4    1    1    2    0  502 -0.47303797234E+03 -0.42377268525E+03  0.20010087068E+02  0.63541216201E+03  0.00000000000E+00 0. -1.
</event>
<event>
 5    1  0.2540860E-005  0.4545520E+03  0.7818608E-02  0.9583567E-01
         21   -1    0    0  501  502  0.00000000000E+00  0.00000000000E+00  0.10674665525E+04  0.10674665525E+04  0.00000000000E+00 0. -1.
         -4   -1    0    0    0  501 -0.00000000000E+00 -0.00000000000E+00 -0.66957602866E+03  0.66957602866E+03  0.00000000000E+00 0. -1.
        -13    1    1    2    0    0  0.29587525862E+02 -0.41012172074E+03 -0.24947898940E+03  0.48095220638E+03  0.10566000000E+00 0.  1.
         13    1    1    2    0    0  0.23208971390E+03  0.65379520993E+03  0.29437065189E+03  0.75363645326E+03  0.10566000000E+00 0. -1.
         -4    1    1    2    0  502 -0.26167723976E+03 -0.24367348919E+03  0.35299886140E+03  0.50245392156E+03  0.00000000000E+00 0. -1.
</event>
<event>
 5    1  0.2540860E-005  0.5033183E+03  0.7818608E-02  0.9547577E-01
         21   -1    0    0  501  502  0.00000000000E+00  0.00000000000E+00  0.16657440888E+03  0.16657440888E+03  0.00000000000E+00 0.  1.
         -4   -1    0    0    0  501 -0.00000000000E+00 -0.00000000000E+00 -0.34489008888E+04  0.34489008888E+04  0.00000000000E+00 0. -1.
        -13    1    1    2    0    0 -0.14264174373E+03  0.35318681696E+03 -0.13599452278E+04  0.14122813560E+04  0.10566000000E+00 0.  1.
         13    1    1    2    0    0  0.47515269246E+02  0.32803497426E+03 -0.99374289865E+03  0.10475636520E+04  0.10566000000E+00 0. -1.
         -4    1    1    2    0  502  0.95126474483E+02 -0.68122179122E+03 -0.92863835347E+03  0.11556302897E+04  0.00000000000E+00 0. -1.
</event>
<event>
 5    1  0.2540860E-005  0.1453458E+03  0.7818608E-02  0.1105794E+00
         21   -1    0    0  501  502  0.00000000000E+00  0.00000000000E+00  0.65376798725E+03  0.65376798725E+03  0.00000000000E+00 0. -1.
          4   -1    0    0  502    0 -0.00000000000E+00 -0.00000000000E+00 -0.78749051791E+02  0.78749051791E+02  0.00000000000E+00 0.  1.
        -13    1    1    2    0    0  0.15175141269E+03  0.55730975891E+01  0.23137899054E+02  0.15360639377E+03  0.10566000000E+00 0.  1.
         13    1    1    2    0    0 -0.11200028983E+03 -0.41881173965E+02  0.41292862476E+03  0.42989319367E+03  0.10566000000E+00 0. -1.
          4    1    1    2  501    0 -0.39751122861E+02  0.36308076376E+02  0.13895241165E+03  0.14901745160E+03  0.00000000000E+00 0.  1.
</event>
<event>
 5    1  0.2540860E-005  0.1276052E+03  0.7818608E-02  0.1125567E+00
         -4   -1    0    0    0  501 -0.00000000000E+00  0.00000000000E+00  0.11362743451E+03  0.11362743451E+03  0.00000000000E+00 0. -1.
         21   -1    0    0  501  502  0.00000000000E+00 -0.00000000000E+00 -0.63548366929E+03  0.63548366929E+03  0.00000000000E+00 0. -1.
        -13    1    1    2    0    0 -0.14823158353E+03 -0.18945783591E+02 -0.99032212434E+02  0.17927335367E+03  0.10566000000E+00 0.  1.
         13    1    1    2    0    0  0.12021967845E+03 -0.46238890665E+01  0.23021781229E+02  0.12249148955E+03  0.10566000000E+00 0. -1.
         -4    1    1    2    0  502  0.28011905079E+02  0.23569672658E+02 -0.44584580357E+03  0.44734626058E+03  0.00000000000E+00 0. -1.
</event>
<event>
 5    1  0.2540860E-005  0.3514737E+02  0.7818608E-02  0.1367781E+00
         -4   -1    0    0    0  501 -0.00000000000E+00  0.00000000000E+00  0.41987341305E+02  0.41987341305E+02  0.00000000000E+00 0. -1.
         21   -1    0    0  501  502  0.00000000000E+00 -0.00000000000E+00 -0.11078028975E+03  0.11078028975E+03  0.00000000000E+00 0.  1.
        -13    1    1    2    0    0 -0.43923063914E+02 -0.51398521018E+01 -0.69314782909E+02  0.82220459236E+02  0.10566000000E+00 0.  1.
         13    1    1    2    0    0  0.34081709003E+02  0.20478149362E+01  0.26093946984E+02  0.42972801489E+02  0.10566000000E+00 0. -1.
         -4    1    1    2    0  502  0.98413549107E+01  0.30920371656E+01 -0.25572112516E+02  0.27574370325E+02  0.00000000000E+00 0. -1.
</event>
<event>
 5    1  0.2540860E-005  0.4993873E+03  0.7818608E-02  0.9647580E-01
         -4   -1    0    0    0  501 -0.00000000000E+00  0.00000000000E+00  0.70008997576E+03  0.70008997576E+03  0.00000000000E+00 0. -1.
         21   -1    0    0  501  502  0.00000000000E+00 -0.00000000000E+00 -0.65334416497E+03  0.65334416497E+03  0.00000000000E+00 0. -1.
        -13    1    1    2    0    0  0.20316846707E+03 -0.18262228488E+03  0.14314486948E+03  0.30841334240E+03  0.10566000000E+00 0.  1.
         13    1    1    2    0    0 -0.12376919608E+02  0.57508117754E+03 -0.17579823860E+03  0.60147866193E+03  0.10566000000E+00 0. -1.
         -4    1    1    2    0  502 -0.19079154746E+03 -0.39245889265E+03  0.79399179903E+02  0.44354213641E+03  0.00000000000E+00 0. -1.
</event>
<event>
 5    1  0.2540860E-005  0.3306518E+02  0.7818608E-02  0.1449521E+00
          4   -1    0    0  502    0 -0.00000000000E+00  0.00000000000E+00  0.57570448561E+02  0.57570448561E+02  0.00000000000E+00 0.  1.
         21   -1    0    0  501  502  0.00000000000E+00 -0.00000000000E+00 -0.24956849347E+03  0.24956849347E+03  0.00000000000E+00 0.  1.
        -13    1    1    2    0    0  0.55078709610E+01 -0.92764920981E+01  0.48930855576E+02  0.50106184645E+02  0.10566000000E+00 0.  1.
         13    1    1    2    0    0 -0.38258498387E+02  0.47264847281E+01 -0.49351942732E+02  0.62623300553E+02  0.10566000000E+00 0. -1.
          4    1    1    2  501    0  0.32750627426E+02  0.45500073700E+01 -0.19157695775E+03  0.19440945683E+03  0.00000000000E+00 0.  1.
</event>
<event>
 5    1  0.2540860E-005  0.5523698E+03  0.7818608E-02  0.9545936E-01
         21   -1    0    0  501  502  0.00000000000E+00  0.00000000000E+00  0.12140784307E+04  0.12140784307E+04  0.00000000000E+00 0.  1.
          4   -1    0    0  502    0 -0.00000000000E+00 -0.00000000000E+00 -0.10395978952E+04  0.10395978952E+04  0.00000000000E+00 0.  1.
        -13    1    1    2    0    0  0.21584474767E+03 -0.27833300919E+03 -0.92126721967E+02  0.36406807490E+03  0.10566000000E+00 0.  1.
         13    1    1    2    0    0  0.47604532788E+03  0.59877640947E+03 -0.41202081864E+03  0.86885758839E+03  0.10566000000E+00 0. -1.
          4    1    1    2  501    0 -0.69189007555E+03 -0.32044340029E+03  0.67862807608E+03  0.10207506625E+04  0.00000000000E+00 0.  1.
</event>
<event>
 5    1  0.2540860E-005  0.4911642E+03  0.7818608E-02  0.9727620E-01
         21   -1    0    0  501  502  0.00000000000E+00  0.00000000000E+00  0.21585449097E+03  0.21585449097E+03  0.00000000000E+00 0.  1.
          4   -1    0    0  502    0 -0.00000000000E+00 -0.00000000000E+00 -0.18279300044E+04  0.18279300044E+04  0.00000000000E+00 0.  1.
        -13    1    1    2    0    0  0.33496102197E+03  0.50887614363E+03 -0.86529210911E+03  0.10582458415E+04  0.10566000000E+00 0.  1.
         13    1    1    2    0    0 -0.18052487360E+03 -0.12063456064E+03 -0.18397323748E+03  0.28458406576E+03  0.10566000000E+00 0. -1.
          4    1    1    2  501    0 -0.15443614837E+03 -0.38824158299E+03 -0.56281016685E+03  0.70095458811E+03  0.00000000000E+00 0.  1.
</event>
<event>
 5    1  0.3808168E-005  0.3564197E+03  0.7818608E-02  0.9893035E-01
         -4   -1    0    0    0  501 -0.00000000000E+00  0.00000000000E+00  0.98864671617E+03  0.98864671617E+03  0.00000000000E+00 0. -1.
         21   -1    0    0  501  502  0.00000000000E+00 -0.00000000000E+00 -0.73794200558E+03  0.73794200558E+03  0.00000000000E+00 0. -1.
        -13    1    1    2    0    0 -0.26252983166E+03 -0.26660685656E+03  0.50531315587E+03  0.62876269382E+03  0.10566000000E+00 0.  1.
         13    1    1    2    0    0 -0.10176333568E+03  0.14895910192E+03  0.34332953430E+03  0.38783987781E+03  0.10566000000E+00 0. -1.
         -4    1    1    2    0  502  0.36429316733E+03  0.11764775464E+03 -0.59793797959E+03  0.70998615013E+03  0.00000000000E+00 0. -1.
</event>
<event>
 5    1  0.2540860E-005  0.5076853E+03  0.7818608E-02  0.9590407E-01
         21   -1    0    0  501  502  0.00000000000E+00  0.00000000000E+00  0.44562435244E+03  0.44562435244E+03  0.00000000000E+00 0.  1.
          4   -1    0    0  502    0 -0.00000000000E+00 -0.00000000000E+00 -0.12067434911E+04  0.12067434911E+04  0.00000000000E+00 0.  1.
        -13    1    1    2    0    0  0.36462774487E+03  0.46176244136E+03 -0.13413992263E+03  0.60346621661E+03  0.10566000000E+00 0.  1.
         13    1    1    2    0    0  0.81805197757E+02 -0.30769638321E+03 -0.43508138311E+03  0.53913354163E+03  0.10566000000E+00 0. -1.
          4    1    1    2  501    0 -0.44643294263E+03 -0.15406605816E+03 -0.19189783296E+03  0.50976808534E+03  0.00000000000E+00 0.  1.
</event>
<event>
 5    1  0.2540860E-005  0.2979885E+03  0.7818608E-02  0.1008139E+00
          4   -1    0    0  502    0 -0.00000000000E+00  0.00000000000E+00  0.11733804884E+04  0.11733804884E+04  0.00000000000E+00 0.  1.
         21   -1    0    0  501  502  0.00000000000E+00 -0.00000000000E+00 -0.24975241362E+03  0.24975241362E+03  0.00000000000E+00 0. -1.
        -13    1    1    2    0    0  0.28511074063E+03  0.73536151798E+02  0.98168262100E+03  0.10248885206E+04  0.10566000000E+00 0.  1.
         13    1    1    2    0    0 -0.30577555956E+03 -0.11543637143E+03 -0.40888318057E+01  0.32686538267E+03  0.10566000000E+00 0. -1.
          4    1    1    2  501    0  0.20664818934E+02  0.41900219637E+02 -0.53965714367E+02  0.71378998833E+02  0.00000000000E+00 0.  1.
</event>
<event>
 5    1  0.2540860E-005  0.1032979E+04  0.7818608E-02  0.8744208E-01
          4   -1    0    0  502    0 -0.00000000000E+00  0.00000000000E+00  0.30192691049E+04  0.30192691049E+04  0.00000000000E+00 0.  1.
         21   -1    0    0  501  502  0.00000000000E+00 -0.00000000000E+00 -0.11349477425E+04  0.11349477425E+04  0.00000000000E+00 0.  1.
        -13    1    1    2    0    0  0.32617796505E+03 -0.89235272352E+03  0.70686336254E+02  0.95272347371E+03  0.10566000000E+00 0.  1.
         13    1    1    2    0    0 -0.48342607921E+03  0.93826833474E+03  0.23844625359E+04  0.26076253255E+04  0.10566000000E+00 0. -1.
          4    1    1    2  501    0  0.15724811415E+03 -0.45915611216E+02 -0.57082750979E+03  0.59386804821E+03  0.00000000000E+00 0.  1.
</event>
<event>
 5    1  0.2540860E-005  0.4630652E+03  0.7818608E-02  0.9781446E-01
         21   -1    0    0  501  502  0.00000000000E+00  0.00000000000E+00  0.78639239746E+03  0.78639239746E+03  0.00000000000E+00 0. -1.
         -4   -1    0    0    0  501 -0.00000000000E+00 -0.00000000000E+00 -0.73787372315E+03  0.73787372315E+03  0.00000000000E+00 0. -1.
        -13    1    1    2    0    0 -0.17342464312E+03  0.12748358501E+03 -0.35597587399E+03  0.41598918894E+03  0.10566000000E+00 0.  1.
         13    1    1    2    0    0  0.48780556479E+03  0.19377357747E+03  0.34363815994E+02  0.52600698795E+03  0.10566000000E+00 0. -1.
         -4    1    1    2    0  502 -0.31438092166E+03 -0.32125716248E+03  0.37013073231E+03  0.58226994371E+03  0.00000000000E+00 0. -1.
</event>
<event>
 5    1  0.2540860E-005  0.4899994E+03  0.7818608E-02  0.9583868E-01
         21   -1    0    0  501  502  0.00000000000E+00  0.00000000000E+00  0.23074280822E+03  0.23074280822E+03  0.00000000000E+00 0.  1.
          4   -1    0    0  502    0 -0.00000000000E+00 -0.00000000000E+00 -0.23205729305E+04  0.23205729305E+04  0.00000000000E+00 0.  1.
        -13    1    1    2    0    0  0.78358819581E+02  0.35905570259E+03 -0.52763781824E+03  0.64301071575E+03  0.10566000000E+00 0.  1.
         13    1    1    2    0    0  0.27231604336E+03  0.23923485202E+03 -0.79736231083E+03  0.87588584176E+03  0.10566000000E+00 0. -1.
          4    1    1    2  501    0 -0.35067486294E+03 -0.59829055461E+03 -0.76482999324E+03  0.10324191812E+04  0.00000000000E+00 0.  1.
</event>
<event>
 5    1  0.2540860E-005  0.2025940E+03  0.7818608E-02  0.1058372E+00
         21   -1    0    0  501  502  0.00000000000E+00  0.00000000000E+00  0.13518591193E+04  0.13518591193E+04  0.00000000000E+00 0.  1.
         -4   -1    0    0    0  501 -0.00000000000E+00 -0.00000000000E+00 -0.59623935215E+02  0.59623935215E+02  0.00000000000E+00 0. -1.
        -13    1    1    2    0    0 -0.17762841267E+03 -0.95636224141E+02  0.24215151741E+03  0.31517536215E+03  0.10566000000E+00 0.  1.
         13    1    1    2    0    0  0.17396457475E+03  0.10690750527E+03  0.42903780099E+03  0.47514874913E+03  0.10566000000E+00 0. -1.
         -4    1    1    2    0  502  0.36638379167E+01 -0.11271281133E+02  0.62104586566E+03  0.62115894321E+03  0.00000000000E+00 0. -1.
</event>
<event>
 5    1  0.2540860E-005  0.3030434E+03  0.7818608E-02  0.1006057E+00
         -4   -1    0    0    0  501 -0.00000000000E+00  0.00000000000E+00  0.11721958488E+04  0.11721958488E+04  0.00000000000E+00 0. -1.
         21   -1    0    0  501  502  0.00000000000E+00 -0.00000000000E+00 -0.12869575952E+03  0.12869575952E+03  0.00000000000E+00 0. -1.
        -13    1    1    2    0    0 -0.27562258127E+03  0.47883397585E+02  0.16888521999E+03  0.32677646146E+03  0.10566000000E+00 0.  1.
         13    1    1    2    0    0  0.31325866801E+03  0.33455150567E+02  0.79146090387E+03  0.85185715569E+03  0.10566000000E+00 0. -1.
         -4    1    1    2    0  502 -0.37636086733E+02 -0.81338548151E+02  0.83153965446E+02  0.12225799119E+03  0.00000000000E+00 0. -1.
</event>
<event>
 5    1  0.2540860E-005  0.3095383E+03  0.7818608E-02  0.1015151E+00
         21   -1    0    0  501  502  0.00000000000E+00  0.00000000000E+00  0.27663366594E+03  0.27663366594E+03  0.00000000000E+00 0.  1.
         -4   -1    0    0    0  501 -0.00000000000E+00 -0.00000000000E+00 -0.19405800801E+04  0.19405800801E+04  0.00000000000E+00 0. -1.
        -13    1    1    2    0    0  0.90874975384E+02 -0.36247720997E+03 -0.61608725347E+03  0.72056332404E+03  0.10566000000E+00 0.  1.
         13    1    1    2    0    0  0.22310794605E+03  0.13985575143E+03  0.10329471978E+03  0.28285437437E+03  0.10566000000E+00 0. -1.
         -4    1    1    2    0  502 -0.31398292144E+03  0.22262145854E+03 -0.11511538804E+04  0.12137960476E+04  0.00000000000E+00 0. -1.
</event>
<event>
 5    1  0.2540860E-005  0.4711159E+03  0.7818608E-02  0.9543631E-01
         -4   -1    0    0    0  501 -0.00000000000E+00  0.00000000000E+00  0.16882484471E+04  0.16882484471E+04  0.00000000000E+00 0. -1.
         21   -1    0    0  501  502  0.00000000000E+00 -0.00000000000E+00 -0.43960933189E+03  0.43960933189E+03  0.00000000000E+00 0. -1.
        -13    1    1    2    0    0  0.41264211550E+03  0.25608851273E+03  0.35833527678E+03  0.60353875069E+03  0.10566000000E+00 0.  1.
         13    1    1    2    0    0 -0.37231838739E+03 -0.28073959305E+03  0.11601562129E+04  0.12503592085E+04  0.10566000000E+00 0. -1.
         -4    1    1    2    0  502 -0.40323728109E+02  0.24651080327E+02 -0.26985237453E+03  0.27395981977E+03  0.00000000000E+00 0. -1.
</event>
<event>
 5    1  0.2540860E-005  0.5577918E+03  0.7818608E-02  0.9359569E-01
          4   -1    0    0  502    0 -0.00000000000E+00  0.00000000000E+00  0.83421675313E+03  0.83421675313E+03  0.00000000000E+00 0.  1.
         21   -1    0    0  501  502  0.00000000000E+00 -0.00000000000E+00 -0.13383078095E+04  0.13383078095E+04  0.00000000000E+00 0.  1.
        -13    1    1    2    0    0  0.33381168732E+03 -0.37480947210E+03  0.14773308149E+03  0.52319925220E+03  0.10566000000E+00 0.  1.
         13    1    1    2    0    0 -0.47882081887E+03  0.39242998749E+03  0.29888373510E+03  0.68746066792E+03  0.10566000000E+00 0. -1.
          4    1    1    2  501    0  0.14500913155E+03 -0.17620515389E+02 -0.95070787299E+03  0.96186464254E+03  0.00000000000E+00 0.  1.
</event>
<event>
 5    1  0.2540860E-005  0.3456256E+03  0.7818608E-02  0.1027704E+00
          4   -1    0    0  502    0 -0.00000000000E+00  0.00000000000E+00  0.17523656523E+04  0.17523656523E+04  0.00000000000E+00 0.  1.
         21   -1    0    0  501  502  0.00000000000E+00 -0.00000000000E+00 -0.20509765800E+03  0.20509765800E+03  0.00000000000E+00 0.  1.
        -13    1    1    2    0    0  0.41746022069E+03 -0.10402426931E+03  0.14459717479E+04  0.15086180402E+04  0.10566000000E+00 0.  1.
         13    1    1    2    0    0 -0.10266687423E+03 -0.56670332056E+01  0.10585518009E+02  0.10336666138E+03  0.10566000000E+00 0. -1.
          4    1    1    2  501    0 -0.31479334645E+03  0.10969130252E+03  0.90710728416E+02  0.34547860870E+03  0.00000000000E+00 0.  1.
</event>
<event>
 5    1  0.2540860E-005  0.4869042E+03  0.7818608E-02  0.9888978E-01
         21   -1    0    0  501  502  0.00000000000E+00  0.00000000000E+00  0.28211438371E+03  0.28211438371E+03  0.00000000000E+00 0.  1.
         -4   -1    0    0    0  501 -0.00000000000E+00 -0.00000000000E+00 -0.14488206048E+04  0.14488206048E+04  0.00000000000E+00 0. -1.
        -13    1    1    2    0    0 -0.72578767142E+02  0.10615162028E+03  0.53251995610E+02  0.13918200361E+03  0.10566000000E+00 0.  1.
         13    1    1    2    0    0 -0.35032300621E+03 -0.35015373047E+03 -0.83142224028E+03  0.96777931185E+03  0.10566000000E+00 0. -1.
         -4    1    1    2    0  502  0.42290177335E+03  0.24400211018E+03 -0.38853597638E+03  0.62397367302E+03  0.00000000000E+00 0. -1.
</event>
<event>
 5    1  0.2540860E-005  0.5598857E+03  0.7818608E-02  0.9560717E-01
          4   -1    0    0  502    0 -0.00000000000E+00  0.00000000000E+00  0.37765984542E+04  0.37765984542E+04  0.00000000000E+00 0.  1.
         21   -1    0    0  501  502  0.00000000000E+00 -0.00000000000E+00 -0.15413477879E+03  0.15413477879E+03  0.00000000000E+00 0.  1.
        -13    1    1    2    0    0  0.36261932395E+03  0.15563341187E+03  0.22330521945E+04  0.22676500276E+04  0.10566000000E+00 0.  1.
         13    1    1    2    0    0  0.14339617170E+03  0.22161975042E+03  0.57525578497E+03  0.63292733006E+03  0.10566000000E+00 0. -1.
          4    1    1    2  501    0 -0.50601549565E+03 -0.37725316229E+03  0.81415569592E+03  0.10301558753E+04  0.00000000000E+00 0.  1.
</event>
<event>
 5    1  0.2540860E-005  0.4829307E+03  0.7818608E-02  0.9516190E-01
         21   -1    0    0  501  502  0.00000000000E+00  0.00000000000E+00  0.18796304331E+03  0.18796304331E+03  0.00000000000E+00 0.  1.
          4   -1    0    0  502    0 -0.00000000000E+00 -0.00000000000E+00 -0.29514316759E+04  0.29514316759E+04  0.00000000000E+00 0.  1.
        -13    1    1    2    0    0  0.10628474707E+03  0.71662105911E+03 -0.11369722078E+04  0.13481646793E+04  0.10566000000E+00 0.  1.
         13    1    1    2    0    0  0.77693126141E+01 -0.40066411191E+03 -0.10518991887E+04  0.11256482608E+04  0.10566000000E+00 0. -1.
          4    1    1    2  501    0 -0.11405405969E+03 -0.31595694721E+03 -0.57459723611E+03  0.66558177917E+03  0.00000000000E+00 0.  1.
</event>
<event>
 5    1  0.2540860E-005  0.3937786E+03  0.7818608E-02  0.9747187E-01
         -4   -1    0    0    0  501 -0.00000000000E+00  0.00000000000E+00  0.10720722660E+04  0.10720722660E+04  0.00000000000E+00 0. -1.
         21   -1    0    0  501  502  0.00000000000E+00 -0.00000000000E+00 -0.56824071766E+03  0.56824071766E+03  0.00000000000E+00 0. -1.
        -13    1    1    2    0    0 -0.11985492346E+03  0.35684567910E+03  0.44127022428E+03  0.58002022669E+03  0.10566000000E+00 0.  1.
         13    1    1    2    0    0  0.39281206174E+03 -0.39125270672E+03 -0.27985392707E+03  0.62104607560E+03  0.10566000000E+00 0. -1.
         -4    1    1    2    0  502 -0.27295713828E+03  0.34407027616E+02  0.34241525114E+03  0.43924668138E+03  0.00000000000E+00 0. -1.
</event>
<event>
 5    1  0.2540860E-005  0.1439500E+03  0.7818608E-02  0.1107236E+00
          4   -1    0    0  502    0 -0.00000000000E+00  0.00000000000E+00  0.18979565466E+03  0.18979565466E+03  0.00000000000E+00 0.  1.
         21   -1    0    0  501  502  0.00000000000E+00 -0.00000000000E+00 -0.45540737059E+03  0.45540737059E+03  0.00000000000E+00 0.  1.
        -13    1    1    2    0    0  0.14768713259E+03  0.26587425817E+02  0.13878419599E+03  0.20440020686E+03  0.10566000000E+00 0.  1.
         13    1    1    2    0    0 -0.10698747885E+03 -0.25237808744E+02 -0.16694087972E+03  0.19988130504E+03  0.10566000000E+00 0. -1.
          4    1    1    2  501    0 -0.40699653741E+02 -0.13496170724E+01 -0.23745503220E+03  0.24092151335E+03  0.00000000000E+00 0.  1.
</event>
<event>
 5    1  0.2540860E-005  0.4181397E+03  0.7818608E-02  0.9737360E-01
         21   -1    0    0  501  502  0.00000000000E+00  0.00000000000E+00  0.31767978073E+03  0.31767978073E+03  0.00000000000E+00 0.  1.
          4   -1    0    0  502    0 -0.00000000000E+00 -0.00000000000E+00 -0.15150152851E+04  0.15150152851E+04  0.00000000000E+00 0.  1.
        -13    1    1    2    0    0  0.52194638891E+03  0.42835290448E+03 -0.73879966123E+03  0.10008692194E+04  0.10566000000E+00 0.  1.
         13    1    1    2    0    0 -0.29056810453E+03 -0.17700908208E+03 -0.30634702012E+03  0.45783244359E+03  0.10566000000E+00 0. -1.
          4    1    1    2  501    0 -0.23137828438E+03 -0.25134382239E+03 -0.15218882302E+03  0.37399340287E+03  0.00000000000E+00 0.  1.
</event>
<event>
 5    1  0.2540860E-005  0.4532268E+03  0.7818608E-02  0.9680745E-01
         -4   -1    0    0    0  501 -0.00000000000E+00  0.00000000000E+00  0.10804303515E+04  0.10804303515E+04  0.00000000000E+00 0. -1.
         21   -1    0    0  501  502  0.00000000000E+00 -0.00000000000E+00 -0.44652530213E+03  0.44652530213E+03  0.00000000000E+00 0. -1.
        -13    1    1    2    0    0  0.48722620379E+02  0.32162551578E+03  0.15816080275E+03  0.36170667236E+03  0.10566000000E+00 0.  1.
         13    1    1    2    0    0  0.32577476893E+02 -0.68065779209E+03  0.39751261930E+03  0.78890596119E+03  0.10566000000E+00 0. -1.
         -4    1    1    2    0  502 -0.81300097271E+02  0.35903227631E+03  0.78231627306E+02  0.37634302008E+03  0.00000000000E+00 0. -1.
</event>
<event>
 5    1  0.2540860E-005  0.3999687E+02  0.7818608E-02  0.1338897E+00
          4   -1    0    0  502    0 -0.00000000000E+00  0.00000000000E+00  0.74209413211E+02  0.74209413211E+02  0.00000000000E+00 0.  1.
         21   -1    0    0  501  502  0.00000000000E+00 -0.00000000000E+00 -0.52812377264E+02  0.52812377264E+02  0.00000000000E+00 0. -1.
        -13    1    1    2    0    0 -0.40116250151E+02  0.94943868418E+01  0.55468003731E+02  0.69109822092E+02  0.10566000000E+00 0.  1.
         13    1    1    2    0    0  0.34115953865E+02  0.61918762830E+00 -0.30098349723E+02  0.45499489245E+02  0.10566000000E+00 0. -1.
          4    1    1    2  501    0  0.60002962865E+01 -0.10113574470E+02 -0.39726180612E+01  0.12412479138E+02  0.00000000000E+00 0.  1.
</event>
<event>
 5    1  0.2540860E-005  0.4941138E+03  0.7818608E-02  0.9673877E-01
          4   -1    0    0  502    0 -0.00000000000E+00  0.00000000000E+00  0.29886480626E+04  0.29886480626E+04  0.00000000000E+00 0.  1.
         21   -1    0    0  501  502  0.00000000000E+00 -0.00000000000E+00 -0.20029562722E+03  0.20029562722E+03  0.00000000000E+00 0.  1.
        -13    1    1    2    0    0  0.24047327156E+03  0.41645069252E+03  0.45755549257E+03  0.66378883207E+03  0.10566000000E+00 0.  1.
         13    1    1    2    0    0 -0.21872338188E+03  0.13521807061E+03  0.15362578151E+04  0.15576302289E+04  0.10566000000E+00 0. -1.
          4    1    1    2  501    0 -0.21749889678E+02 -0.55166876313E+03  0.79453912766E+03  0.96752462878E+03  0.00000000000E+00 0.  1.
</event>
<event>
 5    1  0.2540860E-005  0.2174912E+02  0.7818608E-02  0.1534036E+00
         21   -1    0    0  501  502  0.00000000000E+00  0.00000000000E+00  0.25499630853E+02  0.25499630853E+02  0.00000000000E+00 0.  1.
          4   -1    0    0  502    0 -0.00000000000E+00 -0.00000000000E+00 -0.65547759545E+02  0.65547759545E+02  0.00000000000E+00 0.  1.
        -13    1    1    2    0    0 -0.95075272273E+01 -0.16727762094E+02 -0.51811944604E+02  0.55269339297E+02  0.10566000000E+00 0.  1.
         13    1    1    2    0    0 -0.97152568556E+01  0.52516963111E+01  0.14864468331E+01  0.11143931898E+02  0.10566000000E+00 0. -1.
          4    1    1    2  501    0  0.19222784083E+02  0.11476065783E+02  0.10277369079E+02  0.24634119204E+02  0.00000000000E+00 0.  1.
</event>
<event>
 5    1  0.2540860E-005  0.9495678E+02  0.7818608E-02  0.1173180E+00
         21   -1    0    0  501  502  0.00000000000E+00  0.00000000000E+00  0.11764914750E+03  0.11764914750E+03  0.00000000000E+00 0. -1.
          4   -1    0    0  502    0 -0.00000000000E+00 -0.00000000000E+00 -0.19729235681E+03  0.19729235681E+03  0.00000000000E+00 0.  1.
        -13    1    1    2    0    0  0.11369354185E+03  0.12246058896E+02 -0.13550284483E+03  0.17730544136E+03  0.10566000000E+00 0.  1.
         13    1    1    2    0    0 -0.59833956222E+02 -0.21680614877E+02  0.64980941025E+01  0.63971773226E+02  0.10566000000E+00 0. -1.
          4    1    1    2  501    0 -0.53859585623E+02  0.94345559809E+01  0.49361541408E+02  0.73664289722E+02  0.00000000000E+00 0.  1.
</event>
<event>
 5    1  0.2540860E-005  0.4443966E+03  0.7818608E-02  0.9714500E-01
         -4   -1    0    0    0  501 -0.00000000000E+00  0.00000000000E+00  0.21004426029E+04  0.21004426029E+04  0.00000000000E+00 0. -1.
         21   -1    0    0  501  502  0.00000000000E+00 -0.00000000000E+00 -0.30598371935E+03  0.30598371935E+03  0.00000000000E+00 0. -1.
        -13    1    1    2    0    0  0.55488223872E+02 -0.30172423243E+03  0.11267228094E+04  0.11677417333E+04  0.10566000000E+00 0.  1.
         13    1    1    2    0    0 -0.37072971903E+03 -0.77925352839E+02  0.64089608521E+03  0.74448686247E+03  0.10566000000E+00 0. -1.
         -4    1    1    2    0  502  0.31524149516E+03  0.37964958527E+03  0.26839989006E+02  0.49419772649E+03  0.00000000000E+00 0. -1.
</event>
<event>
 5    1  0.2540860E-005  0.4681296E+03  0.7818608E-02  0.9681914E-01
          4   -1    0    0  502    0 -0.00000000000E+00  0.00000000000E+00  0.23148021345E+04  0.23148021345E+04  0.00000000000E+00 0.  1.
         21   -1    0    0  501  502  0.00000000000E+00 -0.00000000000E+00 -0.19913835917E+03  0.19913835917E+03  0.00000000000E+00 0.  1.
        -13    1    1    2    0    0 -0.31561912308E+03 -0.46110087891E+03  0.10049890099E+04  0.11498836344E+04  0.10566000000E+00 0.  1.
         13    1    1    2    0    0  0.29375623785E+03  0.12030187607E+02  0.68275609361E+03  0.74336622685E+03  0.10566000000E+00 0. -1.
          4    1    1    2  501    0  0.21862885229E+02  0.44907069130E+03  0.42791867180E+03  0.62069063245E+03  0.00000000000E+00 0.  1.
</event>
<event>
 5    1  0.2540860E-005  0.3211127E+02  0.7818608E-02  0.1430954E+00
         21   -1    0    0  501  502  0.00000000000E+00  0.00000000000E+00  0.19240400870E+03  0.19240400870E+03  0.00000000000E+00 0. -1.
          4   -1    0    0  502    0 -0.00000000000E+00 -0.00000000000E+00 -0.35267179344E+02  0.35267179344E+02  0.00000000000E+00 0.  1.
        -13    1    1    2    0    0  0.45296654144E+02  0.11875385918E+02 -0.14906221812E+02  0.49142835491E+02  0.10566000000E+00 0.  1.
         13    1    1    2    0    0 -0.15862797501E+02 -0.20708301826E+01  0.73337763389E+02  0.75062343323E+02  0.10566000000E+00 0. -1.
          4    1    1    2  501    0 -0.29433856643E+02 -0.98045557352E+01  0.98705287776E+02  0.10346600922E+03  0.00000000000E+00 0.  1.
</event>
<event>
 5    1  0.2540860E-005  0.2689433E+03  0.7818608E-02  0.1021018E+00
          4   -1    0    0  502    0 -0.00000000000E+00  0.00000000000E+00  0.21706328883E+03  0.21706328883E+03  0.00000000000E+00 0.  1.
         21   -1    0    0  501  502  0.00000000000E+00 -0.00000000000E+00 -0.59193277212E+03  0.59193277212E+03  0.00000000000E+00 0.  1.
        -13    1    1    2    0    0 -0.27465065367E+03  0.56029435164E+01 -0.11848048217E+03  0.29916886595E+03  0.10566000000E+00 0.  1.
         13    1    1    2    0    0  0.26509075139E+03  0.10243769623E+02 -0.12864376178E+02  0.26560034757E+03  0.10566000000E+00 0. -1.
          4    1    1    2  501    0  0.95599022754E+01 -0.15846713140E+02 -0.24352462495E+03  0.24422684743E+03  0.00000000000E+00 0.  1.
</event>
<event>
 5    1  0.2540860E-005  0.5702482E+02  0.7818608E-02  0.1265562E+00
         21   -1    0    0  501  502  0.00000000000E+00  0.00000000000E+00  0.67676050724E+02  0.67676050724E+02  0.00000000000E+00 0.  1.
          4   -1    0    0  502    0 -0.00000000000E+00 -0.00000000000E+00 -0.28901331221E+03  0.28901331221E+03  0.00000000000E+00 0.  1.
        -13    1    1    2    0    0 -0.54068266290E+02  0.26728685345E+02 -0.14792197128E+03  0.15974580054E+03  0.10566000000E+00 0.  1.
         13    1    1    2    0    0  0.51627784519E+02 -0.16740981998E+02 -0.12924325583E+03  0.14017674184E+03  0.10566000000E+00 0. -1.
          4    1    1    2  501    0  0.24404817708E+01 -0.99877033467E+01  0.55827965623E+02  0.56766820547E+02  0.00000000000E+00 0.  1.
</event>
<event>
 5    1  0.2540860E-005  0.1282021E+03  0.7818608E-02  0.1124846E+00
         21   -1    0    0  501  502  0.00000000000E+00  0.00000000000E+00  0.21976416431E+03  0.21976416431E+03  0.00000000000E+00 0. -1.
         -4   -1    0    0    0  501 -0.00000000000E+00 -0.00000000000E+00 -0.71290661337E+03  0.71290661337E+03  0.00000000000E+00 0. -1.
        -13    1    1    2    0    0  0.80978770924E+02 -0.11302331128E+03 -0.36786782614E+01  0.13908764888E+03  0.10566000000E+00 0.  1.
         13    1    1    2    0    0 -0.40645393478E+02  0.12106352471E+03 -0.63223647717E+03  0.64500496065E+03  0.10566000000E+00 0. -1.
         -4    1    1    2    0  502 -0.40333377446E+02 -0.80402134315E+01  0.14277270637E+03  0.14857816816E+03  0.00000000000E+00 0. -1.
</event>
<event>
 5    1  0.2540860E-005  0.5017400E+03  0.7818608E-02  0.9635750E-01
          4   -1    0    0  502    0 -0.00000000000E+00  0.00000000000E+00  0.25849521364E+04  0.25849521364E+04  0.00000000000E+00 0.  1.
         21   -1    0    0  501  502  0.00000000000E+00 -0.00000000000E+00 -0.17605261123E+03  0.17605261123E+03  0.00000000000E+00 0.  1.
        -13    1    1    2    0    0 -0.31153743006E+03 -0.51567606193E+03  0.10801651991E+04  0.12368242558E+04  0.10566000000E+00 0.  1.
         13    1    1    2    0    0  0.26786506904E+03  0.84344515976E+02  0.31718474334E+03  0.42364119860E+03  0.10566000000E+00 0. -1.
          4    1    1    2  501    0  0.43672361024E+02  0.43133154596E+03  0.10115495827E+04  0.11005392932E+04  0.00000000000E+00 0.  1.
</event>
<event>
 5    1  0.2540860E-005  0.4252706E+03  0.7818608E-02  0.1023717E+00
         21   -1    0    0  501  502  0.00000000000E+00  0.00000000000E+00  0.17516564854E+03  0.17516564854E+03  0.00000000000E+00 0. -1.
         -4   -1    0    0    0  501 -0.00000000000E+00 -0.00000000000E+00 -0.16506146149E+04  0.16506146149E+04  0.00000000000E+00 0. -1.
        -13    1    1    2    0    0 -0.60839116525E+02  0.14311076410E+02 -0.19942823876E+03  0.20899243667E+03  0.10566000000E+00 0.  1.
         13    1    1    2    0    0 -0.28331593126E+03 -0.27987825926E+03 -0.10580058745E+04  0.11304760937E+04  0.10566000000E+00 0. -1.
         -4    1    1    2    0  502  0.34415504779E+03  0.26556718285E+03 -0.21801485318E+03  0.48631173308E+03  0.00000000000E+00 0. -1.
</event>
<event>
 5    1  0.2540860E-005  0.4964752E+03  0.7818608E-02  0.9751917E-01
         21   -1    0    0  501  502  0.00000000000E+00  0.00000000000E+00  0.28413854272E+03  0.28413854272E+03  0.00000000000E+00 0. -1.
         -4   -1    0    0    0  501 -0.00000000000E+00 -0.00000000000E+00 -0.13008180514E+04  0.13008180514E+04  0.00000000000E+00 0. -1.
        -13    1    1    2    0    0 -0.13250274595E+03  0.14074062515E+03 -0.10398660649E+03  0.21949516338E+03  0.10566000000E+00 0.  1.
         13    1    1    2    0    0 -0.39450348100E+03  0.13522515229E+03 -0.43398333189E+03  0.60188070401E+03  0.10566000000E+00 0. -1.
         -4    1    1    2    0  502  0.52700622695E+03 -0.27596577744E+03 -0.47870957034E+03  0.76358072677E+03  0.00000000000E+00 0. -1.
</event>
<event>
 5    1  0.2540860E-005  0.4367770E+03  0.7818608E-02  0.9963076E-01
         21   -1    0    0  501  502  0.00000000000E+00  0.00000000000E+00  0.13280053394E+03  0.13280053394E+03  0.00000000000E+00 0.  1.
          4   -1    0    0  502    0 -0.00000000000E+00 -0.00000000000E+00 -0.25584544442E+04  0.25584544442E+04  0.00000000000E+00 0.  1.
        -13    1    1    2    0    0  0.51149324995E+03  0.37703714457E+02 -0.13301502124E+04  0.14256039119E+04  0.10566000000E+00 0.  1.
         13    1    1    2    0    0 -0.10529983006E+03 -0.91061718874E+02 -0.63152522358E+03  0.64668725829E+03  0.10566000000E+00 0. -1.
          4    1    1    2  501    0 -0.40619341989E+03  0.53358004417E+02 -0.46397847428E+03  0.61896380798E+03  0.00000000000E+00 0.  1.
</event>
<event>
 5    1  0.2540860E-005  0.1219386E+03  0.7818608E-02  0.1132631E+00
          4   -1    0    0  502    0 -0.00000000000E+00  0.00000000000E+00  0.73288815363E+02  0.73288815363E+02  0.00000000000E+00 0.  1.
         21   -1    0    0  501  502  0.00000000000E+00 -0.00000000000E+00 -0.31237971006E+03  0.31237971006E+03  0.00000000000E+00 0. -1.
        -13    1    1    2    0    0 -0.11828064588E+03 -0.45909654467E+02 -0.19850369905E+02  0.12842139974E+03  0.10566000000E+00 0.  1.
         13    1    1    2    0    0  0.10488628391E+03  0.35221812518E+02 -0.15292369042E+03  0.18875215200E+03  0.10566000000E+00 0. -1.
          4    1    1    2  501    0  0.13394361973E+02  0.10687841949E+02 -0.66316834375E+02  0.68494973682E+02  0.00000000000E+00 0.  1.
</event>
<event>
 5    1  0.2540860E-005  0.3949356E+03  0.7818608E-02  0.9743787E-01
         21   -1    0    0  501  502  0.00000000000E+00  0.00000000000E+00  0.28019969776E+03  0.28019969776E+03  0.00000000000E+00 0.  1.
          4   -1    0    0  502    0 -0.00000000000E+00 -0.00000000000E+00 -0.21070693870E+04  0.21070693870E+04  0.00000000000E+00 0.  1.
        -13    1    1    2    0    0  0.55265054918E+03  0.21200948422E+03 -0.17959724330E+03  0.61856756451E+03  0.10566000000E+00 0.  1.
         13    1    1    2    0    0 -0.28000315794E+03 -0.23346915234E+03 -0.81990103763E+03  0.89730002575E+03  0.10566000000E+00 0. -1.
          4    1    1    2  501    0 -0.27264739124E+03  0.21459668115E+02 -0.82737140830E+03  0.87140149448E+03  0.00000000000E+00 0.  1.
</event>
<event>
 5    1  0.2540860E-005  0.3868642E+03  0.7818608E-02  0.9767767E-01
         -4   -1    0    0    0  501 -0.00000000000E+00  0.00000000000E+00  0.15695763159E+04  0.15695763159E+04  0.00000000000E+00 0. -1.
         21   -1    0    0  501  502  0.00000000000E+00 -0.00000000000E+00 -0.17752366725E+03  0.17752366725E+03  0.00000000000E+00 0. -1.
        -13    1    1    2    0    0  0.28511831464E+03 -0.22110726244E+03  0.80366251015E+03  0.88093945094E+03  0.10566000000E+00 0.  1.
         13    1    1    2    0    0 -0.34058704034E+03  0.26400457837E+03  0.64522758199E+03  0.77589728262E+03  0.10566000000E+00 0. -1.
         -4    1    1    2    0  502  0.55468725704E+02 -0.42897315932E+02 -0.56837443478E+02  0.90263249590E+02  0.00000000000E+00 0. -1.
</event>
<event>
 5    1  0.2540860E-005  0.4475508E+03  0.7818608E-02  0.1008257E+00
         -4   -1    0    0    0  501 -0.00000000000E+00  0.00000000000E+00  0.17802269105E+04  0.17802269105E+04  0.00000000000E+00 0. -1.
         21   -1    0    0  501  502  0.00000000000E+00 -0.00000000000E+00 -0.15642920372E+03  0.15642920372E+03  0.00000000000E+00 0. -1.
        -13    1    1    2    0    0  0.31460931480E+02 -0.81782082956E+02  0.20487459812E+02  0.89988035181E+02  0.10566000000E+00 0.  1.
         13    1    1    2    0    0  0.43315429474E+03 -0.57907045414E+01  0.62949407000E+03  0.76414590926E+03  0.10566000000E+00 0. -1.
         -4    1    1    2    0  502 -0.46461522622E+03  0.87572787497E+02  0.97381617697E+03  0.10825221698E+04  0.00000000000E+00 0. -1.
</event>
<event>
 5    1  0.2540860E-005  0.5058625E+03  0.7818608E-02  0.9465215E-01
         21   -1    0    0  501  502  0.00000000000E+00  0.00000000000E+00  0.54466550317E+03  0.54466550317E+03  0.00000000000E+00 0. -1.
         -4   -1    0    0    0  501 -0.00000000000E+00 -0.00000000000E+00 -0.29586692618E+04  0.29586692618E+04  0.00000000000E+00 0. -1.
        -13    1    1    2    0    0 -0.30360778369E+03 -0.42945605188E+03 -0.15336021167E+04  0.16212790168E+04  0.10566000000E+00 0.  1.
         13    1    1    2    0    0  0.25937770866E+03  0.41167712913E+03 -0.13370973922E+04  0.14228788781E+04  0.10566000000E+00 0. -1.
         -4    1    1    2    0  502  0.44230075029E+02  0.17778922751E+02  0.45669575029E+03  0.45917687003E+03  0.00000000000E+00 0. -1.
</event>
<event>
 5    1  0.2540860E-005  0.9834054E+02  0.7818608E-02  0.1167331E+00
          4   -1    0    0  502    0 -0.00000000000E+00  0.00000000000E+00  0.65548817415E+02  0.65548817415E+02  0.00000000000E+00 0.  1.
         21   -1    0    0  501  502  0.00000000000E+00 -0.00000000000E+00 -0.54898269808E+03  0.54898269808E+03  0.00000000000E+00 0. -1.
        -13    1    1    2    0    0  0.95135877099E+02 -0.20397496383E+02  0.17270077546E+02  0.98818822663E+02  0.10566000000E+00 0.  1.
         13    1    1    2    0    0 -0.10819285667E+03  0.17628584480E+02 -0.42947765381E+03  0.44324657643E+03  0.10566000000E+00 0. -1.
          4    1    1    2  501    0  0.13056979569E+02  0.27689119027E+01 -0.71226304399E+02  0.72466116406E+02  0.00000000000E+00 0.  1.
</event>
<event>
 5    1  0.2540860E-005  0.6509933E+03  0.7818608E-02  0.9235592E-01
         -4   -1    0    0    0  501 -0.00000000000E+00  0.00000000000E+00  0.63447080207E+03  0.63447080207E+03  0.00000000000E+00 0. -1.
         21   -1    0    0  501  502  0.00000000000E+00 -0.00000000000E+00 -0.27913040624E+04  0.27913040624E+04  0.00000000000E+00 0. -1.
        -13    1    1    2    0    0 -0.42366978175E+03 -0.67164477506E+03  0.12177422682E+03  0.80338767810E+03  0.10566000000E+00 0.  1.
         13    1    1    2    0    0  0.42955681952E+03  0.20678125892E+02 -0.26262702779E+03  0.50390436888E+03  0.10566000000E+00 0. -1.
         -4    1    1    2    0  502 -0.58870377650E+01  0.65096664917E+03 -0.20159804594E+04  0.21184828175E+04  0.00000000000E+00 0. -1.
</event>
<event>
 5    1  0.2540860E-005  0.4865216E+03  0.7818608E-02  0.9761030E-01
         21   -1    0    0  501  502  0.00000000000E+00  0.00000000000E+00  0.51007281596E+03  0.51007281596E+03  0.00000000000E+00 0.  1.
          4   -1    0    0  502    0 -0.00000000000E+00 -0.00000000000E+00 -0.79376099512E+03  0.79376099512E+03  0.00000000000E+00 0.  1.
        -13    1    1    2    0    0 -0.39412174172E+03  0.50834717883E+02 -0.69975699237E+02  0.40350058920E+03  0.10566000000E+00 0.  1.
         13    1    1    2    0    0 -0.19384305759E+03  0.45281950410E+02 -0.23020561019E+03  0.30433570302E+03  0.10566000000E+00 0. -1.
          4    1    1    2  501    0  0.58796479930E+03 -0.96116668293E+02  0.16493130265E+02  0.59599751886E+03  0.00000000000E+00 0.  1.
</event>
<event>
 5    1  0.2540860E-005  0.5198727E+03  0.7818608E-02  0.9588412E-01
         21   -1    0    0  501  502  0.00000000000E+00  0.00000000000E+00  0.16358096323E+03  0.16358096323E+03  0.00000000000E+00 0.  1.
          4   -1    0    0  502    0 -0.00000000000E+00 -0.00000000000E+00 -0.30196782805E+04  0.30196782805E+04  0.00000000000E+00 0.  1.
        -13    1    1    2    0    0  0.49405053787E+03 -0.14617069159E+03 -0.12826183177E+04  0.13822306483E+04  0.10566000000E+00 0.  1.
         13    1    1    2    0    0  0.49734296400E+02  0.29446098941E+03 -0.39975258937E+03  0.49898188183E+03  0.10566000000E+00 0. -1.
          4    1    1    2  501    0 -0.54378483427E+03 -0.14829029782E+03 -0.11737264103E+04  0.13020467137E+04  0.00000000000E+00 0.  1.
</event>
<event>
 5    1  0.2540860E-005  0.4201253E+03  0.7818608E-02  0.9930562E-01
         21   -1    0    0  501  502  0.00000000000E+00  0.00000000000E+00  0.30135362074E+03  0.30135362074E+03  0.00000000000E+00 0.  1.
          4   -1    0    0  502    0 -0.00000000000E+00 -0.00000000000E+00 -0.11872711077E+04  0.11872711077E+04  0.00000000000E+00 0.  1.
        -13    1    1    2    0    0  0.55134058203E+03 -0.62152960999E+02 -0.67511956829E+03  0.87385689367E+03  0.10566000000E+00 0.  1.
         13    1    1    2    0    0 -0.17401070406E+03  0.86489606809E+01 -0.14784104279E+03  0.22849839113E+03  0.10566000000E+00 0. -1.
          4    1    1    2  501    0 -0.37732987796E+03  0.53504000318E+02 -0.62956875840E+02  0.38626944361E+03  0.00000000000E+00 0.  1.
</event>
<event>
 5    1  0.2540860E-005  0.4838975E+03  0.7818608E-02  0.9513981E-01
         -4   -1    0    0    0  501 -0.00000000000E+00  0.00000000000E+00  0.22791908932E+04  0.22791908932E+04  0.00000000000E+00 0. -1.
         21   -1    0    0  501  502  0.00000000000E+00 -0.00000000000E+00 -0.22090078101E+03  0.22090078101E+03  0.00000000000E+00 0.  1.
        -13    1    1    2    0    0 -0.67461937801E+02  0.55662128047E+03  0.50375005227E+03  0.75375227314E+03  0.10566000000E+00 0.  1.
         13    1    1    2    0    0  0.19118792897E+03 -0.42628606915E+03  0.14796394529E+04  0.15516460803E+04  0.10566000000E+00 0. -1.
         -4    1    1    2    0  502 -0.12372599117E+03 -0.13033521133E+03  0.74900607006E+02  0.19469332072E+03  0.00000000000E+00 0. -1.
</event>
<event>
 5    1  0.2540860E-005  0.1342234E+03  0.7818608E-02  0.1117805E+00
         -4   -1    0    0    0  501 -0.00000000000E+00  0.00000000000E+00  0.24234749308E+03  0.24234749308E+03  0.00000000000E+00 0. -1.
         21   -1    0    0  501  502  0.00000000000E+00 -0.00000000000E+00 -0.28947503076E+03  0.28947503076E+03  0.00000000000E+00 0. -1.
        -13    1    1    2    0    0  0.13285082472E+03  0.66401982504E+02  0.18074380562E+02  0.14961704216E+03  0.10566000000E+00 0.  1.
         13    1    1    2    0    0 -0.99984551377E+02 -0.82226559256E+02  0.13009635315E+03  0.18352980637E+03  0.10566000000E+00 0. -1.
         -4    1    1    2    0  502 -0.32866273343E+02  0.15824576752E+02 -0.19529827138E+03  0.19867567531E+03  0.00000000000E+00 0. -1.
</event>
<event>
 5    1  0.2540860E-005  0.1900514E+03  0.7818608E-02  0.1067179E+00
         -4   -1    0    0    0  501 -0.00000000000E+00  0.00000000000E+00  0.40278731298E+02  0.40278731298E+02  0.00000000000E+00 0. -1.
         21   -1    0    0  501  502  0.00000000000E+00 -0.00000000000E+00 -0.17200741296E+04  0.17200741296E+04  0.00000000000E+00 0.  1.
        -13    1    1    2    0    0  0.15851606993E+03 -0.93762870255E+02 -0.54909243475E+03  0.57915570733E+03  0.10566000000E+00 0.  1.
         13    1    1    2    0    0 -0.15622933545E+03  0.11564663294E+03 -0.35134306354E+03  0.40152672194E+03  0.10566000000E+00 0. -1.
         -4    1    1    2    0  502 -0.22867344768E+01 -0.21883762688E+02 -0.77935990005E+03  0.77967043168E+03  0.00000000000E+00 0. -1.
</event>
<event>
 5    1  0.2540860E-005  0.8783090E+02  0.7818608E-02  0.1193698E+00
          4   -1    0    0  502    0 -0.00000000000E+00  0.00000000000E+00  0.10001457322E+04  0.10001457322E+04  0.00000000000E+00 0.  1.
         21   -1    0    0  501  502  0.00000000000E+00 -0.00000000000E+00 -0.14584366654E+03  0.14584366654E+03  0.00000000000E+00 0.  1.
        -13    1    1    2    0    0 -0.87836887691E+02  0.12764145985E+03  0.93490541660E+03  0.94765806611E+03  0.10566000000E+00 0.  1.
         13    1    1    2    0    0  0.55526185812E+02 -0.49267868082E+02 -0.85731621495E+02  0.11340371345E+03  0.10566000000E+00 0. -1.
          4    1    1    2  501    0  0.32310701879E+02 -0.78373591768E+02  0.51282705712E+01  0.84927619192E+02  0.00000000000E+00 0.  1.
</event>
<event>
 5    1  0.2540860E-005  0.5314554E+03  0.7818608E-02  0.9411571E-01
         21   -1    0    0  501  502  0.00000000000E+00  0.00000000000E+00  0.25501251790E+03  0.25501251790E+03  0.00000000000E+00 0. -1.
          4   -1    0    0  502    0 -0.00000000000E+00 -0.00000000000E+00 -0.25031340894E+04  0.25031340894E+04  0.00000000000E+00 0.  1.
        -13    1    1    2    0    0 -0.52823002669E+03 -0.20332881287E+03 -0.18568531889E+04  0.19412040963E+04  0.10566000000E+00 0.  1.
         13    1    1    2    0    0  0.33709691465E+03  0.32144205017E+03 -0.36290936730E+03  0.59047653766E+03  0.10566000000E+00 0. -1.
          4    1    1    2  501    0  0.19113311205E+03 -0.11811323730E+03 -0.28359015351E+02  0.22646597338E+03  0.00000000000E+00 0.  1.
</event>
<event>
 5    1  0.2540860E-005  0.4480790E+03  0.7818608E-02  0.9974137E-01
         21   -1    0    0  501  502  0.00000000000E+00  0.00000000000E+00  0.81062270566E+03  0.81062270566E+03  0.00000000000E+00 0.  1.
          4   -1    0    0  502    0 -0.00000000000E+00 -0.00000000000E+00 -0.73934711887E+03  0.73934711887E+03  0.00000000000E+00 0.  1.
        -13    1    1    2    0    0  0.52439849022E+02  0.41246604921E+03  0.40136502559E+03  0.57790317048E+03  0.10566000000E+00 0.  1.
         13    1    1    2    0    0  0.61778689596E+02  0.10788637426E+03 -0.41444388415E+03  0.43268905753E+03  0.10566000000E+00 0. -1.
          4    1    1    2  501    0 -0.11421853862E+03 -0.52035242347E+03  0.84354445346E+02  0.53937759652E+03  0.00000000000E+00 0.  1.
</event>
<event>
 5    1  0.2540860E-005  0.3523083E+03  0.7818608E-02  0.9877902E-01
          4   -1    0    0  502    0 -0.00000000000E+00  0.00000000000E+00  0.39661805372E+03  0.39661805372E+03  0.00000000000E+00 0.  1.
         21   -1    0    0  501  502  0.00000000000E+00 -0.00000000000E+00 -0.10131297444E+04  0.10131297444E+04  0.00000000000E+00 0. -1.
        -13    1    1    2    0    0 -0.25006024415E+03 -0.25552990050E+03  0.16361833597E+03  0.39318777547E+03  0.10566000000E+00 0.  1.
         13    1    1    2    0    0  0.23643525164E+03  0.24588656974E+03 -0.12819538728E+03  0.36441172028E+03  0.10566000000E+00 0. -1.
          4    1    1    2  501    0  0.13624992509E+02  0.96433307547E+01 -0.65193463939E+03  0.65214830237E+03  0.00000000000E+00 0.  1.
</event>
<event>
 5    1  0.2540860E-005  0.5546728E+03  0.7818608E-02  0.9365569E-01
         21   -1    0    0  501  502  0.00000000000E+00  0.00000000000E+00  0.96620803058E+03  0.96620803058E+03  0.00000000000E+00 0.  1.
          4   -1    0    0  502    0 -0.00000000000E+00 -0.00000000000E+00 -0.12063551509E+04  0.12063551509E+04  0.00000000000E+00 0.  1.
        -13    1    1    2    0    0 -0.30379864442E+03  0.45618030688E+03 -0.93720406203E+03  0.10857004899E+04  0.10566000000E+00 0.  1.
         13    1    1    2    0    0  0.48618651919E+03 -0.40453134283E+03  0.45362529790E+03  0.77833081709E+03  0.10566000000E+00 0. -1.
          4    1    1    2  501    0 -0.18238787477E+03 -0.51648964050E+02  0.24343164383E+03  0.30853187447E+03  0.00000000000E+00 0.  1.
</event>
<event>
 5    1  0.2540860E-005  0.4371012E+03  0.7818608E-02  0.9627638E-01
         21   -1    0    0  501  502  0.00000000000E+00  0.00000000000E+00  0.76631708043E+02  0.76631708043E+02  0.00000000000E+00 0.  1.
         -4   -1    0    0    0  501 -0.00000000000E+00 -0.00000000000E+00 -0.38406506551E+04  0.38406506551E+04  0.00000000000E+00 0. -1.
        -13    1    1    2    0    0 -0.13052943653E+03 -0.42048131888E+03 -0.12621427494E+04  0.13367298921E+04  0.10566000000E+00 0.  1.
         13    1    1    2    0    0  0.10578878716E+03  0.42269774959E+03 -0.25149941970E+04  0.25524616505E+04  0.10566000000E+00 0. -1.
         -4    1    1    2    0  502  0.24740649361E+02 -0.22164307114E+01  0.13117999337E+02  0.28090820609E+02  0.00000000000E+00 0. -1.
</event>
<event>
 5    1  0.2540860E-005  0.1448883E+03  0.7818608E-02  0.1106265E+00
         21   -1    0    0  501  502  0.00000000000E+00  0.00000000000E+00  0.34359602715E+02  0.34359602715E+02  0.00000000000E+00 0.  1.
         -4   -1    0    0    0  501 -0.00000000000E+00 -0.00000000000E+00 -0.75048320341E+03  0.75048320341E+03  0.00000000000E+00 0. -1.
        -13    1    1    2    0    0  0.94000059340E+01 -0.14901583949E+03 -0.27943376861E+03  0.31682380393E+03  0.10566000000E+00 0.  1.
         13    1    1    2    0    0  0.10553279056E+02  0.14218413086E+03 -0.40948686317E+03  0.43359797168E+03  0.10566000000E+00 0. -1.
         -4    1    1    2    0  502 -0.19953284990E+02  0.68317086274E+01 -0.27202968913E+02  0.34421030524E+02  0.00000000000E+00 0. -1.
</event>
<event>
 5    1  0.2540860E-005  0.3111348E+03  0.7818608E-02  0.1002812E+00
         21   -1    0    0  501  502  0.00000000000E+00  0.00000000000E+00  0.15226242785E+04  0.15226242785E+04  0.00000000000E+00 0. -1.
          4   -1    0    0  502    0 -0.00000000000E+00 -0.00000000000E+00 -0.14422807787E+03  0.14422807787E+03  0.00000000000E+00 0.  1.
        -13    1    1    2    0    0 -0.23361016785E+03 -0.30817183207E+03  0.69079191004E+03  0.79166726770E+03  0.10566000000E+00 0.  1.
         13    1    1    2    0    0  0.12110756073E+02  0.27869707025E+03  0.53876310769E+03  0.60669961657E+03  0.10566000000E+00 0. -1.
          4    1    1    2  501    0  0.22149941178E+03  0.29474761823E+02  0.14884118293E+03  0.26848547212E+03  0.00000000000E+00 0.  1.
</event>
<event>
 5    1  0.2540860E-005  0.1793395E+03  0.7818608E-02  0.1075304E+00
          4   -1    0    0  502    0 -0.00000000000E+00  0.00000000000E+00  0.48839128794E+03  0.48839128794E+03  0.00000000000E+00 0.  1.
         21   -1    0    0  501  502  0.00000000000E+00 -0.00000000000E+00 -0.10220923336E+03  0.10220923336E+03  0.00000000000E+00 0. -1.
        -13    1    1    2    0    0 -0.17905284159E+03  0.37834424600E+02  0.25702444691E+03  0.31552011226E+03  0.10566000000E+00 0.  1.
         13    1    1    2    0    0  0.17508172591E+03 -0.11628626630E+02  0.15784948716E+03  0.23601971838E+03  0.10566000000E+00 0. -1.
          4    1    1    2  501    0  0.39711156791E+01 -0.26205797970E+02 -0.28691879480E+02  0.39060690663E+02  0.00000000000E+00 0.  1.
</event>
<event>
 5    1  0.2540860E-005  0.4927434E+03  0.7818608E-02  0.9513117E-01
          4   -1    0    0  502    0 -0.00000000000E+00  0.00000000000E+00  0.57421293708E+03  0.57421293708E+03  0.00000000000E+00 0.  1.
         21   -1    0    0  501  502  0.00000000000E+00 -0.00000000000E+00 -0.13075486137E+04  0.13075486137E+04  0.00000000000E+00 0.  1.
        -13    1    1    2    0    0 -0.28045920117E+03 -0.20653918312E+03 -0.20642252762E+03  0.40487784424E+03  0.10566000000E+00 0.  1.
         13    1    1    2    0    0 -0.37841467557E+02 -0.50871918775E+03  0.37886461397E+02  0.51152965092E+03  0.10566000000E+00 0. -1.
          4    1    1    2  501    0  0.31830066873E+03  0.71525837087E+03 -0.56479961043E+03  0.96535405565E+03  0.00000000000E+00 0.  1.
</event>
<event>
 5    1  0.2540860E-005  0.3053629E+03  0.7818608E-02  0.1005116E+00
         21   -1    0    0  501  502  0.00000000000E+00  0.00000000000E+00  0.14644757638E+03  0.14644757638E+03  0.00000000000E+00 0. -1.
          4   -1    0    0  502    0 -0.00000000000E+00 -0.00000000000E+00 -0.84630844218E+03  0.84630844218E+03  0.00000000000E+00 0.  1.
        -13    1    1    2    0    0 -0.19365968129E+03 -0.28052715912E+03 -0.25189616122E+03  0.42385285933E+03  0.10566000000E+00 0.  1.
         13    1    1    2    0    0  0.14501595430E+03  0.24741562118E+03 -0.40404555461E+03  0.49547647570E+03  0.10566000000E+00 0. -1.
          4    1    1    2  501    0  0.48643726992E+02  0.33111537944E+02 -0.43919149975E+02  0.73426683537E+02  0.00000000000E+00 0.  1.
</event>
<event>
 5    1  0.2540860E-005  0.1632943E+03  0.7818608E-02  0.1088693E+00
         -4   -1    0    0    0  501 -0.00000000000E+00  0.00000000000E+00  0.44795175638E+03  0.44795175638E+03  0.00000000000E+00 0. -1.
         21   -1    0    0  501  502  0.00000000000E+00 -0.00000000000E+00 -0.10278523746E+03  0.10278523746E+03  0.00000000000E+00 0.  1.
        -13    1    1    2    0    0 -0.76778969096E+02 -0.14424066286E+03  0.76902971613E+02  0.18059473172E+03  0.10566000000E+00 0.  1.
         13    1    1    2    0    0  0.65782536409E+02  0.14955371499E+03  0.29696959167E+03  0.33894631626E+03  0.10566000000E+00 0. -1.
         -4    1    1    2    0  502  0.10996432686E+02 -0.53130521354E+01 -0.28706044372E+02  0.31195945863E+02  0.00000000000E+00 0. -1.
</event>
<event>
 5    1  0.2540860E-005  0.4734491E+03  0.7818608E-02  0.9598470E-01
         21   -1    0    0  501  502  0.00000000000E+00  0.00000000000E+00  0.71223793766E+03  0.71223793766E+03  0.00000000000E+00 0. -1.
         -4   -1    0    0    0  501 -0.00000000000E+00 -0.00000000000E+00 -0.95585764460E+03  0.95585764460E+03  0.00000000000E+00 0. -1.
        -13    1    1    2    0    0 -0.34781767366E+03  0.15662914733E+03 -0.41356359211E+03  0.56262303525E+03  0.10566000000E+00 0.  1.
         13    1    1    2    0    0 -0.18026573559E+03 -0.32617242827E+03 -0.21509404229E+03  0.43029018881E+03  0.10566000000E+00 0. -1.
         -4    1    1    2    0  502  0.52808340926E+03  0.16954328094E+03  0.38503792746E+03  0.67518235820E+03  0.00000000000E+00 0. -1.
</event>
<event>
 5    1  0.2540860E-005  0.4679361E+03  0.7818608E-02  0.9976504E-01
          4   -1    0    0  502    0 -0.00000000000E+00  0.00000000000E+00  0.14128894615E+03  0.14128894615E+03  0.00000000000E+00 0.  1.
         21   -1    0    0  501  502  0.00000000000E+00 -0.00000000000E+00 -0.21912357909E+04  0.21912357909E+04  0.00000000000E+00 0.  1.
        -13    1    1    2    0    0  0.40965659570E+03  0.17247863134E+03 -0.11430723274E+04  0.12264508802E+04  0.10566000000E+00 0.  1.
         13    1    1    2    0    0  0.91732952462E+02 -0.57584900517E+02 -0.90416490402E+02  0.14108900820E+03  0.10566000000E+00 0. -1.
          4    1    1    2  501    0 -0.50138954816E+03 -0.11489373082E+03 -0.81645802699E+03  0.96498484870E+03  0.00000000000E+00 0.  1.
</event>
<event>
 5    1  0.2540860E-005  0.7450009E+03  0.7818608E-02  0.9060135E-01
          4   -1    0    0  502    0 -0.00000000000E+00  0.00000000000E+00  0.17995699034E+04  0.17995699034E+04  0.00000000000E+00 0.  1.
         21   -1    0    0  501  502  0.00000000000E+00 -0.00000000000E+00 -0.64965523834E+03  0.64965523834E+03  0.00000000000E+00 0. -1.
        -13    1    1    2    0    0  0.25524110367E+03 -0.73546638224E+03 -0.12246987884E+03  0.78807214315E+03  0.10566000000E+00 0.  1.
         13    1    1    2    0    0  0.62036285167E+02  0.74776543364E+03  0.88493402765E+03  0.11602197589E+04  0.10566000000E+00 0. -1.
          4    1    1    2  501    0 -0.31727738884E+03 -0.12299051394E+02  0.38745051628E+03  0.50093323976E+03  0.00000000000E+00 0.  1.
</event>
<event>
 5    1  0.2540860E-005  0.1997552E+03  0.7818608E-02  0.1085890E+00
         21   -1    0    0  501  502  0.00000000000E+00  0.00000000000E+00  0.35176284269E+03  0.35176284269E+03  0.00000000000E+00 0.  1.
          4   -1    0    0  502    0 -0.00000000000E+00 -0.00000000000E+00 -0.19805049135E+03  0.19805049135E+03  0.00000000000E+00 0.  1.
        -13    1    1    2    0    0 -0.50744593320E+02  0.23280937082E+03  0.96987852777E+02  0.25725837526E+03  0.10566000000E+00 0.  1.
         13    1    1    2    0    0  0.77633133754E+02 -0.57176044688E+02 -0.20906492897E+02  0.98656455196E+02  0.10566000000E+00 0. -1.
          4    1    1    2  501    0 -0.26888540434E+02 -0.17563332613E+03  0.77630991466E+02  0.19389850358E+03  0.00000000000E+00 0.  1.
</event>
<event>
 5    1  0.2540860E-005  0.2702615E+03  0.7818608E-02  0.1020397E+00
         21   -1    0    0  501  502  0.00000000000E+00  0.00000000000E+00  0.50038666275E+03  0.50038666275E+03  0.00000000000E+00 0.  1.
         -4   -1    0    0    0  501 -0.00000000000E+00 -0.00000000000E+00 -0.23726093293E+03  0.23726093293E+03  0.00000000000E+00 0. -1.
        -13    1    1    2    0    0  0.25579386049E+03 -0.40920990047E+02  0.30825224676E+03  0.40264684934E+03  0.10566000000E+00 0.  1.
         13    1    1    2    0    0 -0.26862412488E+03  0.50938550923E+02 -0.89538905653E+02  0.28769929306E+03  0.10566000000E+00 0. -1.
         -4    1    1    2    0  502  0.12830264385E+02 -0.10017560877E+02  0.44412388719E+02  0.47301453274E+02  0.00000000000E+00 0. -1.
</event>
<event>
 5    1  0.2540860E-005  0.1189371E+03  0.7818608E-02  0.1173645E+00
         21   -1    0    0  501  502  0.00000000000E+00  0.00000000000E+00  0.54496591630E+02  0.54496591630E+02  0.00000000000E+00 0. -1.
         -4   -1    0    0    0  501 -0.00000000000E+00 -0.00000000000E+00 -0.52833881291E+03  0.52833881291E+03  0.00000000000E+00 0. -1.
        -13    1    1    2    0    0  0.13467078762E+02 -0.45854046093E+02 -0.14342988836E+03  0.15118233955E+03  0.10566000000E+00 0.  1.
         13    1    1    2    0    0  0.45784555132E+02  0.11988498506E+03 -0.53642547366E+02  0.13909050717E+03  0.10566000000E+00 0. -1.
         -4    1    1    2    0  502 -0.59251633895E+02 -0.74030938968E+02 -0.27676978556E+03  0.29256255782E+03  0.00000000000E+00 0. -1.
</event>
<event>
 5    1  0.2540860E-005  0.4877375E+03  0.7818608E-02  0.9701870E-01
         21   -1    0    0  501  502  0.00000000000E+00  0.00000000000E+00  0.12566383490E+04  0.12566383490E+04  0.00000000000E+00 0.  1.
          4   -1    0    0  502    0 -0.00000000000E+00 -0.00000000000E+00 -0.32411395750E+03  0.32411395750E+03  0.00000000000E+00 0.  1.
        -13    1    1    2    0    0  0.43376682003E+03 -0.36740818729E+03  0.71319214781E+03  0.91202274155E+03  0.10566000000E+00 0.  1.
         13    1    1    2    0    0 -0.68827963507E+02  0.23249610815E+03  0.92194228787E+02  0.25940608291E+03  0.10566000000E+00 0. -1.
          4    1    1    2  501    0 -0.36493885653E+03  0.13491207914E+03  0.12713801488E+03  0.40932348202E+03  0.00000000000E+00 0.  1.
</event>
<event>
 5    1  0.2540860E-005  0.2817882E+03  0.7818608E-02  0.1050355E+00
         21   -1    0    0  501  502  0.00000000000E+00  0.00000000000E+00  0.69199636902E+03  0.69199636902E+03  0.00000000000E+00 0. -1.
         -4   -1    0    0    0  501 -0.00000000000E+00 -0.00000000000E+00 -0.21065375043E+03  0.21065375043E+03  0.00000000000E+00 0. -1.
        -13    1    1    2    0    0 -0.73258093768E+00  0.95371860811E+02 -0.41231672411E+02  0.10390568071E+03  0.10566000000E+00 0.  1.
         13    1    1    2    0    0  0.13371743613E+03 -0.31161173057E+03  0.22193672719E+03  0.40526305703E+03  0.10566000000E+00 0. -1.
         -4    1    1    2    0  502 -0.13298485519E+03  0.21623986976E+03  0.30063756381E+03  0.39348138171E+03  0.00000000000E+00 0. -1.
</event>
<event>
 5    1  0.2728509E-005  0.4930133E+03  0.7818608E-02  0.9868301E-01
         21   -1    0    0  501  502  0.00000000000E+00  0.00000000000E+00  0.23136105216E+03  0.23136105216E+03  0.00000000000E+00 0.  1.
          4   -1    0    0  502    0 -0.00000000000E+00 -0.00000000000E+00 -0.16143628523E+04  0.16143628523E+04  0.00000000000E+00 0.  1.
        -13    1    1    2    0    0  0.42274389486E+03 -0.91372808343E+02 -0.57122794221E+03  0.71649338020E+03  0.10566000000E+00 0.  1.
         13    1    1    2    0    0  0.82324065689E+02 -0.10418228441E+03 -0.47095152785E+03  0.48931232657E+03  0.10566000000E+00 0. -1.
          4    1    1    2  501    0 -0.50506796055E+03  0.19555509276E+03 -0.34082233010E+03  0.63991819772E+03  0.00000000000E+00 0.  1.
</event>
<event>
 5    1  0.2540860E-005  0.5864102E+02  0.7818608E-02  0.1260124E+00
         21   -1    0    0  501  502  0.00000000000E+00  0.00000000000E+00  0.15642563562E+03  0.15642563562E+03  0.00000000000E+00 0.  1.
         -4   -1    0    0    0  501 -0.00000000000E+00 -0.00000000000E+00 -0.74289789170E+02  0.74289789170E+02  0.00000000000E+00 0. -1.
        -13    1    1    2    0    0 -0.19315192942E+02 -0.43752580407E+02  0.10029241793E+03  0.11111230908E+03  0.10566000000E+00 0.  1.
         13    1    1    2    0    0  0.38955026097E+02  0.45994382438E+02 -0.52529142908E+02  0.79951856093E+02  0.10566000000E+00 0. -1.
         -4    1    1    2    0  502 -0.19639833155E+02 -0.22418020308E+01  0.34372571431E+02  0.39651259620E+02  0.00000000000E+00 0. -1.
</event>
<event>
 5    1  0.2540860E-005  0.2056064E+03  0.7818608E-02  0.1086741E+00
         -4   -1    0    0    0  501 -0.00000000000E+00  0.00000000000E+00  0.81696603024E+03  0.81696603024E+03  0.00000000000E+00 0. -1.
         21   -1    0    0  501  502  0.00000000000E+00 -0.00000000000E+00 -0.40985101507E+03  0.40985101507E+03  0.00000000000E+00 0. -1.
        -13    1    1    2    0    0  0.37205068487E+02  0.77923570633E+02  0.13826663239E+03  0.16301525321E+03  0.10566000000E+00 0.  1.
         13    1    1    2    0    0 -0.15085852519E+03  0.95637965786E+02  0.62588069233E+03  0.65086985437E+03  0.10566000000E+00 0. -1.
         -4    1    1    2    0  502  0.11365345671E+03 -0.17356153642E+03 -0.35703230955E+03  0.41293193775E+03  0.00000000000E+00 0. -1.
</event>
<event>
 5    1  0.2540860E-005  0.3940112E+03  0.7818608E-02  0.9889859E-01
          4   -1    0    0  502    0 -0.00000000000E+00  0.00000000000E+00  0.23799529250E+04  0.23799529250E+04  0.00000000000E+00 0.  1.
         21   -1    0    0  501  502  0.00000000000E+00 -0.00000000000E+00 -0.30648835163E+03  0.30648835163E+03  0.00000000000E+00 0.  1.
        -13    1    1    2    0    0  0.37566309136E+03 -0.34155989705E+02  0.13941895996E+04  0.14443178461E+04  0.10566000000E+00 0.  1.
         13    1    1    2    0    0 -0.72164011118E+02 -0.23094386647E+03  0.78835169537E+03  0.82464605785E+03  0.10566000000E+00 0. -1.
          4    1    1    2  501    0 -0.30349908024E+03  0.26509985618E+03 -0.10907672162E+03  0.41747737263E+03  0.00000000000E+00 0.  1.
</event>
<event>
 5    1  0.2540860E-005  0.1135847E+03  0.7818608E-02  0.1143849E+00
          4   -1    0    0  502    0 -0.00000000000E+00  0.00000000000E+00  0.55795562751E+02  0.55795562751E+02  0.00000000000E+00 0.  1.
         21   -1    0    0  501  502  0.00000000000E+00 -0.00000000000E+00 -0.57264511501E+03  0.57264511501E+03  0.00000000000E+00 0. -1.
        -13    1    1    2    0    0  0.11818055021E+03  0.27895868888E+02 -0.28920455038E+02  0.12482478053E+03  0.10566000000E+00 0.  1.
         13    1    1    2    0    0 -0.74911231144E+02 -0.15722816733E+02 -0.35919789332E+03  0.36726289936E+03  0.10566000000E+00 0. -1.
          4    1    1    2  501    0 -0.43269319069E+02 -0.12173052154E+02 -0.12873120390E+03  0.13635299787E+03  0.00000000000E+00 0.  1.
</event>
<event>
 5    1  0.2540860E-005  0.2440567E+03  0.7818608E-02  0.1033519E+00
          4   -1    0    0  502    0 -0.00000000000E+00  0.00000000000E+00  0.88376842488E+03  0.88376842488E+03  0.00000000000E+00 0.  1.
         21   -1    0    0  501  502  0.00000000000E+00 -0.00000000000E+00 -0.22358726391E+03  0.22358726391E+03  0.00000000000E+00 0. -1.
        -13    1    1    2    0    0 -0.54226332043E+02  0.25486106480E+03  0.54373253222E+03  0.60294256376E+03  0.10566000000E+00 0.  1.
         13    1    1    2    0    0  0.23244166619E+03 -0.11560435259E+03  0.26273810415E+02  0.26092876191E+03  0.10566000000E+00 0. -1.
          4    1    1    2  501    0 -0.17821533414E+03 -0.13925671221E+03  0.90174818343E+02  0.24348436312E+03  0.00000000000E+00 0.  1.
</event>
<event>
 5    1  0.2540860E-005  0.2797087E+03  0.7818608E-02  0.1016051E+00
          4   -1    0    0  502    0 -0.00000000000E+00  0.00000000000E+00  0.10545723593E+04  0.10545723593E+04  0.00000000000E+00 0.  1.
         21   -1    0    0  501  502  0.00000000000E+00 -0.00000000000E+00 -0.30288075030E+03  0.30288075030E+03  0.00000000000E+00 0.  1.
        -13    1    1    2    0    0  0.19588757603E+03  0.20483357315E+03  0.46920141570E+02  0.28728077899E+03  0.10566000000E+00 0.  1.
         13    1    1    2    0    0 -0.20350746071E+03 -0.19099243541E+03  0.86513154943E+03  0.90903575613E+03  0.10566000000E+00 0. -1.
          4    1    1    2  501    0  0.76198846795E+01 -0.13841137739E+02 -0.16036008199E+03  0.16113657447E+03  0.00000000000E+00 0.  1.
</event>
<event>
 5    1  0.2540860E-005  0.5357501E+03  0.7818608E-02  0.9402879E-01
         21   -1    0    0  501  502  0.00000000000E+00  0.00000000000E+00  0.26154701253E+03  0.26154701253E+03  0.00000000000E+00 0. -1.
         -4   -1    0    0    0  501 -0.00000000000E+00 -0.00000000000E+00 -0.28131433970E+04  0.28131433970E+04  0.00000000000E+00 0. -1.
        -13    1    1    2    0    0  0.24945061990E+03 -0.49332879411E+03 -0.81924207215E+03  0.98830991840E+03  0.10566000000E+00 0.  1.
         13    1    1    2    0    0 -0.10525955177E+03  0.50183804180E+03 -0.20501236560E+03  0.55222375415E+03  0.10566000000E+00 0. -1.
         -4    1    1    2    0  502 -0.14419106812E+03 -0.85092476903E+01 -0.15273419467E+04  0.15341567369E+04  0.00000000000E+00 0. -1.
</event>
<event>
 5    1  0.2540860E-005  0.3858741E+03  0.7818608E-02  0.1005535E+00
         -4   -1    0    0    0  501 -0.00000000000E+00  0.00000000000E+00  0.23912473151E+03  0.23912473151E+03  0.00000000000E+00 0. -1.
         21   -1    0    0  501  502  0.00000000000E+00 -0.00000000000E+00 -0.14348815225E+04  0.14348815225E+04  0.00000000000E+00 0. -1.
        -13    1    1    2    0    0 -0.12114341070E+03  0.87242822437E+02 -0.77891101230E+02  0.16838667061E+03  0.10566000000E+00 0.  1.
         13    1    1    2    0    0  0.46805836366E+02 -0.40107288295E+03 -0.11120082492E+04  0.11830522394E+04  0.10566000000E+00 0. -1.
         -4    1    1    2    0  502  0.74337574338E+02  0.31383006051E+03 -0.58574406288E+01  0.32256734405E+03  0.00000000000E+00 0. -1.
</event>
<event>
 5    1  0.2540860E-005  0.6477286E+03  0.7818608E-02  0.9202462E-01
         21   -1    0    0  501  502  0.00000000000E+00  0.00000000000E+00  0.44868015442E+03  0.44868015442E+03  0.00000000000E+00 0. -1.
          4   -1    0    0  502    0 -0.00000000000E+00 -0.00000000000E+00 -0.32887748918E+04  0.32887748918E+04  0.00000000000E+00 0.  1.
        -13    1    1    2    0    0 -0.55998410902E+03 -0.23382526545E+03 -0.21248029830E+04  0.22097611149E+04  0.10566000000E+00 0.  1.
         13    1    1    2    0    0  0.70627432199E+03  0.61147737365E+03 -0.58502852472E+03  0.11022642071E+04  0.10566000000E+00 0. -1.
          4    1    1    2  501    0 -0.14629021298E+03 -0.37765210820E+03 -0.13026322965E+03  0.42542972421E+03  0.00000000000E+00 0.  1.
</event>
<event>
 5    1  0.2540860E-005  0.5105784E+03  0.7818608E-02  0.9523785E-01
         21   -1    0    0  501  502  0.00000000000E+00  0.00000000000E+00  0.17302104149E+04  0.17302104149E+04  0.00000000000E+00 0.  1.
          4   -1    0    0  502    0 -0.00000000000E+00 -0.00000000000E+00 -0.32251034210E+03  0.32251034210E+03  0.00000000000E+00 0.  1.
        -13    1    1    2    0    0  0.10307776796E+03  0.30031232022E+03  0.97169670859E+02  0.33204588843E+03  0.10566000000E+00 0.  1.
         13    1    1    2    0    0 -0.85050198337E+01  0.39748238128E+03  0.35005653350E+03  0.52972083836E+03  0.10566000000E+00 0. -1.
          4    1    1    2  501    0 -0.94572748126E+02 -0.69779470149E+03  0.96047386847E+03  0.11909540302E+04  0.00000000000E+00 0.  1.
</event>
<event>
 5    1  0.2540860E-005  0.4980592E+03  0.7818608E-02  0.9640123E-01
         21   -1    0    0  501  502  0.00000000000E+00  0.00000000000E+00  0.37213340595E+03  0.37213340595E+03  0.00000000000E+00 0. -1.
         -4   -1    0    0    0  501 -0.00000000000E+00 -0.00000000000E+00 -0.14509818079E+04  0.14509818079E+04  0.00000000000E+00 0. -1.
        -13    1    1    2    0    0 -0.28138963068E+03 -0.27252798675E+02 -0.63206271422E+03  0.69240604067E+03  0.10566000000E+00 0.  1.
         13    1    1    2    0    0 -0.13772801104E+02  0.48432518900E+03 -0.28915279712E+03  0.56424279348E+03  0.10566000000E+00 0. -1.
         -4    1    1    2    0  502  0.29516243179E+03 -0.45707239033E+03 -0.15763289064E+03  0.56646637972E+03  0.00000000000E+00 0. -1.
</event>
<event>
 5    1  0.2540860E-005  0.2955180E+02  0.7818608E-02  0.1410524E+00
         -4   -1    0    0    0  501 -0.00000000000E+00  0.00000000000E+00  0.17985489686E+03  0.17985489686E+03  0.00000000000E+00 0. -1.
         21   -1    0    0  501  502  0.00000000000E+00 -0.00000000000E+00 -0.34845602429E+03  0.34845602429E+03  0.00000000000E+00 0. -1.
        -13    1    1    2    0    0  0.25764939276E+02 -0.12419331682E+02 -0.25695842637E+02  0.38449439374E+02  0.10566000000E+00 0.  1.
         13    1    1    2    0    0 -0.28210961281E+01  0.31120730361E+02  0.17136980838E+03  0.17419552472E+03  0.10566000000E+00 0. -1.
         -4    1    1    2    0  502 -0.22943843148E+02 -0.18701398679E+02 -0.31427509318E+03  0.31566595706E+03  0.00000000000E+00 0. -1.
</event>
<event>
 5    1  0.2540860E-005  0.7066205E+02  0.7818608E-02  0.1225001E+00
         21   -1    0    0  501  502  0.00000000000E+00  0.00000000000E+00  0.22614039985E+03  0.22614039985E+03  0.00000000000E+00 0. -1.
         -4   -1    0    0    0  501 -0.00000000000E+00 -0.00000000000E+00 -0.17984146647E+03  0.17984146647E+03  0.00000000000E+00 0. -1.
        -13    1    1    2    0    0  0.26281554113E+02 -0.62393172335E+02  0.73765232195E+02  0.10012466572E+03  0.10566000000E+00 0.  1.
         13    1    1    2    0    0 -0.13617038410E+02  0.69718037834E+02 -0.15866736124E+03  0.17384294988E+03  0.10566000000E+00 0. -1.
         -4    1    1    2    0  502 -0.12664515704E+02 -0.73248654986E+01  0.13120106243E+03  0.13201425072E+03  0.00000000000E+00 0. -1.
</event>
<event>
 5    1  0.2540860E-005  0.3658867E+03  0.7818608E-02  0.9953038E-01
          4   -1    0    0  502    0 -0.00000000000E+00  0.00000000000E+00  0.11271930339E+04  0.11271930339E+04  0.00000000000E+00 0.  1.
         21   -1    0    0  501  502  0.00000000000E+00 -0.00000000000E+00 -0.36361740870E+03  0.36361740870E+03  0.00000000000E+00 0.  1.
        -13    1    1    2    0    0 -0.34502607441E+03  0.53233078133E+02  0.65629148284E+03  0.74336752300E+03  0.10566000000E+00 0.  1.
         13    1    1    2    0    0  0.14274050142E+02 -0.24439457425E+03  0.24019038412E+03  0.34296339195E+03  0.10566000000E+00 0. -1.
          4    1    1    2  501    0  0.33075202427E+03  0.19116149611E+03 -0.13290624180E+03  0.40447952762E+03  0.00000000000E+00 0.  1.
</event>
<event>
 5    1  0.2540860E-005  0.8896991E+03  0.7818608E-02  0.8885762E-01
          4   -1    0    0  502    0 -0.00000000000E+00  0.00000000000E+00  0.38287365628E+04  0.38287365628E+04  0.00000000000E+00 0.  1.
         21   -1    0    0  501  502  0.00000000000E+00 -0.00000000000E+00 -0.40009745649E+03  0.40009745649E+03  0.00000000000E+00 0.  1.
        -13    1    1    2    0    0 -0.77971064738E+03 -0.31870028443E+03  0.23118220970E+04  0.24604958817E+04  0.10566000000E+00 0.  1.
         13    1    1    2    0    0  0.93167316111E+03  0.37642485037E+03  0.12163532758E+04  0.15777280659E+04  0.10566000000E+00 0. -1.
          4    1    1    2  501    0 -0.15196251373E+03 -0.57724565941E+02 -0.99536266436E+02  0.19061007169E+03  0.00000000000E+00 0.  1.
</event>
<event>
 5    1  0.2540860E-005  0.1101166E+03  0.7818608E-02  0.1148822E+00
          4   -1    0    0  502    0 -0.00000000000E+00  0.00000000000E+00  0.67538999077E+03  0.67538999077E+03  0.00000000000E+00 0.  1.
         21   -1    0    0  501  502  0.00000000000E+00 -0.00000000000E+00 -0.55426321033E+02  0.55426321033E+02  0.00000000000E+00 0.  1.
        -13    1    1    2    0    0  0.13973241511E+03  0.29482956377E+02  0.49228532673E+03  0.51258096592E+03  0.10566000000E+00 0.  1.
         13    1    1    2    0    0 -0.76246712987E+02  0.10331152224E+02  0.12047933796E+03  0.14295305519E+03  0.10566000000E+00 0. -1.
          4    1    1    2  501    0 -0.63485702127E+02 -0.39814108601E+02  0.71990050478E+01  0.75282290693E+02  0.00000000000E+00 0.  1.
</event>
<event>
 5    1  0.2540860E-005  0.1088395E+03  0.7818608E-02  0.1150705E+00
         -4   -1    0    0    0  501 -0.00000000000E+00  0.00000000000E+00  0.25007332220E+03  0.25007332220E+03  0.00000000000E+00 0. -1.
         21   -1    0    0  501  502  0.00000000000E+00 -0.00000000000E+00 -0.84856433477E+02  0.84856433477E+02  0.00000000000E+00 0.  1.
        -13    1    1    2    0    0 -0.62336927130E+02  0.74574916119E+02  0.11256397591E+02  0.97846963412E+02  0.10566000000E+00 0.  1.
         13    1    1    2    0    0  0.65054405123E+02 -0.92942893938E+02  0.17529281304E+03  0.20880143349E+03  0.10566000000E+00 0. -1.
         -4    1    1    2    0  502 -0.27174779928E+01  0.18367977819E+02 -0.21332321913E+02  0.28281358773E+02  0.00000000000E+00 0. -1.
</event>
<event>
 5    1  0.2540860E-005  0.4169349E+03  0.7818608E-02  0.9681371E-01
         21   -1    0    0  501  502  0.00000000000E+00  0.00000000000E+00  0.61279060909E+03  0.61279060909E+03  0.00000000000E+00 0. -1.
         -4   -1    0    0    0  501 -0.00000000000E+00 -0.00000000000E+00 -0.13543625928E+04  0.13543625928E+04  0.00000000000E+00 0. -1.
        -13    1    1    2    0    0  0.33134873977E+03 -0.18247013478E+03 -0.81491678044E+03  0.89843013509E+03  0.10566000000E+00 0.  1.
         13    1    1    2    0    0 -0.63697481581E+03  0.25142898121E+03 -0.12749383061E+03  0.69656883118E+03  0.10566000000E+00 0. -1.
         -4    1    1    2    0  502  0.30562607604E+03 -0.68958846426E+02  0.20083862734E+03  0.37215423562E+03  0.00000000000E+00 0. -1.
</event>
<event>
 5    1  0.2540860E-005  0.5034284E+03  0.7818608E-02  0.9878179E-01
          4   -1    0    0  502    0 -0.00000000000E+00  0.00000000000E+00  0.30165601148E+03  0.30165601148E+03  0.00000000000E+00 0.  1.
         21   -1    0    0  501  502  0.00000000000E+00 -0.00000000000E+00 -0.14985067189E+04  0.14985067189E+04  0.00000000000E+00 0.  1.
        -13    1    1    2    0    0 -0.34760154630E+03  0.39063819816E+03 -0.82570414612E+03  0.97734967383E+03  0.10566000000E+00 0.  1.
         13    1    1    2    0    0 -0.47714838096E+02 -0.11079756726E+03  0.92737231509E+02  0.15216113813E+03  0.10566000000E+00 0. -1.
          4    1    1    2  501    0  0.39531638440E+03 -0.27984063090E+03 -0.46388379285E+03  0.67065191847E+03  0.00000000000E+00 0.  1.
</event>
<event>
 5    1  0.2540860E-005  0.4375347E+03  0.7818608E-02  0.9959897E-01
         -4   -1    0    0    0  501 -0.00000000000E+00  0.00000000000E+00  0.83815229329E+03  0.83815229329E+03  0.00000000000E+00 0. -1.
         21   -1    0    0  501  502  0.00000000000E+00 -0.00000000000E+00 -0.45178413664E+03  0.45178413664E+03  0.00000000000E+00 0. -1.
        -13    1    1    2    0    0  0.87776468656E+02  0.10900538068E+03  0.25898377580E+03  0.29437983755E+03  0.10566000000E+00 0.  1.
         13    1    1    2    0    0  0.30552004191E+03 -0.31767861566E+03 -0.15628597766E+03  0.46764037126E+03  0.10566000000E+00 0. -1.
         -4    1    1    2    0  502 -0.39329651056E+03  0.20867323499E+03  0.28367035850E+03  0.52791622111E+03  0.00000000000E+00 0. -1.
</event>
<event>
 5    1  0.2540860E-005  0.4543348E+03  0.7818608E-02  0.9765503E-01
         21   -1    0    0  501  502  0.00000000000E+00  0.00000000000E+00  0.33275733189E+03  0.33275733189E+03  0.00000000000E+00 0. -1.
         -4   -1    0    0    0  501 -0.00000000000E+00 -0.00000000000E+00 -0.13333228587E+04  0.13333228587E+04  0.00000000000E+00 0. -1.
        -13    1    1    2    0    0 -0.29795421793E+02  0.23885384051E+03 -0.40538443033E+03  0.47146099712E+03  0.10566000000E+00 0.  1.
         13    1    1    2    0    0 -0.41181565416E+03  0.10472602577E+03 -0.76676089213E+02  0.43178571920E+03  0.10566000000E+00 0. -1.
         -4    1    1    2    0  502  0.44161107595E+03 -0.34357986628E+03 -0.51850500727E+03  0.76283347428E+03  0.00000000000E+00 0. -1.
</event>
<event>
 5    1  0.2540860E-005  0.4194652E+03  0.7818608E-02  0.9857944E-01
         21   -1    0    0  501  502  0.00000000000E+00  0.00000000000E+00  0.13116837269E+03  0.13116837269E+03  0.00000000000E+00 0.  1.
          4   -1    0    0  502    0 -0.00000000000E+00 -0.00000000000E+00 -0.24028769255E+04  0.24028769255E+04  0.00000000000E+00 0.  1.
        -13    1    1    2    0    0  0.45245981522E+03  0.14835042559E+03 -0.67245524050E+03  0.82396832148E+03  0.10566000000E+00 0.  1.
         13    1    1    2    0    0 -0.10634828469E+03 -0.19629114774E+03 -0.37006706396E+03  0.43219187328E+03  0.10566000000E+00 0. -1.
          4    1    1    2  501    0 -0.34611153053E+03  0.47940722153E+02 -0.12291862483E+04  0.12778851034E+04  0.00000000000E+00 0.  1.
</event>
<event>
 5    1  0.2540860E-005  0.2876685E+03  0.7818608E-02  0.1012529E+00
         -4   -1    0    0    0  501 -0.00000000000E+00  0.00000000000E+00  0.40175296881E+04  0.40175296881E+04  0.00000000000E+00 0. -1.
         21   -1    0    0  501  502  0.00000000000E+00 -0.00000000000E+00 -0.12177323585E+03  0.12177323585E+03  0.00000000000E+00 0. -1.
        -13    1    1    2    0    0 -0.22163857478E+03 -0.24963692336E+03  0.12129301284E+04  0.12580309053E+04  0.10566000000E+00 0.  1.
         13    1    1    2    0    0  0.31334183076E+02  0.99082707532E+02 -0.65117116382E+02  0.12263549230E+03  0.10566000000E+00 0. -1.
         -4    1    1    2    0  502  0.19030439170E+03  0.15055421583E+03  0.27479434403E+04  0.27586365264E+04  0.00000000000E+00 0. -1.
</event>
<event>
 5    1  0.2540860E-005  0.4910558E+03  0.7818608E-02  0.9512822E-01
          4   -1    0    0  502    0 -0.00000000000E+00  0.00000000000E+00  0.85158457365E+03  0.85158457365E+03  0.00000000000E+00 0.  1.
         21   -1    0    0  501  502  0.00000000000E+00 -0.00000000000E+00 -0.73729432911E+03  0.73729432911E+03  0.00000000000E+00 0.  1.
        -13    1    1    2    0    0 -0.74528186061E+02 -0.20620378371E+03  0.36067017327E+03  0.42208700049E+03  0.10566000000E+00 0.  1.
         13    1    1    2    0    0 -0.31783691321E+03 -0.33940551428E+03 -0.56302074249E+02  0.46838695674E+03  0.10566000000E+00 0. -1.
          4    1    1    2  501    0  0.39236509927E+03  0.54560929799E+03 -0.19007785447E+03  0.69840494553E+03  0.00000000000E+00 0.  1.
</event>
<event>
 5    1  0.2540860E-005  0.2013343E+03  0.7818608E-02  0.1059225E+00
          4   -1    0    0  502    0 -0.00000000000E+00  0.00000000000E+00  0.31905751587E+03  0.31905751587E+03  0.00000000000E+00 0.  1.
         21   -1    0    0  501  502  0.00000000000E+00 -0.00000000000E+00 -0.24182882689E+03  0.24182882689E+03  0.00000000000E+00 0. -1.
        -13    1    1    2    0    0 -0.18345905741E+03  0.10546786148E+03  0.28997073607E+02  0.21359198719E+03  0.10566000000E+00 0.  1.
         13    1    1    2    0    0  0.17920678787E+03 -0.79965180705E+02  0.14700462447E+03  0.24519354339E+03  0.10566000000E+00 0. -1.
          4    1    1    2  501    0  0.42522695439E+01 -0.25502680774E+02 -0.98773009091E+02  0.10210081218E+03  0.00000000000E+00 0.  1.
</event>
<event>
 5    1  0.2540860E-005  0.4759063E+03  0.7818608E-02  0.9596866E-01
         21   -1    0    0  501  502  0.00000000000E+00  0.00000000000E+00  0.55325492094E+03  0.55325492094E+03  0.00000000000E+00 0. -1.
         -4   -1    0    0    0  501 -0.00000000000E+00 -0.00000000000E+00 -0.19369634680E+04  0.19369634680E+04  0.00000000000E+00 0. -1.
        -13    1    1    2    0    0 -0.35074974501E+03  0.14019285144E+03 -0.13645013405E+04  0.14158189639E+04  0.10566000000E+00 0.  1.
         13    1    1    2    0    0  0.54753123137E+03  0.26352701406E+03 -0.10638846956E+03  0.61689176853E+03  0.10566000000E+00 0. -1.
         -4    1    1    2    0  502 -0.19678148636E+03 -0.40371986549E+03  0.87181262965E+02  0.45750765653E+03  0.00000000000E+00 0. -1.
</event>
<event>
 5    1  0.2540860E-005  0.1182111E+03  0.7818608E-02  0.1140891E+00
          4   -1    0    0  502    0 -0.00000000000E+00  0.00000000000E+00  0.94864091693E+02  0.94864091693E+02  0.00000000000E+00 0.  1.
         21   -1    0    0  501  502  0.00000000000E+00 -0.00000000000E+00 -0.48624026250E+03  0.48624026250E+03  0.00000000000E+00 0. -1.
        -13    1    1    2    0    0 -0.10277906823E+03 -0.68680340654E+02 -0.96844827515E+01  0.12399325154E+03  0.10566000000E+00 0.  1.
         13    1    1    2    0    0  0.11475891400E+03 -0.54103773595E+02 -0.21650984007E+03  0.25094491163E+03  0.10566000000E+00 0. -1.
          4    1    1    2  501    0 -0.11979845774E+02  0.12278411425E+03 -0.16518184798E+03  0.20616619102E+03  0.00000000000E+00 0.  1.
</event>
<event>
 5    1  0.2540860E-005  0.3831485E+03  0.7818608E-02  0.1010019E+00
          4   -1    0    0  502    0 -0.00000000000E+00  0.00000000000E+00  0.17986812058E+04  0.17986812058E+04  0.00000000000E+00 0.  1.
         21   -1    0    0  501  502  0.00000000000E+00 -0.00000000000E+00 -0.20879708157E+03  0.20879708157E+03  0.00000000000E+00 0.  1.
        -13    1    1    2    0    0  0.34999606833E+03 -0.18926142495E+03  0.51455741568E+02  0.40120423642E+03  0.10566000000E+00 0.  1.
         13    1    1    2    0    0 -0.12308439436E+03 -0.47559342499E+02  0.51118691115E+03  0.52794292162E+03  0.10566000000E+00 0. -1.
          4    1    1    2  501    0 -0.22691167396E+03  0.23682076745E+03  0.10272414715E+04  0.10783311293E+04  0.00000000000E+00 0.  1.
</event>
<event>
 5    1  0.2540860E-005  0.5016995E+03  0.7818608E-02  0.9997348E-01
         -4   -1    0    0    0  501 -0.00000000000E+00  0.00000000000E+00  0.79840130749E+03  0.79840130749E+03  0.00000000000E+00 0. -1.
         21   -1    0    0  501  502  0.00000000000E+00 -0.00000000000E+00 -0.58824328747E+03  0.58824328747E+03  0.00000000000E+00 0. -1.
        -13    1    1    2    0    0  0.80498716383E+01 -0.81667215836E+02  0.33122802734E+03  0.34124236524E+03  0.10566000000E+00 0.  1.
         13    1    1    2    0    0 -0.27428379446E+03  0.45285292371E+03 -0.22770131873E+03  0.57632913524E+03  0.10566000000E+00 0. -1.
         -4    1    1    2    0  502  0.26623392282E+03 -0.37118570788E+03  0.10663131140E+03  0.46907309448E+03  0.00000000000E+00 0. -1.
</event>
<event>
 5    1  0.2540860E-005  0.5841333E+02  0.7818608E-02  0.1260878E+00
         -4   -1    0    0    0  501 -0.00000000000E+00  0.00000000000E+00  0.42879275932E+02  0.42879275932E+02  0.00000000000E+00 0. -1.
         21   -1    0    0  501  502  0.00000000000E+00 -0.00000000000E+00 -0.30349944338E+03  0.30349944338E+03  0.00000000000E+00 0. -1.
        -13    1    1    2    0    0  0.19774482566E+02 -0.37168326072E+02 -0.79527222875E+02  0.89983915040E+02  0.10566000000E+00 0.  1.
         13    1    1    2    0    0 -0.58900357937E+02  0.31112953138E+02  0.43670560949E+01  0.66755901320E+02  0.10566000000E+00 0. -1.
         -4    1    1    2    0  502  0.39125875371E+02  0.60553729339E+01 -0.18546000066E+03  0.18963890295E+03  0.00000000000E+00 0. -1.
</event>
<event>
 5    1  0.2540860E-005  0.2396043E+03  0.7818608E-02  0.1035925E+00
         21   -1    0    0  501  502  0.00000000000E+00  0.00000000000E+00  0.18602345337E+03  0.18602345337E+03  0.00000000000E+00 0. -1.
         -4   -1    0    0    0  501 -0.00000000000E+00 -0.00000000000E+00 -0.70969851866E+03  0.70969851866E+03  0.00000000000E+00 0. -1.
        -13    1    1    2    0    0  0.23325928332E+03 -0.23883170050E+02 -0.46976185074E+03  0.52503000547E+03  0.10566000000E+00 0.  1.
         13    1    1    2    0    0 -0.25155486689E+03  0.34214971053E+02 -0.13457798605E+03  0.28733562396E+03  0.10566000000E+00 0. -1.
         -4    1    1    2    0  502  0.18295583568E+02 -0.10331801003E+02  0.80664771506E+02  0.83356342603E+02  0.00000000000E+00 0. -1.
</event>
<event>
 5    1  0.4211855E-005  0.8672383E+03  0.7818608E-02  0.8910459E-01
          4   -1    0    0  502    0 -0.00000000000E+00  0.00000000000E+00  0.16386759246E+04  0.16386759246E+04  0.00000000000E+00 0.  1.
         21   -1    0    0  501  502  0.00000000000E+00 -0.00000000000E+00 -0.72614504864E+03  0.72614504864E+03  0.00000000000E+00 0. -1.
        -13    1    1    2    0    0  0.65537290924E+03  0.58640767380E+03  0.85222377500E+03  0.12246113603E+04  0.10566000000E+00 0.  1.
         13    1    1    2    0    0 -0.73808802699E+03 -0.43493830445E+03  0.24138380304E+03  0.89006259094E+03  0.10566000000E+00 0. -1.
          4    1    1    2  501    0  0.82715117753E+02 -0.15146936935E+03 -0.18107670208E+03  0.25014702196E+03  0.00000000000E+00 0.  1.
</event>
<event>
 5    1  0.2540860E-005  0.1013371E+03  0.7818608E-02  0.1162362E+00
         21   -1    0    0  501  502  0.00000000000E+00  0.00000000000E+00  0.59542634930E+02  0.59542634930E+02  0.00000000000E+00 0. -1.
          4   -1    0    0  502    0 -0.00000000000E+00 -0.00000000000E+00 -0.54205311870E+03  0.54205311870E+03  0.00000000000E+00 0.  1.
        -13    1    1    2    0    0 -0.46842904927E+02  0.83796370094E+02 -0.35572600608E+03  0.36845229264E+03  0.10566000000E+00 0.  1.
         13    1    1    2    0    0  0.10310139376E+03 -0.86928515961E+02 -0.11090352623E+03  0.17460259900E+03  0.10566000000E+00 0. -1.
          4    1    1    2  501    0 -0.56258488833E+02  0.31321458667E+01 -0.15880951454E+02  0.58540861991E+02  0.00000000000E+00 0.  1.
</event>
<event>
 5    1  0.2540860E-005  0.2402324E+03  0.7818608E-02  0.1035582E+00
         21   -1    0    0  501  502  0.00000000000E+00  0.00000000000E+00  0.41088986110E+02  0.41088986110E+02  0.00000000000E+00 0. -1.
          4   -1    0    0  502    0 -0.00000000000E+00 -0.00000000000E+00 -0.18832982580E+04  0.18832982580E+04  0.00000000000E+00 0.  1.
        -13    1    1    2    0    0  0.15867740728E+03  0.17181247324E+03 -0.92304127531E+03  0.95220966842E+03  0.10566000000E+00 0.  1.
         13    1    1    2    0    0 -0.12752510324E+03 -0.21668679180E+03 -0.83330824732E+03  0.87041281236E+03  0.10566000000E+00 0. -1.
          4    1    1    2  501    0 -0.31152304037E+02  0.44874318566E+02 -0.85859749270E+02  0.10176476334E+03  0.00000000000E+00 0.  1.
</event>
<event>
 5    1  0.2540860E-005  0.4962603E+03  0.7818608E-02  0.9616904E-01
         21   -1    0    0  501  502  0.00000000000E+00  0.00000000000E+00  0.56704135292E+03  0.56704135292E+03  0.00000000000E+00 0. -1.
         -4   -1    0    0    0  501 -0.00000000000E+00 -0.00000000000E+00 -0.11963821378E+04  0.11963821378E+04  0.00000000000E+00 0. -1.
        -13    1    1    2    0    0  0.12358704795E+03  0.28456673734E+03 -0.63449732349E+03  0.70628524769E+03  0.10566000000E+00 0.  1.
         13    1    1    2    0    0 -0.52397521316E+03  0.32065310777E+02  0.10918200916E+03  0.53618926737E+03  0.10566000000E+00 0. -1.
         -4    1    1    2    0  502  0.40038816521E+03 -0.31663204812E+03 -0.10402547058E+03  0.52094897568E+03  0.00000000000E+00 0. -1.
</event>
<event>
 5    1  0.2540860E-005  0.3768191E+03  0.7818608E-02  0.1010215E+00
         -4   -1    0    0    0  501 -0.00000000000E+00  0.00000000000E+00  0.69899724570E+03  0.69899724570E+03  0.00000000000E+00 0. -1.
         21   -1    0    0  501  502  0.00000000000E+00 -0.00000000000E+00 -0.55557914395E+03  0.55557914395E+03  0.00000000000E+00 0. -1.
        -13    1    1    2    0    0  0.50905680286E+02 -0.12809834091E+03  0.15931762021E+03  0.21067199269E+03  0.10566000000E+00 0.  1.
         13    1    1    2    0    0  0.28590013247E+03  0.29202055685E+03  0.33667469483E+03  0.52949480892E+03  0.10566000000E+00 0. -1.
         -4    1    1    2    0  502 -0.33680581276E+03 -0.16392221594E+03 -0.35257421329E+03  0.51440958804E+03  0.00000000000E+00 0. -1.
</event>
<event>
 5    1  0.2540860E-005  0.2296958E+03  0.7818608E-02  0.1041487E+00
         -4   -1    0    0    0  501 -0.00000000000E+00  0.00000000000E+00  0.33336358353E+03  0.33336358353E+03  0.00000000000E+00 0. -1.
         21   -1    0    0  501  502  0.00000000000E+00 -0.00000000000E+00 -0.24324142842E+03  0.24324142842E+03  0.00000000000E+00 0.  1.
        -13    1    1    2    0    0  0.19404631686E+03  0.95890309735E+02 -0.99710879125E+02  0.23830903292E+03  0.10566000000E+00 0.  1.
         13    1    1    2    0    0 -0.20877232664E+03 -0.10526570205E+03  0.20811679513E+03  0.31301655544E+03  0.10566000000E+00 0. -1.
         -4    1    1    2    0  502  0.14726009772E+02  0.93753923189E+01 -0.18283760895E+02  0.25279423597E+02  0.00000000000E+00 0. -1.
</event>
<event>
 5    1  0.2540860E-005  0.4986797E+03  0.7818608E-02  0.9480871E-01
         21   -1    0    0  501  502  0.00000000000E+00  0.00000000000E+00  0.92366031055E+03  0.92366031055E+03  0.00000000000E+00 0.  1.
         -4   -1    0    0    0  501 -0.00000000000E+00 -0.00000000000E+00 -0.72461844057E+03  0.72461844057E+03  0.00000000000E+00 0. -1.
        -13    1    1    2    0    0  0.44944016433E+03  0.10376674356E+02 -0.19117728417E+03  0.48852113755E+03  0.10566000000E+00 0.  1.
         13    1    1    2    0    0 -0.56713478852E+03 -0.80638329524E+02 -0.15835008107E+03  0.59432244436E+03  0.10566000000E+00 0. -1.
         -4    1    1    2    0  502  0.11769462418E+03  0.70261655168E+02  0.54856923522E+03  0.56543516921E+03  0.00000000000E+00 0. -1.
</event>
<event>
 5    1  0.2540860E-005  0.1109595E+03  0.7818608E-02  0.1147595E+00
         -4   -1    0    0    0  501 -0.00000000000E+00  0.00000000000E+00  0.45932565678E+02  0.45932565678E+02  0.00000000000E+00 0. -1.
         21   -1    0    0  501  502  0.00000000000E+00 -0.00000000000E+00 -0.45071807967E+03  0.45071807967E+03  0.00000000000E+00 0. -1.
        -13    1    1    2    0    0 -0.89509451259E+02  0.69503749726E+02 -0.11514631520E+03  0.16155927135E+03  0.10566000000E+00 0.  1.
         13    1    1    2    0    0  0.98054542449E+02 -0.49149665986E+02 -0.11446874034E+03  0.15853544285E+03  0.10566000000E+00 0. -1.
         -4    1    1    2    0  502 -0.85450911904E+01 -0.20354083740E+02 -0.17517045845E+03  0.17655593115E+03  0.00000000000E+00 0. -1.
</event>
<event>
 5    1  0.2540860E-005  0.6606899E+03  0.7818608E-02  0.9182040E-01
         -4   -1    0    0    0  501 -0.00000000000E+00  0.00000000000E+00  0.33749967559E+04  0.33749967559E+04  0.00000000000E+00 0. -1.
         21   -1    0    0  501  502  0.00000000000E+00 -0.00000000000E+00 -0.26223839952E+03  0.26223839952E+03  0.00000000000E+00 0. -1.
        -13    1    1    2    0    0  0.37386849807E+03  0.51845325612E+03  0.15222171414E+04  0.16509744000E+04  0.10566000000E+00 0.  1.
         13    1    1    2    0    0 -0.15608787233E+03 -0.70101538908E+03  0.15377892910E+04  0.16972277144E+04  0.10566000000E+00 0. -1.
         -4    1    1    2    0  502 -0.21778062574E+03  0.18256213297E+03  0.52751923918E+02  0.28903304105E+03  0.00000000000E+00 0. -1.
</event>
<event>
 5    1  0.2540860E-005  0.4061801E+03  0.7818608E-02  0.9928932E-01
          4   -1    0    0  502    0 -0.00000000000E+00  0.00000000000E+00  0.18858985919E+04  0.18858985919E+04  0.00000000000E+00 0.  1.
         21   -1    0    0  501  502  0.00000000000E+00 -0.00000000000E+00 -0.24972298914E+03  0.24972298914E+03  0.00000000000E+00 0.  1.
        -13    1    1    2    0    0  0.30297532508E+03 -0.33152897334E+03  0.80520411850E+03  0.92198654621E+03  0.10566000000E+00 0.  1.
         13    1    1    2    0    0  0.71507669186E+02  0.18016952705E+03  0.78328644607E+03  0.80691515848E+03  0.10566000000E+00 0. -1.
          4    1    1    2  501    0 -0.37448299427E+03  0.15135944629E+03  0.47685038228E+02  0.40671987639E+03  0.00000000000E+00 0.  1.
</event>
<event>
 5    1  0.2540860E-005  0.3541224E+02  0.7818608E-02  0.1366069E+00
          4   -1    0    0  502    0 -0.00000000000E+00  0.00000000000E+00  0.24348356210E+02  0.24348356210E+02  0.00000000000E+00 0.  1.
         21   -1    0    0  501  502  0.00000000000E+00 -0.00000000000E+00 -0.11457239037E+03  0.11457239037E+03  0.00000000000E+00 0.  1.
        -13    1    1    2    0    0 -0.26578658093E+02  0.32904291140E+02 -0.10340522200E+02  0.43543713723E+02  0.10566000000E+00 0.  1.
         13    1    1    2    0    0  0.25438538015E+02 -0.12385661897E+02 -0.29073341578E+02  0.40568389067E+02  0.10566000000E+00 0. -1.
          4    1    1    2  501    0  0.11401200781E+01 -0.20518629243E+02 -0.50810170383E+02  0.54808643791E+02  0.00000000000E+00 0.  1.
</event>
<event>
 5    1  0.2540860E-005  0.3424810E+03  0.7818608E-02  0.9911692E-01
         21   -1    0    0  501  502  0.00000000000E+00  0.00000000000E+00  0.73655674412E+02  0.73655674412E+02  0.00000000000E+00 0. -1.
          4   -1    0    0  502    0 -0.00000000000E+00 -0.00000000000E+00 -0.30325034230E+04  0.30325034230E+04  0.00000000000E+00 0.  1.
        -13    1    1    2    0    0  0.48512222820E+02 -0.34590218581E+03 -0.20988838714E+04  0.21277488749E+04  0.10566000000E+00 0.  1.
         13    1    1    2    0    0 -0.11852604661E+02  0.32933464602E+03 -0.87535798800E+03  0.93533598864E+03  0.10566000000E+00 0. -1.
          4    1    1    2  501    0 -0.36659618159E+02  0.16567539787E+02  0.15394110789E+02  0.43074233889E+02  0.00000000000E+00 0.  1.
</event>
<event>
 5    1  0.2540860E-005  0.3321332E+03  0.7818608E-02  0.1009994E+00
         -4   -1    0    0    0  501 -0.00000000000E+00  0.00000000000E+00  0.10742749005E+04  0.10742749005E+04  0.00000000000E+00 0. -1.
         21   -1    0    0  501  502  0.00000000000E+00 -0.00000000000E+00 -0.42815307487E+03  0.42815307487E+03  0.00000000000E+00 0.  1.
        -13    1    1    2    0    0 -0.10897167876E+01  0.20273489748E+03 -0.11839387411E+03  0.23477595007E+03  0.10566000000E+00 0.  1.
         13    1    1    2    0    0 -0.33109561651E+03 -0.16890038676E+03  0.84591297576E+03  0.92396992464E+03  0.10566000000E+00 0. -1.
         -4    1    1    2    0  502  0.33218533330E+03 -0.33834510723E+02 -0.81397276009E+02  0.34368210067E+03  0.00000000000E+00 0. -1.
</event>
<event>
 5    1  0.2540860E-005  0.3280564E+03  0.7818608E-02  0.1040664E+00
         21   -1    0    0  501  502  0.00000000000E+00  0.00000000000E+00  0.11243051024E+03  0.11243051024E+03  0.00000000000E+00 0. -1.
         -4   -1    0    0    0  501 -0.00000000000E+00 -0.00000000000E+00 -0.25932217095E+04  0.25932217095E+04  0.00000000000E+00 0. -1.
        -13    1    1    2    0    0  0.36135912533E+02  0.72302196138E+02 -0.43425923367E+03  0.44171767559E+03  0.10566000000E+00 0.  1.
         13    1    1    2    0    0 -0.29758116222E+03  0.13838226788E+03 -0.19403303717E+03  0.38125192570E+03  0.10566000000E+00 0. -1.
         -4    1    1    2    0  502  0.26144524969E+03 -0.21068446402E+03 -0.18524989284E+04  0.18826826184E+04  0.00000000000E+00 0. -1.
</event>
<event>
 5    1  0.2540860E-005  0.3647958E+03  0.7818608E-02  0.9836617E-01
         -4   -1    0    0    0  501 -0.00000000000E+00  0.00000000000E+00  0.13673714844E+04  0.13673714844E+04  0.00000000000E+00 0. -1.
         21   -1    0    0  501  502  0.00000000000E+00 -0.00000000000E+00 -0.46943184507E+03  0.46943184507E+03  0.00000000000E+00 0. -1.
        -13    1    1    2    0    0  0.90003785985E+02 -0.48073603844E+03  0.39277688024E+03  0.62728104464E+03  0.10566000000E+00 0.  1.
         13    1    1    2    0    0  0.21456021296E+03  0.28810239713E+03  0.70949768218E+03  0.79525219170E+03  0.10566000000E+00 0. -1.
         -4    1    1    2    0  502 -0.30456399895E+03  0.19263364131E+03 -0.20433492313E+03  0.41427009309E+03  0.00000000000E+00 0. -1.
</event>
<event>
 5    1  0.2540860E-005  0.4079356E+03  0.7818608E-02  0.9802341E-01
         -4   -1    0    0    0  501 -0.00000000000E+00  0.00000000000E+00  0.10156831133E+04  0.10156831133E+04  0.00000000000E+00 0. -1.
         21   -1    0    0  501  502  0.00000000000E+00 -0.00000000000E+00 -0.57580505871E+03  0.57580505871E+03  0.00000000000E+00 0. -1.
        -13    1    1    2    0    0 -0.45111881026E+03 -0.36790166251E+02 -0.21284637144E+00  0.45261656374E+03  0.10566000000E+00 0.  1.
         13    1    1    2    0    0  0.16265752807E+03 -0.25165663397E+03  0.62337437569E+03  0.69165320522E+03  0.10566000000E+00 0. -1.
         -4    1    1    2    0  502  0.28846128219E+03  0.28844680022E+03 -0.18328347475E+03  0.44721840302E+03  0.00000000000E+00 0. -1.
</event>
<event>
 5    1  0.2540860E-005  0.4681369E+03  0.7818608E-02  0.9700634E-01
         -4   -1    0    0    0  501 -0.00000000000E+00  0.00000000000E+00  0.31077541083E+04  0.31077541083E+04  0.00000000000E+00 0. -1.
         21   -1    0    0  501  502  0.00000000000E+00 -0.00000000000E+00 -0.14540833216E+03  0.14540833216E+03  0.00000000000E+00 0. -1.
        -13    1    1    2    0    0 -0.24787909554E+03 -0.12000882646E+03  0.32240126544E+03  0.42401503694E+03  0.10566000000E+00 0.  1.
         13    1    1    2    0    0  0.29423731423E+02 -0.37189966191E+03  0.17481799232E+04  0.17875424945E+04  0.10566000000E+00 0. -1.
         -4    1    1    2    0  502  0.21845536411E+03  0.49190848837E+03  0.89176458748E+03  0.10416049090E+04  0.00000000000E+00 0. -1.
</event>
<event>
 5    1  0.2540860E-005  0.2605822E+03  0.7818608E-02  0.1025050E+00
         21   -1    0    0  501  502  0.00000000000E+00  0.00000000000E+00  0.31138456585E+03  0.31138456585E+03  0.00000000000E+00 0.  1.
         -4   -1    0    0    0  501 -0.00000000000E+00 -0.00000000000E+00 -0.32162068561E+03  0.32162068561E+03  0.00000000000E+00 0. -1.
        -13    1    1    2    0    0  0.17870276411E+02 -0.27807381302E+03  0.23780067695E+02  0.27966032083E+03  0.10566000000E+00 0.  1.
         13    1    1    2    0    0 -0.52829610381E+02  0.24590048898E+03 -0.10115909417E+03  0.27109258881E+03  0.10566000000E+00 0. -1.
         -4    1    1    2    0  502  0.34959333969E+02  0.32173324042E+02  0.67142906721E+02  0.82252341817E+02  0.00000000000E+00 0. -1.
</event>
<event>
 5    1  0.2540860E-005  0.3980384E+03  0.7818608E-02  0.1010278E+00
         21   -1    0    0  501  502  0.00000000000E+00  0.00000000000E+00  0.19701235234E+03  0.19701235234E+03  0.00000000000E+00 0. -1.
         -4   -1    0    0    0  501 -0.00000000000E+00 -0.00000000000E+00 -0.19338587605E+04  0.19338587605E+04  0.00000000000E+00 0. -1.
        -13    1    1    2    0    0  0.62704242624E+02 -0.98440219223E+02 -0.59105728556E+03  0.60247076674E+03  0.10566000000E+00 0.  1.
         13    1    1    2    0    0  0.36347031983E+03  0.15067600071E+03 -0.11215589742E+03  0.40913675840E+03  0.10566000000E+00 0. -1.
         -4    1    1    2    0  502 -0.42617456245E+03 -0.52235781487E+02 -0.10336332251E+04  0.11192635877E+04  0.00000000000E+00 0. -1.
</event>
<event>
 5    1  0.2540860E-005  0.6824349E+02  0.7818608E-02  0.1244844E+00
         21   -1    0    0  501  502  0.00000000000E+00  0.00000000000E+00  0.15201220788E+03  0.15201220788E+03  0.00000000000E+00 0. -1.
         -4   -1    0    0    0  501 -0.00000000000E+00 -0.00000000000E+00 -0.53836204315E+03  0.53836204315E+03  0.00000000000E+00 0. -1.
        -13    1    1    2    0    0  0.57556555630E+01  0.50882206292E+02  0.43351221382E+02  0.67092965708E+02  0.10566000000E+00 0.  1.
         13    1    1    2    0    0  0.25526640272E+02 -0.11039741245E+03 -0.50776484616E+03  0.52025411886E+03  0.10566000000E+00 0. -1.
         -4    1    1    2    0  502 -0.31282295835E+02  0.59515206162E+02  0.78063789503E+02  0.10302716646E+03  0.00000000000E+00 0. -1.
</event>
<event>
 5    1  0.2540860E-005  0.1830622E+03  0.7818608E-02  0.1072412E+00
          4   -1    0    0  502    0 -0.00000000000E+00  0.00000000000E+00  0.35766531564E+03  0.35766531564E+03  0.00000000000E+00 0.  1.
         21   -1    0    0  501  502  0.00000000000E+00 -0.00000000000E+00 -0.22916695647E+03  0.22916695647E+03  0.00000000000E+00 0.  1.
        -13    1    1    2    0    0  0.18115204937E+02 -0.18097896569E+03  0.22143416004E+03  0.28655653032E+03  0.10566000000E+00 0.  1.
         13    1    1    2    0    0  0.72989920102E+01  0.18733158746E+03  0.16074882703E+02  0.18816166443E+03  0.10566000000E+00 0. -1.
          4    1    1    2  501    0 -0.25414196948E+02 -0.63526217685E+01 -0.10901068358E+03  0.11211407737E+03  0.00000000000E+00 0.  1.
</event>
<event>
 5    1  0.2540860E-005  0.7307074E+02  0.7818608E-02  0.1272372E+00
         21   -1    0    0  501  502  0.00000000000E+00  0.00000000000E+00  0.13041038395E+03  0.13041038395E+03  0.00000000000E+00 0.  1.
          4   -1    0    0  502    0 -0.00000000000E+00 -0.00000000000E+00 -0.87051626632E+02  0.87051626632E+02  0.00000000000E+00 0.  1.
        -13    1    1    2    0    0 -0.67293946203E+02  0.58272962872E+02 -0.30601923130E+02  0.94131303299E+02  0.10566000000E+00 0.  1.
         13    1    1    2    0    0  0.23192546118E+02 -0.43422800073E+01  0.28272364076E+01  0.23764553874E+02  0.10566000000E+00 0. -1.
          4    1    1    2  501    0  0.44101400085E+02 -0.53930682864E+02  0.71133444041E+02  0.99566153410E+02  0.00000000000E+00 0.  1.
</event>
<event>
 5    1  0.2540860E-005  0.5020855E+03  0.7818608E-02  0.9473413E-01
         21   -1    0    0  501  502  0.00000000000E+00  0.00000000000E+00  0.29739457210E+03  0.29739457210E+03  0.00000000000E+00 0.  1.
          4   -1    0    0  502    0 -0.00000000000E+00 -0.00000000000E+00 -0.22899971357E+04  0.22899971357E+04  0.00000000000E+00 0.  1.
        -13    1    1    2    0    0 -0.24080833452E+03  0.53426078458E+03 -0.10501100365E+04  0.12025615743E+04  0.10566000000E+00 0.  1.
         13    1    1    2    0    0  0.16742079781E+03 -0.42059542632E+03 -0.10926467377E+04  0.11827117742E+04  0.10566000000E+00 0. -1.
          4    1    1    2  501    0  0.73387536711E+02 -0.11366535826E+03  0.15015421065E+03  0.20211835936E+03  0.00000000000E+00 0.  1.
</event>
<event>
 5    1  0.2540860E-005  0.4389896E+03  0.7818608E-02  0.1008345E+00
         21   -1    0    0  501  502  0.00000000000E+00  0.00000000000E+00  0.17873780184E+03  0.17873780184E+03  0.00000000000E+00 0.  1.
          4   -1    0    0  502    0 -0.00000000000E+00 -0.00000000000E+00 -0.17190372635E+04  0.17190372635E+04  0.00000000000E+00 0.  1.
        -13    1    1    2    0    0 -0.47881267131E+02 -0.45404445040E+03 -0.11204627846E+04  0.12099115015E+04  0.10566000000E+00 0.  1.
         13    1    1    2    0    0  0.90242443257E+02  0.20713384840E+02 -0.14799613681E+03  0.17457265122E+03  0.10566000000E+00 0. -1.
          4    1    1    2  501    0 -0.42361176126E+02  0.43333106556E+03 -0.27184054021E+03  0.51329091257E+03  0.00000000000E+00 0.  1.
</event>
<event>
 5    1  0.2540860E-005  0.1868436E+03  0.7818608E-02  0.1069550E+00
         -4   -1    0    0    0  501 -0.00000000000E+00  0.00000000000E+00  0.10768111063E+04  0.10768111063E+04  0.00000000000E+00 0. -1.
         21   -1    0    0  501  502  0.00000000000E+00 -0.00000000000E+00 -0.61476855864E+02  0.61476855864E+02  0.00000000000E+00 0.  1.
        -13    1    1    2    0    0  0.44334449457E+01  0.20771655798E+03  0.37652278380E+03  0.43004097686E+03  0.10566000000E+00 0.  1.
         13    1    1    2    0    0  0.12231730370E+02 -0.17731948165E+03  0.64836707607E+03  0.67228839816E+03  0.10566000000E+00 0. -1.
         -4    1    1    2    0  502 -0.16665175315E+02 -0.30397076326E+02 -0.95556094428E+01  0.35958587142E+02  0.00000000000E+00 0. -1.
</event>
<event>
 5    1  0.2540860E-005  0.4889214E+02  0.7818608E-02  0.1296366E+00
         -4   -1    0    0    0  501 -0.00000000000E+00  0.00000000000E+00  0.15872920501E+03  0.15872920501E+03  0.00000000000E+00 0. -1.
         21   -1    0    0  501  502  0.00000000000E+00 -0.00000000000E+00 -0.22698452677E+02  0.22698452677E+02  0.00000000000E+00 0.  1.
        -13    1    1    2    0    0  0.16736274237E+02 -0.40583073574E+02  0.65556278699E+02  0.78896930085E+02  0.10566000000E+00 0.  1.
         13    1    1    2    0    0 -0.29674009237E+02  0.49831595412E+02  0.60222761039E+02  0.83609370507E+02  0.10566000000E+00 0. -1.
         -4    1    1    2    0  502  0.12937734999E+02 -0.92485218380E+01  0.10251712592E+02  0.18921357091E+02  0.00000000000E+00 0. -1.
</event>
<event>
 5    1  0.2540860E-005  0.4767226E+03  0.7818608E-02  0.9680554E-01
         -4   -1    0    0    0  501 -0.00000000000E+00  0.00000000000E+00  0.70229351402E+03  0.70229351402E+03  0.00000000000E+00 0. -1.
         21   -1    0    0  501  502  0.00000000000E+00 -0.00000000000E+00 -0.63314027384E+03  0.63314027384E+03  0.00000000000E+00 0. -1.
        -13    1    1    2    0    0  0.27644339827E+03  0.42660701453E+02  0.57465450241E+02  0.28555765973E+03  0.10566000000E+00 0.  1.
         13    1    1    2    0    0  0.29082548961E+03  0.79170112697E+01  0.29452710059E+03  0.41399078325E+03  0.10566000000E+00 0. -1.
         -4    1    1    2    0  502 -0.56726888788E+03 -0.50577712723E+02 -0.28283931065E+03  0.63588534488E+03  0.00000000000E+00 0. -1.
</event>
<event>
 5    1  0.2540860E-005  0.2028439E+03  0.7818608E-02  0.1082906E+00
         21   -1    0    0  501  502  0.00000000000E+00  0.00000000000E+00  0.20108619211E+03  0.20108619211E+03  0.00000000000E+00 0. -1.
         -4   -1    0    0    0  501 -0.00000000000E+00 -0.00000000000E+00 -0.97415053909E+03  0.97415053909E+03  0.00000000000E+00 0. -1.
        -13    1    1    2    0    0 -0.88746305479E+02  0.46231578759E+02  0.67031098953E+02  0.12044270423E+03  0.10566000000E+00 0.  1.
         13    1    1    2    0    0  0.16867703960E+03 -0.22240663071E+03 -0.81282856739E+03  0.85942244805E+03  0.10566000000E+00 0. -1.
         -4    1    1    2    0  502 -0.79930734119E+02  0.17617505195E+03 -0.27266878537E+02  0.19537157893E+03  0.00000000000E+00 0. -1.
</event>
<event>
 5    1  0.2540860E-005  0.8318680E+02  0.7818608E-02  0.1195836E+00
         21   -1    0    0  501  502  0.00000000000E+00  0.00000000000E+00  0.34521544750E+03  0.34521544750E+03  0.00000000000E+00 0.  1.
          4   -1    0    0  502    0 -0.00000000000E+00 -0.00000000000E+00 -0.56080738761E+02  0.56080738761E+02  0.00000000000E+00 0.  1.
        -13    1    1    2    0    0 -0.82315172597E+02 -0.18319113287E+02  0.23819442503E+01  0.84362683538E+02  0.10566000000E+00 0.  1.
         13    1    1    2    0    0  0.74961426867E+02  0.31086933765E+02  0.96395291769E+02  0.12600665224E+03  0.10566000000E+00 0. -1.
          4    1    1    2  501    0  0.73537457296E+01 -0.12767820478E+02  0.19035747272E+03  0.19092685048E+03  0.00000000000E+00 0.  1.
</event>
<event>
 5    1  0.2540860E-005  0.4699120E+03  0.7818608E-02  0.1010009E+00
         21   -1    0    0  501  502  0.00000000000E+00  0.00000000000E+00  0.72118780823E+03  0.72118780823E+03  0.00000000000E+00 0.  1.
          4   -1    0    0  502    0 -0.00000000000E+00 -0.00000000000E+00 -0.38563559089E+03  0.38563559089E+03  0.00000000000E+00 0.  1.
        -13    1    1    2    0    0 -0.34621095964E+03  0.37507650517E+03  0.16708791916E+03  0.53708732735E+03  0.10566000000E+00 0.  1.
         13    1    1    2    0    0  0.41290392709E+02 -0.58434524385E+02 -0.41352333863E+02  0.82640890908E+02  0.10566000000E+00 0. -1.
          4    1    1    2  501    0  0.30492056693E+03 -0.31664198079E+03  0.20981663204E+03  0.48709518086E+03  0.00000000000E+00 0.  1.
</event>
<event>
 5    1  0.2540860E-005  0.2182031E+02  0.7818608E-02  0.1486004E+00
          4   -1    0    0  502    0 -0.00000000000E+00  0.00000000000E+00  0.32632984607E+02  0.32632984607E+02  0.00000000000E+00 0.  1.
         21   -1    0    0  501  502  0.00000000000E+00 -0.00000000000E+00 -0.36275895733E+02  0.36275895733E+02  0.00000000000E+00 0. -1.
        -13    1    1    2    0    0 -0.19872457048E+02  0.22360703825E+02  0.34807207864E+01  0.30117141397E+02  0.10566000000E+00 0.  1.
         13    1    1    2    0    0  0.16817581300E+02 -0.74263051155E+01  0.52927233260E+01  0.19131260615E+02  0.10566000000E+00 0. -1.
          4    1    1    2  501    0  0.30548757477E+01 -0.14934398710E+02 -0.12416355238E+02  0.19660478328E+02  0.00000000000E+00 0.  1.
</event>
<event>
 5    1  0.2540860E-005  0.4251137E+03  0.7818608E-02  0.9910098E-01
         21   -1    0    0  501  502  0.00000000000E+00  0.00000000000E+00  0.18747019560E+03  0.18747019560E+03  0.00000000000E+00 0. -1.
         -4   -1    0    0    0  501 -0.00000000000E+00 -0.00000000000E+00 -0.20857472175E+04  0.20857472175E+04  0.00000000000E+00 0. -1.
        -13    1    1    2    0    0 -0.13541195525E+03 -0.11863312449E+03 -0.57886438858E+03  0.60621300496E+03  0.10566000000E+00 0.  1.
         13    1    1    2    0    0 -0.27229278532E+03  0.28931598215E+03 -0.11079547931E+04  0.11770348055E+04  0.10566000000E+00 0. -1.
         -4    1    1    2    0  502  0.40770474056E+03 -0.17068285766E+03 -0.21145784020E+03  0.48996960269E+03  0.00000000000E+00 0. -1.
</event>
<event>
 5    1  0.2540860E-005  0.4947249E+03  0.7818608E-02  0.9728877E-01
          4   -1    0    0  502    0 -0.00000000000E+00  0.00000000000E+00  0.88827228523E+03  0.88827228523E+03  0.00000000000E+00 0.  1.
         21   -1    0    0  501  502  0.00000000000E+00 -0.00000000000E+00 -0.43901568746E+03  0.43901568746E+03  0.00000000000E+00 0.  1.
        -13    1    1    2    0    0  0.40066523394E+03 -0.24091377798E+03  0.21479983046E+03  0.51450078371E+03  0.10566000000E+00 0.  1.
         13    1    1    2    0    0 -0.87112012235E+02 -0.19277618626E+03  0.17458440366E+03  0.27428249275E+03  0.10566000000E+00 0. -1.
          4    1    1    2  501    0 -0.31355322171E+03  0.43368996424E+03  0.59872363659E+02  0.53850469623E+03  0.00000000000E+00 0.  1.
</event>
<event>
 5    1  0.2540860E-005  0.4731905E+03  0.7818608E-02  0.9843903E-01
          4   -1    0    0  502    0 -0.00000000000E+00  0.00000000000E+00  0.20202449986E+04  0.20202449986E+04  0.00000000000E+00 0.  1.
         21   -1    0    0  501  502  0.00000000000E+00 -0.00000000000E+00 -0.18159595933E+03  0.18159595933E+03  0.00000000000E+00 0.  1.
        -13    1    1    2    0    0 -0.21007821168E+03 -0.42117070096E+03  0.40568234715E+03  0.62136606950E+03  0.10566000000E+00 0.  1.
         13    1    1    2    0    0 -0.14513137720E+03  0.74356170678E+02  0.46241335409E+03  0.49032446194E+03  0.10566000000E+00 0. -1.
          4    1    1    2  501    0  0.35520958888E+03  0.34681453028E+03  0.97055333801E+03  0.10901504265E+04  0.00000000000E+00 0.  1.
</event>
<event>
 5    1  0.2540860E-005  0.5066606E+03  0.7818608E-02  0.9817265E-01
         21   -1    0    0  501  502  0.00000000000E+00  0.00000000000E+00  0.11176477465E+04  0.11176477465E+04  0.00000000000E+00 0.  1.
          4   -1    0    0  502    0 -0.00000000000E+00 -0.00000000000E+00 -0.89570207232E+03  0.89570207232E+03  0.00000000000E+00 0.  1.
        -13    1    1    2    0    0  0.43238193426E+03  0.39651222959E+03  0.47388064752E+03  0.75414783998E+03  0.10566000000E+00 0.  1.
         13    1    1    2    0    0 -0.74172209524E+02 -0.12506620344E+03 -0.64557595320E+03  0.66174873964E+03  0.10566000000E+00 0. -1.
          4    1    1    2  501    0 -0.35820972474E+03 -0.27144602615E+03  0.39364097985E+03  0.59745323920E+03  0.00000000000E+00 0.  1.
</event>
<event>
 5    1  0.2540860E-005  0.4498333E+03  0.7818608E-02  0.9595274E-01
         21   -1    0    0  501  502  0.00000000000E+00  0.00000000000E+00  0.24888508015E+03  0.24888508015E+03  0.00000000000E+00 0.  1.
         -4   -1    0    0    0  501 -0.00000000000E+00 -0.00000000000E+00 -0.16128062917E+04  0.16128062917E+04  0.00000000000E+00 0. -1.
        -13    1    1    2    0    0 -0.12347072565E+03  0.45236970567E+03 -0.30951985594E+03  0.56185934458E+03  0.10566000000E+00 0.  1.
         13    1    1    2    0    0  0.55108235233E+02 -0.44115071734E+03 -0.11196376101E+04  0.12046739236E+04  0.10566000000E+00 0. -1.
         -4    1    1    2    0  502  0.68362490413E+02 -0.11218988338E+02  0.65236254511E+02  0.95158103687E+02  0.00000000000E+00 0. -1.
</event>
<event>
 5    1  0.2540860E-005  0.1112902E+03  0.7818608E-02  0.1147117E+00
         -4   -1    0    0    0  501 -0.00000000000E+00  0.00000000000E+00  0.43106546402E+03  0.43106546402E+03  0.00000000000E+00 0. -1.
         21   -1    0    0  501  502  0.00000000000E+00 -0.00000000000E+00 -0.66347350727E+02  0.66347350727E+02  0.00000000000E+00 0.  1.
        -13    1    1    2    0    0 -0.58420894167E+02  0.10178116378E+03  0.12112580226E+03  0.16865312720E+03  0.10566000000E+00 0.  1.
         13    1    1    2    0    0  0.66852373792E+02 -0.86041340408E+02  0.27323226320E+03  0.29415681695E+03  0.10566000000E+00 0. -1.
         -4    1    1    2    0  502 -0.84314796256E+01 -0.15739823376E+02 -0.29639952172E+02  0.34602870594E+02  0.00000000000E+00 0. -1.
</event>
<event>
 5    1  0.2540860E-005  0.4773079E+03  0.7818608E-02  0.9696368E-01
         -4   -1    0    0    0  501 -0.00000000000E+00  0.00000000000E+00  0.26909190835E+04  0.26909190835E+04  0.00000000000E+00 0. -1.
         21   -1    0    0  501  502  0.00000000000E+00 -0.00000000000E+00 -0.17265665881E+03  0.17265665881E+03  0.00000000000E+00 0. -1.
        -13    1    1    2    0    0 -0.21439307843E+03 -0.15357120288E+03  0.94650626870E+03  0.98255922686E+03  0.10566000000E+00 0.  1.
         13    1    1    2    0    0  0.41410125214E+03  0.48938794600E+03  0.10260678560E+04  0.12098742352E+04  0.10566000000E+00 0. -1.
         -4    1    1    2    0  502 -0.19970817370E+03 -0.33581674311E+03  0.54568829997E+03  0.67114228024E+03  0.00000000000E+00 0. -1.
</event>
<event>
 5    1  0.2540860E-005  0.6257213E+03  0.7818608E-02  0.9238312E-01
         21   -1    0    0  501  502  0.00000000000E+00  0.00000000000E+00  0.18485162759E+04  0.18485162759E+04  0.00000000000E+00 0.  1.
         -4   -1    0    0    0  501 -0.00000000000E+00 -0.00000000000E+00 -0.36479871735E+03  0.36479871735E+03  0.00000000000E+00 0. -1.
        -13    1    1    2    0    0 -0.15528767326E+03 -0.46099296195E+03  0.71180828547E+03  0.86214837404E+03  0.10566000000E+00 0.  1.
         13    1    1    2    0    0  0.75006587869E+02  0.71612825838E+03  0.24557506622E+03  0.76077118438E+03  0.10566000000E+00 0. -1.
         -4    1    1    2    0  502  0.80281085388E+02 -0.25513529642E+03  0.52633420687E+03  0.59039543484E+03  0.00000000000E+00 0. -1.
</event>
<event>
 5    1  0.2540860E-005  0.4639267E+03  0.7818608E-02  0.9726068E-01
         21   -1    0    0  501  502  0.00000000000E+00  0.00000000000E+00  0.52241241500E+03  0.52241241500E+03  0.00000000000E+00 0.  1.
          4   -1    0    0  502    0 -0.00000000000E+00 -0.00000000000E+00 -0.98201632397E+03  0.98201632397E+03  0.00000000000E+00 0.  1.
        -13    1    1    2    0    0 -0.50772707739E+03  0.10222845778E+03  0.21416837926E+03  0.56045120085E+03  0.10566000000E+00 0.  1.
         13    1    1    2    0    0  0.14357684093E+03 -0.21561236691E+03 -0.39170064041E+03  0.46960877854E+03  0.10566000000E+00 0. -1.
          4    1    1    2  501    0  0.36415023646E+03  0.11338390913E+03 -0.28207164782E+03  0.47436875958E+03  0.00000000000E+00 0.  1.
</event>
<event>
 5    1  0.2540860E-005  0.3061572E+03  0.7818608E-02  0.1004796E+00
         -4   -1    0    0    0  501 -0.00000000000E+00  0.00000000000E+00  0.44350982123E+03  0.44350982123E+03  0.00000000000E+00 0. -1.
         21   -1    0    0  501  502  0.00000000000E+00 -0.00000000000E+00 -0.53613249546E+03  0.53613249546E+03  0.00000000000E+00 0. -1.
        -13    1    1    2    0    0 -0.25340966489E+03  0.16569788174E+03  0.24453314672E+03  0.38918982166E+03  0.10566000000E+00 0.  1.
         13    1    1    2    0    0  0.26569333065E+03 -0.16988426523E+03 -0.70072183335E+02  0.32305375956E+03  0.10566000000E+00 0. -1.
         -4    1    1    2    0  502 -0.12283665759E+02  0.41863834964E+01 -0.26708363761E+03  0.26739873547E+03  0.00000000000E+00 0. -1.
</event>
<event>
 5    1  0.2540860E-005  0.3949232E+03  0.7818608E-02  0.1017574E+00
         21   -1    0    0  501  502  0.00000000000E+00  0.00000000000E+00  0.17561842464E+03  0.17561842464E+03  0.00000000000E+00 0.  1.
          4   -1    0    0  502    0 -0.00000000000E+00 -0.00000000000E+00 -0.23428235092E+04  0.23428235092E+04  0.00000000000E+00 0.  1.
        -13    1    1    2    0    0  0.12332596497E+03  0.29830866388E+03 -0.18589923292E+04  0.18868094349E+04  0.10566000000E+00 0.  1.
         13    1    1    2    0    0  0.66811854853E+02  0.67102694341E+02  0.29274859647E+02  0.99114197309E+02  0.10566000000E+00 0. -1.
          4    1    1    2  501    0 -0.19013781982E+03 -0.36541135822E+03 -0.33748761496E+03  0.53251830156E+03  0.00000000000E+00 0.  1.
</event>
<event>
 5    1  0.2540860E-005  0.3267804E+03  0.7818608E-02  0.9968263E-01
          4   -1    0    0  502    0 -0.00000000000E+00  0.00000000000E+00  0.21962193399E+04  0.21962193399E+04  0.00000000000E+00 0.  1.
         21   -1    0    0  501  502  0.00000000000E+00 -0.00000000000E+00 -0.27287618663E+03  0.27287618663E+03  0.00000000000E+00 0.  1.
        -13    1    1    2    0    0  0.22064238586E+03  0.37233119620E+03  0.36482833234E+03  0.56605062083E+03  0.10566000000E+00 0.  1.
         13    1    1    2    0    0 -0.18510677049E+02 -0.31636832782E+03  0.16456811739E+04  0.16759170926E+04  0.10566000000E+00 0. -1.
          4    1    1    2  501    0 -0.20213170881E+03 -0.55962868384E+02 -0.87166353035E+02  0.22712781302E+03  0.00000000000E+00 0.  1.
</event>
<event>
 5    1  0.2540860E-005  0.4707835E+03  0.7818608E-02  0.9828496E-01
         21   -1    0    0  501  502  0.00000000000E+00  0.00000000000E+00  0.11868208419E+03  0.11868208419E+03  0.00000000000E+00 0. -1.
         -4   -1    0    0    0  501 -0.00000000000E+00 -0.00000000000E+00 -0.32532574419E+04  0.32532574419E+04  0.00000000000E+00 0. -1.
        -13    1    1    2    0    0  0.94744233169E+01  0.17420276517E+03 -0.84667741974E+03  0.86446459288E+03  0.10566000000E+00 0.  1.
         13    1    1    2    0    0 -0.29809850864E+03  0.25071304592E+03 -0.16128250307E+04  0.16591938835E+04  0.10566000000E+00 0. -1.
         -4    1    1    2    0  502  0.28862408532E+03 -0.42491581109E+03 -0.67507290725E+03  0.84828104968E+03  0.00000000000E+00 0. -1.
</event>
<event>
 5    1  0.2540860E-005  0.4205105E+03  0.7818608E-02  0.1008992E+00
          4   -1    0    0  502    0 -0.00000000000E+00  0.00000000000E+00  0.93284879032E+03  0.93284879032E+03  0.00000000000E+00 0.  1.
         21   -1    0    0  501  502  0.00000000000E+00 -0.00000000000E+00 -0.77950128363E+03  0.77950128363E+03  0.00000000000E+00 0.  1.
        -13    1    1    2    0    0  0.96318413184E+02 -0.37794010434E+03  0.17654964310E+03  0.42811884662E+03  0.10566000000E+00 0.  1.
         13    1    1    2    0    0 -0.89254554864E+02 -0.51736168367E+02  0.55461651147E+03  0.56412985441E+03  0.10566000000E+00 0. -1.
          4    1    1    2  501    0 -0.70638583200E+01  0.42967627271E+03 -0.57781864789E+03  0.72010137291E+03  0.00000000000E+00 0.  1.
</event>
<event>
 5    1  0.2540860E-005  0.8438881E+02  0.7818608E-02  0.1193338E+00
         21   -1    0    0  501  502  0.00000000000E+00  0.00000000000E+00  0.71239053280E+02  0.71239053280E+02  0.00000000000E+00 0. -1.
          4   -1    0    0  502    0 -0.00000000000E+00 -0.00000000000E+00 -0.42626319912E+03  0.42626319912E+03  0.00000000000E+00 0.  1.
        -13    1    1    2    0    0 -0.34172428575E+02 -0.76167067780E+02 -0.36548270110E+03  0.37489570957E+03  0.10566000000E+00 0.  1.
         13    1    1    2    0    0  0.45050857194E+02  0.80414229132E+02 -0.16122412593E+02  0.93573347341E+02  0.10566000000E+00 0. -1.
          4    1    1    2  501    0 -0.10878428619E+02 -0.42471613517E+01  0.26580967848E+02  0.29033195492E+02  0.00000000000E+00 0.  1.
</event>
<event>
 5    1  0.2540860E-005  0.3797328E+03  0.7818608E-02  0.9979253E-01
          4   -1    0    0  502    0 -0.00000000000E+00  0.00000000000E+00  0.16321148558E+04  0.16321148558E+04  0.00000000000E+00 0.  1.
         21   -1    0    0  501  502  0.00000000000E+00 -0.00000000000E+00 -0.19134556260E+03  0.19134556260E+03  0.00000000000E+00 0.  1.
        -13    1    1    2    0    0  0.44188994299E+02 -0.48967361912E+03  0.10144947183E+04  0.11273564055E+04  0.10566000000E+00 0.  1.
         13    1    1    2    0    0 -0.13191456840E+03  0.15145065935E+03  0.16051390809E+03  0.25710597314E+03  0.10566000000E+00 0. -1.
          4    1    1    2  501    0  0.87725574097E+02  0.33822295977E+03  0.26576066687E+03  0.43899803977E+03  0.00000000000E+00 0.  1.
</event>
<event>
 5    1  0.2540860E-005  0.3185967E+03  0.7818608E-02  0.1008814E+00
         -4   -1    0    0    0  501 -0.00000000000E+00  0.00000000000E+00  0.21864363473E+04  0.21864363473E+04  0.00000000000E+00 0. -1.
         21   -1    0    0  501  502  0.00000000000E+00 -0.00000000000E+00 -0.19624899511E+03  0.19624899511E+03  0.00000000000E+00 0. -1.
        -13    1    1    2    0    0 -0.58825331429E+02  0.23121095048E+03  0.63038454541E+03  0.67402048152E+03  0.10566000000E+00 0.  1.
         13    1    1    2    0    0  0.37050475725E+03 -0.19184048371E+03  0.13290576553E+04  0.13930078279E+04  0.10566000000E+00 0. -1.
         -4    1    1    2    0  502 -0.31167942582E+03 -0.39370466770E+02  0.30745151471E+02  0.31565703298E+03  0.00000000000E+00 0. -1.
</event>
<event>
 5    1  0.2540860E-005  0.7475745E+02  0.7818608E-02  0.1238389E+00
          4   -1    0    0  502    0 -0.00000000000E+00  0.00000000000E+00  0.26504939110E+03  0.26504939110E+03  0.00000000000E+00 0.  1.
         21   -1    0    0  501  502  0.00000000000E+00 -0.00000000000E+00 -0.48294858275E+02  0.48294858275E+02  0.00000000000E+00 0.  1.
        -13    1    1    2    0    0 -0.49012352591E+00 -0.74499503238E+02  0.40931499509E+02  0.85004794100E+02  0.10566000000E+00 0.  1.
         13    1    1    2    0    0  0.44376570946E+02  0.52482644263E+01  0.12285949087E+03  0.13073366051E+03  0.10566000000E+00 0. -1.
          4    1    1    2  501    0 -0.43886447420E+02  0.69251238812E+02  0.52963542447E+02  0.97605794770E+02  0.00000000000E+00 0.  1.
</event>
<event>
 5    1  0.2540860E-005  0.4959598E+03  0.7818608E-02  0.9880216E-01
          4   -1    0    0  502    0 -0.00000000000E+00  0.00000000000E+00  0.72785828612E+03  0.72785828612E+03  0.00000000000E+00 0.  1.
         21   -1    0    0  501  502  0.00000000000E+00 -0.00000000000E+00 -0.49198474258E+03  0.49198474258E+03  0.00000000000E+00 0.  1.
        -13    1    1    2    0    0  0.41526302019E+03 -0.37378483548E+03  0.16719515870E+03  0.58319183073E+03  0.10566000000E+00 0.  1.
         13    1    1    2    0    0 -0.25891266161E+02  0.12260314397E+03  0.11615881380E+03  0.17086477040E+03  0.10566000000E+00 0. -1.
          4    1    1    2  501    0 -0.38937175403E+03  0.25118169150E+03 -0.47480428973E+02  0.46578642758E+03  0.00000000000E+00 0.  1.
</event>
<event>
 5    1  0.2540860E-005  0.5182029E+03  0.7818608E-02  0.9438943E-01
         21   -1    0    0  501  502  0.00000000000E+00  0.00000000000E+00  0.44375983239E+03  0.44375983239E+03  0.00000000000E+00 0. -1.
         -4   -1    0    0    0  501 -0.00000000000E+00 -0.00000000000E+00 -0.19782384118E+04  0.19782384118E+04  0.00000000000E+00 0. -1.
        -13    1    1    2    0    0 -0.46320072022E+03  0.97649921467E+02 -0.10575522473E+04  0.11586661216E+04  0.10566000000E+00 0.  1.
         13    1    1    2    0    0  0.71316955837E+03  0.15941295043E+03 -0.52744051675E+03  0.90123072385E+03  0.10566000000E+00 0. -1.
         -4    1    1    2    0  502 -0.24996883815E+03 -0.25706287190E+03  0.50514184610E+02  0.36210139878E+03  0.00000000000E+00 0. -1.
</event>
<event>
 5    1  0.2540860E-005  0.1242921E+03  0.7818608E-02  0.1138601E+00
         21   -1    0    0  501  502  0.00000000000E+00  0.00000000000E+00  0.11182646836E+03  0.11182646836E+03  0.00000000000E+00 0. -1.
          4   -1    0    0  502    0 -0.00000000000E+00 -0.00000000000E+00 -0.36620071625E+03  0.36620071625E+03  0.00000000000E+00 0.  1.
        -13    1    1    2    0    0  0.11065316794E+03  0.33915355738E+02 -0.60446401703E+02  0.13056857804E+03  0.10566000000E+00 0.  1.
         13    1    1    2    0    0 -0.61631735351E+01 -0.13918172789E+03 -0.10573157211E+03  0.17489629668E+03  0.10566000000E+00 0. -1.
          4    1    1    2  501    0 -0.10448999440E+03  0.10526637215E+03 -0.88196274068E+02  0.17256230989E+03  0.00000000000E+00 0.  1.
</event>
<event>
 5    1  0.2540860E-005  0.4942048E+03  0.7818608E-02  0.9681434E-01
          4   -1    0    0  502    0 -0.00000000000E+00  0.00000000000E+00  0.76041128610E+03  0.76041128610E+03  0.00000000000E+00 0.  1.
         21   -1    0    0  501  502  0.00000000000E+00 -0.00000000000E+00 -0.53639659643E+03  0.53639659643E+03  0.00000000000E+00 0.  1.
        -13    1    1    2    0    0  0.24194604170E+03  0.36047692523E+03  0.92128899567E+02  0.44381217426E+03  0.10566000000E+00 0.  1.
         13    1    1    2    0    0  0.24867090402E+03 -0.28492057644E+02  0.43682136071E+02  0.25408100289E+03  0.10566000000E+00 0. -1.
          4    1    1    2  501    0 -0.49061694572E+03 -0.33198486759E+03  0.88203654030E+02  0.59891470538E+03  0.00000000000E+00 0.  1.
</event>
<event>
 5    1  0.2540860E-005  0.1815009E+03  0.7818608E-02  0.1073616E+00
         -4   -1    0    0    0  501 -0.00000000000E+00  0.00000000000E+00  0.37603492033E+02  0.37603492033E+02  0.00000000000E+00 0. -1.
         21   -1    0    0  501  502  0.00000000000E+00 -0.00000000000E+00 -0.19009680584E+04  0.19009680584E+04  0.00000000000E+00 0.  1.
        -13    1    1    2    0    0 -0.16823915781E+03  0.83920873456E+02 -0.33938517920E+03  0.38798123440E+03  0.10566000000E+00 0.  1.
         13    1    1    2    0    0  0.14729444058E+03 -0.88460581321E+02 -0.54642858285E+03  0.57280462113E+03  0.10566000000E+00 0. -1.
         -4    1    1    2    0  502  0.20944717230E+02  0.45397078648E+01 -0.97755080430E+03  0.97778569488E+03  0.00000000000E+00 0. -1.
</event>
<event>
 5    1  0.2540860E-005  0.2839514E+03  0.7818608E-02  0.1035291E+00
         -4   -1    0    0    0  501 -0.00000000000E+00  0.00000000000E+00  0.23016005384E+04  0.23016005384E+04  0.00000000000E+00 0. -1.
         21   -1    0    0  501  502  0.00000000000E+00 -0.00000000000E+00 -0.15170757169E+03  0.15170757169E+03  0.00000000000E+00 0. -1.
        -13    1    1    2    0    0 -0.95094754954E+02 -0.11180909541E+03  0.35871016743E+03  0.38757874247E+03  0.10566000000E+00 0.  1.
         13    1    1    2    0    0 -0.26680737297E+03  0.80677914489E+02  0.45220983878E+02  0.28238280526E+03  0.10566000000E+00 0. -1.
         -4    1    1    2    0  502  0.36190212792E+03  0.31131180919E+02  0.17459618154E+04  0.17833465623E+04  0.00000000000E+00 0. -1.
</event>
<event>
 5    1  0.2540860E-005  0.5073228E+03  0.7818608E-02  0.9589071E-01
         21   -1    0    0  501  502  0.00000000000E+00  0.00000000000E+00  0.22413711235E+03  0.22413711235E+03  0.00000000000E+00 0. -1.
         -4   -1    0    0    0  501 -0.00000000000E+00 -0.00000000000E+00 -0.22809468650E+04  0.22809468650E+04  0.00000000000E+00 0. -1.
        -13    1    1    2    0    0 -0.23753461204E+03  0.21530657542E+03 -0.77542736905E+03  0.83908714039E+03  0.10566000000E+00 0.  1.
         13    1    1    2    0    0  0.17570468834E+03 -0.60741959997E+03 -0.56978236015E+03  0.85116546983E+03  0.10566000000E+00 0. -1.
         -4    1    1    2    0  502  0.61829923694E+02  0.39211302454E+03 -0.71160002346E+03  0.81483136714E+03  0.00000000000E+00 0. -1.
</event>
<event>
 5    1  0.2540860E-005  0.5471971E+03  0.7818608E-02  0.9682046E-01
         21   -1    0    0  501  502  0.00000000000E+00  0.00000000000E+00  0.22105974538E+04  0.22105974538E+04  0.00000000000E+00 0.  1.
          4   -1    0    0  502    0 -0.00000000000E+00 -0.00000000000E+00 -0.30505527754E+03  0.30505527754E+03  0.00000000000E+00 0.  1.
        -13    1    1    2    0    0  0.79247534145E+02 -0.50189946314E+03  0.10389300977E+04  0.11565288590E+04  0.10566000000E+00 0.  1.
         13    1    1    2    0    0 -0.14450154133E+03 -0.11390904008E+03 -0.10131873234E+03  0.21005109270E+03  0.10566000000E+00 0. -1.
          4    1    1    2  501    0  0.65254007187E+02  0.61580850322E+03  0.96793081092E+03  0.11490727796E+04  0.00000000000E+00 0.  1.
</event>
<event>
 5    1  0.2540860E-005  0.9346828E+02  0.7818608E-02  0.1175839E+00
          4   -1    0    0  502    0 -0.00000000000E+00  0.00000000000E+00  0.11096681583E+03  0.11096681583E+03  0.00000000000E+00 0.  1.
         21   -1    0    0  501  502  0.00000000000E+00 -0.00000000000E+00 -0.21635423040E+03  0.21635423040E+03  0.00000000000E+00 0. -1.
        -13    1    1    2    0    0 -0.71525133114E+02 -0.39139798489E+02  0.72540542396E+00  0.81537144111E+02  0.10566000000E+00 0.  1.
         13    1    1    2    0    0  0.12412572930E+03 -0.11194651047E+02 -0.97495661628E+01  0.12501032794E+03  0.10566000000E+00 0. -1.
          4    1    1    2  501    0 -0.52600596190E+02  0.50334449536E+02 -0.96363253840E+02  0.12077357418E+03  0.00000000000E+00 0.  1.
</event>
<event>
 5    1  0.2540860E-005  0.3984792E+03  0.7818608E-02  0.9733448E-01
         21   -1    0    0  501  502  0.00000000000E+00  0.00000000000E+00  0.18496852008E+03  0.18496852008E+03  0.00000000000E+00 0.  1.
          4   -1    0    0  502    0 -0.00000000000E+00 -0.00000000000E+00 -0.24971161585E+04  0.24971161585E+04  0.00000000000E+00 0.  1.
        -13    1    1    2    0    0  0.15157095221E+03  0.38482934383E+03 -0.19050838723E+04  0.19494645288E+04  0.10566000000E+00 0.  1.
         13    1    1    2    0    0 -0.11373769035E+03 -0.34118469852E+03 -0.50437052584E+03  0.61946178188E+03  0.10566000000E+00 0. -1.
          4    1    1    2  501    0 -0.37833261852E+02 -0.43644645311E+02  0.97306759649E+02  0.11315836796E+03  0.00000000000E+00 0.  1.
</event>
<event>
 5    1  0.2540860E-005  0.3171661E+03  0.7818608E-02  0.1001696E+00
          4   -1    0    0  502    0 -0.00000000000E+00  0.00000000000E+00  0.15978791164E+04  0.15978791164E+04  0.00000000000E+00 0.  1.
         21   -1    0    0  501  502  0.00000000000E+00 -0.00000000000E+00 -0.28664355666E+03  0.28664355666E+03  0.00000000000E+00 0.  1.
        -13    1    1    2    0    0 -0.25272292148E+03 -0.21602528210E+03 -0.80824682323E+02  0.34215265304E+03  0.10566000000E+00 0.  1.
         13    1    1    2    0    0  0.28368040692E+03 -0.11096381843E+03  0.43923802708E+03  0.53452558205E+03  0.10566000000E+00 0. -1.
          4    1    1    2  501    0 -0.30957485432E+02  0.32698910053E+03  0.95282221493E+03  0.10078444379E+04  0.00000000000E+00 0.  1.
</event>
<event>
 5    1  0.2540860E-005  0.3275311E+03  0.7818608E-02  0.9965482E-01
          4   -1    0    0  502    0 -0.00000000000E+00  0.00000000000E+00  0.28359740373E+03  0.28359740373E+03  0.00000000000E+00 0.  1.
         21   -1    0    0  501  502  0.00000000000E+00 -0.00000000000E+00 -0.63591755640E+03  0.63591755640E+03  0.00000000000E+00 0. -1.
        -13    1    1    2    0    0 -0.31463772256E+03  0.69764474922E+02  0.89970882346E+02  0.33460237485E+03  0.10566000000E+00 0.  1.
         13    1    1    2    0    0  0.33457607490E+03 -0.90614488598E+02 -0.36962560593E+03  0.50672994303E+03  0.10566000000E+00 0. -1.
          4    1    1    2  501    0 -0.19938352338E+02  0.20850013676E+02 -0.72665429082E+02  0.78182642242E+02  0.00000000000E+00 0.  1.
</event>
<event>
 5    1  0.2540860E-005  0.2735961E+03  0.7818608E-02  0.1040531E+00
          4   -1    0    0  502    0 -0.00000000000E+00  0.00000000000E+00  0.21267392286E+04  0.21267392286E+04  0.00000000000E+00 0.  1.
         21   -1    0    0  501  502  0.00000000000E+00 -0.00000000000E+00 -0.15636406692E+03  0.15636406692E+03  0.00000000000E+00 0.  1.
        -13    1    1    2    0    0 -0.20557757650E+03 -0.29905217581E+03  0.15521213582E+04  0.15939808862E+04  0.10566000000E+00 0.  1.
         13    1    1    2    0    0 -0.86021833325E+01  0.13964123011E+03  0.39741046451E+03  0.42131788376E+03  0.10566000000E+00 0. -1.
          4    1    1    2  501    0  0.21417975983E+03  0.15941094570E+03  0.20843338957E+02  0.26780452556E+03  0.00000000000E+00 0.  1.
</event>
<event>
 5    1  0.2540860E-005  0.4431262E+03  0.7818608E-02  0.9819646E-01
          4   -1    0    0  502    0 -0.00000000000E+00  0.00000000000E+00  0.10609968797E+04  0.10609968797E+04  0.00000000000E+00 0.  1.
         21   -1    0    0  501  502  0.00000000000E+00 -0.00000000000E+00 -0.35326442274E+03  0.35326442274E+03  0.00000000000E+00 0.  1.
        -13    1    1    2    0    0  0.34782592015E+03 -0.19919273583E+03  0.56231285208E+03  0.69054787779E+03  0.10566000000E+00 0.  1.
         13    1    1    2    0    0  0.12427610890E+03  0.17617066199E+03  0.12800261936E+03  0.25072960558E+03  0.10566000000E+00 0. -1.
          4    1    1    2  501    0 -0.47210202905E+03  0.23022073842E+02  0.17416985523E+02  0.47298381907E+03  0.00000000000E+00 0.  1.
</event>
<event>
 5    1  0.2540860E-005  0.1654082E+03  0.7818608E-02  0.1086836E+00
         -4   -1    0    0    0  501 -0.00000000000E+00  0.00000000000E+00  0.14335423133E+03  0.14335423133E+03  0.00000000000E+00 0. -1.
         21   -1    0    0  501  502  0.00000000000E+00 -0.00000000000E+00 -0.47013341669E+03  0.47013341669E+03  0.00000000000E+00 0.  1.
        -13    1    1    2    0    0  0.17434311135E+03 -0.12749323764E+02 -0.29597172691E+03  0.34374022171E+03  0.10566000000E+00 0.  1.
         13    1    1    2    0    0 -0.16357297647E+03  0.78610145395E+01  0.62803984935E+02  0.17539174972E+03  0.10566000000E+00 0. -1.
         -4    1    1    2    0  502 -0.10770134876E+02  0.48883092241E+01 -0.93611443388E+02  0.94355676594E+02  0.00000000000E+00 0. -1.
</event>
<event>
 5    1  0.2540860E-005  0.3436661E+03  0.7818608E-02  0.9907554E-01
         -4   -1    0    0    0  501 -0.00000000000E+00  0.00000000000E+00  0.24941655575E+04  0.24941655575E+04  0.00000000000E+00 0. -1.
         21   -1    0    0  501  502  0.00000000000E+00 -0.00000000000E+00 -0.17395467166E+03  0.17395467166E+03  0.00000000000E+00 0. -1.
        -13    1    1    2    0    0  0.20167713611E+03  0.12050187495E+03  0.19827219115E+03  0.30741867549E+03  0.10566000000E+00 0.  1.
         13    1    1    2    0    0 -0.37377335521E+03 -0.72156417468E+02  0.21467406140E+04  0.21802312595E+04  0.10566000000E+00 0. -1.
         -4    1    1    2    0  502  0.17209621911E+03 -0.48345457486E+02 -0.24801919331E+02  0.18047029421E+03  0.00000000000E+00 0. -1.
</event>
<event>
 5    1  0.2540860E-005  0.2112552E+02  0.7818608E-02  0.1534952E+00
          4   -1    0    0  502    0 -0.00000000000E+00  0.00000000000E+00  0.58788539586E+02  0.58788539586E+02  0.00000000000E+00 0.  1.
         21   -1    0    0  501  502  0.00000000000E+00 -0.00000000000E+00 -0.40469318495E+02  0.40469318495E+02  0.00000000000E+00 0.  1.
        -13    1    1    2    0    0  0.10725330339E+02 -0.12320461295E+02  0.49220995976E+02  0.51860814555E+02  0.10566000000E+00 0.  1.
         13    1    1    2    0    0  0.10088808620E+02  0.63077588734E+01 -0.33774523379E+01  0.12368921930E+02  0.10566000000E+00 0. -1.
          4    1    1    2  501    0 -0.20814138959E+02  0.60127024213E+01 -0.27524322546E+02  0.35028121597E+02  0.00000000000E+00 0.  1.
</event>
<event>
 5    1  0.2540860E-005  0.1323520E+03  0.7818608E-02  0.1119950E+00
         -4   -1    0    0    0  501 -0.00000000000E+00  0.00000000000E+00  0.15598313536E+04  0.15598313536E+04  0.00000000000E+00 0. -1.
         21   -1    0    0  501  502  0.00000000000E+00 -0.00000000000E+00 -0.25305757794E+02  0.25305757794E+02  0.00000000000E+00 0.  1.
        -13    1    1    2    0    0 -0.12411380057E+03  0.30334369240E+02  0.43572559642E+03  0.45407181809E+03  0.10566000000E+00 0.  1.
         13    1    1    2    0    0  0.13492036860E+03  0.79205027011E+02  0.70654437924E+03  0.72365869937E+03  0.10566000000E+00 0. -1.
         -4    1    1    2    0  502 -0.10806568027E+02 -0.10953939625E+03  0.39225562015E+03  0.40740659394E+03  0.00000000000E+00 0. -1.
</event>
<event>
 5    1  0.2540860E-005  0.3226991E+03  0.7818608E-02  0.9983526E-01
         21   -1    0    0  501  502  0.00000000000E+00  0.00000000000E+00  0.12499252420E+03  0.12499252420E+03  0.00000000000E+00 0. -1.
         -4   -1    0    0    0  501 -0.00000000000E+00 -0.00000000000E+00 -0.20636734712E+04  0.20636734712E+04  0.00000000000E+00 0. -1.
        -13    1    1    2    0    0  0.29174397200E+03  0.13890470400E+03 -0.15261858750E+04  0.15600167942E+04  0.10566000000E+00 0.  1.
         13    1    1    2    0    0 -0.28269376894E+03 -0.15373900981E+03 -0.46942175354E+03  0.56912937368E+03  0.10566000000E+00 0. -1.
         -4    1    1    2    0  502 -0.90502030628E+01  0.14834305810E+02  0.56926681501E+02  0.59519827546E+02  0.00000000000E+00 0. -1.
</event>
<event>
 5    1  0.2540860E-005  0.5809498E+03  0.7818608E-02  0.9444251E-01
         21   -1    0    0  501  502  0.00000000000E+00  0.00000000000E+00  0.77879829418E+03  0.77879829418E+03  0.00000000000E+00 0. -1.
         -4   -1    0    0    0  501 -0.00000000000E+00 -0.00000000000E+00 -0.12186892706E+04  0.12186892706E+04  0.00000000000E+00 0. -1.
        -13    1    1    2    0    0 -0.28744362349E+03  0.21784583003E+03 -0.60056394450E+03  0.70054100875E+03  0.10566000000E+00 0.  1.
         13    1    1    2    0    0 -0.35212739866E+03  0.56130761656E+02 -0.29705963173E+03  0.46409999273E+03  0.10566000000E+00 0. -1.
         -4    1    1    2    0  502  0.63957102215E+03 -0.27397659169E+03  0.45773259976E+03  0.83284656333E+03  0.00000000000E+00 0. -1.
</event>
<event>
 5    1  0.2540860E-005  0.4954477E+03  0.7818608E-02  0.9774729E-01
         21   -1    0    0  501  502  0.00000000000E+00  0.00000000000E+00  0.39347916208E+03  0.39347916208E+03  0.00000000000E+00 0.  1.
          4   -1    0    0  502    0 -0.00000000000E+00 -0.00000000000E+00 -0.93129226189E+03  0.93129226189E+03  0.00000000000E+00 0.  1.
        -13    1    1    2    0    0  0.78353103045E+01  0.55875582593E+03 -0.13423536305E+03  0.57470741161E+03  0.10566000000E+00 0.  1.
         13    1    1    2    0    0 -0.12152617026E+03 -0.13255119678E+03 -0.18416147892E+03  0.25739831256E+03  0.10566000000E+00 0. -1.
          4    1    1    2  501    0  0.11369085996E+03 -0.42620462916E+03 -0.21941625785E+03  0.49266569980E+03  0.00000000000E+00 0.  1.
</event>
<event>
 5    1  0.2540860E-005  0.2062482E+03  0.7818608E-02  0.1055935E+00
         21   -1    0    0  501  502  0.00000000000E+00  0.00000000000E+00  0.13565542095E+03  0.13565542095E+03  0.00000000000E+00 0. -1.
          4   -1    0    0  502    0 -0.00000000000E+00 -0.00000000000E+00 -0.10567800184E+04  0.10567800184E+04  0.00000000000E+00 0.  1.
        -13    1    1    2    0    0  0.19774840831E+03  0.21085201440E+02 -0.61391025611E+03  0.64531762136E+03  0.10566000000E+00 0.  1.
         13    1    1    2    0    0 -0.20015237878E+03 -0.15093281777E+03 -0.33087070305E+03  0.41511097734E+03  0.10566000000E+00 0. -1.
          4    1    1    2  501    0  0.24039704695E+01  0.12984761633E+03  0.23656361661E+02  0.13200684069E+03  0.00000000000E+00 0.  1.
</event>
<event>
 5    1  0.2540860E-005  0.5148990E+03  0.7818608E-02  0.9445901E-01
         21   -1    0    0  501  502  0.00000000000E+00  0.00000000000E+00  0.27411046414E+04  0.27411046414E+04  0.00000000000E+00 0.  1.
         -4   -1    0    0    0  501 -0.00000000000E+00 -0.00000000000E+00 -0.16748303685E+03  0.16748303685E+03  0.00000000000E+00 0. -1.
        -13    1    1    2    0    0  0.29587150229E+03 -0.42948082367E+03  0.17641746284E+04  0.18396482964E+04  0.10566000000E+00 0.  1.
         13    1    1    2    0    0 -0.27625022069E+03  0.43238277885E+03  0.37865272596E+03  0.63768875630E+03  0.10566000000E+00 0. -1.
         -4    1    1    2    0  502 -0.19621281603E+02 -0.29019551839E+01  0.43079425019E+03  0.43125062554E+03  0.00000000000E+00 0. -1.
</event>
<event>
 5    1  0.2540860E-005  0.5085413E+03  0.7818608E-02  0.9743866E-01
         -4   -1    0    0    0  501 -0.00000000000E+00  0.00000000000E+00  0.22660522278E+04  0.22660522278E+04  0.00000000000E+00 0. -1.
         21   -1    0    0  501  502  0.00000000000E+00 -0.00000000000E+00 -0.16995970004E+03  0.16995970004E+03  0.00000000000E+00 0. -1.
        -13    1    1    2    0    0 -0.15275971355E+03  0.10422863556E+03  0.48716620554E+03  0.52108546472E+03  0.10566000000E+00 0.  1.
         13    1    1    2    0    0  0.15290714930E+03 -0.56093558942E+03  0.87811102753E+03  0.10531421175E+04  0.10566000000E+00 0. -1.
         -4    1    1    2    0  502 -0.14743575265E+00  0.45670695386E+03  0.73081529465E+03  0.86178434561E+03  0.00000000000E+00 0. -1.
</event>
<event>
 5    1  0.2540860E-005  0.3248598E+03  0.7818608E-02  0.9975416E-01
          4   -1    0    0  502    0 -0.00000000000E+00  0.00000000000E+00  0.11863494346E+04  0.11863494346E+04  0.00000000000E+00 0.  1.
         21   -1    0    0  501  502  0.00000000000E+00 -0.00000000000E+00 -0.39044438603E+03  0.39044438603E+03  0.00000000000E+00 0.  1.
        -13    1    1    2    0    0  0.34239768969E+03  0.20129719197E+02  0.91956173978E+03  0.98144545846E+03  0.10566000000E+00 0.  1.
         13    1    1    2    0    0 -0.23273824117E+03 -0.19523632117E+03  0.70467493100E+02  0.31184930456E+03  0.10566000000E+00 0. -1.
          4    1    1    2  501    0 -0.10965944853E+03  0.17510660198E+03 -0.19412418434E+03  0.28349905758E+03  0.00000000000E+00 0.  1.
</event>
<event>
 5    1  0.2540860E-005  0.4899841E+03  0.7818608E-02  0.9739165E-01
         -4   -1    0    0    0  501 -0.00000000000E+00  0.00000000000E+00  0.39997561336E+03  0.39997561336E+03  0.00000000000E+00 0. -1.
         21   -1    0    0  501  502  0.00000000000E+00 -0.00000000000E+00 -0.13730546769E+04  0.13730546769E+04  0.00000000000E+00 0.  1.
        -13    1    1    2    0    0  0.21011278705E+03  0.28639785841E+01  0.15002332017E+03  0.25819100181E+03  0.10566000000E+00 0.  1.
         13    1    1    2    0    0 -0.19972745744E+03  0.48226399628E+03 -0.47936332343E+03  0.70870221277E+03  0.10566000000E+00 0. -1.
         -4    1    1    2    0  502 -0.10385329607E+02 -0.48512797487E+03 -0.64373906027E+03  0.80613707568E+03  0.00000000000E+00 0. -1.
</event>
<event>
 5    1  0.3075602E-005  0.1483361E+03  0.7818608E-02  0.1123420E+00
          4   -1    0    0  502    0 -0.00000000000E+00  0.00000000000E+00  0.51471300940E+03  0.51471300940E+03  0.00000000000E+00 0.  1.
         21   -1    0    0  501  502  0.00000000000E+00 -0.00000000000E+00 -0.91255351603E+03  0.91255351603E+03  0.00000000000E+00 0.  1.
        -13    1    1    2    0    0  0.13491400746E+03  0.57551357278E+02  0.24986996919E+03  0.28973947056E+03  0.10566000000E+00 0.  1.
         13    1    1    2    0    0  0.11450413456E+02 -0.85116713185E+02  0.23091425524E+03  0.24636836499E+03  0.10566000000E+00 0. -1.
          4    1    1    2  501    0 -0.14636442091E+03  0.27565355907E+02 -0.87862473105E+03  0.89115868989E+03  0.00000000000E+00 0.  1.
</event>
<event>
 5    1  0.2540860E-005  0.1763617E+03  0.7818608E-02  0.1102433E+00
         21   -1    0    0  501  502  0.00000000000E+00  0.00000000000E+00  0.26747263615E+03  0.26747263615E+03  0.00000000000E+00 0. -1.
         -4   -1    0    0    0  501 -0.00000000000E+00 -0.00000000000E+00 -0.52028749252E+03  0.52028749252E+03  0.00000000000E+00 0. -1.
        -13    1    1    2    0    0 -0.33308913115E+01  0.88992166354E+02  0.20729579005E+02  0.91435371269E+02  0.10566000000E+00 0.  1.
         13    1    1    2    0    0  0.17934384280E+03 -0.76602726586E+02 -0.42254678417E+03  0.46537940183E+03  0.10566000000E+00 0. -1.
         -4    1    1    2    0  502 -0.17601295149E+03 -0.12389439768E+02  0.14900234879E+03  0.23094535556E+03  0.00000000000E+00 0. -1.
</event>
<event>
 5    1  0.2540860E-005  0.4594999E+03  0.7818608E-02  0.9571451E-01
         21   -1    0    0  501  502  0.00000000000E+00  0.00000000000E+00  0.14247263828E+03  0.14247263828E+03  0.00000000000E+00 0.  1.
          4   -1    0    0  502    0 -0.00000000000E+00 -0.00000000000E+00 -0.43898646062E+04  0.43898646062E+04  0.00000000000E+00 0.  1.
        -13    1    1    2    0    0  0.21883720501E+03 -0.63173555484E+03 -0.11687411833E+04  0.13464529321E+04  0.10566000000E+00 0.  1.
         13    1    1    2    0    0  0.97725752531E+02  0.41218819115E+03 -0.18673782996E+04  0.19148240527E+04  0.10566000000E+00 0. -1.
          4    1    1    2  501    0 -0.31656295754E+03  0.21954736369E+03 -0.12112724850E+04  0.12710602597E+04  0.00000000000E+00 0.  1.
</event>
<event>
 5    1  0.2540860E-005  0.4827962E+03  0.7818608E-02  0.9810907E-01
         21   -1    0    0  501  502  0.00000000000E+00  0.00000000000E+00  0.33712816769E+03  0.33712816769E+03  0.00000000000E+00 0.  1.
          4   -1    0    0  502    0 -0.00000000000E+00 -0.00000000000E+00 -0.10756822112E+04  0.10756822112E+04  0.00000000000E+00 0.  1.
        -13    1    1    2    0    0 -0.45927212034E+03 -0.33586509201E+03 -0.48782015370E+03  0.74946964853E+03  0.10566000000E+00 0.  1.
         13    1    1    2    0    0  0.17166967423E+03  0.45151369380E+01 -0.38700615934E+02  0.17603582689E+03  0.10566000000E+00 0. -1.
          4    1    1    2  501    0  0.28760244610E+03  0.33134995507E+03 -0.21203327390E+03  0.48730490350E+03  0.00000000000E+00 0.  1.
</event>
<event>
 5    1  0.2540860E-005  0.4461608E+03  0.7818608E-02  0.9650141E-01
         -4   -1    0    0    0  501 -0.00000000000E+00  0.00000000000E+00  0.20066408856E+04  0.20066408856E+04  0.00000000000E+00 0. -1.
         21   -1    0    0  501  502  0.00000000000E+00 -0.00000000000E+00 -0.30119168509E+03  0.30119168509E+03  0.00000000000E+00 0. -1.
        -13    1    1    2    0    0  0.37189421082E+03 -0.76309124199E+02  0.10286319739E+04  0.10964543472E+04  0.10566000000E+00 0.  1.
         13    1    1    2    0    0 -0.63521477165E+02 -0.36150799984E+03  0.54970460240E+03  0.66098273281E+03  0.10566000000E+00 0. -1.
         -4    1    1    2    0  502 -0.30837273366E+03  0.43781712404E+03  0.12711262418E+03  0.55039549071E+03  0.00000000000E+00 0. -1.
</event>
<event>
 5    1  0.2540860E-005  0.4722681E+03  0.7818608E-02  0.9686857E-01
         21   -1    0    0  501  502  0.00000000000E+00  0.00000000000E+00  0.32978449102E+03  0.32978449102E+03  0.00000000000E+00 0. -1.
         -4   -1    0    0    0  501 -0.00000000000E+00 -0.00000000000E+00 -0.17126288391E+04  0.17126288391E+04  0.00000000000E+00 0. -1.
        -13    1    1    2    0    0  0.16848664131E+03 -0.22543190836E+03 -0.85460463377E+03  0.89975351338E+03  0.10566000000E+00 0.  1.
         13    1    1    2    0    0 -0.53615590438E+03  0.83053167901E+02 -0.84547864377E+02  0.54909865693E+03  0.10566000000E+00 0. -1.
         -4    1    1    2    0  502  0.36766926307E+03  0.14237874046E+03 -0.44369184995E+03  0.59356115982E+03  0.00000000000E+00 0. -1.
</event>
<event>
 5    1  0.2540860E-005  0.4290324E+03  0.7818608E-02  0.9981418E-01
         21   -1    0    0  501  502  0.00000000000E+00  0.00000000000E+00  0.30335856094E+03  0.30335856094E+03  0.00000000000E+00 0.  1.
          4   -1    0    0  502    0 -0.00000000000E+00 -0.00000000000E+00 -0.13072530933E+04  0.13072530933E+04  0.00000000000E+00 0.  1.
        -13    1    1    2    0    0  0.31156082659E+03  0.30546803621E+03 -0.54611340304E+03  0.69901411285E+03  0.10566000000E+00 0.  1.
         13    1    1    2    0    0 -0.11364827796E+03  0.78759310884E+02 -0.45901829381E+03  0.47939207894E+03  0.10566000000E+00 0. -1.
          4    1    1    2  501    0 -0.19791254863E+03 -0.38422734709E+03  0.12371645341E+01  0.43220546241E+03  0.00000000000E+00 0.  1.
</event>
<event>
 5    1  0.2540860E-005  0.4153046E+03  0.7818608E-02  0.9808550E-01
         21   -1    0    0  501  502  0.00000000000E+00  0.00000000000E+00  0.16679728034E+03  0.16679728034E+03  0.00000000000E+00 0. -1.
         -4   -1    0    0    0  501 -0.00000000000E+00 -0.00000000000E+00 -0.26745776475E+04  0.26745776475E+04  0.00000000000E+00 0. -1.
        -13    1    1    2    0    0 -0.23684506786E+03 -0.13368982106E+03 -0.69122724970E+03  0.74280796732E+03  0.10566000000E+00 0.  1.
         13    1    1    2    0    0  0.58234061919E+03  0.23084820289E+03 -0.14776349588E+04  0.16049350679E+04  0.10566000000E+00 0. -1.
         -4    1    1    2    0  502 -0.34549555133E+03 -0.97158381825E+02 -0.33891815865E+03  0.49363189262E+03  0.00000000000E+00 0. -1.
</event>
<event>
 5    1  0.2540860E-005  0.3377320E+03  0.7818608E-02  0.9928456E-01
         -4   -1    0    0    0  501 -0.00000000000E+00  0.00000000000E+00  0.21794195288E+04  0.21794195288E+04  0.00000000000E+00 0. -1.
         21   -1    0    0  501  502  0.00000000000E+00 -0.00000000000E+00 -0.56023982005E+02  0.56023982005E+02  0.00000000000E+00 0.  1.
        -13    1    1    2    0    0 -0.17043589083E+03 -0.28697115100E+03  0.93112792089E+03  0.98914106709E+03  0.10566000000E+00 0.  1.
         13    1    1    2    0    0  0.19147434916E+03  0.28272916229E+03  0.11273948961E+04  0.11779717605E+04  0.10566000000E+00 0. -1.
         -4    1    1    2    0  502 -0.21038458324E+02  0.42419887095E+01  0.64872729748E+02  0.68330683165E+02  0.00000000000E+00 0. -1.
</event>
<event>
 5    1  0.2540860E-005  0.1761487E+03  0.7818608E-02  0.1077844E+00
         21   -1    0    0  501  502  0.00000000000E+00  0.00000000000E+00  0.16072416720E+03  0.16072416720E+03  0.00000000000E+00 0.  1.
          4   -1    0    0  502    0 -0.00000000000E+00 -0.00000000000E+00 -0.52957242889E+03  0.52957242889E+03  0.00000000000E+00 0.  1.
        -13    1    1    2    0    0  0.17480550120E+03 -0.59230203087E+02 -0.23894416124E+03  0.30192632142E+03  0.10566000000E+00 0.  1.
         13    1    1    2    0    0 -0.15846507457E+03  0.58176261725E+02 -0.23091688148E+03  0.28603893896E+03  0.10566000000E+00 0. -1.
          4    1    1    2  501    0 -0.16340426635E+02  0.10539413618E+01  0.10101278104E+03  0.10233133571E+03  0.00000000000E+00 0.  1.
</event>
<event>
 5    1  0.2540860E-005  0.4747642E+03  0.7818608E-02  0.1003172E+00
         -4   -1    0    0    0  501 -0.00000000000E+00  0.00000000000E+00  0.44427568861E+03  0.44427568861E+03  0.00000000000E+00 0. -1.
         21   -1    0    0  501  502  0.00000000000E+00 -0.00000000000E+00 -0.68274043947E+03  0.68274043947E+03  0.00000000000E+00 0. -1.
        -13    1    1    2    0    0 -0.85599001470E+02 -0.12791111966E+02  0.31412265669E+02  0.92073574909E+02  0.10566000000E+00 0.  1.
         13    1    1    2    0    0 -0.62103211763E+02 -0.46127562367E+03 -0.27063103367E+03  0.53839871606E+03  0.10566000000E+00 0. -1.
         -4    1    1    2    0  502  0.14770221323E+03  0.47406673564E+03  0.75401714904E+00  0.49654383711E+03  0.00000000000E+00 0. -1.
</event>
<event>
 5    1  0.2540860E-005  0.1143639E+03  0.7818608E-02  0.1142758E+00
         21   -1    0    0  501  502  0.00000000000E+00  0.00000000000E+00  0.44765434488E+02  0.44765434488E+02  0.00000000000E+00 0. -1.
          4   -1    0    0  502    0 -0.00000000000E+00 -0.00000000000E+00 -0.36067535183E+03  0.36067535183E+03  0.00000000000E+00 0.  1.
        -13    1    1    2    0    0  0.11646697954E+03  0.19204226425E+02 -0.16431814322E+03  0.20232108884E+03  0.10566000000E+00 0.  1.
         13    1    1    2    0    0 -0.10693371088E+03 -0.30570791362E+02 -0.15192195413E+03  0.18828086232E+03  0.10566000000E+00 0. -1.
          4    1    1    2  501    0 -0.95332686600E+01  0.11366564937E+02  0.33018001046E+00  0.14838835151E+02  0.00000000000E+00 0.  1.
</event>
<event>
 5    1  0.2540860E-005  0.5401528E+03  0.7818608E-02  0.9394056E-01
          4   -1    0    0  502    0 -0.00000000000E+00  0.00000000000E+00  0.40282204719E+03  0.40282204719E+03  0.00000000000E+00 0.  1.
         21   -1    0    0  501  502  0.00000000000E+00 -0.00000000000E+00 -0.14650602104E+04  0.14650602104E+04  0.00000000000E+00 0. -1.
        -13    1    1    2    0    0 -0.56061881542E+02  0.61995666585E+03 -0.93327440213E+02  0.62944358313E+03  0.10566000000E+00 0.  1.
         13    1    1    2    0    0 -0.68564064535E+02 -0.44499764865E+03 -0.31327761578E+03  0.54851327601E+03  0.10566000000E+00 0. -1.
          4    1    1    2  501    0  0.12462594608E+03 -0.17495901719E+03 -0.65563310720E+03  0.68992539843E+03  0.00000000000E+00 0.  1.
</event>
<event>
 5    1  0.2540860E-005  0.6900673E+02  0.7818608E-02  0.1229358E+00
          4   -1    0    0  502    0 -0.00000000000E+00  0.00000000000E+00  0.68850217693E+02  0.68850217693E+02  0.00000000000E+00 0.  1.
         21   -1    0    0  501  502  0.00000000000E+00 -0.00000000000E+00 -0.34034067479E+03  0.34034067479E+03  0.00000000000E+00 0.  1.
        -13    1    1    2    0    0 -0.71731644517E+02  0.18560545863E+02  0.10286444125E+02  0.74804710979E+02  0.10566000000E+00 0.  1.
         13    1    1    2    0    0  0.62622483655E+02 -0.86861800729E+01 -0.12093515541E+02  0.64368388713E+02  0.10566000000E+00 0. -1.
          4    1    1    2  501    0  0.91091608620E+01 -0.98743657906E+01 -0.26968338568E+03  0.27001779279E+03  0.00000000000E+00 0.  1.
</event>
<event>
 5    1  0.2540860E-005  0.1909934E+03  0.7818608E-02  0.1066492E+00
          4   -1    0    0  502    0 -0.00000000000E+00  0.00000000000E+00  0.14348655117E+04  0.14348655117E+04  0.00000000000E+00 0.  1.
         21   -1    0    0  501  502  0.00000000000E+00 -0.00000000000E+00 -0.24917699336E+03  0.24917699336E+03  0.00000000000E+00 0.  1.
        -13    1    1    2    0    0  0.13708169087E+03  0.19029882526E+03  0.66643428852E+03  0.70649819882E+03  0.10566000000E+00 0.  1.
         13    1    1    2    0    0 -0.11415241078E+03 -0.12627692053E+03  0.73338146410E+03  0.75287782315E+03  0.10566000000E+00 0. -1.
          4    1    1    2  501    0 -0.22929280088E+02 -0.64021904727E+02 -0.21412723427E+03  0.22466648310E+03  0.00000000000E+00 0.  1.
</event>
<event>
 5    1  0.2540860E-005  0.4853102E+03  0.7818608E-02  0.9877019E-01
         21   -1    0    0  501  502  0.00000000000E+00  0.00000000000E+00  0.22294193815E+03  0.22294193815E+03  0.00000000000E+00 0.  1.
          4   -1    0    0  502    0 -0.00000000000E+00 -0.00000000000E+00 -0.14470155698E+04  0.14470155698E+04  0.00000000000E+00 0.  1.
        -13    1    1    2    0    0  0.41197813730E+03  0.14140115651E+03 -0.40735169650E+03  0.59636875210E+03  0.10566000000E+00 0.  1.
         13    1    1    2    0    0  0.13457009565E+03 -0.12857891606E+02 -0.16815561623E+03  0.21575624778E+03  0.10566000000E+00 0. -1.
          4    1    1    2  501    0 -0.54654823295E+03 -0.12854326490E+03 -0.64856631890E+03  0.85783250807E+03  0.00000000000E+00 0.  1.
</event>
<event>
 5    1  0.2540860E-005  0.4624982E+03  0.7818608E-02  0.9619188E-01
         21   -1    0    0  501  502  0.00000000000E+00  0.00000000000E+00  0.31347037291E+03  0.31347037291E+03  0.00000000000E+00 0. -1.
         -4   -1    0    0    0  501 -0.00000000000E+00 -0.00000000000E+00 -0.18202029633E+04  0.18202029633E+04  0.00000000000E+00 0. -1.
        -13    1    1    2    0    0 -0.66636904706E+02  0.37429339683E+03 -0.68442199168E+03  0.78292368583E+03  0.10566000000E+00 0.  1.
         13    1    1    2    0    0  0.50276948162E+03 -0.33236767325E+03 -0.63123060909E+03  0.87275283723E+03  0.10566000000E+00 0. -1.
         -4    1    1    2    0  502 -0.43613257691E+03 -0.41925723573E+02 -0.19107998959E+03  0.47799681313E+03  0.00000000000E+00 0. -1.
</event>
<event>
 5    1  0.2540860E-005  0.1413465E+03  0.7818608E-02  0.1109974E+00
          4   -1    0    0  502    0 -0.00000000000E+00  0.00000000000E+00  0.47464973773E+02  0.47464973773E+02  0.00000000000E+00 0.  1.
         21   -1    0    0  501  502  0.00000000000E+00 -0.00000000000E+00 -0.86515182591E+03  0.86515182591E+03  0.00000000000E+00 0. -1.
        -13    1    1    2    0    0  0.13613106280E+03  0.30338294627E+02 -0.91383962064E+02  0.16674267020E+03  0.10566000000E+00 0.  1.
         13    1    1    2    0    0 -0.14941357803E+03 -0.20200768136E+02 -0.60895276010E+03  0.62734038889E+03  0.10566000000E+00 0. -1.
          4    1    1    2  501    0  0.13282515234E+02 -0.10137526491E+02 -0.11735012997E+03  0.11853374059E+03  0.00000000000E+00 0.  1.
</event>
<event>
 5    1  0.2540860E-005  0.4831752E+03  0.7818608E-02  0.9625273E-01
         -4   -1    0    0    0  501 -0.00000000000E+00  0.00000000000E+00  0.63121002621E+03  0.63121002621E+03  0.00000000000E+00 0. -1.
         21   -1    0    0  501  502  0.00000000000E+00 -0.00000000000E+00 -0.76074618178E+03  0.76074618178E+03  0.00000000000E+00 0. -1.
        -13    1    1    2    0    0 -0.25834626792E+03 -0.19935943356E+03  0.63625214583E+02  0.33246827968E+03  0.10566000000E+00 0.  1.
         13    1    1    2    0    0  0.39185326906E+02 -0.34760684594E+03  0.14662801105E+03  0.37929644604E+03  0.10566000000E+00 0. -1.
         -4    1    1    2    0  502  0.21916094101E+03  0.54696627950E+03 -0.33978938121E+03  0.68019148227E+03  0.00000000000E+00 0. -1.
</event>
<event>
 5    1  0.2540860E-005  0.3736445E+03  0.7818608E-02  0.9938997E-01
         -4   -1    0    0    0  501 -0.00000000000E+00  0.00000000000E+00  0.10174501435E+04  0.10174501435E+04  0.00000000000E+00 0. -1.
         21   -1    0    0  501  502  0.00000000000E+00 -0.00000000000E+00 -0.10601627460E+04  0.10601627460E+04  0.00000000000E+00 0. -1.
        -13    1    1    2    0    0  0.18587881234E+03  0.15312225188E+03  0.75417661902E+03  0.79169422174E+03  0.10566000000E+00 0.  1.
         13    1    1    2    0    0 -0.19688363552E+03  0.24496982815E+03  0.78726638349E+02  0.32399271194E+03  0.10566000000E+00 0. -1.
         -4    1    1    2    0  502  0.11004823186E+02 -0.39809208003E+03 -0.87561585989E+03  0.96192595578E+03  0.00000000000E+00 0. -1.
</event>
<event>
 5    1  0.2540860E-005  0.4969833E+03  0.7818608E-02  0.9628941E-01
          4   -1    0    0  502    0 -0.00000000000E+00  0.00000000000E+00  0.30046238468E+04  0.30046238468E+04  0.00000000000E+00 0.  1.
         21   -1    0    0  501  502  0.00000000000E+00 -0.00000000000E+00 -0.20058040449E+03  0.20058040449E+03  0.00000000000E+00 0.  1.
        -13    1    1    2    0    0 -0.15943114848E+03 -0.43173386941E+03  0.53416180015E+03  0.70508245263E+03  0.10566000000E+00 0.  1.
         13    1    1    2    0    0  0.25563007804E+03 -0.14924303606E+03  0.15101274905E+04  0.15388649289E+04  0.10566000000E+00 0. -1.
          4    1    1    2  501    0 -0.96198929563E+02  0.58097690546E+03  0.75975415166E+03  0.96125686978E+03  0.00000000000E+00 0.  1.
</event>
<event>
 5    1  0.2540860E-005  0.3124625E+03  0.7818608E-02  0.1002290E+00
         21   -1    0    0  501  502  0.00000000000E+00  0.00000000000E+00  0.74223129814E+03  0.74223129814E+03  0.00000000000E+00 0.  1.
         -4   -1    0    0    0  501 -0.00000000000E+00 -0.00000000000E+00 -0.22221154163E+03  0.22221154163E+03  0.00000000000E+00 0. -1.
        -13    1    1    2    0    0 -0.15377283615E+03 -0.28159889730E+03 -0.15408131537E+02  0.32121868840E+03  0.10566000000E+00 0.  1.
         13    1    1    2    0    0  0.16650873249E+03  0.23866344042E+03  0.36391586244E+03  0.46596154550E+03  0.10566000000E+00 0. -1.
         -4    1    1    2    0  502 -0.12735896337E+02  0.42935456881E+02  0.17151202560E+03  0.17726260587E+03  0.00000000000E+00 0. -1.
</event>
<event>
 5    1  0.3142310E-005  0.3344183E+03  0.7818608E-02  0.9974964E-01
          4   -1    0    0  502    0 -0.00000000000E+00  0.00000000000E+00  0.23802996784E+04  0.23802996784E+04  0.00000000000E+00 0.  1.
         21   -1    0    0  501  502  0.00000000000E+00 -0.00000000000E+00 -0.32689277759E+03  0.32689277759E+03  0.00000000000E+00 0.  1.
        -13    1    1    2    0    0  0.20707148683E+03  0.19011714050E+03  0.13559223643E+04  0.13847557897E+04  0.10566000000E+00 0.  1.
         13    1    1    2    0    0 -0.56015018069E+03 -0.21729979973E+03  0.75370635038E+03  0.96387794956E+03  0.10566000000E+00 0. -1.
          4    1    1    2  501    0  0.35307869386E+03  0.27182659229E+02 -0.56221813882E+02  0.35855871678E+03  0.00000000000E+00 0.  1.
</event>
<event>
 5    1  0.2540860E-005  0.3258105E+03  0.7818608E-02  0.9971868E-01
         21   -1    0    0  501  502  0.00000000000E+00  0.00000000000E+00  0.20816850666E+03  0.20816850666E+03  0.00000000000E+00 0. -1.
          4   -1    0    0  502    0 -0.00000000000E+00 -0.00000000000E+00 -0.99535299409E+03  0.99535299409E+03  0.00000000000E+00 0.  1.
        -13    1    1    2    0    0 -0.32214783926E+03 -0.18715135269E+02 -0.60754857989E+03  0.68792788482E+03  0.10566000000E+00 0.  1.
         13    1    1    2    0    0  0.33068683890E+03  0.30695034926E+02 -0.26754031166E+03  0.42646664596E+03  0.10566000000E+00 0. -1.
          4    1    1    2  501    0 -0.85389996383E+01 -0.11979899657E+02  0.87904404125E+02  0.89126969965E+02  0.00000000000E+00 0.  1.
</event>
<event>
 5    1  0.2540860E-005  0.4847954E+02  0.7818608E-02  0.1298106E+00
         -4   -1    0    0    0  501 -0.00000000000E+00  0.00000000000E+00  0.14659351212E+03  0.14659351212E+03  0.00000000000E+00 0. -1.
         21   -1    0    0  501  502  0.00000000000E+00 -0.00000000000E+00 -0.60805043815E+02  0.60805043815E+02  0.00000000000E+00 0. -1.
        -13    1    1    2    0    0 -0.96093989108E+01  0.40816182255E+02  0.55080095936E+01  0.42292441583E+02  0.10566000000E+00 0.  1.
         13    1    1    2    0    0  0.23825278733E+02 -0.44741449960E+02  0.11592942225E+03  0.12652700644E+03  0.10566000000E+00 0. -1.
         -4    1    1    2    0  502 -0.14215879822E+02  0.39252677046E+01 -0.35648963541E+02  0.38579107911E+02  0.00000000000E+00 0. -1.
</event>
<event>
 5    1  0.2540860E-005  0.3460156E+03  0.7818608E-02  0.1014223E+00
          4   -1    0    0  502    0 -0.00000000000E+00  0.00000000000E+00  0.21809845768E+04  0.21809845768E+04  0.00000000000E+00 0.  1.
         21   -1    0    0  501  502  0.00000000000E+00 -0.00000000000E+00 -0.21369506454E+03  0.21369506454E+03  0.00000000000E+00 0.  1.
        -13    1    1    2    0    0 -0.11787401373E+03 -0.44735553213E+03  0.10098056836E+04  0.11107334447E+04  0.10566000000E+00 0.  1.
         13    1    1    2    0    0 -0.29397100869E+02  0.15381725407E+03  0.94225812262E+03  0.95518287149E+03  0.10566000000E+00 0. -1.
          4    1    1    2  501    0  0.14727111460E+03  0.29353827806E+03  0.15225706036E+02  0.32876332521E+03  0.00000000000E+00 0.  1.
</event>
<event>
 5    1  0.2540860E-005  0.4461759E+03  0.7818608E-02  0.9604454E-01
         21   -1    0    0  501  502  0.00000000000E+00  0.00000000000E+00  0.15453883075E+03  0.15453883075E+03  0.00000000000E+00 0.  1.
          4   -1    0    0  502    0 -0.00000000000E+00 -0.00000000000E+00 -0.25259983258E+04  0.25259983258E+04  0.00000000000E+00 0.  1.
        -13    1    1    2    0    0  0.25633429192E+03 -0.35659421902E+03 -0.12473045767E+04  0.13223597939E+04  0.10566000000E+00 0.  1.
         13    1    1    2    0    0 -0.29708051461E+03  0.34452244942E+03 -0.11932681416E+04  0.12770440161E+04  0.10566000000E+00 0. -1.
          4    1    1    2  501    0  0.40746222689E+02  0.12071769602E+02  0.69113223257E+02  0.81133346496E+02  0.00000000000E+00 0.  1.
</event>
<event>
 5    1  0.2540860E-005  0.5853099E+03  0.7818608E-02  0.9308361E-01
         21   -1    0    0  501  502  0.00000000000E+00  0.00000000000E+00  0.24954754536E+03  0.24954754536E+03  0.00000000000E+00 0. -1.
         -4   -1    0    0    0  501 -0.00000000000E+00 -0.00000000000E+00 -0.29460801986E+04  0.29460801986E+04  0.00000000000E+00 0. -1.
        -13    1    1    2    0    0  0.48367461440E+03 -0.28457337877E+03 -0.10784461724E+04  0.12157176064E+04  0.10566000000E+00 0.  1.
         13    1    1    2    0    0 -0.31539735549E+03  0.57066017628E+03 -0.14858771503E+04  0.16226396537E+04  0.10566000000E+00 0. -1.
         -4    1    1    2    0  502 -0.16827725892E+03 -0.28608679751E+03 -0.13220933047E+03  0.35727048386E+03  0.00000000000E+00 0. -1.
</event>
<event>
 5    1  0.2540860E-005  0.1244899E+03  0.7818608E-02  0.1129400E+00
         21   -1    0    0  501  502  0.00000000000E+00  0.00000000000E+00  0.20734220582E+03  0.20734220582E+03  0.00000000000E+00 0.  1.
         -4   -1    0    0    0  501 -0.00000000000E+00 -0.00000000000E+00 -0.84965132100E+02  0.84965132100E+02  0.00000000000E+00 0. -1.
        -13    1    1    2    0    0  0.68689460538E+02 -0.96037648321E+02  0.53848378463E+02  0.12977338291E+03  0.10566000000E+00 0.  1.
         13    1    1    2    0    0 -0.81860292305E+02  0.10290171653E+03  0.55306027370E+02  0.14264865421E+03  0.10566000000E+00 0. -1.
         -4    1    1    2    0  502  0.13170831768E+02 -0.68640682100E+01  0.13222667887E+02  0.19885300800E+02  0.00000000000E+00 0. -1.
</event>
<event>
 5    1  0.2540860E-005  0.5582772E+02  0.7818608E-02  0.1317278E+00
          4   -1    0    0  502    0 -0.00000000000E+00  0.00000000000E+00  0.68882887747E+02  0.68882887747E+02  0.00000000000E+00 0.  1.
         21   -1    0    0  501  502  0.00000000000E+00 -0.00000000000E+00 -0.15271437353E+03  0.15271437353E+03  0.00000000000E+00 0.  1.
        -13    1    1    2    0    0 -0.12156109571E+02  0.51781420177E+02 -0.42201923183E+02  0.67897716897E+02  0.10566000000E+00 0.  1.
         13    1    1    2    0    0  0.20849126348E+02  0.69666505261E+01  0.44178091427E+02  0.49345062724E+02  0.10566000000E+00 0. -1.
          4    1    1    2  501    0 -0.86930167779E+01 -0.58748070704E+02 -0.85807654023E+02  0.10435448165E+03  0.00000000000E+00 0.  1.
</event>
<event>
 5    1  0.2540860E-005  0.4932842E+03  0.7818608E-02  0.9777468E-01
          4   -1    0    0  502    0 -0.00000000000E+00  0.00000000000E+00  0.21366313338E+04  0.21366313338E+04  0.00000000000E+00 0.  1.
         21   -1    0    0  501  502  0.00000000000E+00 -0.00000000000E+00 -0.17154316391E+03  0.17154316391E+03  0.00000000000E+00 0.  1.
        -13    1    1    2    0    0 -0.24392690823E+03  0.50271453050E+03  0.57311809319E+03  0.80042900725E+03  0.10566000000E+00 0.  1.
         13    1    1    2    0    0  0.13490324774E+02 -0.17999631698E+03  0.37441494850E+03  0.41565277313E+03  0.10566000000E+00 0. -1.
          4    1    1    2  501    0  0.23043658345E+03 -0.32271821352E+03  0.10175551282E+04  0.10920927173E+04  0.00000000000E+00 0.  1.
</event>
<event>
 5    1  0.2540860E-005  0.2320321E+03  0.7818608E-02  0.1040149E+00
         21   -1    0    0  501  502  0.00000000000E+00  0.00000000000E+00  0.19033192126E+03  0.19033192126E+03  0.00000000000E+00 0. -1.
         -4   -1    0    0    0  501 -0.00000000000E+00 -0.00000000000E+00 -0.23772774142E+04  0.23772774142E+04  0.00000000000E+00 0. -1.
        -13    1    1    2    0    0  0.14125572986E+03 -0.17721127718E+03 -0.83956343576E+03  0.86961128776E+03  0.10566000000E+00 0.  1.
         13    1    1    2    0    0 -0.23913477812E+02  0.34597622318E+03 -0.12126242798E+02  0.34701362849E+03  0.10566000000E+00 0. -1.
         -4    1    1    2    0  502 -0.11734225205E+03 -0.16876494600E+03 -0.13352558144E+04  0.13509844192E+04  0.00000000000E+00 0. -1.
</event>
<event>
 5    1  0.2540860E-005  0.4134538E+03  0.7818608E-02  0.9918892E-01
          4   -1    0    0  502    0 -0.00000000000E+00  0.00000000000E+00  0.33817640734E+04  0.33817640734E+04  0.00000000000E+00 0.  1.
         21   -1    0    0  501  502  0.00000000000E+00 -0.00000000000E+00 -0.12106035413E+03  0.12106035413E+03  0.00000000000E+00 0. -1.
        -13    1    1    2    0    0 -0.22771553974E+03 -0.18627704825E+03  0.17471794542E+04  0.17717758216E+04  0.10566000000E+00 0.  1.
         13    1    1    2    0    0 -0.22439668014E+02 -0.18870643947E+03  0.11096894767E+04  0.11258438634E+04  0.10566000000E+00 0. -1.
          4    1    1    2  501    0  0.25015520775E+03  0.37498348773E+03  0.40383478842E+03  0.60520474252E+03  0.00000000000E+00 0.  1.
</event>
<event>
 5    1  0.2540860E-005  0.1157405E+03  0.7818608E-02  0.1140855E+00
         21   -1    0    0  501  502  0.00000000000E+00  0.00000000000E+00  0.36907805262E+03  0.36907805262E+03  0.00000000000E+00 0. -1.
         -4   -1    0    0    0  501 -0.00000000000E+00 -0.00000000000E+00 -0.78624661547E+02  0.78624661547E+02  0.00000000000E+00 0. -1.
        -13    1    1    2    0    0 -0.25865692274E+02  0.10347018558E+03  0.60029525066E+02  0.12238737020E+03  0.10566000000E+00 0.  1.
         13    1    1    2    0    0  0.76270428965E+02 -0.10487609762E+03  0.51681190139E+02  0.13959631358E+03  0.10566000000E+00 0. -1.
         -4    1    1    2    0  502 -0.50404736691E+02  0.14059120405E+01  0.17874267587E+03  0.18571903039E+03  0.00000000000E+00 0. -1.
</event>
<event>
 5    1  0.2540860E-005  0.4801974E+03  0.7818608E-02  0.9724356E-01
         21   -1    0    0  501  502  0.00000000000E+00  0.00000000000E+00  0.14432216717E+04  0.14432216717E+04  0.00000000000E+00 0. -1.
         -4   -1    0    0    0  501 -0.00000000000E+00 -0.00000000000E+00 -0.32590259730E+03  0.32590259730E+03  0.00000000000E+00 0. -1.
        -13    1    1    2    0    0  0.10923320675E+03 -0.20805095364E+03  0.12037552501E+02  0.23529132284E+03  0.10566000000E+00 0.  1.
         13    1    1    2    0    0  0.54864695289E+02 -0.40716372772E+03  0.56618653963E+03  0.69954245388E+03  0.10566000000E+00 0. -1.
         -4    1    1    2    0  502 -0.16409790204E+03  0.61521468136E+03  0.53909498232E+03  0.83429049232E+03  0.00000000000E+00 0. -1.
</event>
<event>
 5    1  0.2540860E-005  0.4682419E+03  0.7818608E-02  0.9856610E-01
         21   -1    0    0  501  502  0.00000000000E+00  0.00000000000E+00  0.13145790616E+03  0.13145790616E+03  0.00000000000E+00 0.  1.
          4   -1    0    0  502    0 -0.00000000000E+00 -0.00000000000E+00 -0.26114851705E+04  0.26114851705E+04  0.00000000000E+00 0.  1.
        -13    1    1    2    0    0 -0.43775935386E+03 -0.61134851170E+02 -0.14417653296E+04  0.15079980102E+04  0.10566000000E+00 0.  1.
         13    1    1    2    0    0 -0.42517522023E+02  0.15551389812E+03 -0.39502927220E+03  0.42666198477E+03  0.10566000000E+00 0. -1.
          4    1    1    2  501    0  0.48027687588E+03 -0.94379046955E+02 -0.64323266250E+03  0.80828308167E+03  0.00000000000E+00 0.  1.
</event>
<event>
 5    1  0.2540860E-005  0.6339867E+03  0.7818608E-02  0.9224669E-01
         21   -1    0    0  501  502  0.00000000000E+00  0.00000000000E+00  0.37180510977E+03  0.37180510977E+03  0.00000000000E+00 0. -1.
         -4   -1    0    0    0  501 -0.00000000000E+00 -0.00000000000E+00 -0.29263577925E+04  0.29263577925E+04  0.00000000000E+00 0. -1.
        -13    1    1    2    0    0 -0.64429020939E+03 -0.40824519364E+03 -0.14011878264E+04  0.15953373775E+04  0.10566000000E+00 0.  1.
         13    1    1    2    0    0  0.59030424144E+03 -0.20430703463E+03 -0.70417896230E+03  0.94131210763E+03  0.10566000000E+00 0. -1.
         -4    1    1    2    0  502  0.53985967951E+02  0.61255222827E+03 -0.44918589405E+03  0.76151341716E+03  0.00000000000E+00 0. -1.
</event>
<event>
 5    1  0.2540860E-005  0.5604361E+02  0.7818608E-02  0.1268964E+00
          4   -1    0    0  502    0 -0.00000000000E+00  0.00000000000E+00  0.22966012004E+03  0.22966012004E+03  0.00000000000E+00 0.  1.
         21   -1    0    0  501  502  0.00000000000E+00 -0.00000000000E+00 -0.50840807296E+02  0.50840807296E+02  0.00000000000E+00 0. -1.
        -13    1    1    2    0    0  0.43404314420E+02  0.33505212783E+02  0.18986662508E+03  0.19762560633E+03  0.10566000000E+00 0.  1.
         13    1    1    2    0    0 -0.49872163180E+02 -0.45710495143E+02 -0.51217107398E+01  0.67844860612E+02  0.10566000000E+00 0. -1.
          4    1    1    2  501    0  0.64678487605E+01  0.12205282361E+02 -0.59256016042E+01  0.15030460388E+02  0.00000000000E+00 0.  1.
</event>
<event>
 5    1  0.2540860E-005  0.4141974E+03  0.7818608E-02  0.9792875E-01
          4   -1    0    0  502    0 -0.00000000000E+00  0.00000000000E+00  0.17469457055E+04  0.17469457055E+04  0.00000000000E+00 0.  1.
         21   -1    0    0  501  502  0.00000000000E+00 -0.00000000000E+00 -0.35332516433E+03  0.35332516433E+03  0.00000000000E+00 0.  1.
        -13    1    1    2    0    0  0.43497677944E+03  0.43193055463E+03  0.59790067043E+03  0.85630253155E+03  0.10566000000E+00 0.  1.
         13    1    1    2    0    0 -0.98470176698E+02 -0.27194845245E+03  0.82105501423E+03  0.87050771625E+03  0.10566000000E+00 0. -1.
          4    1    1    2  501    0 -0.33650660274E+03 -0.15998210218E+03 -0.25335143505E+02  0.37346062202E+03  0.00000000000E+00 0.  1.
</event>
<event>
 5    1  0.2540860E-005  0.4496565E+03  0.7818608E-02  0.9611330E-01
         -4   -1    0    0    0  501 -0.00000000000E+00  0.00000000000E+00  0.30083042690E+04  0.30083042690E+04  0.00000000000E+00 0. -1.
         21   -1    0    0  501  502  0.00000000000E+00 -0.00000000000E+00 -0.41910750428E+03  0.41910750428E+03  0.00000000000E+00 0. -1.
        -13    1    1    2    0    0 -0.39980440458E+03  0.14527232278E+03  0.22401305117E+04  0.22801605931E+04  0.10566000000E+00 0.  1.
         13    1    1    2    0    0  0.26772118596E+03  0.34384170253E+03  0.45461021518E+03  0.62973979446E+03  0.10566000000E+00 0. -1.
         -4    1    1    2    0  502  0.13208321862E+03 -0.48911402531E+03 -0.10554396218E+03  0.51751138572E+03  0.00000000000E+00 0. -1.
</event>
<event>
 5    1  0.2540860E-005  0.5152630E+03  0.7818608E-02  0.9445132E-01
         21   -1    0    0  501  502  0.00000000000E+00  0.00000000000E+00  0.38353824569E+03  0.38353824569E+03  0.00000000000E+00 0. -1.
          4   -1    0    0  502    0 -0.00000000000E+00 -0.00000000000E+00 -0.17135254190E+04  0.17135254190E+04  0.00000000000E+00 0.  1.
        -13    1    1    2    0    0 -0.19851739662E+03  0.49158509011E+03 -0.13139233054E+04  0.14168484468E+04  0.10566000000E+00 0.  1.
         13    1    1    2    0    0  0.69162945025E+02 -0.43097564828E+03  0.14964857930E+03  0.46143063491E+03  0.10566000000E+00 0. -1.
          4    1    1    2  501    0  0.12935445160E+03 -0.60609441831E+02 -0.16571244724E+03  0.21878458300E+03  0.00000000000E+00 0.  1.
</event>
<event>
 5    1  0.2540860E-005  0.1845248E+03  0.7818608E-02  0.1071296E+00
          4   -1    0    0  502    0 -0.00000000000E+00  0.00000000000E+00  0.16670813688E+03  0.16670813688E+03  0.00000000000E+00 0.  1.
         21   -1    0    0  501  502  0.00000000000E+00 -0.00000000000E+00 -0.26572587008E+03  0.26572587008E+03  0.00000000000E+00 0. -1.
        -13    1    1    2    0    0 -0.10676814701E+03 -0.14428567968E+03 -0.18003660463E+02  0.18039384006E+03  0.10566000000E+00 0.  1.
         13    1    1    2    0    0  0.10368678900E+03  0.15935889426E+03 -0.22395302358E+02  0.19143606798E+03  0.10566000000E+00 0. -1.
          4    1    1    2  501    0  0.30813580081E+01 -0.15073214580E+02 -0.58618770384E+02  0.60604098923E+02  0.00000000000E+00 0.  1.
</event>
<event>
 5    1  0.2540860E-005  0.1201754E+03  0.7818608E-02  0.1134915E+00
         21   -1    0    0  501  502  0.00000000000E+00  0.00000000000E+00  0.40536672334E+02  0.40536672334E+02  0.00000000000E+00 0.  1.
         -4   -1    0    0    0  501 -0.00000000000E+00 -0.00000000000E+00 -0.16277519390E+04  0.16277519390E+04  0.00000000000E+00 0. -1.
        -13    1    1    2    0    0 -0.44657811369E+02  0.11487858655E+03 -0.20840486343E+03  0.24212395179E+03  0.10566000000E+00 0.  1.
         13    1    1    2    0    0  0.70609758415E+02 -0.95048907415E+02 -0.12591192613E+03  0.17284055395E+03  0.10566000000E+00 0. -1.
         -4    1    1    2    0  502 -0.25951947046E+02 -0.19829679137E+02 -0.12528984771E+04  0.12533241056E+04  0.00000000000E+00 0. -1.
</event>
<event>
 5    1  0.2540860E-005  0.2751904E+03  0.7818608E-02  0.1018106E+00
          4   -1    0    0  502    0 -0.00000000000E+00  0.00000000000E+00  0.29101612835E+04  0.29101612835E+04  0.00000000000E+00 0.  1.
         21   -1    0    0  501  502  0.00000000000E+00 -0.00000000000E+00 -0.38404216547E+02  0.38404216547E+02  0.00000000000E+00 0. -1.
        -13    1    1    2    0    0 -0.18249189941E+03  0.19314521882E+03  0.12644476584E+04  0.12920666627E+04  0.10566000000E+00 0.  1.
         13    1    1    2    0    0  0.22644254260E+03 -0.17418345849E+03  0.15700778040E+04  0.15958572693E+04  0.10566000000E+00 0. -1.
          4    1    1    2  501    0 -0.43950643193E+02 -0.18961760330E+02  0.37231604562E+02  0.60641568005E+02  0.00000000000E+00 0.  1.
</event>
<event>
 5    1  0.2540860E-005  0.2130278E+03  0.7818608E-02  0.1051554E+00
          4   -1    0    0  502    0 -0.00000000000E+00  0.00000000000E+00  0.38766002192E+03  0.38766002192E+03  0.00000000000E+00 0.  1.
         21   -1    0    0  501  502  0.00000000000E+00 -0.00000000000E+00 -0.20499660079E+03  0.20499660079E+03  0.00000000000E+00 0.  1.
        -13    1    1    2    0    0  0.45399274650E+01  0.23293696784E+03  0.25376902030E+03  0.34449814042E+03  0.10566000000E+00 0.  1.
         13    1    1    2    0    0  0.12358484845E+02 -0.16762657909E+03 -0.35164794222E+02  0.17172063382E+03  0.10566000000E+00 0. -1.
          4    1    1    2  501    0 -0.16898412310E+02 -0.65310388748E+02 -0.35940804944E+02  0.76437848459E+02  0.00000000000E+00 0.  1.
</event>
<event>
 5    1  0.2540860E-005  0.5107742E+03  0.7818608E-02  0.9454665E-01
          4   -1    0    0  502    0 -0.00000000000E+00  0.00000000000E+00  0.12766722876E+04  0.12766722876E+04  0.00000000000E+00 0.  1.
         21   -1    0    0  501  502  0.00000000000E+00 -0.00000000000E+00 -0.43443347625E+03  0.43443347625E+03  0.00000000000E+00 0. -1.
        -13    1    1    2    0    0  0.37110713956E+03 -0.57394473018E+03  0.56389450415E+03  0.88606437989E+03  0.10566000000E+00 0.  1.
         13    1    1    2    0    0 -0.32488392851E+03  0.24740528223E+03  0.28018769612E+03  0.49524145313E+03  0.10566000000E+00 0. -1.
          4    1    1    2  501    0 -0.46223211054E+02  0.32653944794E+03 -0.18433889033E+01  0.32979993085E+03  0.00000000000E+00 0.  1.
</event>
<event>
 5    1  0.2540860E-005  0.2514963E+03  0.7818608E-02  0.1037489E+00
         21   -1    0    0  501  502  0.00000000000E+00  0.00000000000E+00  0.27461315163E+03  0.27461315163E+03  0.00000000000E+00 0. -1.
          4   -1    0    0  502    0 -0.00000000000E+00 -0.00000000000E+00 -0.54932837344E+03  0.54932837344E+03  0.00000000000E+00 0.  1.
        -13    1    1    2    0    0  0.15182200328E+03  0.14798948415E+03 -0.22166860511E+03  0.30673733023E+03  0.10566000000E+00 0.  1.
         13    1    1    2    0    0 -0.24851016320E+03  0.84178106977E+02 -0.14597144908E+02  0.26278573536E+03  0.10566000000E+00 0. -1.
          4    1    1    2  501    0  0.96688159918E+02 -0.23216759113E+03 -0.38449471785E+02  0.25441845947E+03  0.00000000000E+00 0.  1.
</event>
<event>
 5    1  0.2540860E-005  0.1349670E+03  0.7818608E-02  0.1116963E+00
         21   -1    0    0  501  502  0.00000000000E+00  0.00000000000E+00  0.19575424595E+02  0.19575424595E+02  0.00000000000E+00 0.  1.
         -4   -1    0    0    0  501 -0.00000000000E+00 -0.00000000000E+00 -0.17178093270E+04  0.17178093270E+04  0.00000000000E+00 0. -1.
        -13    1    1    2    0    0 -0.38688968351E+02  0.92378038177E+02 -0.32504665065E+03  0.34012626255E+03  0.10566000000E+00 0.  1.
         13    1    1    2    0    0  0.11356114590E+03 -0.13054484421E+03 -0.98460434812E+03  0.99969186438E+03  0.10566000000E+00 0. -1.
         -4    1    1    2    0  502 -0.74872177544E+02  0.38166806037E+02 -0.38858290361E+03  0.39756662464E+03  0.00000000000E+00 0. -1.
</event>
<event>
 5    1  0.2540860E-005  0.6423190E+03  0.7818608E-02  0.9211135E-01
          4   -1    0    0  502    0 -0.00000000000E+00  0.00000000000E+00  0.27240156557E+04  0.27240156557E+04  0.00000000000E+00 0.  1.
         21   -1    0    0  501  502  0.00000000000E+00 -0.00000000000E+00 -0.25561199258E+03  0.25561199258E+03  0.00000000000E+00 0. -1.
        -13    1    1    2    0    0 -0.31343462914E+03  0.71652208585E+03  0.14874117762E+04  0.16804877177E+04  0.10566000000E+00 0.  1.
         13    1    1    2    0    0  0.12017339911E+03 -0.51959887434E+03  0.82446075591E+03  0.98191658773E+03  0.10566000000E+00 0. -1.
          4    1    1    2  501    0  0.19326123003E+03 -0.19692321152E+03  0.15653113101E+03  0.31722334284E+03  0.00000000000E+00 0.  1.
</event>
<event>
 5    1  0.2540860E-005  0.4972718E+03  0.7818608E-02  0.9609986E-01
         -4   -1    0    0    0  501 -0.00000000000E+00  0.00000000000E+00  0.13291363638E+04  0.13291363638E+04  0.00000000000E+00 0. -1.
         21   -1    0    0  501  502  0.00000000000E+00 -0.00000000000E+00 -0.47813557013E+03  0.47813557013E+03  0.00000000000E+00 0. -1.
        -13    1    1    2    0    0  0.10080831124E+03 -0.29950542916E+03  0.67595211536E+03  0.74617497353E+03  0.10566000000E+00 0.  1.
         13    1    1    2    0    0  0.38235230570E+03  0.38974153918E+03  0.22451722615E+02  0.54643924095E+03  0.10566000000E+00 0. -1.
         -4    1    1    2    0  502 -0.48316061694E+03 -0.90236110024E+02  0.15259695573E+03  0.51465771947E+03  0.00000000000E+00 0. -1.
</event>
<event>
 5    1  0.2540860E-005  0.9565441E+02  0.7818608E-02  0.1171953E+00
         21   -1    0    0  501  502  0.00000000000E+00  0.00000000000E+00  0.40744499066E+03  0.40744499066E+03  0.00000000000E+00 0.  1.
         -4   -1    0    0    0  501 -0.00000000000E+00 -0.00000000000E+00 -0.52751196116E+02  0.52751196116E+02  0.00000000000E+00 0. -1.
        -13    1    1    2    0    0  0.24045148706E+02 -0.73219828510E+02  0.32520964469E+03  0.33421645176E+03  0.10566000000E+00 0.  1.
         13    1    1    2    0    0 -0.31484037367E+02  0.93778800103E+02  0.15772205846E+02  0.10017225963E+03  0.10566000000E+00 0. -1.
         -4    1    1    2    0  502  0.74388886607E+01 -0.20558971593E+02  0.13711944009E+02  0.25807475389E+02  0.00000000000E+00 0. -1.
</event>
<event>
 5    1  0.2540860E-005  0.4089267E+03  0.7818608E-02  0.9895607E-01
         -4   -1    0    0    0  501 -0.00000000000E+00  0.00000000000E+00  0.12250146364E+04  0.12250146364E+04  0.00000000000E+00 0. -1.
         21   -1    0    0  501  502  0.00000000000E+00 -0.00000000000E+00 -0.36070191534E+03  0.36070191534E+03  0.00000000000E+00 0. -1.
        -13    1    1    2    0    0 -0.19115778731E+03 -0.92370950816E+02  0.41549961733E+03  0.46659793760E+03  0.10566000000E+00 0.  1.
         13    1    1    2    0    0 -0.62494033453E+02  0.41525916027E+03 -0.10195863294E+03  0.43213568286E+03  0.10566000000E+00 0. -1.
         -4    1    1    2    0  502  0.25365182077E+03 -0.32288820945E+03  0.55077173670E+03  0.68698293132E+03  0.00000000000E+00 0. -1.
</event>
<event>
 5    1  0.2540860E-005  0.2526990E+03  0.7818608E-02  0.1029004E+00
          4   -1    0    0  502    0 -0.00000000000E+00  0.00000000000E+00  0.16300776754E+03  0.16300776754E+03  0.00000000000E+00 0.  1.
         21   -1    0    0  501  502  0.00000000000E+00 -0.00000000000E+00 -0.51885148851E+03  0.51885148851E+03  0.00000000000E+00 0.  1.
        -13    1    1    2    0    0 -0.12342621950E+03  0.25706046546E+03 -0.18473342667E+03  0.33976545536E+03  0.10566000000E+00 0.  1.
         13    1    1    2    0    0  0.69627521834E+02 -0.21907944033E+03 -0.12463773795E+03  0.26149258088E+03  0.10566000000E+00 0. -1.
          4    1    1    2  501    0  0.53798697668E+02 -0.37981025128E+02 -0.46472556347E+02  0.80601219804E+02  0.00000000000E+00 0.  1.
</event>
<event>
 5    1  0.2540860E-005  0.8917503E+03  0.7818608E-02  0.8883545E-01
         -4   -1    0    0    0  501 -0.00000000000E+00  0.00000000000E+00  0.22585394178E+04  0.22585394178E+04  0.00000000000E+00 0. -1.
         21   -1    0    0  501  502  0.00000000000E+00 -0.00000000000E+00 -0.48532022491E+03  0.48532022491E+03  0.00000000000E+00 0.  1.
        -13    1    1    2    0    0  0.80521834860E+03  0.11200375764E+03  0.54469378344E+03  0.97857690527E+03  0.10566000000E+00 0.  1.
         13    1    1    2    0    0 -0.90297373038E+03 -0.38135466543E+03  0.97817449855E+03  0.13847809572E+04  0.10566000000E+00 0. -1.
         -4    1    1    2    0  502  0.97755381775E+02  0.26935090779E+03  0.25035091093E+03  0.38050178029E+03  0.00000000000E+00 0. -1.
</event>
<event>
 5    1  0.2540860E-005  0.6082185E+02  0.7818608E-02  0.1298157E+00
         21   -1    0    0  501  502  0.00000000000E+00  0.00000000000E+00  0.26693081931E+03  0.26693081931E+03  0.00000000000E+00 0.  1.
          4   -1    0    0  502    0 -0.00000000000E+00 -0.00000000000E+00 -0.28205894675E+02  0.28205894675E+02  0.00000000000E+00 0.  1.
        -13    1    1    2    0    0  0.15985525464E+02  0.69063864470E+02  0.53677827146E+02  0.88919484316E+02  0.10566000000E+00 0.  1.
         13    1    1    2    0    0  0.13363498356E+02 -0.20565122741E+02  0.10688369122E+03  0.10966148811E+03  0.10566000000E+00 0. -1.
          4    1    1    2  501    0 -0.29349023820E+02 -0.48498741729E+02  0.78163406271E+02  0.96555741561E+02  0.00000000000E+00 0.  1.
</event>
<event>
 5    1  0.2540860E-005  0.4952526E+03  0.7818608E-02  0.9488438E-01
         21   -1    0    0  501  502  0.00000000000E+00  0.00000000000E+00  0.31539577941E+03  0.31539577941E+03  0.00000000000E+00 0. -1.
         -4   -1    0    0    0  501 -0.00000000000E+00 -0.00000000000E+00 -0.17104683572E+04  0.17104683572E+04  0.00000000000E+00 0. -1.
        -13    1    1    2    0    0  0.33218192491E+03  0.21094319473E+03 -0.41061668684E+03  0.56872483445E+03  0.10566000000E+00 0.  1.
         13    1    1    2    0    0 -0.69028190414E+03 -0.14269223285E+03 -0.71317601390E+03  0.10027313790E+04  0.10566000000E+00 0. -1.
         -4    1    1    2    0  502  0.35809997923E+03 -0.68250961880E+02 -0.27127987704E+03  0.45440792314E+03  0.00000000000E+00 0. -1.
</event>
<event>
 5    1  0.2540860E-005  0.7311890E+02  0.7818608E-02  0.1251509E+00
         21   -1    0    0  501  502  0.00000000000E+00  0.00000000000E+00  0.11728419258E+03  0.11728419258E+03  0.00000000000E+00 0. -1.
          4   -1    0    0  502    0 -0.00000000000E+00 -0.00000000000E+00 -0.24634266088E+03  0.24634266088E+03  0.00000000000E+00 0.  1.
        -13    1    1    2    0    0 -0.69709861120E+02  0.61910366049E+02 -0.20592531444E+03  0.22604779241E+03  0.10566000000E+00 0.  1.
         13    1    1    2    0    0  0.36164247361E+02  0.11446413111E+01  0.49002333863E+02  0.60913076420E+02  0.10566000000E+00 0. -1.
          4    1    1    2  501    0  0.33545613759E+02 -0.63055007360E+02  0.27864512267E+02  0.76665984631E+02  0.00000000000E+00 0.  1.
</event>
<event>
 5    1  0.2540860E-005  0.2426152E+03  0.7818608E-02  0.1034292E+00
         -4   -1    0    0    0  501 -0.00000000000E+00  0.00000000000E+00  0.10215437690E+04  0.10215437690E+04  0.00000000000E+00 0. -1.
         21   -1    0    0  501  502  0.00000000000E+00 -0.00000000000E+00 -0.96562297723E+02  0.96562297723E+02  0.00000000000E+00 0. -1.
        -13    1    1    2    0    0 -0.10830441807E+03  0.21891268576E+03  0.49303983665E+03  0.55021895883E+03  0.10566000000E+00 0.  1.
         13    1    1    2    0    0  0.12396607479E+03 -0.20707519700E+03  0.46814983310E+03  0.52669915730E+03  0.10566000000E+00 0. -1.
         -4    1    1    2    0  502 -0.15661656714E+02 -0.11837488761E+02 -0.36208198512E+02  0.41187950552E+02  0.00000000000E+00 0. -1.
</event>
<event>
 5    1  0.2540860E-005  0.3339237E+03  0.7818608E-02  0.1022900E+00
         21   -1    0    0  501  502  0.00000000000E+00  0.00000000000E+00  0.11234690468E+04  0.11234690468E+04  0.00000000000E+00 0.  1.
          4   -1    0    0  502    0 -0.00000000000E+00 -0.00000000000E+00 -0.36625923529E+03  0.36625923529E+03  0.00000000000E+00 0.  1.
        -13    1    1    2    0    0 -0.16973738264E+03  0.20377389708E+03 -0.13054085933E+03  0.29559348321E+03  0.10566000000E+00 0.  1.
         13    1    1    2    0    0 -0.12897817003E+03 -0.30121070966E+02 -0.87997274666E+02  0.15901628462E+03  0.10566000000E+00 0. -1.
          4    1    1    2  501    0  0.29871555267E+03 -0.17365282611E+03  0.97574794552E+03  0.10351185143E+04  0.00000000000E+00 0.  1.
</event>
<event>
 5    1  0.2540860E-005  0.1565967E+03  0.7818608E-02  0.1094782E+00
         21   -1    0    0  501  502  0.00000000000E+00  0.00000000000E+00  0.53955676136E+03  0.53955676136E+03  0.00000000000E+00 0.  1.
         -4   -1    0    0    0  501 -0.00000000000E+00 -0.00000000000E+00 -0.88165625305E+02  0.88165625305E+02  0.00000000000E+00 0. -1.
        -13    1    1    2    0    0  0.15613415319E+02  0.14818824768E+03  0.16982937706E+03  0.22593265361E+03  0.10566000000E+00 0.  1.
         13    1    1    2    0    0 -0.13052438083E+02 -0.16021262345E+03  0.47793169059E+02  0.16769808891E+03  0.10566000000E+00 0. -1.
         -4    1    1    2    0  502 -0.25609772367E+01  0.12024375768E+02  0.23376858993E+03  0.23409164414E+03  0.00000000000E+00 0. -1.
</event>
<event>
 5    1  0.2540860E-005  0.3419143E+03  0.7818608E-02  0.9913677E-01
         21   -1    0    0  501  502  0.00000000000E+00  0.00000000000E+00  0.31262330118E+03  0.31262330118E+03  0.00000000000E+00 0. -1.
          4   -1    0    0  502    0 -0.00000000000E+00 -0.00000000000E+00 -0.46455919281E+03  0.46455919281E+03  0.00000000000E+00 0.  1.
        -13    1    1    2    0    0 -0.29697231851E+03  0.15830397169E+03  0.37918147037E+02  0.33865986248E+03  0.10566000000E+00 0.  1.
         13    1    1    2    0    0  0.31648172941E+03 -0.13749185076E+03 -0.20969185921E+03  0.40377639983E+03  0.10566000000E+00 0. -1.
          4    1    1    2  501    0 -0.19509410901E+02 -0.20812120937E+02  0.19837820544E+02  0.34746231674E+02  0.00000000000E+00 0.  1.
</event>
<event>
 5    1  0.2540860E-005  0.5181779E+03  0.7818608E-02  0.9549235E-01
          4   -1    0    0  502    0 -0.00000000000E+00  0.00000000000E+00  0.23478043468E+04  0.23478043468E+04  0.00000000000E+00 0.  1.
         21   -1    0    0  501  502  0.00000000000E+00 -0.00000000000E+00 -0.25513877628E+03  0.25513877628E+03  0.00000000000E+00 0.  1.
        -13    1    1    2    0    0 -0.54509090157E+03  0.26372818148E+02  0.89207590907E+03  0.10457624277E+04  0.10566000000E+00 0.  1.
         13    1    1    2    0    0  0.12891224868E+03  0.32215456563E+03  0.83081232356E+03  0.90036162743E+03  0.10566000000E+00 0. -1.
          4    1    1    2  501    0  0.41617865289E+03 -0.34852738378E+03  0.36977733788E+03  0.65681906792E+03  0.00000000000E+00 0.  1.
</event>
<event>
 5    1  0.2540860E-005  0.1080418E+03  0.7818608E-02  0.1151895E+00
         21   -1    0    0  501  502  0.00000000000E+00  0.00000000000E+00  0.36456857851E+03  0.36456857851E+03  0.00000000000E+00 0. -1.
          4   -1    0    0  502    0 -0.00000000000E+00 -0.00000000000E+00 -0.88870794694E+02  0.88870794694E+02  0.00000000000E+00 0.  1.
        -13    1    1    2    0    0 -0.18845798840E+02  0.12260082668E+03 -0.71690584244E+01  0.12424787080E+03  0.10566000000E+00 0.  1.
         13    1    1    2    0    0 -0.15313433806E+02 -0.84753270214E+02  0.72024601653E+02  0.11227275927E+03  0.10566000000E+00 0. -1.
          4    1    1    2  501    0  0.34159232646E+02 -0.37847556464E+02  0.21084224059E+03  0.21691874313E+03  0.00000000000E+00 0.  1.
</event>
<event>
 5    1  0.2540860E-005  0.3280566E+03  0.7818608E-02  0.1004098E+00
         21   -1    0    0  501  502  0.00000000000E+00  0.00000000000E+00  0.18493716017E+03  0.18493716017E+03  0.00000000000E+00 0.  1.
         -4   -1    0    0    0  501 -0.00000000000E+00 -0.00000000000E+00 -0.23004071515E+04  0.23004071515E+04  0.00000000000E+00 0. -1.
        -13    1    1    2    0    0 -0.19393120372E+03 -0.16488939632E+03 -0.60593325490E+03  0.65723127235E+03  0.10566000000E+00 0.  1.
         13    1    1    2    0    0 -0.17575047566E+02  0.41369805750E+03 -0.14344707417E+04  0.14930376034E+04  0.10566000000E+00 0. -1.
         -4    1    1    2    0  502  0.21150625128E+03 -0.24880866118E+03 -0.75065994711E+02  0.33507543594E+03  0.00000000000E+00 0. -1.
</event>
<event>
 5    1  0.2540860E-005  0.2776027E+03  0.7818608E-02  0.1026991E+00
         21   -1    0    0  501  502  0.00000000000E+00  0.00000000000E+00  0.10499748858E+03  0.10499748858E+03  0.00000000000E+00 0.  1.
          4   -1    0    0  502    0 -0.00000000000E+00 -0.00000000000E+00 -0.35657480823E+04  0.35657480823E+04  0.00000000000E+00 0.  1.
        -13    1    1    2    0    0 -0.20330136320E+03 -0.20296285980E+03 -0.15589415338E+03  0.32684608757E+03  0.10566000000E+00 0.  1.
         13    1    1    2    0    0 -0.33274361802E+02  0.20014265784E+03 -0.71412159275E+03  0.74238394853E+03  0.10566000000E+00 0. -1.
          4    1    1    2  501    0  0.23657572500E+03  0.28202019581E+01 -0.25907348476E+04  0.26015155348E+04  0.00000000000E+00 0.  1.
</event>
<event>
 5    1  0.2540860E-005  0.4858587E+03  0.7818608E-02  0.1010204E+00
         -4   -1    0    0    0  501 -0.00000000000E+00  0.00000000000E+00  0.94086212507E+03  0.94086212507E+03  0.00000000000E+00 0. -1.
         21   -1    0    0  501  502  0.00000000000E+00 -0.00000000000E+00 -0.38866669660E+03  0.38866669660E+03  0.00000000000E+00 0. -1.
        -13    1    1    2    0    0 -0.64310078526E+02  0.15258656552E+01  0.30289961761E+03  0.30965513718E+03  0.10566000000E+00 0.  1.
         13    1    1    2    0    0  0.26626755074E+03  0.42197226249E+03  0.24357937602E+02  0.49955211858E+03  0.10566000000E+00 0. -1.
         -4    1    1    2    0  502 -0.20195747221E+03 -0.42349812815E+03  0.22493787325E+03  0.52032156591E+03  0.00000000000E+00 0. -1.
</event>
<event>
 5    1  0.2540860E-005  0.3867275E+03  0.7818608E-02  0.9869475E-01
          4   -1    0    0  502    0 -0.00000000000E+00  0.00000000000E+00  0.19460798806E+04  0.19460798806E+04  0.00000000000E+00 0.  1.
         21   -1    0    0  501  502  0.00000000000E+00 -0.00000000000E+00 -0.24516327954E+03  0.24516327954E+03  0.00000000000E+00 0. -1.
        -13    1    1    2    0    0 -0.10398837977E+03 -0.27181809925E+03  0.14028697434E+04  0.14327394007E+04  0.10566000000E+00 0.  1.
         13    1    1    2    0    0  0.24237292342E+03 -0.12784056678E+03  0.10276088074E+03  0.29265620495E+03  0.10566000000E+00 0. -1.
          4    1    1    2  501    0 -0.13838454365E+03  0.39965866603E+03  0.19528597694E+03  0.46584755451E+03  0.00000000000E+00 0.  1.
</event>
<event>
 5    1  0.2540860E-005  0.2791788E+03  0.7818608E-02  0.1016290E+00
         21   -1    0    0  501  502  0.00000000000E+00  0.00000000000E+00  0.12069109663E+03  0.12069109663E+03  0.00000000000E+00 0.  1.
          4   -1    0    0  502    0 -0.00000000000E+00 -0.00000000000E+00 -0.22033090300E+04  0.22033090300E+04  0.00000000000E+00 0.  1.
        -13    1    1    2    0    0  0.43059413995E+03 -0.20855733989E+02 -0.50533004548E+03  0.66423244503E+03  0.10566000000E+00 0.  1.
         13    1    1    2    0    0 -0.23161482522E+03  0.11153207153E+03 -0.11655975343E+04  0.11936090035E+04  0.10566000000E+00 0. -1.
          4    1    1    2  501    0 -0.19897931473E+03 -0.90676337537E+02 -0.41169035360E+03  0.46615867806E+03  0.00000000000E+00 0.  1.
</event>
<event>
 5    1  0.2540860E-005  0.4966872E+03  0.7818608E-02  0.9892060E-01
         21   -1    0    0  501  502  0.00000000000E+00  0.00000000000E+00  0.14877268085E+04  0.14877268085E+04  0.00000000000E+00 0. -1.
         -4   -1    0    0    0  501 -0.00000000000E+00 -0.00000000000E+00 -0.28413823330E+03  0.28413823330E+03  0.00000000000E+00 0. -1.
        -13    1    1    2    0    0  0.76753467984E+02 -0.92110044343E+02 -0.80146715777E+02  0.14421810680E+03  0.10566000000E+00 0.  1.
         13    1    1    2    0    0  0.37594358900E+03  0.31986813939E+03  0.61495686993E+03  0.78855638463E+03  0.10566000000E+00 0. -1.
         -4    1    1    2    0  502 -0.45269705698E+03 -0.22775809504E+03  0.66877842108E+03  0.83909055040E+03  0.00000000000E+00 0. -1.
</event>
<event>
 5    1  0.2540860E-005  0.1115284E+03  0.7818608E-02  0.1146773E+00
          4   -1    0    0  502    0 -0.00000000000E+00  0.00000000000E+00  0.17840744845E+04  0.17840744845E+04  0.00000000000E+00 0.  1.
         21   -1    0    0  501  502  0.00000000000E+00 -0.00000000000E+00 -0.11519470349E+03  0.11519470349E+03  0.00000000000E+00 0.  1.
        -13    1    1    2    0    0  0.55321545971E+02  0.76958683548E+02 -0.67032319128E+02  0.11608813632E+03  0.10566000000E+00 0.  1.
         13    1    1    2    0    0  0.15465776972E+02 -0.12003394381E+03  0.13975751678E+03  0.18487702016E+03  0.10566000000E+00 0. -1.
          4    1    1    2  501    0 -0.70787322943E+02  0.43075260262E+02  0.15961545834E+04  0.15983040315E+04  0.00000000000E+00 0.  1.
</event>
<event>
 5    1  0.2540860E-005  0.2143096E+03  0.7818608E-02  0.1050745E+00
         21   -1    0    0  501  502  0.00000000000E+00  0.00000000000E+00  0.17035553633E+04  0.17035553633E+04  0.00000000000E+00 0. -1.
         -4   -1    0    0    0  501 -0.00000000000E+00 -0.00000000000E+00 -0.24722015248E+03  0.24722015248E+03  0.00000000000E+00 0. -1.
        -13    1    1    2    0    0  0.23862661442E+03 -0.10344961253E+01  0.53280488231E+03  0.58380200845E+03  0.10566000000E+00 0.  1.
         13    1    1    2    0    0 -0.21177851545E+03  0.12119236221E+02 -0.17074878017E+03  0.27230896531E+03  0.10566000000E+00 0. -1.
         -4    1    1    2    0  502 -0.26848098964E+02 -0.11084740096E+02  0.10942791087E+04  0.10946645421E+04  0.00000000000E+00 0. -1.
</event>
<event>
 5    1  0.2540860E-005  0.2447523E+03  0.7818608E-02  0.1034575E+00
          4   -1    0    0  502    0 -0.00000000000E+00  0.00000000000E+00  0.68479994313E+03  0.68479994313E+03  0.00000000000E+00 0.  1.
         21   -1    0    0  501  502  0.00000000000E+00 -0.00000000000E+00 -0.66384161409E+03  0.66384161409E+03  0.00000000000E+00 0.  1.
        -13    1    1    2    0    0  0.12811707747E+03  0.18521002060E+03 -0.43929372851E+03  0.49365547535E+03  0.10566000000E+00 0.  1.
         13    1    1    2    0    0  0.19535705686E+03  0.15626093654E+03  0.15755662703E+03  0.29564499292E+03  0.10566000000E+00 0. -1.
          4    1    1    2  501    0 -0.32347413433E+03 -0.34147095713E+03  0.30269543051E+03  0.55934108896E+03  0.00000000000E+00 0.  1.
</event>
<event>
 5    1  0.2540860E-005  0.4326276E+03  0.7818608E-02  0.9810919E-01
         21   -1    0    0  501  502  0.00000000000E+00  0.00000000000E+00  0.29642117896E+03  0.29642117896E+03  0.00000000000E+00 0. -1.
         -4   -1    0    0    0  501 -0.00000000000E+00 -0.00000000000E+00 -0.21595769815E+04  0.21595769815E+04  0.00000000000E+00 0. -1.
        -13    1    1    2    0    0  0.23863934302E+03 -0.29242585039E+01 -0.12613197777E+04  0.12836996846E+04  0.10566000000E+00 0.  1.
         13    1    1    2    0    0  0.10129319327E+03  0.33522205439E+03 -0.60255737517E+03  0.69692864648E+03  0.10566000000E+00 0. -1.
         -4    1    1    2    0  502 -0.33993253629E+03 -0.33229779588E+03  0.72135035133E+00  0.47536982942E+03  0.00000000000E+00 0. -1.
</event>
<event>
 5    1  0.2540860E-005  0.6002897E+02  0.7818608E-02  0.1277794E+00
         21   -1    0    0  501  502  0.00000000000E+00  0.00000000000E+00  0.48198954744E+02  0.48198954744E+02  0.00000000000E+00 0.  1.
          4   -1    0    0  502    0 -0.00000000000E+00 -0.00000000000E+00 -0.24367388050E+03  0.24367388050E+03  0.00000000000E+00 0.  1.
        -13    1    1    2    0    0  0.26671797639E+02 -0.34646004168E+02 -0.16151413106E+03  0.16732769075E+03  0.10566000000E+00 0.  1.
         13    1    1    2    0    0  0.37010218797E+02  0.92623483865E+01  0.14260381872E+02  0.40729805404E+02  0.10566000000E+00 0. -1.
          4    1    1    2  501    0 -0.63682016436E+02  0.25383655781E+02 -0.48221176569E+02  0.83815339097E+02  0.00000000000E+00 0.  1.
</event>
<event>
 5    1  0.2540860E-005  0.5042072E+03  0.7818608E-02  0.9675069E-01
         21   -1    0    0  501  502  0.00000000000E+00  0.00000000000E+00  0.43468685339E+03  0.43468685339E+03  0.00000000000E+00 0. -1.
         -4   -1    0    0    0  501 -0.00000000000E+00 -0.00000000000E+00 -0.14292986313E+04  0.14292986313E+04  0.00000000000E+00 0. -1.
        -13    1    1    2    0    0 -0.23900975792E+03 -0.30929704747E+02 -0.76421385856E+03  0.80131463471E+03  0.10566000000E+00 0.  1.
         13    1    1    2    0    0 -0.12707170221E+03 -0.42714815033E+03 -0.15308083443E+03  0.47120750510E+03  0.10566000000E+00 0. -1.
         -4    1    1    2    0  502  0.36608146013E+03  0.45807785508E+03 -0.77317084965E+02  0.59146334492E+03  0.00000000000E+00 0. -1.
</event>
<event>
 5    1  0.2540860E-005  0.4897716E+03  0.7818608E-02  0.9500677E-01
         21   -1    0    0  501  502  0.00000000000E+00  0.00000000000E+00  0.35144603078E+03  0.35144603078E+03  0.00000000000E+00 0.  1.
         -4   -1    0    0    0  501 -0.00000000000E+00 -0.00000000000E+00 -0.16440862693E+04  0.16440862693E+04  0.00000000000E+00 0. -1.
        -13    1    1    2    0    0  0.42410604309E+03 -0.19260046844E+03 -0.47286915944E+03  0.66375155694E+03  0.10566000000E+00 0.  1.
         13    1    1    2    0    0 -0.54547119208E+03 -0.10878564076E+03 -0.83864388877E+03  0.10063283363E+04  0.10566000000E+00 0. -1.
         -4    1    1    2    0  502  0.12136514898E+03  0.30138610920E+03  0.18872809677E+02  0.32545240689E+03  0.00000000000E+00 0. -1.
</event>
<event>
 5    1  0.2540860E-005  0.4616096E+03  0.7818608E-02  0.9698276E-01
          4   -1    0    0  502    0 -0.00000000000E+00  0.00000000000E+00  0.16384723383E+04  0.16384723383E+04  0.00000000000E+00 0.  1.
         21   -1    0    0  501  502  0.00000000000E+00 -0.00000000000E+00 -0.27843909511E+03  0.27843909511E+03  0.00000000000E+00 0.  1.
        -13    1    1    2    0    0  0.37353020054E+03  0.37525762081E+03  0.16380130817E+03  0.55423277818E+03  0.10566000000E+00 0.  1.
         13    1    1    2    0    0 -0.28330856642E+03 -0.60129960641E+02  0.34460203932E+03  0.45014434645E+03  0.10566000000E+00 0. -1.
          4    1    1    2  501    0 -0.90221634115E+02 -0.31512766016E+03  0.85162989574E+03  0.91253430882E+03  0.00000000000E+00 0.  1.
</event>
<event>
 5    1  0.2540860E-005  0.6627054E+02  0.7818608E-02  0.1284097E+00
          4   -1    0    0  502    0 -0.00000000000E+00  0.00000000000E+00  0.96133887636E+02  0.96133887636E+02  0.00000000000E+00 0.  1.
         21   -1    0    0  501  502  0.00000000000E+00 -0.00000000000E+00 -0.83791344382E+02  0.83791344382E+02  0.00000000000E+00 0.  1.
        -13    1    1    2    0    0  0.29554356243E+02  0.53890470570E+02 -0.87894386862E+01  0.62087906935E+02  0.10566000000E+00 0.  1.
         13    1    1    2    0    0 -0.16627657646E+02  0.18668763133E+02  0.34829926853E+02  0.42873496292E+02  0.10566000000E+00 0. -1.
          4    1    1    2  501    0 -0.12926698597E+02 -0.72559233702E+02 -0.13697944913E+02  0.74963828790E+02  0.00000000000E+00 0.  1.
</event>
<event>
 5    1  0.2540860E-005  0.4615689E+03  0.7818608E-02  0.9761327E-01
         21   -1    0    0  501  502  0.00000000000E+00  0.00000000000E+00  0.11925641655E+04  0.11925641655E+04  0.00000000000E+00 0.  1.
          4   -1    0    0  502    0 -0.00000000000E+00 -0.00000000000E+00 -0.35479951796E+03  0.35479951796E+03  0.00000000000E+00 0.  1.
        -13    1    1    2    0    0 -0.29197604615E+03  0.19629408102E+03  0.17005499735E+01  0.35182990322E+03  0.10566000000E+00 0.  1.
         13    1    1    2    0    0  0.24820186408E+01  0.23287179272E+03  0.26202690004E+02  0.23435448446E+03  0.10566000000E+00 0. -1.
          4    1    1    2  501    0  0.28949402751E+03 -0.42916587374E+03  0.80986140755E+03  0.96117929575E+03  0.00000000000E+00 0.  1.
</event>
<event>
 5    1  0.2540860E-005  0.4356258E+03  0.7818608E-02  0.9652230E-01
          4   -1    0    0  502    0 -0.00000000000E+00  0.00000000000E+00  0.82374590029E+03  0.82374590029E+03  0.00000000000E+00 0.  1.
         21   -1    0    0  501  502  0.00000000000E+00 -0.00000000000E+00 -0.73259012230E+03  0.73259012230E+03  0.00000000000E+00 0.  1.
        -13    1    1    2    0    0  0.34075769072E+03 -0.13639956047E+03 -0.14600995022E+03  0.39501843072E+03  0.10566000000E+00 0.  1.
         13    1    1    2    0    0  0.71064013419E+01 -0.45181302374E+03  0.12459176099E+03  0.46873086887E+03  0.10566000000E+00 0. -1.
          4    1    1    2  501    0 -0.34786409206E+03  0.58821258421E+03  0.11257396722E+03  0.69258672299E+03  0.00000000000E+00 0.  1.
</event>
<event>
 5    1  0.2540860E-005  0.4720686E+03  0.7818608E-02  0.9941268E-01
         21   -1    0    0  501  502  0.00000000000E+00  0.00000000000E+00  0.95167916310E+03  0.95167916310E+03  0.00000000000E+00 0. -1.
         -4   -1    0    0    0  501 -0.00000000000E+00 -0.00000000000E+00 -0.57740276868E+03  0.57740276868E+03  0.00000000000E+00 0. -1.
        -13    1    1    2    0    0  0.11834770632E+03  0.63878049477E+01 -0.30935285628E+03  0.33127961679E+03  0.10566000000E+00 0.  1.
         13    1    1    2    0    0 -0.24115073907E+02  0.46539005187E+03  0.17526690756E+03  0.49788345746E+03  0.10566000000E+00 0. -1.
         -4    1    1    2    0  502 -0.94232632415E+02 -0.47177785681E+03  0.50836234315E+03  0.69991885753E+03  0.00000000000E+00 0. -1.
</event>
<event>
 5    1  0.2540860E-005  0.1055376E+03  0.7818608E-02  0.1155705E+00
         21   -1    0    0  501  502  0.00000000000E+00  0.00000000000E+00  0.17261986311E+03  0.17261986311E+03  0.00000000000E+00 0.  1.
         -4   -1    0    0    0  501 -0.00000000000E+00 -0.00000000000E+00 -0.30854868909E+03  0.30854868909E+03  0.00000000000E+00 0. -1.
        -13    1    1    2    0    0 -0.17386408586E+01  0.96100219219E+02  0.13318357153E+03  0.16424417766E+03  0.10566000000E+00 0.  1.
         13    1    1    2    0    0 -0.14341869040E+02 -0.10525840385E+03 -0.27710270454E+03  0.29676748612E+03  0.10566000000E+00 0. -1.
         -4    1    1    2    0  502  0.16080509899E+02  0.91581846276E+01  0.79903070433E+01  0.20156888424E+02  0.00000000000E+00 0. -1.
</event>
<event>
 5    1  0.2540860E-005  0.1171483E+03  0.7818608E-02  0.1180389E+00
         -4   -1    0    0    0  501 -0.00000000000E+00  0.00000000000E+00  0.19871094255E+03  0.19871094255E+03  0.00000000000E+00 0. -1.
         21   -1    0    0  501  502  0.00000000000E+00 -0.00000000000E+00 -0.43131816618E+03  0.43131816618E+03  0.00000000000E+00 0. -1.
        -13    1    1    2    0    0 -0.24296830687E+02  0.35035392895E+02 -0.49393910359E+02  0.65250166907E+02  0.10566000000E+00 0.  1.
         13    1    1    2    0    0 -0.78080521253E+02 -0.92365147935E+02  0.16085599085E+03  0.20125245168E+03  0.10566000000E+00 0. -1.
         -4    1    1    2    0  502  0.10237735194E+03  0.57329755040E+02 -0.34406930412E+03  0.36352649015E+03  0.00000000000E+00 0. -1.
</event>
<event>
 5    1  0.2540860E-005  0.2972745E+03  0.7818608E-02  0.1008437E+00
         -4   -1    0    0    0  501 -0.00000000000E+00  0.00000000000E+00  0.14815413301E+04  0.14815413301E+04  0.00000000000E+00 0. -1.
         21   -1    0    0  501  502  0.00000000000E+00 -0.00000000000E+00 -0.11553476060E+03  0.11553476060E+03  0.00000000000E+00 0.  1.
        -13    1    1    2    0    0 -0.74001781182E+01 -0.30053469486E+03  0.86765412603E+03  0.91825898255E+03  0.10566000000E+00 0.  1.
         13    1    1    2    0    0  0.14063137982E+02  0.29216664313E+03  0.55167980315E+03  0.62442752628E+03  0.10566000000E+00 0. -1.
         -4    1    1    2    0  502 -0.66629598642E+01  0.83680517338E+01 -0.53327359684E+02  0.54389581859E+02  0.00000000000E+00 0. -1.
</event>
<event>
 5    1  0.2540860E-005  0.4590300E+03  0.7818608E-02  0.9895181E-01
          4   -1    0    0  502    0 -0.00000000000E+00  0.00000000000E+00  0.28467730362E+03  0.28467730362E+03  0.00000000000E+00 0.  1.
         21   -1    0    0  501  502  0.00000000000E+00 -0.00000000000E+00 -0.12489454240E+04  0.12489454240E+04  0.00000000000E+00 0.  1.
        -13    1    1    2    0    0  0.25076159465E+03  0.40731820705E+03 -0.24866419213E+03  0.53909497378E+03  0.10566000000E+00 0.  1.
         13    1    1    2    0    0  0.99478408567E+02 -0.11268423268E+03 -0.63830395860E+01  0.15044748062E+03  0.10566000000E+00 0. -1.
          4    1    1    2  501    0 -0.35024000322E+03 -0.29463397437E+03 -0.70922088862E+03  0.84408027317E+03  0.00000000000E+00 0.  1.
</event>
<event>
 5    1  0.2540860E-005  0.7011281E+03  0.7818608E-02  0.9121343E-01
          4   -1    0    0  502    0 -0.00000000000E+00  0.00000000000E+00  0.10754546646E+04  0.10754546646E+04  0.00000000000E+00 0.  1.
         21   -1    0    0  501  502  0.00000000000E+00 -0.00000000000E+00 -0.82021444688E+03  0.82021444688E+03  0.00000000000E+00 0. -1.
        -13    1    1    2    0    0  0.54617202781E+03 -0.54959921552E+03  0.32091903401E+03  0.83866096798E+03  0.10566000000E+00 0.  1.
         13    1    1    2    0    0 -0.19914119277E+03  0.63065496540E+03  0.91250274170E+02  0.66761480192E+03  0.10566000000E+00 0. -1.
          4    1    1    2  501    0 -0.34703083504E+03 -0.81055749879E+02 -0.15692909044E+03  0.38939334160E+03  0.00000000000E+00 0.  1.
</event>
<event>
 5    1  0.2540860E-005  0.5087883E+03  0.7818608E-02  0.9458915E-01
         -4   -1    0    0    0  501 -0.00000000000E+00  0.00000000000E+00  0.19779150743E+04  0.19779150743E+04  0.00000000000E+00 0. -1.
         21   -1    0    0  501  502  0.00000000000E+00 -0.00000000000E+00 -0.32236114061E+03  0.32236114061E+03  0.00000000000E+00 0. -1.
        -13    1    1    2    0    0 -0.13561384826E+03 -0.44080902167E+03  0.68713499387E+03  0.82756161123E+03  0.10566000000E+00 0.  1.
         13    1    1    2    0    0 -0.17289479409E+03  0.60069235114E+03  0.93354743562E+03  0.11234922057E+04  0.10566000000E+00 0. -1.
         -4    1    1    2    0  502  0.30850864235E+03 -0.15988332947E+03  0.34871504204E+02  0.34922239798E+03  0.00000000000E+00 0. -1.
</event>
<event>
 5    1  0.2540860E-005  0.3926954E+03  0.7818608E-02  0.9905047E-01
          4   -1    0    0  502    0 -0.00000000000E+00  0.00000000000E+00  0.35421176895E+03  0.35421176895E+03  0.00000000000E+00 0.  1.
         21   -1    0    0  501  502  0.00000000000E+00 -0.00000000000E+00 -0.11912806524E+04  0.11912806524E+04  0.00000000000E+00 0.  1.
        -13    1    1    2    0    0 -0.20417989680E+03 -0.36374071417E+02  0.12899412410E+03  0.24423758627E+03  0.10566000000E+00 0.  1.
         13    1    1    2    0    0 -0.22902563433E+03 -0.38757541880E+02  0.81473859584E+01  0.23242478202E+03  0.10566000000E+00 0. -1.
          4    1    1    2  501    0  0.43320553113E+03  0.75131613297E+02 -0.97421039352E+03  0.10688300531E+04  0.00000000000E+00 0.  1.
</event>
<event>
 5    1  0.2540860E-005  0.4189283E+03  0.7818608E-02  0.9947798E-01
          4   -1    0    0  502    0 -0.00000000000E+00  0.00000000000E+00  0.41653606468E+03  0.41653606468E+03  0.00000000000E+00 0.  1.
         21   -1    0    0  501  502  0.00000000000E+00 -0.00000000000E+00 -0.80994093846E+03  0.80994093846E+03  0.00000000000E+00 0.  1.
        -13    1    1    2    0    0  0.40941409427E+03 -0.33306185773E+02  0.95160079423E+02  0.42164517604E+03  0.10566000000E+00 0.  1.
         13    1    1    2    0    0 -0.27834362961E+02 -0.16360250248E+03 -0.16623195498E+02  0.16678390922E+03  0.10566000000E+00 0. -1.
          4    1    1    2  501    0 -0.38157973131E+03  0.19690868826E+03 -0.47194175770E+03  0.63804791789E+03  0.00000000000E+00 0.  1.
</event>
<event>
 5    1  0.2540860E-005  0.4975729E+03  0.7818608E-02  0.9754665E-01
         21   -1    0    0  501  502  0.00000000000E+00  0.00000000000E+00  0.16827556396E+03  0.16827556396E+03  0.00000000000E+00 0. -1.
          4   -1    0    0  502    0 -0.00000000000E+00 -0.00000000000E+00 -0.28241918365E+04  0.28241918365E+04  0.00000000000E+00 0.  1.
        -13    1    1    2    0    0 -0.58057824690E+02 -0.40543530228E+03 -0.14908250711E+04  0.15460620618E+04  0.10566000000E+00 0.  1.
         13    1    1    2    0    0 -0.13892887498E+03 -0.12992259992E+03 -0.54484896939E+02  0.19786290565E+03  0.10566000000E+00 0. -1.
          4    1    1    2  501    0  0.19698669967E+03  0.53535790221E+03 -0.11106063046E+04  0.12485424330E+04  0.00000000000E+00 0.  1.
</event>
<event>
 5    1  0.2540860E-005  0.2141452E+03  0.7818608E-02  0.1100033E+00
         -4   -1    0    0    0  501 -0.00000000000E+00  0.00000000000E+00  0.73521740631E+03  0.73521740631E+03  0.00000000000E+00 0. -1.
         21   -1    0    0  501  502  0.00000000000E+00 -0.00000000000E+00 -0.11717909888E+04  0.11717909888E+04  0.00000000000E+00 0. -1.
        -13    1    1    2    0    0  0.22930148581E+03 -0.41311886242E+03  0.33229355826E+03  0.57763776357E+03  0.10566000000E+00 0.  1.
         13    1    1    2    0    0 -0.91888361132E+02  0.55250676285E+01  0.22679771804E+03  0.24476767220E+03  0.10566000000E+00 0. -1.
         -4    1    1    2    0  502 -0.13741312467E+03  0.40759379479E+03 -0.99566485882E+03  0.10846029594E+04  0.00000000000E+00 0. -1.
</event>
<event>
 5    1  0.2540860E-005  0.4075143E+03  0.7818608E-02  0.1000345E+00
         -4   -1    0    0    0  501 -0.00000000000E+00  0.00000000000E+00  0.47623565901E+03  0.47623565901E+03  0.00000000000E+00 0. -1.
         21   -1    0    0  501  502  0.00000000000E+00 -0.00000000000E+00 -0.55346543668E+03  0.55346543668E+03  0.00000000000E+00 0. -1.
        -13    1    1    2    0    0  0.30858056212E+02 -0.14688634792E+03  0.10203223333E+03  0.18148941193E+03  0.10566000000E+00 0.  1.
         13    1    1    2    0    0 -0.35425897349E+03  0.30257601241E+03 -0.14361127558E+03  0.48752012597E+03  0.10566000000E+00 0. -1.
         -4    1    1    2    0  502  0.32340091728E+03 -0.15568966450E+03 -0.35650735426E+02  0.36069155780E+03  0.00000000000E+00 0. -1.
</event>
<event>
 5    1  0.2540860E-005  0.4206879E+03  0.7818608E-02  0.9861354E-01
         21   -1    0    0  501  502  0.00000000000E+00  0.00000000000E+00  0.64891500209E+03  0.64891500209E+03  0.00000000000E+00 0. -1.
         -4   -1    0    0    0  501 -0.00000000000E+00 -0.00000000000E+00 -0.77962101979E+03  0.77962101979E+03  0.00000000000E+00 0. -1.
        -13    1    1    2    0    0  0.19859275535E+03  0.91784988771E+02 -0.33198509786E+03  0.39758984269E+03  0.10566000000E+00 0.  1.
         13    1    1    2    0    0  0.13149616350E+03 -0.40266241955E+03  0.35446442564E+03  0.55233441441E+03  0.10566000000E+00 0. -1.
         -4    1    1    2    0  502 -0.33008891886E+03  0.31087743078E+03 -0.15318534548E+03  0.47861176479E+03  0.00000000000E+00 0. -1.
</event>
<event>
 5    1  0.2540860E-005  0.3952172E+03  0.7818608E-02  0.1035204E+00
         21   -1    0    0  501  502  0.00000000000E+00  0.00000000000E+00  0.92875173946E+03  0.92875173946E+03  0.00000000000E+00 0.  1.
          4   -1    0    0  502    0 -0.00000000000E+00 -0.00000000000E+00 -0.36573548837E+03  0.36573548837E+03  0.00000000000E+00 0.  1.
        -13    1    1    2    0    0 -0.18305386702E+02  0.38453806550E+03  0.65078229869E+03  0.75612315297E+03  0.10566000000E+00 0.  1.
         13    1    1    2    0    0  0.95448136814E+01  0.53740560841E+02 -0.83766154000E+02  0.99979653269E+02  0.10566000000E+00 0. -1.
          4    1    1    2  501    0  0.87605730205E+01 -0.43827862634E+03 -0.39998936067E+01  0.43838442159E+03  0.00000000000E+00 0.  1.
</event>
<event>
 5    1  0.2540860E-005  0.9680772E+02  0.7818608E-02  0.1169948E+00
         21   -1    0    0  501  502  0.00000000000E+00  0.00000000000E+00  0.45516421875E+03  0.45516421875E+03  0.00000000000E+00 0.  1.
         -4   -1    0    0    0  501 -0.00000000000E+00 -0.00000000000E+00 -0.97850387989E+02  0.97850387989E+02  0.00000000000E+00 0. -1.
        -13    1    1    2    0    0  0.68547481088E+02  0.21097688630E+02  0.35626891567E+03  0.36341631921E+03  0.10566000000E+00 0.  1.
         13    1    1    2    0    0 -0.98229290684E+02 -0.10401295291E+02 -0.63726692589E+02  0.11755119312E+03  0.10566000000E+00 0. -1.
         -4    1    1    2    0  502  0.29681809596E+02 -0.10696393339E+02  0.64771607678E+02  0.72047094407E+02  0.00000000000E+00 0. -1.
</event>
<event>
 5    1  0.2540860E-005  0.2839184E+03  0.7818608E-02  0.1027998E+00
         21   -1    0    0  501  502  0.00000000000E+00  0.00000000000E+00  0.90657940991E+03  0.90657940991E+03  0.00000000000E+00 0. -1.
         -4   -1    0    0    0  501 -0.00000000000E+00 -0.00000000000E+00 -0.42589818045E+03  0.42589818045E+03  0.00000000000E+00 0. -1.
        -13    1    1    2    0    0  0.61514803028E+02  0.17321212447E+03 -0.50301851884E+02  0.19056966842E+03  0.10566000000E+00 0.  1.
         13    1    1    2    0    0  0.13052816330E+03 -0.26472375955E+03  0.76839355403E+03  0.82313117747E+03  0.10566000000E+00 0. -1.
         -4    1    1    2    0  502 -0.19204296633E+03  0.91511635079E+02 -0.23741047269E+03  0.31877674447E+03  0.00000000000E+00 0. -1.
</event>
<event>
 5    1  0.2540860E-005  0.4056914E+03  0.7818608E-02  0.9712751E-01
         21   -1    0    0  501  502  0.00000000000E+00  0.00000000000E+00  0.11399794649E+04  0.11399794649E+04  0.00000000000E+00 0. -1.
          4   -1    0    0  502    0 -0.00000000000E+00 -0.00000000000E+00 -0.16794563459E+03  0.16794563459E+03  0.00000000000E+00 0.  1.
        -13    1    1    2    0    0 -0.34679760013E+03  0.24106028373E+03  0.44954567427E+03  0.61682247063E+03  0.10566000000E+00 0.  1.
         13    1    1    2    0    0  0.30617908291E+03 -0.24377307576E+03  0.39004812080E+03  0.55254727489E+03  0.10566000000E+00 0. -1.
          4    1    1    2  501    0  0.40618517221E+02  0.27127920303E+01  0.13244003525E+03  0.13855535399E+03  0.00000000000E+00 0.  1.
</event>
<event>
 5    1  0.2540860E-005  0.5110513E+02  0.7818608E-02  0.1287354E+00
          4   -1    0    0  502    0 -0.00000000000E+00  0.00000000000E+00  0.10977635378E+03  0.10977635378E+03  0.00000000000E+00 0.  1.
         21   -1    0    0  501  502  0.00000000000E+00 -0.00000000000E+00 -0.16179506599E+03  0.16179506599E+03  0.00000000000E+00 0.  1.
        -13    1    1    2    0    0 -0.51322946388E+02 -0.14515956778E+02  0.94159324237E+02  0.10821620642E+03  0.10566000000E+00 0.  1.
         13    1    1    2    0    0  0.37415819026E+02  0.28320667820E+01 -0.37072044143E+02  0.52747623043E+02  0.10566000000E+00 0. -1.
          4    1    1    2  501    0  0.13907127362E+02  0.11683889996E+02 -0.10910599231E+03  0.11060759031E+03  0.00000000000E+00 0.  1.
</event>
<event>
 5    1  0.2540860E-005  0.4542106E+03  0.7818608E-02  0.1009718E+00
         21   -1    0    0  501  502  0.00000000000E+00  0.00000000000E+00  0.14808989141E+04  0.14808989141E+04  0.00000000000E+00 0.  1.
          4   -1    0    0  502    0 -0.00000000000E+00 -0.00000000000E+00 -0.23412493564E+03  0.23412493564E+03  0.00000000000E+00 0.  1.
        -13    1    1    2    0    0 -0.13830983658E+03 -0.38059040914E+03  0.18938990342E+03  0.44704274640E+03  0.10566000000E+00 0.  1.
         13    1    1    2    0    0  0.18826376112E+02 -0.77726027974E+02 -0.27213482259E+02  0.84476935567E+02  0.10566000000E+00 0. -1.
          4    1    1    2  501    0  0.11948346047E+03  0.45831643711E+03  0.10845975573E+04  0.11835041678E+04  0.00000000000E+00 0.  1.
</event>
<event>
 5    1  0.2540860E-005  0.1913991E+03  0.7818608E-02  0.1066198E+00
          4   -1    0    0  502    0 -0.00000000000E+00  0.00000000000E+00  0.26375423019E+03  0.26375423019E+03  0.00000000000E+00 0.  1.
         21   -1    0    0  501  502  0.00000000000E+00 -0.00000000000E+00 -0.27237736645E+03  0.27237736645E+03  0.00000000000E+00 0.  1.
        -13    1    1    2    0    0  0.17266003310E+03 -0.65959868097E+02  0.13617749597E+03  0.22957899033E+03  0.10566000000E+00 0.  1.
         13    1    1    2    0    0 -0.19090896217E+03  0.93390622789E+02 -0.68257363735E+02  0.22321988964E+03  0.10566000000E+00 0. -1.
          4    1    1    2  501    0  0.18248929071E+02 -0.27430754692E+02 -0.76543268500E+02  0.83332716672E+02  0.00000000000E+00 0.  1.
</event>
<event>
 5    1  0.2540860E-005  0.1352842E+03  0.7818608E-02  0.1116606E+00
          4   -1    0    0  502    0 -0.00000000000E+00  0.00000000000E+00  0.18346292647E+03  0.18346292647E+03  0.00000000000E+00 0.  1.
         21   -1    0    0  501  502  0.00000000000E+00 -0.00000000000E+00 -0.27339270753E+03  0.27339270753E+03  0.00000000000E+00 0.  1.
        -13    1    1    2    0    0 -0.12394833211E+03 -0.80856977850E+02  0.12091366450E+03  0.19110511591E+03  0.10566000000E+00 0.  1.
         13    1    1    2    0    0  0.56983454995E+02  0.74451831523E+02 -0.11008063930E+03  0.14459580794E+03  0.10566000000E+00 0. -1.
          4    1    1    2  501    0  0.66964877114E+02  0.64051463263E+01 -0.10076280626E+03  0.12115471015E+03  0.00000000000E+00 0.  1.
</event>
<event>
 5    1  0.2540860E-005  0.4289902E+03  0.7818608E-02  0.9648872E-01
         21   -1    0    0  501  502  0.00000000000E+00  0.00000000000E+00  0.23689881476E+03  0.23689881476E+03  0.00000000000E+00 0.  1.
          4   -1    0    0  502    0 -0.00000000000E+00 -0.00000000000E+00 -0.20772901076E+04  0.20772901076E+04  0.00000000000E+00 0.  1.
        -13    1    1    2    0    0  0.38363655868E+03 -0.52815874031E+03 -0.82296057894E+03  0.10504250520E+04  0.10566000000E+00 0.  1.
         13    1    1    2    0    0 -0.99358704598E+02  0.34397190018E+03 -0.75388430638E+03  0.83458395555E+03  0.10566000000E+00 0. -1.
          4    1    1    2  501    0 -0.28427785408E+03  0.18418684012E+03 -0.26354640749E+03  0.42917991483E+03  0.00000000000E+00 0.  1.
</event>
<event>
 5    1  0.2540860E-005  0.8967641E+02  0.7818608E-02  0.1182868E+00
         21   -1    0    0  501  502  0.00000000000E+00  0.00000000000E+00  0.54041960251E+03  0.54041960251E+03  0.00000000000E+00 0. -1.
         -4   -1    0    0    0  501 -0.00000000000E+00 -0.00000000000E+00 -0.25448036883E+03  0.25448036883E+03  0.00000000000E+00 0. -1.
        -13    1    1    2    0    0  0.20849347203E+02 -0.10875475042E+03  0.22302396797E+03  0.24900199291E+03  0.10566000000E+00 0.  1.
         13    1    1    2    0    0 -0.46045623260E+02  0.76358826466E+02 -0.23178960002E+03  0.24834914866E+03  0.10566000000E+00 0. -1.
         -4    1    1    2    0  502  0.25196276057E+02  0.32395923954E+02  0.29470486573E+03  0.29754882977E+03  0.00000000000E+00 0. -1.
</event>
<event>
 5    1  0.2540860E-005  0.2132463E+03  0.7818608E-02  0.1055372E+00
         -4   -1    0    0    0  501 -0.00000000000E+00  0.00000000000E+00  0.69037776177E+03  0.69037776177E+03  0.00000000000E+00 0. -1.
         21   -1    0    0  501  502  0.00000000000E+00 -0.00000000000E+00 -0.53258475288E+03  0.53258475288E+03  0.00000000000E+00 0. -1.
        -13    1    1    2    0    0  0.91559461261E+02 -0.16616026789E+03  0.54882247868E+02  0.19749542239E+03  0.10566000000E+00 0.  1.
         13    1    1    2    0    0  0.93601825165E+02  0.27132019662E+03  0.49906505062E+03  0.57570989802E+03  0.10566000000E+00 0. -1.
         -4    1    1    2    0  502 -0.18516128643E+03 -0.10515992874E+03 -0.39615428959E+03  0.44975719423E+03  0.00000000000E+00 0. -1.
</event>
<event>
 5    1  0.2540860E-005  0.3560410E+03  0.7818608E-02  0.1017455E+00
         21   -1    0    0  501  502  0.00000000000E+00  0.00000000000E+00  0.19361212156E+03  0.19361212156E+03  0.00000000000E+00 0.  1.
          4   -1    0    0  502    0 -0.00000000000E+00 -0.00000000000E+00 -0.15977560376E+04  0.15977560376E+04  0.00000000000E+00 0.  1.
        -13    1    1    2    0    0  0.39727849329E+03  0.11619143061E+03 -0.10254899174E+04  0.11058753237E+04  0.10566000000E+00 0.  1.
         13    1    1    2    0    0 -0.50027951834E+02 -0.11967744898E+03 -0.30368132545E+03  0.33022393364E+03  0.10566000000E+00 0. -1.
          4    1    1    2  501    0 -0.34725054146E+03  0.34860183686E+01 -0.74972673222E+02  0.35526890181E+03  0.00000000000E+00 0.  1.
</event>
<event>
 5    1  0.2540860E-005  0.4591377E+03  0.7818608E-02  0.9927747E-01
         21   -1    0    0  501  502  0.00000000000E+00  0.00000000000E+00  0.13146271757E+03  0.13146271757E+03  0.00000000000E+00 0. -1.
         -4   -1    0    0    0  501 -0.00000000000E+00 -0.00000000000E+00 -0.23153663355E+04  0.23153663355E+04  0.00000000000E+00 0. -1.
        -13    1    1    2    0    0 -0.12445863061E+03 -0.51612838147E+02 -0.36462469518E+03  0.38872228556E+03  0.10566000000E+00 0.  1.
         13    1    1    2    0    0 -0.13081838055E+03 -0.40496109465E+03 -0.64697517149E+03  0.77439254939E+03  0.10566000000E+00 0. -1.
         -4    1    1    2    0  502  0.25527701115E+03  0.45657393280E+03 -0.11723037512E+04  0.12837142181E+04  0.00000000000E+00 0. -1.
</event>
<event>
 5    1  0.2540860E-005  0.7434039E+02  0.7818608E-02  0.1215779E+00
          4   -1    0    0  502    0 -0.00000000000E+00  0.00000000000E+00  0.53403891349E+03  0.53403891349E+03  0.00000000000E+00 0.  1.
         21   -1    0    0  501  502  0.00000000000E+00 -0.00000000000E+00 -0.15507753249E+02  0.15507753249E+02  0.00000000000E+00 0. -1.
        -13    1    1    2    0    0  0.50998331788E+02  0.42552019444E+02  0.15582692900E+03  0.16939169746E+03  0.10566000000E+00 0.  1.
         13    1    1    2    0    0 -0.55363768282E+02 -0.57313679887E+02  0.35316886737E+03  0.36204732396E+03  0.10566000000E+00 0. -1.
          4    1    1    2  501    0  0.43654364940E+01  0.14761660443E+02  0.95353638664E+01  0.18107645316E+02  0.00000000000E+00 0.  1.
</event>
<event>
 5    1  0.2540860E-005  0.9157648E+02  0.7818608E-02  0.1223277E+00
         21   -1    0    0  501  502  0.00000000000E+00  0.00000000000E+00  0.13148185229E+03  0.13148185229E+03  0.00000000000E+00 0.  1.
          4   -1    0    0  502    0 -0.00000000000E+00 -0.00000000000E+00 -0.25272774264E+03  0.25272774264E+03  0.00000000000E+00 0.  1.
        -13    1    1    2    0    0  0.25986187179E+02 -0.80458597680E+02 -0.20765388240E+03  0.22420752419E+03  0.10566000000E+00 0.  1.
         13    1    1    2    0    0 -0.31457620361E+02 -0.12116288866E+02  0.68904828743E+00  0.33717536776E+02  0.10566000000E+00 0. -1.
          4    1    1    2  501    0  0.54714331820E+01  0.92574886546E+02  0.85718943755E+02  0.12628453396E+03  0.00000000000E+00 0.  1.
</event>
<event>
 5    1  0.2540860E-005  0.5881896E+02  0.7818608E-02  0.1259537E+00
         21   -1    0    0  501  502  0.00000000000E+00  0.00000000000E+00  0.81426438634E+02  0.81426438634E+02  0.00000000000E+00 0.  1.
         -4   -1    0    0    0  501 -0.00000000000E+00 -0.00000000000E+00 -0.10880714917E+03  0.10880714917E+03  0.00000000000E+00 0. -1.
        -13    1    1    2    0    0  0.18003796400E+02  0.75887470998E+02 -0.17080532594E+02  0.79842349019E+02  0.10566000000E+00 0.  1.
         13    1    1    2    0    0  0.14198179409E+02 -0.50831694716E+02 -0.34405040241E+02  0.63001328908E+02  0.10566000000E+00 0. -1.
         -4    1    1    2    0  502 -0.32201975809E+02 -0.25055776282E+02  0.24104862303E+02  0.47389909873E+02  0.00000000000E+00 0. -1.
</event>
<event>
 5    1  0.2540860E-005  0.5044260E+03  0.7818608E-02  0.9619549E-01
         21   -1    0    0  501  502  0.00000000000E+00  0.00000000000E+00  0.17772942163E+03  0.17772942163E+03  0.00000000000E+00 0. -1.
         -4   -1    0    0    0  501 -0.00000000000E+00 -0.00000000000E+00 -0.27024914379E+04  0.27024914379E+04  0.00000000000E+00 0. -1.
        -13    1    1    2    0    0  0.12969607887E+02 -0.29237668215E+03 -0.86696745555E+03  0.91503273993E+03  0.10566000000E+00 0.  1.
         13    1    1    2    0    0  0.43336419287E+03 -0.11649471517E+03 -0.75356728490E+03  0.87706282920E+03  0.10566000000E+00 0. -1.
         -4    1    1    2    0  502 -0.44633380076E+03  0.40887139733E+03 -0.90422727579E+03  0.10881252904E+04  0.00000000000E+00 0. -1.
</event>
<event>
 5    1  0.2540860E-005  0.4790359E+02  0.7818608E-02  0.1300568E+00
         21   -1    0    0  501  502  0.00000000000E+00  0.00000000000E+00  0.23451039923E+03  0.23451039923E+03  0.00000000000E+00 0. -1.
         -4   -1    0    0    0  501 -0.00000000000E+00 -0.00000000000E+00 -0.85802254300E+02  0.85802254300E+02  0.00000000000E+00 0. -1.
        -13    1    1    2    0    0 -0.37561483015E+02 -0.11615629620E+02  0.11497361597E+03  0.12151021106E+03  0.10566000000E+00 0.  1.
         13    1    1    2    0    0  0.46178754675E+02 -0.16091888423E+02 -0.73182610255E+02  0.88017792884E+02  0.10566000000E+00 0. -1.
         -4    1    1    2    0  502 -0.86172716599E+01  0.27707518042E+02  0.10691713921E+03  0.11078464958E+03  0.00000000000E+00 0. -1.
</event>
<event>
 5    1  0.2540860E-005  0.8776873E+02  0.7818608E-02  0.1186551E+00
         21   -1    0    0  501  502  0.00000000000E+00  0.00000000000E+00  0.60814222244E+02  0.60814222244E+02  0.00000000000E+00 0.  1.
         -4   -1    0    0    0  501 -0.00000000000E+00 -0.00000000000E+00 -0.23579870520E+03  0.23579870520E+03  0.00000000000E+00 0. -1.
        -13    1    1    2    0    0  0.89546261324E+02 -0.38591640219E+02 -0.92143385474E+02  0.13415760233E+03  0.10566000000E+00 0.  1.
         13    1    1    2    0    0 -0.67631192217E+02  0.46058394189E+02 -0.10314617278E+03  0.13166054063E+03  0.10566000000E+00 0. -1.
         -4    1    1    2    0  502 -0.21915069108E+02 -0.74667539701E+01  0.20305075296E+02  0.30794784487E+02  0.00000000000E+00 0. -1.
</event>
<event>
 5    1  0.2540860E-005  0.4020321E+03  0.7818608E-02  0.1012750E+00
         21   -1    0    0  501  502  0.00000000000E+00  0.00000000000E+00  0.35584721161E+03  0.35584721161E+03  0.00000000000E+00 0. -1.
         -4   -1    0    0    0  501 -0.00000000000E+00 -0.00000000000E+00 -0.11377215128E+04  0.11377215128E+04  0.00000000000E+00 0. -1.
        -13    1    1    2    0    0  0.49865228093E+02  0.92002845479E+02 -0.45345002972E+03  0.46536867660E+03  0.10566000000E+00 0.  1.
         13    1    1    2    0    0 -0.23142236919E+03  0.31589125467E+03  0.10554826176E+03  0.40556632560E+03  0.10566000000E+00 0. -1.
         -4    1    1    2    0  502  0.18155714109E+03 -0.40789410015E+03 -0.43397253319E+03  0.62263372216E+03  0.00000000000E+00 0. -1.
</event>
<event>
 5    1  0.2540860E-005  0.1843195E+03  0.7818608E-02  0.1071452E+00
          4   -1    0    0  502    0 -0.00000000000E+00  0.00000000000E+00  0.68840886703E+03  0.68840886703E+03  0.00000000000E+00 0.  1.
         21   -1    0    0  501  502  0.00000000000E+00 -0.00000000000E+00 -0.92906425341E+03  0.92906425341E+03  0.00000000000E+00 0.  1.
        -13    1    1    2    0    0 -0.14351562380E+03  0.56392225572E+02  0.29846896635E+03  0.33594724648E+03  0.10566000000E+00 0.  1.
         13    1    1    2    0    0  0.30706090682E+03  0.17566745229E+02  0.29628046108E+03  0.42705633565E+03  0.10566000000E+00 0. -1.
          4    1    1    2  501    0 -0.16354528302E+03 -0.73958970801E+02 -0.83540481381E+03  0.85446953831E+03  0.00000000000E+00 0.  1.
</event>
<event>
 5    1  0.2540860E-005  0.2656300E+03  0.7818608E-02  0.1022597E+00
         21   -1    0    0  501  502  0.00000000000E+00  0.00000000000E+00  0.48187205516E+02  0.48187205516E+02  0.00000000000E+00 0. -1.
          4   -1    0    0  502    0 -0.00000000000E+00 -0.00000000000E+00 -0.20363770364E+04  0.20363770364E+04  0.00000000000E+00 0.  1.
        -13    1    1    2    0    0 -0.16449913687E+03  0.24619542517E+03 -0.75221470676E+03  0.80839293023E+03  0.10566000000E+00 0.  1.
         13    1    1    2    0    0  0.12057738438E+03 -0.22034630102E+03 -0.11416875323E+04  0.11689918009E+04  0.10566000000E+00 0. -1.
          4    1    1    2  501    0  0.43921752493E+02 -0.25849124153E+02 -0.94287591816E+02  0.10717951078E+03  0.00000000000E+00 0.  1.
</event>
<event>
 5    1  0.2540860E-005  0.1694781E+03  0.7818608E-02  0.1083344E+00
          4   -1    0    0  502    0 -0.00000000000E+00  0.00000000000E+00  0.11714627425E+04  0.11714627425E+04  0.00000000000E+00 0.  1.
         21   -1    0    0  501  502  0.00000000000E+00 -0.00000000000E+00 -0.10012788174E+03  0.10012788174E+03  0.00000000000E+00 0.  1.
        -13    1    1    2    0    0 -0.10543900346E+03 -0.13647497591E+03  0.92230255775E+03  0.93828824020E+03  0.10566000000E+00 0.  1.
         13    1    1    2    0    0  0.91247718134E+02  0.13109683108E+03  0.21374595632E+03  0.26683303804E+03  0.10566000000E+00 0. -1.
          4    1    1    2  501    0  0.14191285321E+02  0.53781448231E+01 -0.64713653354E+02  0.66469345952E+02  0.00000000000E+00 0.  1.
</event>
<event>
 5    1  0.2540860E-005  0.3998317E+03  0.7818608E-02  0.1012161E+00
         21   -1    0    0  501  502  0.00000000000E+00  0.00000000000E+00  0.12775400161E+03  0.12775400161E+03  0.00000000000E+00 0.  1.
          4   -1    0    0  502    0 -0.00000000000E+00 -0.00000000000E+00 -0.24455941398E+04  0.24455941398E+04  0.00000000000E+00 0.  1.
        -13    1    1    2    0    0 -0.19434266253E+03 -0.34899110150E+03 -0.33091692211E+03  0.51871946166E+03  0.10566000000E+00 0.  1.
         13    1    1    2    0    0 -0.94155176635E+02  0.53728050303E+02 -0.34654706993E+03  0.36310712402E+03  0.10566000000E+00 0. -1.
          4    1    1    2  501    0  0.28849783916E+03  0.29526305120E+03 -0.16403761461E+04  0.16915215557E+04  0.00000000000E+00 0.  1.
</event>
<event>
 5    1  0.2540860E-005  0.6031498E+03  0.7818608E-02  0.9276725E-01
         21   -1    0    0  501  502  0.00000000000E+00  0.00000000000E+00  0.73865106295E+03  0.73865106295E+03  0.00000000000E+00 0.  1.
         -4   -1    0    0    0  501 -0.00000000000E+00 -0.00000000000E+00 -0.61624923998E+03  0.61624923998E+03  0.00000000000E+00 0. -1.
        -13    1    1    2    0    0 -0.52042396105E+03  0.27526102224E+03  0.21875943657E+03  0.62806483094E+03  0.10566000000E+00 0.  1.
         13    1    1    2    0    0  0.51862565057E+03 -0.32409816789E+03 -0.17333533399E+03  0.63565504562E+03  0.10566000000E+00 0. -1.
         -4    1    1    2    0  502  0.17983104886E+01  0.48837145646E+02  0.76977720387E+02  0.91180426362E+02  0.00000000000E+00 0. -1.
</event>
<event>
 5    1  0.2540860E-005  0.4786649E+03  0.7818608E-02  0.9783308E-01
         -4   -1    0    0    0  501 -0.00000000000E+00  0.00000000000E+00  0.15884497772E+04  0.15884497772E+04  0.00000000000E+00 0. -1.
         21   -1    0    0  501  502  0.00000000000E+00 -0.00000000000E+00 -0.39091861712E+03  0.39091861712E+03  0.00000000000E+00 0. -1.
        -13    1    1    2    0    0  0.29020433285E+02 -0.19144848316E+03  0.89390201453E+03  0.91463409624E+03  0.10566000000E+00 0.  1.
         13    1    1    2    0    0 -0.10142246618E+03  0.53736257862E+03 -0.68977913164E+02  0.55118329185E+03  0.10566000000E+00 0. -1.
         -4    1    1    2    0  502  0.72402032896E+02 -0.34591409545E+03  0.37260705868E+03  0.51355100621E+03  0.00000000000E+00 0. -1.
</event>
<event>
 5    1  0.2540860E-005  0.4810325E+03  0.7818608E-02  0.9776564E-01
         21   -1    0    0  501  502  0.00000000000E+00  0.00000000000E+00  0.38227609815E+03  0.38227609815E+03  0.00000000000E+00 0.  1.
          4   -1    0    0  502    0 -0.00000000000E+00 -0.00000000000E+00 -0.10935225668E+04  0.10935225668E+04  0.00000000000E+00 0.  1.
        -13    1    1    2    0    0 -0.52712890752E+03  0.74221337326E+01 -0.65247017085E+01  0.52722154367E+03  0.10566000000E+00 0.  1.
         13    1    1    2    0    0  0.13503747260E+03  0.14102540645E+03 -0.34378008979E+03  0.39535812319E+03  0.10566000000E+00 0. -1.
          4    1    1    2  501    0  0.39209143493E+03 -0.14844754018E+03 -0.36094167713E+03  0.55321899806E+03  0.00000000000E+00 0.  1.
</event>
<event>
 5    1  0.2540860E-005  0.5074359E+03  0.7818608E-02  0.9774739E-01
         -4   -1    0    0    0  501 -0.00000000000E+00  0.00000000000E+00  0.13480729217E+04  0.13480729217E+04  0.00000000000E+00 0. -1.
         21   -1    0    0  501  502  0.00000000000E+00 -0.00000000000E+00 -0.57614953823E+03  0.57614953823E+03  0.00000000000E+00 0.  1.
        -13    1    1    2    0    0  0.56514215535E+03  0.35639219848E+02  0.15249871885E+03  0.58643983507E+03  0.10566000000E+00 0.  1.
         13    1    1    2    0    0 -0.69934428875E+02 -0.14636630306E+03  0.78688293157E+03  0.80342932369E+03  0.10566000000E+00 0. -1.
         -4    1    1    2    0  502 -0.49520772648E+03  0.11072708321E+03 -0.16745826694E+03  0.53435330118E+03  0.00000000000E+00 0. -1.
</event>
<event>
 5    1  0.2540860E-005  0.1260574E+03  0.7818608E-02  0.1127456E+00
         21   -1    0    0  501  502  0.00000000000E+00  0.00000000000E+00  0.30655590956E+03  0.30655590956E+03  0.00000000000E+00 0.  1.
         -4   -1    0    0    0  501 -0.00000000000E+00 -0.00000000000E+00 -0.57536459776E+03  0.57536459776E+03  0.00000000000E+00 0. -1.
        -13    1    1    2    0    0  0.69716016796E+02 -0.12378193756E+03  0.23726195174E+03  0.27654210524E+03  0.10566000000E+00 0.  1.
         13    1    1    2    0    0 -0.66174022814E+02  0.10677370661E+03 -0.54682901948E+03  0.56107184337E+03  0.10566000000E+00 0. -1.
         -4    1    1    2    0  502 -0.35419939824E+01  0.17008230954E+02  0.40758379540E+02  0.44306558705E+02  0.00000000000E+00 0. -1.
</event>
<event>
 5    1  0.2540860E-005  0.4065483E+03  0.7818608E-02  0.9710323E-01
          4   -1    0    0  502    0 -0.00000000000E+00  0.00000000000E+00  0.62336815478E+03  0.62336815478E+03  0.00000000000E+00 0.  1.
         21   -1    0    0  501  502  0.00000000000E+00 -0.00000000000E+00 -0.82538390636E+03  0.82538390636E+03  0.00000000000E+00 0.  1.
        -13    1    1    2    0    0  0.37386911033E+03  0.20170571765E+03  0.38348749018E+03  0.57229885067E+03  0.10566000000E+00 0.  1.
         13    1    1    2    0    0 -0.24665549472E+03 -0.28083520022E+03 -0.12806246125E+03  0.39510422410E+03  0.10566000000E+00 0. -1.
          4    1    1    2  501    0 -0.12721361561E+03  0.79129482567E+02 -0.45744078050E+03  0.48134898637E+03  0.00000000000E+00 0.  1.
</event>
<event>
 5    1  0.2540860E-005  0.4234104E+03  0.7818608E-02  0.1005893E+00
         21   -1    0    0  501  502  0.00000000000E+00  0.00000000000E+00  0.80544081059E+02  0.80544081059E+02  0.00000000000E+00 0. -1.
         -4   -1    0    0    0  501 -0.00000000000E+00 -0.00000000000E+00 -0.30940029839E+04  0.30940029839E+04  0.00000000000E+00 0. -1.
        -13    1    1    2    0    0 -0.74738079588E+02  0.83010825680E+02 -0.17114180162E+03  0.20436757362E+03  0.10566000000E+00 0.  1.
         13    1    1    2    0    0 -0.10713558405E+03 -0.43564286188E+03 -0.12146479238E+04  0.12948483797E+04  0.10566000000E+00 0. -1.
         -4    1    1    2    0  502  0.18187366363E+03  0.35263203620E+03 -0.16276691774E+04  0.16753311116E+04  0.00000000000E+00 0. -1.
</event>
<event>
 5    1  0.3392201E-005  0.2822456E+03  0.7818608E-02  0.1020569E+00
         -4   -1    0    0    0  501 -0.00000000000E+00  0.00000000000E+00  0.55857429466E+03  0.55857429466E+03  0.00000000000E+00 0. -1.
         21   -1    0    0  501  502  0.00000000000E+00 -0.00000000000E+00 -0.10156409175E+04  0.10156409175E+04  0.00000000000E+00 0. -1.
        -13    1    1    2    0    0 -0.13938380338E+03 -0.19043178128E+03  0.23612516439E+03  0.33383710457E+03  0.10566000000E+00 0.  1.
         13    1    1    2    0    0 -0.12471264503E+03  0.46662419137E+02  0.23202862493E+03  0.26752181059E+03  0.10566000000E+00 0. -1.
         -4    1    1    2    0  502  0.26409644841E+03  0.14376936214E+03 -0.92522041211E+03  0.97285629696E+03  0.00000000000E+00 0. -1.
</event>
<event>
 5    1  0.2540860E-005  0.2413442E+02  0.7818608E-02  0.1459336E+00
         21   -1    0    0  501  502  0.00000000000E+00  0.00000000000E+00  0.14655403435E+02  0.14655403435E+02  0.00000000000E+00 0.  1.
          4   -1    0    0  502    0 -0.00000000000E+00 -0.00000000000E+00 -0.10042548353E+03  0.10042548353E+03  0.00000000000E+00 0.  1.
        -13    1    1    2    0    0  0.26611562032E+02 -0.25526864971E+01 -0.45732924266E+02  0.52973606334E+02  0.10566000000E+00 0.  1.
         13    1    1    2    0    0 -0.18462516946E+02  0.15141313842E+02 -0.40599781306E+02  0.47100714675E+02  0.10566000000E+00 0. -1.
          4    1    1    2  501    0 -0.81490450858E+01 -0.12588627345E+02  0.56262548011E+00  0.15006565952E+02  0.00000000000E+00 0.  1.
</event>
<event>
 5    1  0.2540860E-005  0.5256919E+03  0.7818608E-02  0.9741734E-01
         21   -1    0    0  501  502  0.00000000000E+00  0.00000000000E+00  0.18748377786E+03  0.18748377786E+03  0.00000000000E+00 0. -1.
         -4   -1    0    0    0  501 -0.00000000000E+00 -0.00000000000E+00 -0.21043721844E+04  0.21043721844E+04  0.00000000000E+00 0. -1.
        -13    1    1    2    0    0 -0.37033759470E+02 -0.16453500070E+03 -0.43207420027E+03  0.46382258623E+03  0.10566000000E+00 0.  1.
         13    1    1    2    0    0  0.11404156300E+03  0.60379722946E+03 -0.76440480221E+03  0.98076056466E+03  0.10566000000E+00 0. -1.
         -4    1    1    2    0  502 -0.77007803529E+02 -0.43926222876E+03 -0.72040940405E+03  0.84727281135E+03  0.00000000000E+00 0. -1.
</event>
<event>
 5    1  0.2540860E-005  0.4704379E+03  0.7818608E-02  0.9811609E-01
         21   -1    0    0  501  502  0.00000000000E+00  0.00000000000E+00  0.14325733623E+04  0.14325733623E+04  0.00000000000E+00 0.  1.
          4   -1    0    0  502    0 -0.00000000000E+00 -0.00000000000E+00 -0.57399151585E+03  0.57399151585E+03  0.00000000000E+00 0.  1.
        -13    1    1    2    0    0 -0.38311822431E+03 -0.17919115036E+03  0.70104872477E+03  0.81875415591E+03  0.10566000000E+00 0.  1.
         13    1    1    2    0    0 -0.87651291622E+02 -0.16312015237E+03 -0.36263885717E+03  0.40718286424E+03  0.10566000000E+00 0. -1.
          4    1    1    2  501    0  0.47076951593E+03  0.34231130274E+03  0.52017197888E+03  0.78062785802E+03  0.00000000000E+00 0.  1.
</event>
<event>
 5    1  0.2540860E-005  0.2327774E+03  0.7818608E-02  0.1039726E+00
         21   -1    0    0  501  502  0.00000000000E+00  0.00000000000E+00  0.59033809078E+02  0.59033809078E+02  0.00000000000E+00 0. -1.
          4   -1    0    0  502    0 -0.00000000000E+00 -0.00000000000E+00 -0.13598139729E+04  0.13598139729E+04  0.00000000000E+00 0.  1.
        -13    1    1    2    0    0  0.17471761400E+03 -0.15144204556E+03 -0.96924633406E+03  0.99644337774E+03  0.10566000000E+00 0.  1.
         13    1    1    2    0    0 -0.17238973994E+03  0.16304407276E+03 -0.33458760369E+03  0.41018345628E+03  0.10566000000E+00 0. -1.
          4    1    1    2  501    0 -0.23278740516E+01 -0.11602027194E+02  0.30537739607E+01  0.12220947918E+02  0.00000000000E+00 0.  1.
</event>
<event>
 5    1  0.2540860E-005  0.3359496E+03  0.7818608E-02  0.1003245E+00
         21   -1    0    0  501  502  0.00000000000E+00  0.00000000000E+00  0.26035385984E+03  0.26035385984E+03  0.00000000000E+00 0.  1.
          4   -1    0    0  502    0 -0.00000000000E+00 -0.00000000000E+00 -0.21007685039E+04  0.21007685039E+04  0.00000000000E+00 0.  1.
        -13    1    1    2    0    0  0.19518893757E+03 -0.15805750383E+03 -0.26913184577E+01  0.25117354603E+03  0.10566000000E+00 0.  1.
         13    1    1    2    0    0  0.23731474796E+03 -0.31506628410E+03 -0.65137330735E+03  0.76149343376E+03  0.10566000000E+00 0. -1.
          4    1    1    2  501    0 -0.43250368553E+03  0.47312378792E+03 -0.11863500182E+04  0.13484553839E+04  0.00000000000E+00 0.  1.
</event>
<event>
 5    1  0.2540860E-005  0.2111684E+03  0.7818608E-02  0.1070680E+00
         21   -1    0    0  501  502  0.00000000000E+00  0.00000000000E+00  0.12332691767E+04  0.12332691767E+04  0.00000000000E+00 0.  1.
          4   -1    0    0  502    0 -0.00000000000E+00 -0.00000000000E+00 -0.33266224224E+03  0.33266224224E+03  0.00000000000E+00 0.  1.
        -13    1    1    2    0    0  0.12022694855E+03  0.17415944418E+03  0.11219981027E+04  0.11417818465E+04  0.10566000000E+00 0.  1.
         13    1    1    2    0    0 -0.10923208484E+03  0.61403054260E+02 -0.89127312295E+02  0.15377149408E+03  0.10566000000E+00 0. -1.
          4    1    1    2  501    0 -0.10994863715E+02 -0.23556249844E+03 -0.13226385598E+03  0.27037807843E+03  0.00000000000E+00 0.  1.
</event>
<event>
 5    1  0.2540860E-005  0.2306987E+02  0.7818608E-02  0.1473617E+00
         -4   -1    0    0    0  501 -0.00000000000E+00  0.00000000000E+00  0.26681537567E+02  0.26681537567E+02  0.00000000000E+00 0. -1.
         21   -1    0    0  501  502  0.00000000000E+00 -0.00000000000E+00 -0.29019631028E+03  0.29019631028E+03  0.00000000000E+00 0. -1.
        -13    1    1    2    0    0 -0.22225265607E+02 -0.40100237988E-01 -0.37175179617E+02  0.43312459904E+02  0.10566000000E+00 0.  1.
         13    1    1    2    0    0  0.34976626826E+01 -0.14132643951E+02  0.20757595385E+02  0.25354569597E+02  0.10566000000E+00 0. -1.
         -4    1    1    2    0  502  0.18727602925E+02  0.14172744189E+02 -0.24709718848E+03  0.24821081835E+03  0.00000000000E+00 0. -1.
</event>
<event>
 5    1  0.2540860E-005  0.3491632E+03  0.7818608E-02  0.9966429E-01
         -4   -1    0    0    0  501 -0.00000000000E+00  0.00000000000E+00  0.72413075636E+03  0.72413075636E+03  0.00000000000E+00 0. -1.
         21   -1    0    0  501  502  0.00000000000E+00 -0.00000000000E+00 -0.94756491281E+03  0.94756491281E+03  0.00000000000E+00 0. -1.
        -13    1    1    2    0    0 -0.26705953645E+03  0.36222717603E+02 -0.33414153657E+02  0.27156840410E+03  0.10566000000E+00 0.  1.
         13    1    1    2    0    0  0.16235121754E+02  0.22737587940E+03  0.53906890080E+03  0.58528511060E+03  0.10566000000E+00 0. -1.
         -4    1    1    2    0  502  0.25082441469E+03 -0.26359859701E+03 -0.72908890359E+03  0.81484215447E+03  0.00000000000E+00 0. -1.
</event>
<event>
 5    1  0.2540860E-005  0.1526050E+03  0.7818608E-02  0.1098571E+00
         21   -1    0    0  501  502  0.00000000000E+00  0.00000000000E+00  0.59059912698E+02  0.59059912698E+02  0.00000000000E+00 0.  1.
         -4   -1    0    0    0  501 -0.00000000000E+00 -0.00000000000E+00 -0.63834848090E+03  0.63834848090E+03  0.00000000000E+00 0. -1.
        -13    1    1    2    0    0  0.10029990336E+03  0.10625812116E+03 -0.72323928503E+02  0.16303870929E+03  0.10566000000E+00 0.  1.
         13    1    1    2    0    0 -0.11029766349E+03 -0.10791008850E+03 -0.49596200599E+03  0.51941167133E+03  0.10566000000E+00 0. -1.
         -4    1    1    2    0  502  0.99977601303E+01  0.16519673310E+01 -0.11002633718E+02  0.14958012983E+02  0.00000000000E+00 0. -1.
</event>
<event>
 5    1  0.2540860E-005  0.4578390E+02  0.7818608E-02  0.1309976E+00
         -4   -1    0    0    0  501 -0.00000000000E+00  0.00000000000E+00  0.27451426136E+02  0.27451426136E+02  0.00000000000E+00 0. -1.
         21   -1    0    0  501  502  0.00000000000E+00 -0.00000000000E+00 -0.21253389134E+03  0.21253389134E+03  0.00000000000E+00 0. -1.
        -13    1    1    2    0    0  0.50160698878E+02 -0.18377557817E+02 -0.84834036819E+02  0.10025295662E+03  0.10566000000E+00 0.  1.
         13    1    1    2    0    0 -0.41942864755E+02 -0.23970626590E+02 -0.28717678762E+02  0.56200632385E+02  0.10566000000E+00 0. -1.
         -4    1    1    2    0  502 -0.82178341234E+01  0.42348184408E+02 -0.71530749624E+02  0.83531728476E+02  0.00000000000E+00 0. -1.
</event>
<event>
 5    1  0.2588770E-005  0.2430663E+03  0.7818608E-02  0.1052621E+00
         -4   -1    0    0    0  501 -0.00000000000E+00  0.00000000000E+00  0.69246721218E+03  0.69246721218E+03  0.00000000000E+00 0. -1.
         21   -1    0    0  501  502  0.00000000000E+00 -0.00000000000E+00 -0.48440016268E+03  0.48440016268E+03  0.00000000000E+00 0. -1.
        -13    1    1    2    0    0  0.51130841657E+02 -0.12919485263E+03  0.50228716248E+02  0.14774507780E+03  0.10566000000E+00 0.  1.
         13    1    1    2    0    0 -0.60712952525E+02 -0.12155531645E+03  0.54835280346E+03  0.56493589529E+03  0.10566000000E+00 0. -1.
         -4    1    1    2    0  502  0.95821108677E+01  0.25075016908E+03 -0.39051447021E+03  0.46418640177E+03  0.00000000000E+00 0. -1.
</event>
<event>
 5    1  0.2540860E-005  0.1291540E+03  0.7818608E-02  0.1123705E+00
         21   -1    0    0  501  502  0.00000000000E+00  0.00000000000E+00  0.92796224175E+03  0.92796224175E+03  0.00000000000E+00 0.  1.
         -4   -1    0    0    0  501 -0.00000000000E+00 -0.00000000000E+00 -0.58625041910E+02  0.58625041910E+02  0.00000000000E+00 0. -1.
        -13    1    1    2    0    0 -0.40638799674E+02 -0.88227053680E+02  0.37825240124E+03  0.39052581893E+03  0.10566000000E+00 0.  1.
         13    1    1    2    0    0  0.42159079136E+02  0.13020891062E+03  0.39393069498E+02  0.14242041092E+03  0.10566000000E+00 0. -1.
         -4    1    1    2    0  502 -0.15202794628E+01 -0.41981856944E+02  0.45169172910E+03  0.45364105381E+03  0.00000000000E+00 0. -1.
</event>
<event>
 5    1  0.2540860E-005  0.1070739E+03  0.7818608E-02  0.1153354E+00
         21   -1    0    0  501  502  0.00000000000E+00  0.00000000000E+00  0.31130268234E+03  0.31130268234E+03  0.00000000000E+00 0. -1.
          4   -1    0    0  502    0 -0.00000000000E+00 -0.00000000000E+00 -0.12228506429E+03  0.12228506429E+03  0.00000000000E+00 0.  1.
        -13    1    1    2    0    0  0.19462980905E+02  0.10486567035E+03 -0.81745538974E+02  0.13437991200E+03  0.10566000000E+00 0.  1.
         13    1    1    2    0    0 -0.31119037598E+02 -0.10746004605E+03  0.26032936301E+03  0.28335039158E+03  0.10566000000E+00 0. -1.
          4    1    1    2  501    0  0.11656056693E+02  0.25943757018E+01  0.10433794008E+02  0.15857443057E+02  0.00000000000E+00 0.  1.
</event>
<event>
 5    1  0.2540860E-005  0.5037390E+03  0.7818608E-02  0.9828879E-01
         21   -1    0    0  501  502  0.00000000000E+00  0.00000000000E+00  0.71841845987E+03  0.71841845987E+03  0.00000000000E+00 0.  1.
          4   -1    0    0  502    0 -0.00000000000E+00 -0.00000000000E+00 -0.65829555320E+03  0.65829555320E+03  0.00000000000E+00 0.  1.
        -13    1    1    2    0    0 -0.73680622727E+02  0.47288518084E+03  0.31449728225E+03  0.57267598179E+03  0.10566000000E+00 0.  1.
         13    1    1    2    0    0  0.98155007730E+02  0.10292612478E+03 -0.16986263411E+03  0.22154349084E+03  0.10566000000E+00 0. -1.
          4    1    1    2  501    0 -0.24474385003E+02 -0.57581130561E+03 -0.84511741471E+02  0.58249454044E+03  0.00000000000E+00 0.  1.
</event>
<event>
 5    1  0.2540860E-005  0.4993004E+03  0.7818608E-02  0.9609737E-01
          4   -1    0    0  502    0 -0.00000000000E+00  0.00000000000E+00  0.45439741675E+03  0.45439741675E+03  0.00000000000E+00 0.  1.
         21   -1    0    0  501  502  0.00000000000E+00 -0.00000000000E+00 -0.11889441325E+04  0.11889441325E+04  0.00000000000E+00 0.  1.
        -13    1    1    2    0    0 -0.36781609745E+03 -0.46790317328E+02 -0.76385373043E+02  0.37856670710E+03  0.10566000000E+00 0.  1.
         13    1    1    2    0    0 -0.15399601032E+03 -0.27187108650E+03  0.63587236474E+02  0.31886048152E+03  0.10566000000E+00 0. -1.
          4    1    1    2  501    0  0.52181210777E+03  0.31866140383E+03 -0.72174857919E+03  0.94591436065E+03  0.00000000000E+00 0.  1.
</event>
<event>
 5    1  0.2540860E-005  0.1843873E+03  0.7818608E-02  0.1071400E+00
          4   -1    0    0  502    0 -0.00000000000E+00  0.00000000000E+00  0.23927857137E+03  0.23927857137E+03  0.00000000000E+00 0.  1.
         21   -1    0    0  501  502  0.00000000000E+00 -0.00000000000E+00 -0.27946043437E+03  0.27946043437E+03  0.00000000000E+00 0. -1.
        -13    1    1    2    0    0 -0.15647758694E+03 -0.10268687398E+03  0.12673985474E+03  0.22603723420E+03  0.10566000000E+00 0.  1.
         13    1    1    2    0    0  0.15366794669E+03  0.88907962106E+02 -0.63837705346E+02  0.18866299943E+03  0.10566000000E+00 0. -1.
          4    1    1    2  501    0  0.28096402414E+01  0.13778911876E+02 -0.10308401240E+03  0.10403877211E+03  0.00000000000E+00 0.  1.
</event>
<event>
 5    1  0.2540860E-005  0.2792009E+03  0.7818608E-02  0.1028352E+00
         -4   -1    0    0    0  501 -0.00000000000E+00  0.00000000000E+00  0.22207375657E+03  0.22207375657E+03  0.00000000000E+00 0. -1.
         21   -1    0    0  501  502  0.00000000000E+00 -0.00000000000E+00 -0.16836799616E+04  0.16836799616E+04  0.00000000000E+00 0. -1.
        -13    1    1    2    0    0  0.82980775093E+02 -0.17222363496E+03 -0.14500953466E+03  0.23994700619E+03  0.10566000000E+00 0.  1.
         13    1    1    2    0    0  0.20274884952E+03  0.14085631062E+03  0.64460863465E+02  0.25515252361E+03  0.10566000000E+00 0. -1.
         -4    1    1    2    0  502 -0.28572962461E+03  0.31367324333E+02 -0.13810575338E+04  0.14106541884E+04  0.00000000000E+00 0. -1.
</event>
<event>
 5    1  0.2540860E-005  0.4840080E+02  0.7818608E-02  0.1298440E+00
         21   -1    0    0  501  502  0.00000000000E+00  0.00000000000E+00  0.91175785586E+02  0.91175785586E+02  0.00000000000E+00 0. -1.
         -4   -1    0    0    0  501 -0.00000000000E+00 -0.00000000000E+00 -0.52777616199E+02  0.52777616199E+02  0.00000000000E+00 0. -1.
        -13    1    1    2    0    0  0.34669720768E+02  0.11000570969E+02  0.12218856106E+02  0.38370740264E+02  0.10566000000E+00 0.  1.
         13    1    1    2    0    0 -0.57129620051E+02 -0.19643524916E+02 -0.10890512349E+02  0.61386284963E+02  0.10566000000E+00 0. -1.
         -4    1    1    2    0  502  0.22459899283E+02  0.86429539466E+01  0.37069825630E+02  0.44196376559E+02  0.00000000000E+00 0. -1.
</event>
<event>
 5    1  0.2540860E-005  0.1781651E+03  0.7818608E-02  0.1076232E+00
          4   -1    0    0  502    0 -0.00000000000E+00  0.00000000000E+00  0.16578690202E+03  0.16578690202E+03  0.00000000000E+00 0.  1.
         21   -1    0    0  501  502  0.00000000000E+00 -0.00000000000E+00 -0.35825252703E+03  0.35825252703E+03  0.00000000000E+00 0. -1.
        -13    1    1    2    0    0 -0.35741841537E+02 -0.18052731344E+03  0.67189328989E+02  0.19591326455E+03  0.10566000000E+00 0.  1.
         13    1    1    2    0    0  0.14565858653E+02  0.15976890192E+03 -0.17024282024E+03  0.23392497786E+03  0.10566000000E+00 0. -1.
          4    1    1    2  501    0  0.21175982884E+02  0.20758411519E+02 -0.89412133762E+02  0.94201186636E+02  0.00000000000E+00 0.  1.
</event>
<event>
 5    1  0.2540860E-005  0.1415231E+03  0.7818608E-02  0.1109786E+00
         -4   -1    0    0    0  501 -0.00000000000E+00  0.00000000000E+00  0.77266042973E+02  0.77266042973E+02  0.00000000000E+00 0. -1.
         21   -1    0    0  501  502  0.00000000000E+00 -0.00000000000E+00 -0.50020326948E+03  0.50020326948E+03  0.00000000000E+00 0.  1.
        -13    1    1    2    0    0  0.12362794229E+03 -0.10085366009E+03 -0.10634100350E+03  0.19173875210E+03  0.10566000000E+00 0.  1.
         13    1    1    2    0    0 -0.11306780880E+03  0.59337070687E+02 -0.92749854675E+02  0.15782193780E+03  0.10566000000E+00 0. -1.
         -4    1    1    2    0  502 -0.10560133488E+02  0.41516589403E+02 -0.22384636834E+03  0.22790862255E+03  0.00000000000E+00 0. -1.
</event>
<event>
 5    1  0.2540860E-005  0.4727164E+03  0.7818608E-02  0.1008597E+00
         21   -1    0    0  501  502  0.00000000000E+00  0.00000000000E+00  0.11537057524E+03  0.11537057524E+03  0.00000000000E+00 0.  1.
          4   -1    0    0  502    0 -0.00000000000E+00 -0.00000000000E+00 -0.27676026921E+04  0.27676026921E+04  0.00000000000E+00 0.  1.
        -13    1    1    2    0    0  0.14194500487E+03  0.49160917023E+03 -0.17581929664E+04  0.18311391206E+04  0.10566000000E+00 0.  1.
         13    1    1    2    0    0  0.30085871235E+02 -0.67116735964E+02 -0.25639588667E+03  0.26673709483E+03  0.10566000000E+00 0. -1.
          4    1    1    2  501    0 -0.17203087611E+03 -0.42449243427E+03 -0.63764326380E+03  0.78509705193E+03  0.00000000000E+00 0.  1.
</event>
<event>
 5    1  0.2540860E-005  0.6292421E+02  0.7818608E-02  0.1246614E+00
          4   -1    0    0  502    0 -0.00000000000E+00  0.00000000000E+00  0.28015713535E+02  0.28015713535E+02  0.00000000000E+00 0.  1.
         21   -1    0    0  501  502  0.00000000000E+00 -0.00000000000E+00 -0.47472163658E+03  0.47472163658E+03  0.00000000000E+00 0.  1.
        -13    1    1    2    0    0  0.22379768996E+02 -0.83918823387E+02 -0.11450803857E+03  0.14371960563E+03  0.10566000000E+00 0.  1.
         13    1    1    2    0    0 -0.45602398278E+01  0.52563180072E+02 -0.44365594209E+02  0.68934757562E+02  0.10566000000E+00 0. -1.
          4    1    1    2  501    0 -0.17819529168E+02  0.31355643315E+02 -0.28783229027E+03  0.29008298693E+03  0.00000000000E+00 0.  1.
</event>
<event>
 5    1  0.2540860E-005  0.5883058E+03  0.7818608E-02  0.9302966E-01
         -4   -1    0    0    0  501 -0.00000000000E+00  0.00000000000E+00  0.27504095386E+04  0.27504095386E+04  0.00000000000E+00 0. -1.
         21   -1    0    0  501  502  0.00000000000E+00 -0.00000000000E+00 -0.13566706440E+04  0.13566706440E+04  0.00000000000E+00 0. -1.
        -13    1    1    2    0    0 -0.38568014736E+03 -0.41832922100E+03  0.72370093937E+03  0.92059305560E+03  0.10566000000E+00 0.  1.
         13    1    1    2    0    0  0.40894647684E+03  0.43547813836E+03  0.18818166478E+04  0.19743637803E+04  0.10566000000E+00 0. -1.
         -4    1    1    2    0  502 -0.23266329482E+02 -0.17148917354E+02 -0.12117786927E+04  0.12121233466E+04  0.00000000000E+00 0. -1.
</event>
<event>
 5    1  0.2540860E-005  0.1177491E+03  0.7818608E-02  0.1138129E+00
         21   -1    0    0  501  502  0.00000000000E+00  0.00000000000E+00  0.36761621090E+03  0.36761621090E+03  0.00000000000E+00 0.  1.
          4   -1    0    0  502    0 -0.00000000000E+00 -0.00000000000E+00 -0.10953318145E+03  0.10953318145E+03  0.00000000000E+00 0.  1.
        -13    1    1    2    0    0  0.99430659370E+02  0.60452191602E+02 -0.41693701826E+02  0.12360946334E+03  0.10566000000E+00 0.  1.
         13    1    1    2    0    0 -0.11403272273E+03 -0.47927136391E+02  0.11867184102E+03  0.17141612897E+03  0.10566000000E+00 0. -1.
          4    1    1    2  501    0  0.14602063360E+02 -0.12525055210E+02  0.18110489026E+03  0.18212380003E+03  0.00000000000E+00 0.  1.
</event>
<event>
 5    1  0.2540860E-005  0.5572655E+03  0.7818608E-02  0.9360578E-01
         21   -1    0    0  501  502  0.00000000000E+00  0.00000000000E+00  0.64206058927E+03  0.64206058927E+03  0.00000000000E+00 0.  1.
          4   -1    0    0  502    0 -0.00000000000E+00 -0.00000000000E+00 -0.17288083619E+04  0.17288083619E+04  0.00000000000E+00 0.  1.
        -13    1    1    2    0    0  0.53291210516E+03  0.53328213872E+03  0.90834527405E+02  0.75936557325E+03  0.10566000000E+00 0.  1.
         13    1    1    2    0    0 -0.12632416479E+03 -0.52631374154E+03 -0.10567199952E+04  0.11872746559E+04  0.10566000000E+00 0. -1.
          4    1    1    2  501    0 -0.40658794037E+03 -0.69683971811E+01 -0.12086230475E+03  0.42422872194E+03  0.00000000000E+00 0.  1.
</event>
<event>
 5    1  0.2540860E-005  0.4279814E+03  0.7818608E-02  0.9801413E-01
          4   -1    0    0  502    0 -0.00000000000E+00  0.00000000000E+00  0.11300207437E+04  0.11300207437E+04  0.00000000000E+00 0.  1.
         21   -1    0    0  501  502  0.00000000000E+00 -0.00000000000E+00 -0.57457872417E+03  0.57457872417E+03  0.00000000000E+00 0.  1.
        -13    1    1    2    0    0 -0.34659229310E+03 -0.10477846533E+01  0.66289347047E+03  0.74803414350E+03  0.10566000000E+00 0.  1.
         13    1    1    2    0    0 -0.22132339850E+02 -0.25367233126E+03  0.26963986967E+03  0.37087081659E+03  0.10566000000E+00 0. -1.
          4    1    1    2  501    0  0.36872463295E+03  0.25472011591E+03 -0.37709132060E+03  0.58569450780E+03  0.00000000000E+00 0.  1.
</event>
<event>
 5    1  0.2540860E-005  0.6705615E+03  0.7818608E-02  0.9166812E-01
         21   -1    0    0  501  502  0.00000000000E+00  0.00000000000E+00  0.10469525777E+04  0.10469525777E+04  0.00000000000E+00 0. -1.
          4   -1    0    0  502    0 -0.00000000000E+00 -0.00000000000E+00 -0.90523233408E+03  0.90523233408E+03  0.00000000000E+00 0.  1.
        -13    1    1    2    0    0 -0.44932936010E+03  0.52825400690E+03 -0.39904792555E+03  0.80011775864E+03  0.10566000000E+00 0.  1.
         13    1    1    2    0    0  0.62725085668E+03 -0.24119642245E+03  0.29258083807E+03  0.73295491633E+03  0.10566000000E+00 0. -1.
          4    1    1    2  501    0 -0.17792149658E+03 -0.28705758445E+03  0.24818733113E+03  0.41911223684E+03  0.00000000000E+00 0.  1.
</event>
<event>
 5    1  0.2540860E-005  0.1010281E+03  0.7818608E-02  0.1176425E+00
         21   -1    0    0  501  502  0.00000000000E+00  0.00000000000E+00  0.68929665541E+03  0.68929665541E+03  0.00000000000E+00 0. -1.
         -4   -1    0    0    0  501 -0.00000000000E+00 -0.00000000000E+00 -0.51073708173E+03  0.51073708173E+03  0.00000000000E+00 0. -1.
        -13    1    1    2    0    0  0.38451519627E+02  0.62047776999E+02 -0.12961583104E+03  0.14875725465E+03  0.10566000000E+00 0.  1.
         13    1    1    2    0    0 -0.19638084328E+02 -0.16074590172E+03 -0.34990898506E+03  0.38556608806E+03  0.10566000000E+00 0. -1.
         -4    1    1    2    0  502 -0.18813435298E+02  0.98698124720E+02  0.65808438977E+03  0.66571039442E+03  0.00000000000E+00 0. -1.
</event>
<event>
 5    1  0.2540860E-005  0.3000629E+03  0.7818608E-02  0.1007280E+00
         -4   -1    0    0    0  501 -0.00000000000E+00  0.00000000000E+00  0.66647656316E+03  0.66647656316E+03  0.00000000000E+00 0. -1.
         21   -1    0    0  501  502  0.00000000000E+00 -0.00000000000E+00 -0.23844941571E+03  0.23844941571E+03  0.00000000000E+00 0.  1.
        -13    1    1    2    0    0  0.13371296456E+03  0.22024816607E+03  0.58952530733E+02  0.26431765660E+03  0.10566000000E+00 0.  1.
         13    1    1    2    0    0 -0.27844648904E+03 -0.22200628187E+03  0.17036497209E+03  0.39477015000E+03  0.10566000000E+00 0. -1.
         -4    1    1    2    0  502  0.14473352448E+03  0.17581157976E+01  0.19870964462E+03  0.24583817227E+03  0.00000000000E+00 0. -1.
</event>
<event>
 5    1  0.2540860E-005  0.6107620E+03  0.7818608E-02  0.9263575E-01
          4   -1    0    0  502    0 -0.00000000000E+00  0.00000000000E+00  0.76344969008E+03  0.76344969008E+03  0.00000000000E+00 0.  1.
         21   -1    0    0  501  502  0.00000000000E+00 -0.00000000000E+00 -0.11029902049E+04  0.11029902049E+04  0.00000000000E+00 0. -1.
        -13    1    1    2    0    0  0.48205706464E+03  0.58007998061E+03 -0.18076475177E+03  0.77559506453E+03  0.10566000000E+00 0.  1.
         13    1    1    2    0    0 -0.12490277206E+03 -0.55730878672E+03  0.17921278004E+03  0.59859086020E+03  0.10566000000E+00 0. -1.
          4    1    1    2  501    0 -0.35715429258E+03 -0.22771193892E+02 -0.33798854311E+03  0.49225397027E+03  0.00000000000E+00 0.  1.
</event>
<event>
 5    1  0.2540860E-005  0.7531765E+02  0.7818608E-02  0.1213429E+00
          4   -1    0    0  502    0 -0.00000000000E+00  0.00000000000E+00  0.45076692568E+03  0.45076692568E+03  0.00000000000E+00 0.  1.
         21   -1    0    0  501  502  0.00000000000E+00 -0.00000000000E+00 -0.25740617141E+02  0.25740617141E+02  0.00000000000E+00 0. -1.
        -13    1    1    2    0    0 -0.38011714103E+02  0.62760560088E+02  0.27997184178E+03  0.28942705759E+03  0.10566000000E+00 0.  1.
         13    1    1    2    0    0  0.58878178191E+02 -0.56521984664E+02  0.14369836425E+03  0.16525920752E+03  0.10566000000E+00 0. -1.
          4    1    1    2  501    0 -0.20866464088E+02 -0.62385754240E+01  0.13561025051E+01  0.21821277709E+02  0.00000000000E+00 0.  1.
</event>
<event>
 5    1  0.2540860E-005  0.4542996E+03  0.7818608E-02  0.9763751E-01
         21   -1    0    0  501  502  0.00000000000E+00  0.00000000000E+00  0.15154393345E+03  0.15154393345E+03  0.00000000000E+00 0. -1.
         -4   -1    0    0    0  501 -0.00000000000E+00 -0.00000000000E+00 -0.24129675975E+04  0.24129675975E+04  0.00000000000E+00 0. -1.
        -13    1    1    2    0    0  0.14176482889E+03  0.19639616001E+03 -0.63395914463E+03  0.67865523397E+03  0.10566000000E+00 0.  1.
         13    1    1    2    0    0  0.37488935227E+03  0.52593104712E+02 -0.68297591369E+03  0.78087397892E+03  0.10566000000E+00 0. -1.
         -4    1    1    2    0  502 -0.51665418116E+03 -0.24898926472E+03 -0.94448860576E+03  0.11049823181E+04  0.00000000000E+00 0. -1.
</event>
<event>
 5    1  0.2540860E-005  0.3101441E+02  0.7818608E-02  0.1396943E+00
         21   -1    0    0  501  502  0.00000000000E+00  0.00000000000E+00  0.77149566686E+02  0.77149566686E+02  0.00000000000E+00 0.  1.
         -4   -1    0    0    0  501 -0.00000000000E+00 -0.00000000000E+00 -0.93305236792E+02  0.93305236792E+02  0.00000000000E+00 0. -1.
        -13    1    1    2    0    0  0.29685679464E+02  0.26694256227E+02  0.42119360286E+02  0.58033391730E+02  0.10566000000E+00 0.  1.
         13    1    1    2    0    0 -0.14738138343E+02 -0.26850655527E+02 -0.80220133611E+02  0.85868803559E+02  0.10566000000E+00 0. -1.
         -4    1    1    2    0  502 -0.14947541121E+02  0.15639930062E+00  0.21945103220E+02  0.26552608189E+02  0.00000000000E+00 0. -1.
</event>
<event>
 5    1  0.2540860E-005  0.5005664E+02  0.7818608E-02  0.1291558E+00
         21   -1    0    0  501  502  0.00000000000E+00  0.00000000000E+00  0.15090914149E+03  0.15090914149E+03  0.00000000000E+00 0.  1.
          4   -1    0    0  502    0 -0.00000000000E+00 -0.00000000000E+00 -0.70474617321E+02  0.70474617321E+02  0.00000000000E+00 0.  1.
        -13    1    1    2    0    0 -0.30326405200E+02  0.33607544702E+02 -0.24877875867E+02  0.51653439237E+02  0.10566000000E+00 0.  1.
         13    1    1    2    0    0  0.47282386296E+02 -0.38681669305E+02 -0.18488560220E+01  0.61117305460E+02  0.10566000000E+00 0. -1.
          4    1    1    2  501    0 -0.16955981095E+02  0.50741246025E+01  0.10716125606E+03  0.10861301412E+03  0.00000000000E+00 0.  1.
</event>
<event>
 5    1  0.2540860E-005  0.4794483E+03  0.7818608E-02  0.9693976E-01
         21   -1    0    0  501  502  0.00000000000E+00  0.00000000000E+00  0.12520734697E+03  0.12520734697E+03  0.00000000000E+00 0. -1.
         -4   -1    0    0    0  501 -0.00000000000E+00 -0.00000000000E+00 -0.34281488161E+04  0.34281488161E+04  0.00000000000E+00 0. -1.
        -13    1    1    2    0    0  0.22352866637E+03 -0.13740282576E+03 -0.46425086102E+03  0.53326679471E+03  0.10566000000E+00 0.  1.
         13    1    1    2    0    0  0.29922719518E+03 -0.99252765529E+02 -0.18522397364E+04  0.18788773451E+04  0.10566000000E+00 0. -1.
         -4    1    1    2    0  502 -0.52275586154E+03  0.23665559129E+03 -0.98645087166E+03  0.11412120232E+04  0.00000000000E+00 0. -1.
</event>
<event>
 5    1  0.2540860E-005  0.4993900E+03  0.7818608E-02  0.9572382E-01
         -4   -1    0    0    0  501 -0.00000000000E+00  0.00000000000E+00  0.33934128706E+04  0.33934128706E+04  0.00000000000E+00 0. -1.
         21   -1    0    0  501  502  0.00000000000E+00 -0.00000000000E+00 -0.24220792014E+03  0.24220792014E+03  0.00000000000E+00 0. -1.
        -13    1    1    2    0    0 -0.18432851621E+03 -0.30545064234E+03  0.21368198077E+04  0.21663970085E+04  0.10566000000E+00 0.  1.
         13    1    1    2    0    0  0.46173784864E+03 -0.17945731123E+03  0.57146739508E+03  0.75629475883E+03  0.10566000000E+00 0. -1.
         -4    1    1    2    0  502 -0.27740933243E+03  0.48490795357E+03  0.44291774761E+03  0.71292902332E+03  0.00000000000E+00 0. -1.
</event>
<event>
 5    1  0.2540860E-005  0.4328193E+03  0.7818608E-02  0.9978719E-01
         21   -1    0    0  501  502  0.00000000000E+00  0.00000000000E+00  0.83709086671E+03  0.83709086671E+03  0.00000000000E+00 0. -1.
         -4   -1    0    0    0  501 -0.00000000000E+00 -0.00000000000E+00 -0.39245638950E+03  0.39245638950E+03  0.00000000000E+00 0. -1.
        -13    1    1    2    0    0 -0.12624017039E+03  0.50253924805E+02  0.42701480722E+02  0.14242705220E+03  0.10566000000E+00 0.  1.
         13    1    1    2    0    0 -0.33799672567E+03 -0.34183567487E+02 -0.14515281429E+03  0.36943152750E+03  0.10566000000E+00 0. -1.
         -4    1    1    2    0  502  0.46423689605E+03 -0.16070357318E+02  0.54708581078E+03  0.71768867651E+03  0.00000000000E+00 0. -1.
</event>
<event>
 5    1  0.2540860E-005  0.3976866E+03  0.7818608E-02  0.9766248E-01
         21   -1    0    0  501  502  0.00000000000E+00  0.00000000000E+00  0.52295781841E+03  0.52295781841E+03  0.00000000000E+00 0.  1.
          4   -1    0    0  502    0 -0.00000000000E+00 -0.00000000000E+00 -0.10181971233E+04  0.10181971233E+04  0.00000000000E+00 0.  1.
        -13    1    1    2    0    0  0.28954200796E+03 -0.90481677770E+02 -0.41976475603E+03  0.51790343690E+03  0.10566000000E+00 0.  1.
         13    1    1    2    0    0  0.80534833455E+02  0.34882034975E+03 -0.34532536535E+03  0.49740437766E+03  0.10566000000E+00 0. -1.
          4    1    1    2  501    0 -0.37007684141E+03 -0.25833867198E+03  0.26985081647E+03  0.52584712716E+03  0.00000000000E+00 0.  1.
</event>
<event>
 5    1  0.2540860E-005  0.3947796E+03  0.7818608E-02  0.9744245E-01
         21   -1    0    0  501  502  0.00000000000E+00  0.00000000000E+00  0.11127719188E+04  0.11127719188E+04  0.00000000000E+00 0. -1.
          4   -1    0    0  502    0 -0.00000000000E+00 -0.00000000000E+00 -0.43090036355E+03  0.43090036355E+03  0.00000000000E+00 0.  1.
        -13    1    1    2    0    0  0.40470831507E+03 -0.97247183054E+01 -0.26820803286E+03  0.48561193405E+03  0.10566000000E+00 0.  1.
         13    1    1    2    0    0 -0.33898305416E+03  0.53920335412E+02  0.53607656313E+03  0.63654929603E+03  0.10566000000E+00 0. -1.
          4    1    1    2  501    0 -0.65725260918E+02 -0.44195617107E+02  0.41400302501E+03  0.42151105230E+03  0.00000000000E+00 0.  1.
</event>
<event>
 5    1  0.2540860E-005  0.1056388E+03  0.7818608E-02  0.1155549E+00
         21   -1    0    0  501  502  0.00000000000E+00  0.00000000000E+00  0.28224492717E+02  0.28224492717E+02  0.00000000000E+00 0. -1.
         -4   -1    0    0    0  501 -0.00000000000E+00 -0.00000000000E+00 -0.72008719212E+03  0.72008719212E+03  0.00000000000E+00 0. -1.
        -13    1    1    2    0    0 -0.70502419860E+02  0.74601568184E+02 -0.22910685101E+03  0.25104968736E+03  0.10566000000E+00 0.  1.
         13    1    1    2    0    0  0.41616791621E+02 -0.10214367879E+03 -0.43470365378E+03  0.44847805546E+03  0.10566000000E+00 0. -1.
         -4    1    1    2    0  502  0.28885628239E+02  0.27542110603E+02 -0.28052194613E+02  0.48783942008E+02  0.00000000000E+00 0. -1.
</event>
<event>
 5    1  0.2540860E-005  0.4554449E+03  0.7818608E-02  0.9821334E-01
          4   -1    0    0  502    0 -0.00000000000E+00  0.00000000000E+00  0.17178212334E+04  0.17178212334E+04  0.00000000000E+00 0.  1.
         21   -1    0    0  501  502  0.00000000000E+00 -0.00000000000E+00 -0.25901814194E+03  0.25901814194E+03  0.00000000000E+00 0.  1.
        -13    1    1    2    0    0  0.27609069755E+03 -0.18262886075E+03  0.67725855857E+03  0.75382925147E+03  0.10566000000E+00 0.  1.
         13    1    1    2    0    0  0.91469727915E+02 -0.17496543272E+03  0.66963139294E+03  0.69813023666E+03  0.10566000000E+00 0. -1.
          4    1    1    2  501    0 -0.36756042547E+03  0.35759429347E+03  0.11191313995E+03  0.52487988720E+03  0.00000000000E+00 0.  1.
</event>
<event>
 5    1  0.2540860E-005  0.4076215E+03  0.7818608E-02  0.9707289E-01
          4   -1    0    0  502    0 -0.00000000000E+00  0.00000000000E+00  0.22280882297E+04  0.22280882297E+04  0.00000000000E+00 0.  1.
         21   -1    0    0  501  502  0.00000000000E+00 -0.00000000000E+00 -0.10584312993E+03  0.10584312993E+03  0.00000000000E+00 0. -1.
        -13    1    1    2    0    0  0.26431353979E+03 -0.29274761275E+03  0.11569778783E+04  0.12223586356E+04  0.10566000000E+00 0.  1.
         13    1    1    2    0    0 -0.34597522657E+03  0.25867368813E+03  0.90977758904E+03  0.10071277014E+04  0.10566000000E+00 0. -1.
          4    1    1    2  501    0  0.81661686786E+02  0.34073924624E+02  0.55489632423E+02  0.10444502254E+03  0.00000000000E+00 0.  1.
</event>
<event>
 5    1  0.2540860E-005  0.4085399E+03  0.7818608E-02  0.9767770E-01
         21   -1    0    0  501  502  0.00000000000E+00  0.00000000000E+00  0.20754239277E+03  0.20754239277E+03  0.00000000000E+00 0. -1.
         -4   -1    0    0    0  501 -0.00000000000E+00 -0.00000000000E+00 -0.24031485422E+04  0.24031485422E+04  0.00000000000E+00 0. -1.
        -13    1    1    2    0    0 -0.74951836590E+02 -0.31982823346E+03 -0.42071827657E+03  0.53377125824E+03  0.10566000000E+00 0.  1.
         13    1    1    2    0    0 -0.38318953103E+03  0.15539963738E+03 -0.26650422051E+03  0.49194285716E+03  0.10566000000E+00 0. -1.
         -4    1    1    2    0  502  0.45814136762E+03  0.16442859608E+03 -0.15083836524E+04  0.15849768196E+04  0.00000000000E+00 0. -1.
</event>
<event>
 5    1  0.2540860E-005  0.4879576E+03  0.7818608E-02  0.9670209E-01
         21   -1    0    0  501  502  0.00000000000E+00  0.00000000000E+00  0.31982673555E+03  0.31982673555E+03  0.00000000000E+00 0.  1.
          4   -1    0    0  502    0 -0.00000000000E+00 -0.00000000000E+00 -0.13414392248E+04  0.13414392248E+04  0.00000000000E+00 0.  1.
        -13    1    1    2    0    0  0.20758309298E+02  0.34995232591E+03 -0.51789419691E+03  0.62538943721E+03  0.10566000000E+00 0.  1.
         13    1    1    2    0    0 -0.14421939046E+03  0.22879407577E+03 -0.31404994671E+03  0.41445547636E+03  0.10566000000E+00 0. -1.
          4    1    1    2  501    0  0.12346108117E+03 -0.57874640168E+03 -0.18966834559E+03  0.62142104674E+03  0.00000000000E+00 0.  1.
</event>
<event>
 5    1  0.2540860E-005  0.4430842E+03  0.7818608E-02  0.1003131E+00
          4   -1    0    0  502    0 -0.00000000000E+00  0.00000000000E+00  0.30527558677E+03  0.30527558677E+03  0.00000000000E+00 0.  1.
         21   -1    0    0  501  502  0.00000000000E+00 -0.00000000000E+00 -0.12667441896E+04  0.12667441896E+04  0.00000000000E+00 0.  1.
        -13    1    1    2    0    0  0.37427586857E+03 -0.21218468088E+03 -0.78807548620E+03  0.89786844677E+03  0.10566000000E+00 0.  1.
         13    1    1    2    0    0  0.86623160157E+02  0.62155348811E+02  0.74179162390E+02  0.12988232581E+03  0.10566000000E+00 0. -1.
          4    1    1    2  501    0 -0.46089902873E+03  0.15002933207E+03 -0.24757227904E+03  0.54426900381E+03  0.00000000000E+00 0.  1.
</event>
<event>
 5    1  0.2540860E-005  0.5760552E+03  0.7818608E-02  0.9554921E-01
         21   -1    0    0  501  502  0.00000000000E+00  0.00000000000E+00  0.26639745697E+03  0.26639745697E+03  0.00000000000E+00 0. -1.
         -4   -1    0    0    0  501 -0.00000000000E+00 -0.00000000000E+00 -0.19697434469E+04  0.19697434469E+04  0.00000000000E+00 0. -1.
        -13    1    1    2    0    0  0.12195904721E+03  0.21530841510E+03 -0.41355668674E+03  0.48193450502E+03  0.10566000000E+00 0.  1.
         13    1    1    2    0    0 -0.35737115651E+03  0.39588469749E+03 -0.54915976477E+03  0.76551635882E+03  0.10566000000E+00 0. -1.
         -4    1    1    2    0  502  0.23541210930E+03 -0.61119311259E+03 -0.74062953837E+03  0.98869004000E+03  0.00000000000E+00 0. -1.
</event>
<event>
 5    1  0.2540860E-005  0.1125257E+03  0.7818608E-02  0.1145346E+00
         -4   -1    0    0    0  501 -0.00000000000E+00  0.00000000000E+00  0.13386226842E+03  0.13386226842E+03  0.00000000000E+00 0. -1.
         21   -1    0    0  501  502  0.00000000000E+00 -0.00000000000E+00 -0.15569597925E+03  0.15569597925E+03  0.00000000000E+00 0. -1.
        -13    1    1    2    0    0 -0.10870243495E+03  0.26446457426E+02  0.69198377433E+01  0.11208715267E+03  0.10566000000E+00 0.  1.
         13    1    1    2    0    0  0.11239353170E+03 -0.14790229053E+02  0.30156925669E+02  0.11730519244E+03  0.10566000000E+00 0. -1.
         -4    1    1    2    0  502 -0.36910967466E+01 -0.11656228373E+02 -0.58910474245E+02  0.60165902560E+02  0.00000000000E+00 0. -1.
</event>
<event>
 5    1  0.2540860E-005  0.4941880E+03  0.7818608E-02  0.9596779E-01
         21   -1    0    0  501  502  0.00000000000E+00  0.00000000000E+00  0.34475686443E+03  0.34475686443E+03  0.00000000000E+00 0.  1.
          4   -1    0    0  502    0 -0.00000000000E+00 -0.00000000000E+00 -0.14601552741E+04  0.14601552741E+04  0.00000000000E+00 0.  1.
        -13    1    1    2    0    0  0.85854659759E+02  0.56475843834E+03 -0.37060565274E+03  0.68093441483E+03  0.10566000000E+00 0.  1.
         13    1    1    2    0    0 -0.29311380626E+03 -0.16719306071E+03 -0.12680620767E+03  0.36048446352E+03  0.10566000000E+00 0. -1.
          4    1    1    2  501    0  0.20725914650E+03 -0.39756537763E+03 -0.61798654929E+03  0.76349326022E+03  0.00000000000E+00 0.  1.
</event>
<event>
 5    1  0.2540860E-005  0.5101193E+03  0.7818608E-02  0.9935962E-01
         21   -1    0    0  501  502  0.00000000000E+00  0.00000000000E+00  0.24178171650E+03  0.24178171650E+03  0.00000000000E+00 0. -1.
         -4   -1    0    0    0  501 -0.00000000000E+00 -0.00000000000E+00 -0.16116231411E+04  0.16116231411E+04  0.00000000000E+00 0. -1.
        -13    1    1    2    0    0 -0.50780714294E+02 -0.80993107721E+02 -0.46389551750E+03  0.47364293172E+03  0.10566000000E+00 0.  1.
         13    1    1    2    0    0  0.33452250294E+03 -0.36154014250E+03 -0.58124955627E+03  0.76188426774E+03  0.10566000000E+00 0. -1.
         -4    1    1    2    0  502 -0.28374178865E+03  0.44253325022E+03 -0.32469635083E+03  0.61787765813E+03  0.00000000000E+00 0. -1.
</event>
<event>
 5    1  0.2540860E-005  0.5216715E+03  0.7818608E-02  0.9431697E-01
         -4   -1    0    0    0  501 -0.00000000000E+00  0.00000000000E+00  0.13327497821E+04  0.13327497821E+04  0.00000000000E+00 0. -1.
         21   -1    0    0  501  502  0.00000000000E+00 -0.00000000000E+00 -0.33122099987E+03  0.33122099987E+03  0.00000000000E+00 0.  1.
        -13    1    1    2    0    0  0.37562595510E+03 -0.39929126678E+03  0.80659755241E+03  0.97525791286E+03  0.10566000000E+00 0.  1.
         13    1    1    2    0    0 -0.29779071717E+03  0.37688859378E+03  0.29212610033E+03  0.56219391051E+03  0.10566000000E+00 0. -1.
         -4    1    1    2    0  502 -0.77835237931E+02  0.22402673000E+02 -0.97194870528E+02  0.12651895857E+03  0.00000000000E+00 0. -1.
</event>
<event>
 5    1  0.2540860E-005  0.2572077E+03  0.7818608E-02  0.1044555E+00
         21   -1    0    0  501  502  0.00000000000E+00  0.00000000000E+00  0.18648232148E+04  0.18648232148E+04  0.00000000000E+00 0. -1.
         -4   -1    0    0    0  501 -0.00000000000E+00 -0.00000000000E+00 -0.10056202304E+03  0.10056202304E+03  0.00000000000E+00 0. -1.
        -13    1    1    2    0    0 -0.11064859495E+03  0.10000827646E+03  0.68863649909E+02  0.16427714500E+03  0.10566000000E+00 0.  1.
         13    1    1    2    0    0 -0.24480722033E+02 -0.30839268067E+03  0.56907986660E+03  0.64773239611E+03  0.10566000000E+00 0. -1.
         -4    1    1    2    0  502  0.13512931698E+03  0.20838440421E+03  0.11263176752E+04  0.11533756967E+04  0.00000000000E+00 0. -1.
</event>
<event>
 5    1  0.2540860E-005  0.4955919E+03  0.7818608E-02  0.9700974E-01
         21   -1    0    0  501  502  0.00000000000E+00  0.00000000000E+00  0.19126519380E+03  0.19126519380E+03  0.00000000000E+00 0.  1.
          4   -1    0    0  502    0 -0.00000000000E+00 -0.00000000000E+00 -0.20908106523E+04  0.20908106523E+04  0.00000000000E+00 0.  1.
        -13    1    1    2    0    0  0.52027328086E+03  0.43078796200E+02 -0.83667434404E+03  0.98618661449E+03  0.10566000000E+00 0.  1.
         13    1    1    2    0    0 -0.56380874889E+02 -0.22488589010E+03 -0.44845652780E+03  0.50484228736E+03  0.10566000000E+00 0. -1.
          4    1    1    2  501    0 -0.46389240598E+03  0.18180709390E+03 -0.61441458667E+03  0.79104694426E+03  0.00000000000E+00 0.  1.
</event>
<event>
 5    1  0.2540860E-005  0.4344492E+03  0.7818608E-02  0.1024965E+00
         21   -1    0    0  501  502  0.00000000000E+00  0.00000000000E+00  0.53173156486E+03  0.53173156486E+03  0.00000000000E+00 0. -1.
         -4   -1    0    0    0  501 -0.00000000000E+00 -0.00000000000E+00 -0.54043498997E+03  0.54043498997E+03  0.00000000000E+00 0. -1.
        -13    1    1    2    0    0  0.53477901450E+02  0.17850030076E+02 -0.21272745115E+02  0.60258197501E+02  0.10566000000E+00 0.  1.
         13    1    1    2    0    0  0.38117890609E+03  0.17808909614E+03  0.23923664524E+03  0.48399097946E+03  0.10566000000E+00 0. -1.
         -4    1    1    2    0  502 -0.43465680754E+03 -0.19593912622E+03 -0.22666732524E+03  0.52791737787E+03  0.00000000000E+00 0. -1.
</event>
<event>
 5    1  0.2540860E-005  0.6108141E+02  0.7818608E-02  0.1252274E+00
         -4   -1    0    0    0  501 -0.00000000000E+00  0.00000000000E+00  0.27176307611E+02  0.27176307611E+02  0.00000000000E+00 0. -1.
         21   -1    0    0  501  502  0.00000000000E+00 -0.00000000000E+00 -0.20519790745E+03  0.20519790745E+03  0.00000000000E+00 0.  1.
        -13    1    1    2    0    0  0.54810606020E+02 -0.12279508911E+00 -0.65970752239E+02  0.85769277285E+02  0.10566000000E+00 0.  1.
         13    1    1    2    0    0 -0.66516828843E+02 -0.43768384383E+01 -0.50076867673E+02  0.83374750818E+02  0.10566000000E+00 0. -1.
         -4    1    1    2    0  502  0.11706222823E+02  0.44996335274E+01 -0.61973979928E+02  0.63230186959E+02  0.00000000000E+00 0. -1.
</event>
<event>
 5    1  0.2540860E-005  0.3715108E+03  0.7818608E-02  0.1007638E+00
         21   -1    0    0  501  502  0.00000000000E+00  0.00000000000E+00  0.28936321133E+03  0.28936321133E+03  0.00000000000E+00 0.  1.
          4   -1    0    0  502    0 -0.00000000000E+00 -0.00000000000E+00 -0.11501361718E+04  0.11501361718E+04  0.00000000000E+00 0.  1.
        -13    1    1    2    0    0  0.32303815626E+03 -0.36191286482E+03 -0.73288073742E+03  0.87889064084E+03  0.10566000000E+00 0.  1.
         13    1    1    2    0    0 -0.14323186007E+03  0.62513041353E+02 -0.14189352312E+03  0.21108535986E+03  0.10566000000E+00 0. -1.
          4    1    1    2  501    0 -0.17980629619E+03  0.29939982347E+03  0.14001300104E+02  0.34952338240E+03  0.00000000000E+00 0.  1.
</event>
<event>
 5    1  0.2540860E-005  0.9697738E+03  0.7818608E-02  0.8803521E-01
         21   -1    0    0  501  502  0.00000000000E+00  0.00000000000E+00  0.39243140709E+03  0.39243140709E+03  0.00000000000E+00 0.  1.
         -4   -1    0    0    0  501 -0.00000000000E+00 -0.00000000000E+00 -0.30524026617E+04  0.30524026617E+04  0.00000000000E+00 0. -1.
        -13    1    1    2    0    0  0.82261574253E+03  0.28356108115E+03 -0.94620383321E+03  0.12854591599E+04  0.10566000000E+00 0.  1.
         13    1    1    2    0    0 -0.10072166125E+04 -0.40226279518E+03 -0.13184747067E+04  0.17072422863E+04  0.10566000000E+00 0. -1.
         -4    1    1    2    0  502  0.18460086995E+03  0.11870171403E+03 -0.39529271469E+03  0.45213262256E+03  0.00000000000E+00 0. -1.
</event>
<event>
 5    1  0.2540860E-005  0.4090862E+03  0.7818608E-02  0.9770899E-01
          4   -1    0    0  502    0 -0.00000000000E+00  0.00000000000E+00  0.19458931152E+04  0.19458931152E+04  0.00000000000E+00 0.  1.
         21   -1    0    0  501  502  0.00000000000E+00 -0.00000000000E+00 -0.24060238391E+03  0.24060238391E+03  0.00000000000E+00 0.  1.
        -13    1    1    2    0    0  0.29398298796E+03 -0.56229411878E+03  0.10830451611E+04  0.12552240857E+04  0.10566000000E+00 0.  1.
         13    1    1    2    0    0 -0.34730086282E+02  0.32181206640E+03  0.39608052158E+03  0.51151634941E+03  0.10566000000E+00 0. -1.
          4    1    1    2  501    0 -0.25925290167E+03  0.24048205238E+03  0.22616504866E+03  0.41975506403E+03  0.00000000000E+00 0.  1.
</event>
<event>
 5    1  0.2540860E-005  0.4885003E+03  0.7818608E-02  0.9871692E-01
         21   -1    0    0  501  502  0.00000000000E+00  0.00000000000E+00  0.83644251416E+03  0.83644251416E+03  0.00000000000E+00 0.  1.
          4   -1    0    0  502    0 -0.00000000000E+00 -0.00000000000E+00 -0.68142674148E+03  0.68142674148E+03  0.00000000000E+00 0.  1.
        -13    1    1    2    0    0  0.16105912393E+03 -0.43455710917E+03  0.13566882114E+03  0.48289332437E+03  0.10566000000E+00 0.  1.
         13    1    1    2    0    0  0.13420874883E+03  0.14104820377E+02 -0.36772997344E+03  0.39170943153E+03  0.10566000000E+00 0. -1.
          4    1    1    2  501    0 -0.29526787276E+03  0.42045228879E+03  0.38707692498E+03  0.64326649974E+03  0.00000000000E+00 0.  1.
</event>
<event>
 5    1  0.2540860E-005  0.4751423E+03  0.7818608E-02  0.9534185E-01
          4   -1    0    0  502    0 -0.00000000000E+00  0.00000000000E+00  0.78753033430E+03  0.78753033430E+03  0.00000000000E+00 0.  1.
         21   -1    0    0  501  502  0.00000000000E+00 -0.00000000000E+00 -0.88962208430E+03  0.88962208430E+03  0.00000000000E+00 0. -1.
        -13    1    1    2    0    0 -0.62236919896E+02  0.45674268110E+03  0.40036535863E+03  0.61055691175E+03  0.10566000000E+00 0.  1.
         13    1    1    2    0    0  0.26741740479E+02 -0.50654018374E+03  0.50969986235E+02  0.50979998930E+03  0.10566000000E+00 0. -1.
          4    1    1    2  501    0  0.35495179417E+02  0.49797502640E+02 -0.55342709486E+03  0.55679551754E+03  0.00000000000E+00 0.  1.
</event>
<event>
 5    1  0.2540860E-005  0.3314562E+03  0.7818608E-02  0.9951067E-01
          4   -1    0    0  502    0 -0.00000000000E+00  0.00000000000E+00  0.20152120767E+04  0.20152120767E+04  0.00000000000E+00 0.  1.
         21   -1    0    0  501  502  0.00000000000E+00 -0.00000000000E+00 -0.77202580008E+02  0.77202580008E+02  0.00000000000E+00 0. -1.
        -13    1    1    2    0    0 -0.13544016037E+03  0.34133790958E+03  0.13161971343E+04  0.13664664332E+04  0.10566000000E+00 0.  1.
         13    1    1    2    0    0  0.74852053921E+02 -0.26930399513E+03  0.48731032055E+03  0.56178183617E+03  0.10566000000E+00 0. -1.
          4    1    1    2  501    0  0.60588106452E+02 -0.72033914454E+02  0.13450204186E+03  0.16416638736E+03  0.00000000000E+00 0.  1.
</event>
<event>
 5    1  0.2540860E-005  0.3695764E+03  0.7818608E-02  0.9865324E-01
         21   -1    0    0  501  502  0.00000000000E+00  0.00000000000E+00  0.32927455310E+03  0.32927455310E+03  0.00000000000E+00 0.  1.
          4   -1    0    0  502    0 -0.00000000000E+00 -0.00000000000E+00 -0.27325620538E+04  0.27325620538E+04  0.00000000000E+00 0.  1.
        -13    1    1    2    0    0  0.26234754429E+03 -0.12275366062E+03 -0.10108778154E+04  0.10515553547E+04  0.10566000000E+00 0.  1.
         13    1    1    2    0    0 -0.53689465797E+03 -0.16563666244E+03 -0.14966874474E+04  0.15986759221E+04  0.10566000000E+00 0. -1.
          4    1    1    2  501    0  0.27454711368E+03  0.28839032306E+03  0.10427776208E+03  0.41160533005E+03  0.00000000000E+00 0.  1.
</event>
<event>
 5    1  0.2540860E-005  0.3760360E+03  0.7818608E-02  0.9843127E-01
         21   -1    0    0  501  502  0.00000000000E+00  0.00000000000E+00  0.20479990502E+03  0.20479990502E+03  0.00000000000E+00 0. -1.
         -4   -1    0    0    0  501 -0.00000000000E+00 -0.00000000000E+00 -0.25076651244E+04  0.25076651244E+04  0.00000000000E+00 0. -1.
        -13    1    1    2    0    0 -0.28089117099E+03 -0.16503991252E+03 -0.83852809495E+03  0.89959290785E+03  0.10566000000E+00 0.  1.
         13    1    1    2    0    0  0.11529833954E+02  0.40138357120E+03 -0.11634925194E+03  0.41806562630E+03  0.10566000000E+00 0. -1.
         -4    1    1    2    0  502  0.26936133704E+03 -0.23634365868E+03 -0.13479878725E+04  0.13948064953E+04  0.00000000000E+00 0. -1.
</event>
<event>
 5    1  0.2540860E-005  0.4719341E+03  0.7818608E-02  0.9958735E-01
          4   -1    0    0  502    0 -0.00000000000E+00  0.00000000000E+00  0.14342300291E+04  0.14342300291E+04  0.00000000000E+00 0.  1.
         21   -1    0    0  501  502  0.00000000000E+00 -0.00000000000E+00 -0.22511009419E+03  0.22511009419E+03  0.00000000000E+00 0.  1.
        -13    1    1    2    0    0  0.46045664275E+03 -0.26461917056E+03  0.42512055352E+03  0.68027282871E+03  0.10566000000E+00 0.  1.
         13    1    1    2    0    0 -0.93449612817E+02  0.61652892108E+02  0.38221699994E+03  0.39827597900E+03  0.10566000000E+00 0. -1.
          4    1    1    2  501    0 -0.36700702994E+03  0.20296627846E+03  0.40178238144E+03  0.58079131558E+03  0.00000000000E+00 0.  1.
</event>
<event>
 5    1  0.2540860E-005  0.4204355E+03  0.7818608E-02  0.9671815E-01
         21   -1    0    0  501  502  0.00000000000E+00  0.00000000000E+00  0.24466168718E+03  0.24466168718E+03  0.00000000000E+00 0. -1.
          4   -1    0    0  502    0 -0.00000000000E+00 -0.00000000000E+00 -0.82815183756E+03  0.82815183756E+03  0.00000000000E+00 0.  1.
        -13    1    1    2    0    0 -0.15801439625E+03  0.39385224159E+03 -0.38044402112E+03  0.56993491032E+03  0.10566000000E+00 0.  1.
         13    1    1    2    0    0  0.16226553283E+03 -0.38238476884E+03 -0.22889706728E+03  0.47428060593E+03  0.10566000000E+00 0. -1.
          4    1    1    2  501    0 -0.42511365856E+01 -0.11467472749E+02  0.25850938017E+02  0.28598008495E+02  0.00000000000E+00 0.  1.
</event>
<event>
 5    1  0.2540860E-005  0.1197916E+03  0.7818608E-02  0.1153558E+00
         21   -1    0    0  501  502  0.00000000000E+00  0.00000000000E+00  0.47286607762E+03  0.47286607762E+03  0.00000000000E+00 0. -1.
         -4   -1    0    0    0  501 -0.00000000000E+00 -0.00000000000E+00 -0.21707415686E+03  0.21707415686E+03  0.00000000000E+00 0. -1.
        -13    1    1    2    0    0 -0.38804892321E+02  0.65438969527E+02  0.11409651139E+03  0.13713534729E+03  0.10566000000E+00 0.  1.
         13    1    1    2    0    0 -0.30301093742E+02 -0.16119135510E+03 -0.15981120435E+03  0.22899878044E+03  0.10566000000E+00 0. -1.
         -4    1    1    2    0  502  0.69105986063E+02  0.95752385578E+02  0.30150661372E+03  0.32380610676E+03  0.00000000000E+00 0. -1.
</event>
<event>
 5    1  0.2540860E-005  0.5538362E+03  0.7818608E-02  0.9793748E-01
          4   -1    0    0  502    0 -0.00000000000E+00  0.00000000000E+00  0.17646192076E+04  0.17646192076E+04  0.00000000000E+00 0.  1.
         21   -1    0    0  501  502  0.00000000000E+00 -0.00000000000E+00 -0.26213931607E+03  0.26213931607E+03  0.00000000000E+00 0.  1.
        -13    1    1    2    0    0  0.24246550328E+03  0.44790028733E+03  0.66091005998E+03  0.83438978075E+03  0.10566000000E+00 0.  1.
         13    1    1    2    0    0  0.11972774235E+03  0.14646423375E+02  0.49671459225E+03  0.51115031774E+03  0.10566000000E+00 0. -1.
          4    1    1    2  501    0 -0.36219324563E+03 -0.46254671071E+03  0.34485523933E+03  0.68121842522E+03  0.00000000000E+00 0.  1.
</event>
<event>
 5    1  0.2540860E-005  0.5966272E+02  0.7818608E-02  0.1256786E+00
         21   -1    0    0  501  502  0.00000000000E+00  0.00000000000E+00  0.61007909237E+03  0.61007909237E+03  0.00000000000E+00 0.  1.
          4   -1    0    0  502    0 -0.00000000000E+00 -0.00000000000E+00 -0.36707523670E+02  0.36707523670E+02  0.00000000000E+00 0.  1.
        -13    1    1    2    0    0 -0.74364223125E+02 -0.10228399042E+02  0.24458787085E+03  0.25584740679E+03  0.10566000000E+00 0.  1.
         13    1    1    2    0    0  0.55801905164E+02  0.16004256360E+02 -0.34340315830E+01  0.58153182016E+02  0.10566000000E+00 0. -1.
          4    1    1    2  501    0  0.18562317961E+02 -0.57758573182E+01  0.33221772944E+03  0.33278602724E+03  0.00000000000E+00 0.  1.
</event>
<event>
 5    1  0.2540860E-005  0.2297743E+03  0.7818608E-02  0.1041442E+00
          4   -1    0    0  502    0 -0.00000000000E+00  0.00000000000E+00  0.39460603172E+03  0.39460603172E+03  0.00000000000E+00 0.  1.
         21   -1    0    0  501  502  0.00000000000E+00 -0.00000000000E+00 -0.41319140157E+03  0.41319140157E+03  0.00000000000E+00 0.  1.
        -13    1    1    2    0    0 -0.14170439645E+03  0.23192137894E+03  0.18076729672E+03  0.32641153274E+03  0.10566000000E+00 0.  1.
         13    1    1    2    0    0  0.64176648914E+02 -0.18111198309E+03  0.63739270239E+02  0.20244233357E+03  0.10566000000E+00 0. -1.
          4    1    1    2  501    0  0.77527747534E+02 -0.50809395849E+02 -0.26309193681E+03  0.27894356698E+03  0.00000000000E+00 0.  1.
</event>
<event>
 5    1  0.2540860E-005  0.2431511E+03  0.7818608E-02  0.1034004E+00
         -4   -1    0    0    0  501 -0.00000000000E+00  0.00000000000E+00  0.62324651542E+03  0.62324651542E+03  0.00000000000E+00 0. -1.
         21   -1    0    0  501  502  0.00000000000E+00 -0.00000000000E+00 -0.58812721134E+03  0.58812721134E+03  0.00000000000E+00 0. -1.
        -13    1    1    2    0    0 -0.17858770036E+03 -0.13233861981E+03  0.14081438084E+02  0.22272264159E+03  0.10566000000E+00 0.  1.
         13    1    1    2    0    0  0.22726250434E+03  0.25767067233E+03 -0.41128214250E+03  0.53590617944E+03  0.10566000000E+00 0. -1.
         -4    1    1    2    0  502 -0.48674803976E+02 -0.12533205251E+03  0.43232000849E+03  0.45274490574E+03  0.00000000000E+00 0. -1.
</event>
<event>
 5    1  0.2540860E-005  0.4994637E+03  0.7818608E-02  0.9586109E-01
         -4   -1    0    0    0  501 -0.00000000000E+00  0.00000000000E+00  0.70807158624E+03  0.70807158624E+03  0.00000000000E+00 0. -1.
         21   -1    0    0  501  502  0.00000000000E+00 -0.00000000000E+00 -0.78480115017E+03  0.78480115017E+03  0.00000000000E+00 0. -1.
        -13    1    1    2    0    0 -0.26231783126E+03  0.21557341060E+03  0.21037464368E+03  0.39942463848E+03  0.10566000000E+00 0.  1.
         13    1    1    2    0    0 -0.10702559045E+03 -0.54708516364E+03 -0.17922228075E+03  0.58555724773E+03  0.10566000000E+00 0. -1.
         -4    1    1    2    0  502  0.36934342171E+03  0.33151175305E+03 -0.10788192687E+03  0.50789085020E+03  0.00000000000E+00 0. -1.
</event>
<event>
 5    1  0.2540860E-005  0.1840102E+03  0.7818608E-02  0.1071687E+00
         21   -1    0    0  501  502  0.00000000000E+00  0.00000000000E+00  0.18530426922E+03  0.18530426922E+03  0.00000000000E+00 0.  1.
          4   -1    0    0  502    0 -0.00000000000E+00 -0.00000000000E+00 -0.79304170389E+03  0.79304170389E+03  0.00000000000E+00 0.  1.
        -13    1    1    2    0    0 -0.59842250890E+02  0.21462614180E+03 -0.36458719509E+03  0.42728130046E+03  0.10566000000E+00 0.  1.
         13    1    1    2    0    0  0.30289041797E+02 -0.16031234524E+03 -0.37306839230E+03  0.40718240457E+03  0.10566000000E+00 0. -1.
          4    1    1    2  501    0  0.29553209092E+02 -0.54313796557E+02  0.12991815272E+03  0.14388226809E+03  0.00000000000E+00 0.  1.
</event>
<event>
 5    1  0.2540860E-005  0.1713341E+03  0.7818608E-02  0.1085031E+00
         -4   -1    0    0    0  501 -0.00000000000E+00  0.00000000000E+00  0.57749525167E+03  0.57749525167E+03  0.00000000000E+00 0. -1.
         21   -1    0    0  501  502  0.00000000000E+00 -0.00000000000E+00 -0.66118219127E+03  0.66118219127E+03  0.00000000000E+00 0. -1.
        -13    1    1    2    0    0 -0.12618561443E+03  0.92556758838E+02  0.10049589361E+03  0.18598117833E+03  0.10566000000E+00 0.  1.
         13    1    1    2    0    0 -0.48309298546E+02 -0.10260571988E+03  0.41412919455E+03  0.42937713379E+03  0.10566000000E+00 0. -1.
         -4    1    1    2    0  502  0.17449491298E+03  0.10048961041E+02 -0.59831202776E+03  0.62331913081E+03  0.00000000000E+00 0. -1.
</event>
<event>
 5    1  0.2540860E-005  0.4748857E+03  0.7818608E-02  0.9534784E-01
          4   -1    0    0  502    0 -0.00000000000E+00  0.00000000000E+00  0.10752078143E+04  0.10752078143E+04  0.00000000000E+00 0.  1.
         21   -1    0    0  501  502  0.00000000000E+00 -0.00000000000E+00 -0.62179454602E+03  0.62179454602E+03  0.00000000000E+00 0. -1.
        -13    1    1    2    0    0  0.26059901515E+03  0.44829149715E+03  0.80697368806E+03  0.95920991315E+03  0.10566000000E+00 0.  1.
         13    1    1    2    0    0  0.11938441984E+02 -0.31234885528E+03 -0.29059749175E+03  0.42679180776E+03  0.10566000000E+00 0. -1.
          4    1    1    2  501    0 -0.27253745713E+03 -0.13594264187E+03 -0.62962928009E+02  0.31100063943E+03  0.00000000000E+00 0.  1.
</event>
<event>
 5    1  0.2540860E-005  0.4636769E+03  0.7818608E-02  0.9784730E-01
         21   -1    0    0  501  502  0.00000000000E+00  0.00000000000E+00  0.73518395429E+03  0.73518395429E+03  0.00000000000E+00 0.  1.
          4   -1    0    0  502    0 -0.00000000000E+00 -0.00000000000E+00 -0.61102318151E+03  0.61102318151E+03  0.00000000000E+00 0.  1.
        -13    1    1    2    0    0 -0.16691844810E+03  0.45841070628E+03 -0.47445127430E+02  0.49015629674E+03  0.10566000000E+00 0.  1.
         13    1    1    2    0    0  0.21187605886E+03  0.69776635620E+01 -0.17430396852E+03  0.27444860486E+03  0.10566000000E+00 0. -1.
          4    1    1    2  501    0 -0.44957610753E+02 -0.46538836984E+03  0.34590986872E+03  0.58160223420E+03  0.00000000000E+00 0.  1.
</event>
<event>
 5    1  0.2540860E-005  0.7120850E+02  0.7818608E-02  0.1223592E+00
         21   -1    0    0  501  502  0.00000000000E+00  0.00000000000E+00  0.14734650007E+03  0.14734650007E+03  0.00000000000E+00 0. -1.
         -4   -1    0    0    0  501 -0.00000000000E+00 -0.00000000000E+00 -0.19825161719E+03  0.19825161719E+03  0.00000000000E+00 0. -1.
        -13    1    1    2    0    0 -0.58561619663E+02 -0.14595345401E+02 -0.21350844926E+02  0.64018412570E+02  0.10566000000E+00 0.  1.
         13    1    1    2    0    0  0.75918465033E+02  0.67720159007E+01 -0.14540718678E+03  0.16417288042E+03  0.10566000000E+00 0. -1.
         -4    1    1    2    0  502 -0.17356845370E+02  0.78233295006E+01  0.11585291459E+03  0.11740682427E+03  0.00000000000E+00 0. -1.
</event>
<event>
 5    1  0.2540860E-005  0.4248397E+03  0.7818608E-02  0.1006042E+00
         21   -1    0    0  501  502  0.00000000000E+00  0.00000000000E+00  0.11039447583E+04  0.11039447583E+04  0.00000000000E+00 0.  1.
          4   -1    0    0  502    0 -0.00000000000E+00 -0.00000000000E+00 -0.40425768811E+03  0.40425768811E+03  0.00000000000E+00 0.  1.
        -13    1    1    2    0    0  0.27768494367E+03  0.20348274510E+03  0.57824828552E+01  0.34430742624E+03  0.10566000000E+00 0.  1.
         13    1    1    2    0    0  0.10223819732E+03  0.40701611266E+02 -0.16217816506E+03  0.19598734280E+03  0.10566000000E+00 0. -1.
          4    1    1    2  501    0 -0.37992314099E+03 -0.24418435637E+03  0.85608275237E+03  0.96790767734E+03  0.00000000000E+00 0.  1.
</event>
<event>
 5    1  0.2540860E-005  0.2647672E+03  0.7818608E-02  0.1023012E+00
         -4   -1    0    0    0  501 -0.00000000000E+00  0.00000000000E+00  0.49484314968E+03  0.49484314968E+03  0.00000000000E+00 0. -1.
         21   -1    0    0  501  502  0.00000000000E+00 -0.00000000000E+00 -0.24809075825E+03  0.24809075825E+03  0.00000000000E+00 0.  1.
        -13    1    1    2    0    0 -0.17624629272E+03 -0.19126007186E+03  0.28451820014E+03  0.38547864813E+03  0.10566000000E+00 0.  1.
         13    1    1    2    0    0  0.19594846134E+03  0.19452754266E+03  0.38352150945E+02  0.27876094238E+03  0.10566000000E+00 0. -1.
         -4    1    1    2    0  502 -0.19702168612E+02 -0.32674707981E+01 -0.76117959654E+02  0.78694317427E+02  0.00000000000E+00 0. -1.
</event>
<event>
 5    1  0.2540860E-005  0.4443278E+03  0.7818608E-02  0.1017756E+00
         21   -1    0    0  501  502  0.00000000000E+00  0.00000000000E+00  0.33534409834E+03  0.33534409834E+03  0.00000000000E+00 0.  1.
          4   -1    0    0  502    0 -0.00000000000E+00 -0.00000000000E+00 -0.98301744294E+03  0.98301744294E+03  0.00000000000E+00 0.  1.
        -13    1    1    2    0    0  0.47928497668E+03 -0.76372621606E+02 -0.47140242697E+03  0.67658489897E+03  0.10566000000E+00 0.  1.
         13    1    1    2    0    0 -0.61206338997E+02 -0.24976551314E+02 -0.20029160363E+03  0.21091889839E+03  0.10566000000E+00 0. -1.
          4    1    1    2  501    0 -0.41807863768E+03  0.10134917292E+03  0.24020686000E+02  0.43085774392E+03  0.00000000000E+00 0.  1.
</event>
<event>
 5    1  0.2540860E-005  0.4654951E+03  0.7818608E-02  0.9601110E-01
          4   -1    0    0  502    0 -0.00000000000E+00  0.00000000000E+00  0.23074166705E+04  0.23074166705E+04  0.00000000000E+00 0.  1.
         21   -1    0    0  501  502  0.00000000000E+00 -0.00000000000E+00 -0.24809671371E+03  0.24809671371E+03  0.00000000000E+00 0. -1.
        -13    1    1    2    0    0  0.17428514789E+03 -0.37253982336E+03  0.10835414550E+04  0.11589751200E+04  0.10566000000E+00 0.  1.
         13    1    1    2    0    0  0.33251092286E+03  0.21798814267E+03  0.68532915342E+03  0.79231206217E+03  0.10566000000E+00 0. -1.
          4    1    1    2  501    0 -0.50679607075E+03  0.15455168068E+03  0.29044934833E+03  0.60422620207E+03  0.00000000000E+00 0.  1.
</event>
<event>
 5    1  0.2540860E-005  0.4421245E+03  0.7818608E-02  0.1001314E+00
          4   -1    0    0  502    0 -0.00000000000E+00  0.00000000000E+00  0.19189756541E+04  0.19189756541E+04  0.00000000000E+00 0.  1.
         21   -1    0    0  501  502  0.00000000000E+00 -0.00000000000E+00 -0.18219407823E+03  0.18219407823E+03  0.00000000000E+00 0.  1.
        -13    1    1    2    0    0  0.28797343073E+03 -0.29699824484E+03  0.27710877601E+03  0.49792161948E+03  0.10566000000E+00 0.  1.
         13    1    1    2    0    0  0.10607173575E+03 -0.41404805492E+02  0.49180487167E+03  0.50481443522E+03  0.10566000000E+00 0. -1.
          4    1    1    2  501    0 -0.39404516648E+03  0.33840305033E+03  0.96786792820E+03  0.10984336776E+04  0.00000000000E+00 0.  1.
</event>
<event>
 5    1  0.2540860E-005  0.9903518E+02  0.7818608E-02  0.1166162E+00
          4   -1    0    0  502    0 -0.00000000000E+00  0.00000000000E+00  0.25845872534E+02  0.25845872534E+02  0.00000000000E+00 0.  1.
         21   -1    0    0  501  502  0.00000000000E+00 -0.00000000000E+00 -0.76211485224E+03  0.76211485224E+03  0.00000000000E+00 0.  1.
        -13    1    1    2    0    0  0.98104232532E+02  0.88384059675E+02 -0.35508633870E+03  0.37884363733E+03  0.10566000000E+00 0.  1.
         13    1    1    2    0    0 -0.69840135272E+02 -0.30758096453E+02 -0.27163676258E+03  0.28215287866E+03  0.10566000000E+00 0. -1.
          4    1    1    2  501    0 -0.28264097260E+02 -0.57625963222E+02 -0.10954587843E+03  0.12696420878E+03  0.00000000000E+00 0.  1.
</event>
<event>
 5    1  0.2540860E-005  0.1256664E+03  0.7818608E-02  0.1165338E+00
         -4   -1    0    0    0  501 -0.00000000000E+00  0.00000000000E+00  0.28471432738E+04  0.28471432738E+04  0.00000000000E+00 0. -1.
         21   -1    0    0  501  502  0.00000000000E+00 -0.00000000000E+00 -0.13828228011E+03  0.13828228011E+03  0.00000000000E+00 0. -1.
        -13    1    1    2    0    0  0.45471238932E+02 -0.19511014505E+03  0.98488338904E+03  0.10050526869E+04  0.10566000000E+00 0.  1.
         13    1    1    2    0    0 -0.27749160547E+02 -0.72555790185E+02 -0.10567797741E+03  0.13115717546E+03  0.10566000000E+00 0. -1.
         -4    1    1    2    0  502 -0.17722078385E+02  0.26766593523E+03  0.18296555821E+04  0.18492156916E+04  0.00000000000E+00 0. -1.
</event>
<event>
 5    1  0.2540860E-005  0.1827718E+03  0.7818608E-02  0.1085150E+00
         -4   -1    0    0    0  501 -0.00000000000E+00  0.00000000000E+00  0.13831880655E+04  0.13831880655E+04  0.00000000000E+00 0. -1.
         21   -1    0    0  501  502  0.00000000000E+00 -0.00000000000E+00 -0.33460257023E+03  0.33460257023E+03  0.00000000000E+00 0. -1.
        -13    1    1    2    0    0 -0.21652838655E+03 -0.99367904110E+02  0.46430426542E+03  0.52185916165E+03  0.10566000000E+00 0.  1.
         13    1    1    2    0    0  0.12306216182E+03 -0.97565516641E+02  0.84306708465E+03  0.85756949928E+03  0.10566000000E+00 0. -1.
         -4    1    1    2    0  502  0.93466224730E+02  0.19693342075E+03 -0.25878585477E+03  0.33836197482E+03  0.00000000000E+00 0. -1.
</event>
<event>
 5    1  0.2540860E-005  0.2506241E+03  0.7818608E-02  0.1030070E+00
         21   -1    0    0  501  502  0.00000000000E+00  0.00000000000E+00  0.27779667233E+03  0.27779667233E+03  0.00000000000E+00 0. -1.
          4   -1    0    0  502    0 -0.00000000000E+00 -0.00000000000E+00 -0.33239603388E+03  0.33239603388E+03  0.00000000000E+00 0.  1.
        -13    1    1    2    0    0  0.15207278960E+03  0.21017309104E+03  0.11194631268E+02  0.25966168849E+03  0.10566000000E+00 0.  1.
         13    1    1    2    0    0 -0.19179923288E+03 -0.15796690580E+03 -0.10967596934E+03  0.27160507815E+03  0.10566000000E+00 0. -1.
          4    1    1    2  501    0  0.39726443278E+02 -0.52206185234E+02  0.43881976533E+02  0.78925939568E+02  0.00000000000E+00 0.  1.
</event>
<event>
 5    1  0.2540860E-005  0.5058089E+03  0.7818608E-02  0.9465330E-01
         21   -1    0    0  501  502  0.00000000000E+00  0.00000000000E+00  0.48717320231E+03  0.48717320231E+03  0.00000000000E+00 0.  1.
         -4   -1    0    0    0  501 -0.00000000000E+00 -0.00000000000E+00 -0.17813326327E+04  0.17813326327E+04  0.00000000000E+00 0. -1.
        -13    1    1    2    0    0  0.44437143655E+03 -0.17136818297E+03 -0.10225443565E+04  0.11280203899E+04  0.10566000000E+00 0.  1.
         13    1    1    2    0    0 -0.56057978805E+03  0.47705037806E+03 -0.35156414292E+02  0.73692791141E+03  0.10566000000E+00 0. -1.
         -4    1    1    2    0  502  0.11620835150E+03 -0.30568219510E+03 -0.23645865962E+03  0.40355753377E+03  0.00000000000E+00 0. -1.
</event>
<event>
 5    1  0.2540860E-005  0.7117147E+02  0.7818608E-02  0.1223687E+00
         21   -1    0    0  501  502  0.00000000000E+00  0.00000000000E+00  0.14076737115E+03  0.14076737115E+03  0.00000000000E+00 0. -1.
          4   -1    0    0  502    0 -0.00000000000E+00 -0.00000000000E+00 -0.84617651093E+02  0.84617651093E+02  0.00000000000E+00 0.  1.
        -13    1    1    2    0    0 -0.16630660364E+02  0.71286021895E+02 -0.47578836055E+02  0.87304252967E+02  0.10566000000E+00 0.  1.
         13    1    1    2    0    0 -0.65804825215E+01 -0.65663088126E+02  0.65322261982E+02  0.92854471981E+02  0.10566000000E+00 0. -1.
          4    1    1    2  501    0  0.23211142886E+02 -0.56229337693E+01  0.38406294134E+02  0.45226297299E+02  0.00000000000E+00 0.  1.
</event>
<event>
 5    1  0.2540860E-005  0.4794459E+03  0.7818608E-02  0.9770913E-01
         21   -1    0    0  501  502  0.00000000000E+00  0.00000000000E+00  0.19088038063E+03  0.19088038063E+03  0.00000000000E+00 0. -1.
         -4   -1    0    0    0  501 -0.00000000000E+00 -0.00000000000E+00 -0.20274943113E+04  0.20274943113E+04  0.00000000000E+00 0. -1.
        -13    1    1    2    0    0  0.19414554143E+03  0.52268980821E+02 -0.47521556233E+03  0.51599842971E+03  0.10566000000E+00 0.  1.
         13    1    1    2    0    0  0.16019426632E+03  0.40264640740E+03 -0.45699864083E+03  0.62978893388E+03  0.10566000000E+00 0. -1.
         -4    1    1    2    0  502 -0.35433980775E+03 -0.45491538822E+03 -0.90439972747E+03  0.10725873283E+04  0.00000000000E+00 0. -1.
</event>
<event>
 5    1  0.2540860E-005  0.1738157E+03  0.7818608E-02  0.1104416E+00
         -4   -1    0    0    0  501 -0.00000000000E+00  0.00000000000E+00  0.88035006357E+03  0.88035006357E+03  0.00000000000E+00 0. -1.
         21   -1    0    0  501  502  0.00000000000E+00 -0.00000000000E+00 -0.77092559174E+02  0.77092559174E+02  0.00000000000E+00 0.  1.
        -13    1    1    2    0    0  0.70292510192E+02  0.53256446430E+02  0.22790555957E+02  0.91086259559E+02  0.10566000000E+00 0.  1.
         13    1    1    2    0    0  0.12762804857E+03 -0.27492174006E+02  0.53130487549E+03  0.54711024511E+03  0.10566000000E+00 0. -1.
         -4    1    1    2    0  502 -0.19792055876E+03 -0.25764272424E+02  0.24916207295E+03  0.31924611808E+03  0.00000000000E+00 0. -1.
</event>
<event>
 5    1  0.2540860E-005  0.4469570E+02  0.7818608E-02  0.1368956E+00
         21   -1    0    0  501  502  0.00000000000E+00  0.00000000000E+00  0.16131903822E+03  0.16131903822E+03  0.00000000000E+00 0. -1.
         -4   -1    0    0    0  501 -0.00000000000E+00 -0.00000000000E+00 -0.82789340341E+02  0.82789340341E+02  0.00000000000E+00 0. -1.
        -13    1    1    2    0    0  0.29759189574E+01  0.16476193308E+02  0.27483420565E+02  0.32181836641E+02  0.10566000000E+00 0.  1.
         13    1    1    2    0    0  0.38351073603E+02  0.17281028257E+01 -0.71593404467E+02  0.81236801470E+02  0.10566000000E+00 0. -1.
         -4    1    1    2    0  502 -0.41326992560E+02 -0.18204296134E+02  0.12263968178E+03  0.13068974045E+03  0.00000000000E+00 0. -1.
</event>
<event>
 5    1  0.2540860E-005  0.2338135E+03  0.7818608E-02  0.1041123E+00
          4   -1    0    0  502    0 -0.00000000000E+00  0.00000000000E+00  0.92810998178E+03  0.92810998178E+03  0.00000000000E+00 0.  1.
         21   -1    0    0  501  502  0.00000000000E+00 -0.00000000000E+00 -0.16283485700E+03  0.16283485700E+03  0.00000000000E+00 0.  1.
        -13    1    1    2    0    0 -0.14629613652E+03 -0.84640856568E+02  0.42446258003E+03  0.45687539567E+03  0.10566000000E+00 0.  1.
         13    1    1    2    0    0 -0.11465215147E+03  0.21191522122E+03  0.19037801146E+03  0.30707812562E+03  0.10566000000E+00 0. -1.
          4    1    1    2  501    0  0.26094828799E+03 -0.12727436465E+03  0.15043453328E+03  0.32699131748E+03  0.00000000000E+00 0.  1.
</event>
<event>
 5    1  0.2540860E-005  0.2678148E+03  0.7818608E-02  0.1021553E+00
         21   -1    0    0  501  502  0.00000000000E+00  0.00000000000E+00  0.19336813898E+03  0.19336813898E+03  0.00000000000E+00 0.  1.
          4   -1    0    0  502    0 -0.00000000000E+00 -0.00000000000E+00 -0.18959289557E+04  0.18959289557E+04  0.00000000000E+00 0.  1.
        -13    1    1    2    0    0  0.89097154941E+02  0.32566547121E+03 -0.14773136789E+04  0.15154049027E+04  0.10566000000E+00 0.  1.
         13    1    1    2    0    0 -0.30730316383E+02 -0.18036472678E+03 -0.33566451006E+03  0.38229106907E+03  0.10566000000E+00 0. -1.
          4    1    1    2  501    0 -0.58366838558E+02 -0.14530074442E+03  0.11041737229E+03  0.19160112285E+03  0.00000000000E+00 0.  1.
</event>
<event>
 5    1  0.2540860E-005  0.3945618E+03  0.7818608E-02  0.9744884E-01
         21   -1    0    0  501  502  0.00000000000E+00  0.00000000000E+00  0.88311838748E+02  0.88311838748E+02  0.00000000000E+00 0.  1.
         -4   -1    0    0    0  501 -0.00000000000E+00 -0.00000000000E+00 -0.23739253625E+04  0.23739253625E+04  0.00000000000E+00 0. -1.
        -13    1    1    2    0    0  0.17675859110E+03  0.34872305789E+03 -0.65158433512E+03  0.75987731087E+03  0.10566000000E+00 0.  1.
         13    1    1    2    0    0 -0.20878606474E+03 -0.33718720209E+03 -0.16157697012E+04  0.16637303173E+04  0.10566000000E+00 0. -1.
         -4    1    1    2    0  502  0.32027473647E+02 -0.11535855808E+02 -0.18259487406E+02  0.38629573098E+02  0.00000000000E+00 0. -1.
</event>
<event>
 5    1  0.2540860E-005  0.3548313E+03  0.7818608E-02  0.1009903E+00
         21   -1    0    0  501  502  0.00000000000E+00  0.00000000000E+00  0.11184236007E+04  0.11184236007E+04  0.00000000000E+00 0.  1.
          4   -1    0    0  502    0 -0.00000000000E+00 -0.00000000000E+00 -0.35988394581E+03  0.35988394581E+03  0.00000000000E+00 0.  1.
        -13    1    1    2    0    0  0.20543922464E+03 -0.26110953955E+03  0.73532907525E+03  0.80690292274E+03  0.10566000000E+00 0.  1.
         13    1    1    2    0    0  0.47145104061E+02 -0.15994927698E+03 -0.51993079546E+02  0.17467032813E+03  0.10566000000E+00 0. -1.
          4    1    1    2  501    0 -0.25258432870E+03  0.42105881654E+03  0.75203659172E+02  0.49673429562E+03  0.00000000000E+00 0.  1.
</event>
<event>
 5    1  0.2540860E-005  0.5028938E+03  0.7818608E-02  0.9657088E-01
         21   -1    0    0  501  502  0.00000000000E+00  0.00000000000E+00  0.37129631444E+03  0.37129631444E+03  0.00000000000E+00 0.  1.
          4   -1    0    0  502    0 -0.00000000000E+00 -0.00000000000E+00 -0.20953074344E+04  0.20953074344E+04  0.00000000000E+00 0.  1.
        -13    1    1    2    0    0 -0.59842360188E+03 -0.10218166065E+03 -0.21613513312E+02  0.60746938538E+03  0.10566000000E+00 0.  1.
         13    1    1    2    0    0  0.25727182014E+03  0.27223679726E+02 -0.13034967915E+04  0.13289220500E+04  0.10566000000E+00 0. -1.
          4    1    1    2  501    0  0.34115178173E+03  0.74957980921E+02 -0.39890081511E+03  0.53021231349E+03  0.00000000000E+00 0.  1.
</event>
<event>
 5    1  0.2540860E-005  0.4684382E+03  0.7818608E-02  0.9691228E-01
         -4   -1    0    0    0  501 -0.00000000000E+00  0.00000000000E+00  0.12121012330E+04  0.12121012330E+04  0.00000000000E+00 0. -1.
         21   -1    0    0  501  502  0.00000000000E+00 -0.00000000000E+00 -0.37173668241E+03  0.37173668241E+03  0.00000000000E+00 0. -1.
        -13    1    1    2    0    0 -0.24423737316E+02 -0.28297973754E+03  0.47927097354E+02  0.28804699031E+03  0.10566000000E+00 0.  1.
         13    1    1    2    0    0  0.38052543021E+03  0.47940749913E+03  0.54636936322E+03  0.82045758299E+03  0.10566000000E+00 0. -1.
         -4    1    1    2    0  502 -0.35610169289E+03 -0.19642776159E+03  0.24606809003E+03  0.47533334212E+03  0.00000000000E+00 0. -1.
</event>
<event>
 5    1  0.2540860E-005  0.4910294E+03  0.7818608E-02  0.9497853E-01
         21   -1    0    0  501  502  0.00000000000E+00  0.00000000000E+00  0.35571197898E+03  0.35571197898E+03  0.00000000000E+00 0.  1.
          4   -1    0    0  502    0 -0.00000000000E+00 -0.00000000000E+00 -0.16704215299E+04  0.16704215299E+04  0.00000000000E+00 0.  1.
        -13    1    1    2    0    0  0.43961070158E+03  0.43126253174E+03 -0.30722486593E+03  0.68820932109E+03  0.10566000000E+00 0.  1.
         13    1    1    2    0    0 -0.42601366950E+03 -0.98815240717E+02 -0.23417935527E+03  0.49607668762E+03  0.10566000000E+00 0. -1.
          4    1    1    2  501    0 -0.13597032075E+02 -0.33244729102E+03 -0.77330532976E+03  0.84184750022E+03  0.00000000000E+00 0.  1.
</event>
<event>
 5    1  0.2540860E-005  0.6152445E+03  0.7818608E-02  0.9255926E-01
         21   -1    0    0  501  502  0.00000000000E+00  0.00000000000E+00  0.23984693796E+03  0.23984693796E+03  0.00000000000E+00 0.  1.
         -4   -1    0    0    0  501 -0.00000000000E+00 -0.00000000000E+00 -0.29340583157E+04  0.29340583157E+04  0.00000000000E+00 0. -1.
        -13    1    1    2    0    0 -0.13952273018E+03 -0.51972260647E+03 -0.96072430319E+03  0.11011672797E+04  0.10566000000E+00 0.  1.
         13    1    1    2    0    0 -0.38604395114E+02  0.78566081137E+03 -0.99884681669E+03  0.12713961555E+04  0.10566000000E+00 0. -1.
         -4    1    1    2    0  502  0.17812712529E+03 -0.26593820490E+03 -0.73464025790E+03  0.80134181853E+03  0.00000000000E+00 0. -1.
</event>
<event>
 5    1  0.2540860E-005  0.1027478E+04  0.7818608E-02  0.8749194E-01
         -4   -1    0    0    0  501 -0.00000000000E+00  0.00000000000E+00  0.26174010590E+04  0.26174010590E+04  0.00000000000E+00 0. -1.
         21   -1    0    0  501  502  0.00000000000E+00 -0.00000000000E+00 -0.62760694346E+03  0.62760694346E+03  0.00000000000E+00 0. -1.
        -13    1    1    2    0    0  0.20371653860E+03  0.10671641657E+04  0.82747783790E+03  0.13656717644E+04  0.10566000000E+00 0.  1.
         13    1    1    2    0    0  0.17166837820E+03 -0.99811222793E+03  0.10953776146E+04  0.14918277988E+04  0.10566000000E+00 0. -1.
         -4    1    1    2    0  502 -0.37538491679E+03 -0.69051937770E+02  0.66938663007E+02  0.38750843923E+03  0.00000000000E+00 0. -1.
</event>
<event>
 5    1  0.2540860E-005  0.2764084E+03  0.7818608E-02  0.1024705E+00
          4   -1    0    0  502    0 -0.00000000000E+00  0.00000000000E+00  0.16934890667E+04  0.16934890667E+04  0.00000000000E+00 0.  1.
         21   -1    0    0  501  502  0.00000000000E+00 -0.00000000000E+00 -0.35493956554E+03  0.35493956554E+03  0.00000000000E+00 0.  1.
        -13    1    1    2    0    0 -0.24302388911E+03 -0.28326521449E+03  0.64672130145E+03  0.74669153292E+03  0.10566000000E+00 0.  1.
         13    1    1    2    0    0 -0.22792689352E+02  0.21952067869E+03  0.91973186592E+03  0.94584118721E+03  0.10566000000E+00 0. -1.
          4    1    1    2  501    0  0.26581657847E+03  0.63744535798E+02 -0.22790366618E+03  0.35589591216E+03  0.00000000000E+00 0.  1.
</event>
<event>
 5    1  0.2540860E-005  0.5081026E+03  0.7818608E-02  0.9862392E-01
         21   -1    0    0  501  502  0.00000000000E+00  0.00000000000E+00  0.25789217502E+03  0.25789217502E+03  0.00000000000E+00 0. -1.
         -4   -1    0    0    0  501 -0.00000000000E+00 -0.00000000000E+00 -0.15701190685E+04  0.15701190685E+04  0.00000000000E+00 0. -1.
        -13    1    1    2    0    0 -0.25418510160E+02 -0.12110080745E+03 -0.51624738848E+03  0.53086993087E+03  0.10566000000E+00 0.  1.
         13    1    1    2    0    0 -0.37636020595E+03  0.38876021390E+03 -0.40397533040E+03  0.67526112524E+03  0.10566000000E+00 0. -1.
         -4    1    1    2    0  502  0.40177871611E+03 -0.26765940645E+03 -0.39200417460E+03  0.62188018740E+03  0.00000000000E+00 0. -1.
</event>
<event>
 5    1  0.2540860E-005  0.4885966E+03  0.7818608E-02  0.9818415E-01
         -4   -1    0    0    0  501 -0.00000000000E+00  0.00000000000E+00  0.69833886151E+03  0.69833886151E+03  0.00000000000E+00 0. -1.
         21   -1    0    0  501  502  0.00000000000E+00 -0.00000000000E+00 -0.59021910267E+03  0.59021910267E+03  0.00000000000E+00 0. -1.
        -13    1    1    2    0    0  0.38421344758E+02  0.15686829765E+03  0.22531742409E+03  0.27722159964E+03  0.10566000000E+00 0.  1.
         13    1    1    2    0    0 -0.40670632547E+03  0.21010387968E+03  0.60830449585E+02  0.46179435920E+03  0.10566000000E+00 0. -1.
         -4    1    1    2    0  502  0.36828498071E+03 -0.36697217734E+03 -0.17802811484E+03  0.54954200534E+03  0.00000000000E+00 0. -1.
</event>
<event>
 5    1  0.4486390E-005  0.4896344E+03  0.7818608E-02  0.1005889E+00
         21   -1    0    0  501  502  0.00000000000E+00  0.00000000000E+00  0.61741474805E+03  0.61741474805E+03  0.00000000000E+00 0.  1.
          4   -1    0    0  502    0 -0.00000000000E+00 -0.00000000000E+00 -0.61000585256E+03  0.61000585256E+03  0.00000000000E+00 0.  1.
        -13    1    1    2    0    0  0.39165460744E+03  0.21738871363E+03 -0.58363907199E+02  0.45172728628E+03  0.10566000000E+00 0.  1.
         13    1    1    2    0    0  0.46711447473E+02  0.55105103901E+02 -0.18736230507E+03  0.20080631546E+03  0.10566000000E+00 0. -1.
          4    1    1    2  501    0 -0.43836605491E+03 -0.27249381753E+03  0.25313510776E+03  0.57488699887E+03  0.00000000000E+00 0.  1.
</event>
<event>
 5    1  0.2540860E-005  0.1848895E+03  0.7818608E-02  0.1071019E+00
         21   -1    0    0  501  502  0.00000000000E+00  0.00000000000E+00  0.40128455601E+03  0.40128455601E+03  0.00000000000E+00 0. -1.
          4   -1    0    0  502    0 -0.00000000000E+00 -0.00000000000E+00 -0.39494259306E+03  0.39494259306E+03  0.00000000000E+00 0.  1.
        -13    1    1    2    0    0  0.17484308162E+03  0.20077808958E+02 -0.25500461731E+03  0.30983961596E+03  0.10566000000E+00 0.  1.
         13    1    1    2    0    0 -0.25015852176E+03 -0.12582835678E+03  0.16902869206E+03  0.32708220875E+03  0.10566000000E+00 0. -1.
          4    1    1    2  501    0  0.75315440136E+02  0.10575054783E+03  0.92317888192E+02  0.15930532436E+03  0.00000000000E+00 0.  1.
</event>
<event>
 5    1  0.2540860E-005  0.5008802E+03  0.7818608E-02  0.9596658E-01
         21   -1    0    0  501  502  0.00000000000E+00  0.00000000000E+00  0.22243844807E+03  0.22243844807E+03  0.00000000000E+00 0.  1.
          4   -1    0    0  502    0 -0.00000000000E+00 -0.00000000000E+00 -0.26055868952E+04  0.26055868952E+04  0.00000000000E+00 0.  1.
        -13    1    1    2    0    0 -0.59949098147E+03  0.19568714313E+02 -0.61016054722E+03  0.85560988540E+03  0.10566000000E+00 0.  1.
         13    1    1    2    0    0  0.20985458911E+03 -0.24716764068E+03 -0.12002515517E+04  0.12432757497E+04  0.10566000000E+00 0. -1.
          4    1    1    2  501    0  0.38963639235E+03  0.22759892637E+03 -0.57273634818E+03  0.72913970818E+03  0.00000000000E+00 0.  1.
</event>
<event>
 5    1  0.2540860E-005  0.8883882E+02  0.7818608E-02  0.1184472E+00
         21   -1    0    0  501  502  0.00000000000E+00  0.00000000000E+00  0.39739978258E+03  0.39739978258E+03  0.00000000000E+00 0.  1.
         -4   -1    0    0    0  501 -0.00000000000E+00 -0.00000000000E+00 -0.26997349460E+03  0.26997349460E+03  0.00000000000E+00 0. -1.
        -13    1    1    2    0    0 -0.93608334029E+02  0.94215749891E+01  0.35125035197E+03  0.36363182919E+03  0.10566000000E+00 0.  1.
         13    1    1    2    0    0  0.85214368906E+02 -0.24839083632E+02 -0.25387205740E+03  0.26894144611E+03  0.10566000000E+00 0. -1.
         -4    1    1    2    0  502  0.83939651223E+01  0.15417508643E+02  0.30047993402E+02  0.34800001878E+02  0.00000000000E+00 0. -1.
</event>
<event>
 5    1  0.2540860E-005  0.7819617E+03  0.7818608E-02  0.9011875E-01
          4   -1    0    0  502    0 -0.00000000000E+00  0.00000000000E+00  0.29614177917E+04  0.29614177917E+04  0.00000000000E+00 0.  1.
         21   -1    0    0  501  502  0.00000000000E+00 -0.00000000000E+00 -0.50360070054E+03  0.50360070054E+03  0.00000000000E+00 0. -1.
        -13    1    1    2    0    0  0.69481635487E+03  0.30167576594E+03  0.14443609561E+04  0.16309373432E+04  0.10566000000E+00 0.  1.
         13    1    1    2    0    0 -0.73001982305E+03 -0.35772767066E+03  0.13036909306E+04  0.15363945073E+04  0.10566000000E+00 0. -1.
          4    1    1    2  501    0  0.35203468186E+02  0.56051904726E+02 -0.29023479547E+03  0.29768664179E+03  0.00000000000E+00 0.  1.
</event>
<event>
 5    1  0.2540860E-005  0.3521814E+03  0.7818608E-02  0.1017785E+00
         -4   -1    0    0    0  501 -0.00000000000E+00  0.00000000000E+00  0.30359397707E+04  0.30359397707E+04  0.00000000000E+00 0. -1.
         21   -1    0    0  501  502  0.00000000000E+00 -0.00000000000E+00 -0.11933728583E+03  0.11933728583E+03  0.00000000000E+00 0. -1.
        -13    1    1    2    0    0  0.22371055612E+02  0.13073235975E+03  0.79578682468E+03  0.80676396518E+03  0.10566000000E+00 0.  1.
         13    1    1    2    0    0  0.34439184278E+03 -0.75356938578E+02  0.22833472386E+03  0.42002519788E+03  0.10566000000E+00 0. -1.
         -4    1    1    2    0  502 -0.36676289840E+03 -0.55375421171E+02  0.18924809363E+04  0.19284878935E+04  0.00000000000E+00 0. -1.
</event>
<event>
 5    1  0.2540860E-005  0.4918084E+03  0.7818608E-02  0.9811465E-01
         21   -1    0    0  501  502  0.00000000000E+00  0.00000000000E+00  0.42070064121E+03  0.42070064121E+03  0.00000000000E+00 0.  1.
          4   -1    0    0  502    0 -0.00000000000E+00 -0.00000000000E+00 -0.12043974325E+04  0.12043974325E+04  0.00000000000E+00 0.  1.
        -13    1    1    2    0    0 -0.53338458385E+03 -0.23739616993E+03 -0.11212252373E+03  0.59449771007E+03  0.10566000000E+00 0.  1.
         13    1    1    2    0    0  0.14080294384E+03  0.80422987195E+02 -0.57430087020E+03  0.59675357271E+03  0.10566000000E+00 0. -1.
          4    1    1    2  501    0  0.39258164001E+03  0.15697318274E+03 -0.97273397369E+02  0.43384679094E+03  0.00000000000E+00 0.  1.
</event>
<event>
 5    1  0.2540860E-005  0.4958062E+03  0.7818608E-02  0.9796193E-01
         -4   -1    0    0    0  501 -0.00000000000E+00  0.00000000000E+00  0.69948781948E+03  0.69948781948E+03  0.00000000000E+00 0. -1.
         21   -1    0    0  501  502  0.00000000000E+00 -0.00000000000E+00 -0.53544282287E+03  0.53544282287E+03  0.00000000000E+00 0. -1.
        -13    1    1    2    0    0  0.48449341874E+02  0.15953015933E+03  0.14353571034E+03  0.21999936766E+03  0.10566000000E+00 0.  1.
         13    1    1    2    0    0  0.44401347196E+03  0.62597025246E+02  0.12319141157E+03  0.46501880167E+03  0.10566000000E+00 0. -1.
         -4    1    1    2    0  502 -0.49246281384E+03 -0.22212718457E+03 -0.10268212530E+03  0.54991247303E+03  0.00000000000E+00 0. -1.
</event>
<event>
 5    1  0.2540860E-005  0.7776092E+02  0.7818608E-02  0.1207721E+00
         21   -1    0    0  501  502  0.00000000000E+00  0.00000000000E+00  0.35672266801E+02  0.35672266801E+02  0.00000000000E+00 0.  1.
          4   -1    0    0  502    0 -0.00000000000E+00 -0.00000000000E+00 -0.39579193822E+03  0.39579193822E+03  0.00000000000E+00 0.  1.
        -13    1    1    2    0    0  0.55519999283E+02 -0.57571851640E+02 -0.32238424186E+03  0.33215749123E+03  0.10566000000E+00 0.  1.
         13    1    1    2    0    0 -0.43667103351E+02  0.54169849062E+02 -0.46928654406E+02  0.83925551716E+02  0.10566000000E+00 0. -1.
          4    1    1    2  501    0 -0.11852895932E+02  0.34020025783E+01  0.91932248452E+01  0.15381162068E+02  0.00000000000E+00 0.  1.
</event>
<event>
 5    1  0.2540860E-005  0.2560881E+03  0.7818608E-02  0.1027285E+00
         21   -1    0    0  501  502  0.00000000000E+00  0.00000000000E+00  0.26344989329E+03  0.26344989329E+03  0.00000000000E+00 0. -1.
         -4   -1    0    0    0  501 -0.00000000000E+00 -0.00000000000E+00 -0.11064928071E+04  0.11064928071E+04  0.00000000000E+00 0. -1.
        -13    1    1    2    0    0  0.21288127533E+03  0.64215454661E+02 -0.23769882796E+03  0.32548856505E+03  0.10566000000E+00 0.  1.
         13    1    1    2    0    0 -0.27027382427E+03 -0.46881692079E+02 -0.79739739319E+03  0.84326060442E+03  0.10566000000E+00 0. -1.
         -4    1    1    2    0  502  0.57392548945E+02 -0.17333762582E+02  0.19205330736E+03  0.20119353088E+03  0.00000000000E+00 0. -1.
</event>
<event>
 5    1  0.2540860E-005  0.4148944E+03  0.7818608E-02  0.9686988E-01
         21   -1    0    0  501  502  0.00000000000E+00  0.00000000000E+00  0.31788858494E+03  0.31788858494E+03  0.00000000000E+00 0. -1.
          4   -1    0    0  502    0 -0.00000000000E+00 -0.00000000000E+00 -0.11372418985E+04  0.11372418985E+04  0.00000000000E+00 0.  1.
        -13    1    1    2    0    0  0.48271551041E+02 -0.40323225513E+03 -0.81420290224E+03  0.90986414997E+03  0.10566000000E+00 0.  1.
         13    1    1    2    0    0 -0.11175539141E+03  0.44131976418E+03 -0.51137922018E+02  0.45811297733E+03  0.10566000000E+00 0. -1.
          4    1    1    2  501    0  0.63483840370E+02 -0.38087509049E+02  0.45987510746E+02  0.87153356093E+02  0.00000000000E+00 0.  1.
</event>
<event>
 5    1  0.2540860E-005  0.9528292E+02  0.7818608E-02  0.1172605E+00
         21   -1    0    0  501  502  0.00000000000E+00  0.00000000000E+00  0.35235412452E+03  0.35235412452E+03  0.00000000000E+00 0.  1.
         -4   -1    0    0    0  501 -0.00000000000E+00 -0.00000000000E+00 -0.63945064417E+02  0.63945064417E+02  0.00000000000E+00 0. -1.
        -13    1    1    2    0    0 -0.79918277727E+02 -0.51123302789E+02  0.83588996360E+02  0.12644229782E+03  0.10566000000E+00 0.  1.
         13    1    1    2    0    0  0.90406850672E+02  0.33111271096E+02  0.13285935860E+02  0.97191986181E+02  0.10566000000E+00 0. -1.
         -4    1    1    2    0  502 -0.10488572946E+02  0.18012031692E+02  0.19153412789E+03  0.19266490494E+03  0.00000000000E+00 0. -1.
</event>
<event>
 5    1  0.2540860E-005  0.4679903E+03  0.7818608E-02  0.9551033E-01
         -4   -1    0    0    0  501 -0.00000000000E+00  0.00000000000E+00  0.79282533454E+03  0.79282533454E+03  0.00000000000E+00 0. -1.
         21   -1    0    0  501  502  0.00000000000E+00 -0.00000000000E+00 -0.39750767029E+03  0.39750767029E+03  0.00000000000E+00 0.  1.
        -13    1    1    2    0    0 -0.33527441678E+03  0.36395494322E+03  0.17683637280E+03  0.52549333883E+03  0.10566000000E+00 0.  1.
         13    1    1    2    0    0  0.40493319765E+03 -0.21306571563E+03  0.19341821968E+03  0.49676806721E+03  0.10566000000E+00 0. -1.
         -4    1    1    2    0  502 -0.69658780868E+02 -0.15088922759E+03  0.25063071764E+02  0.16807159879E+03  0.00000000000E+00 0. -1.
</event>
<event>
 5    1  0.2540860E-005  0.5857242E+03  0.7818608E-02  0.9408084E-01
         21   -1    0    0  501  502  0.00000000000E+00  0.00000000000E+00  0.62689043457E+03  0.62689043457E+03  0.00000000000E+00 0. -1.
         -4   -1    0    0    0  501 -0.00000000000E+00 -0.00000000000E+00 -0.41336086731E+04  0.41336086731E+04  0.00000000000E+00 0. -1.
        -13    1    1    2    0    0  0.44917314150E+03 -0.54581822148E+03 -0.34466556629E+04  0.35183958435E+04  0.10566000000E+00 0.  1.
         13    1    1    2    0    0 -0.20846269627E+03 -0.29307689901E+03 -0.82795100640E+02  0.36906070547E+03  0.10566000000E+00 0. -1.
         -4    1    1    2    0  502 -0.24071044523E+03  0.83889512049E+03  0.22732524979E+02  0.87304255871E+03  0.00000000000E+00 0. -1.
</event>
<event>
 5    1  0.2540860E-005  0.4107323E+03  0.7818608E-02  0.9780517E-01
         21   -1    0    0  501  502  0.00000000000E+00  0.00000000000E+00  0.10620278736E+04  0.10620278736E+04  0.00000000000E+00 0.  1.
          4   -1    0    0  502    0 -0.00000000000E+00 -0.00000000000E+00 -0.42536888867E+03  0.42536888867E+03  0.00000000000E+00 0.  1.
        -13    1    1    2    0    0  0.30588655106E+03 -0.17278198805E+03 -0.78221291926E+02  0.35991496105E+03  0.10566000000E+00 0.  1.
         13    1    1    2    0    0  0.13539271025E+03  0.27823140038E+03  0.36788062992E+02  0.31160434992E+03  0.10566000000E+00 0. -1.
          4    1    1    2  501    0 -0.44127926131E+03 -0.10544941233E+03  0.67809221385E+03  0.81587745128E+03  0.00000000000E+00 0.  1.
</event>
<event>
 5    1  0.2540860E-005  0.1202527E+03  0.7818608E-02  0.1134814E+00
         21   -1    0    0  501  502  0.00000000000E+00  0.00000000000E+00  0.86847485173E+03  0.86847485173E+03  0.00000000000E+00 0.  1.
          4   -1    0    0  502    0 -0.00000000000E+00 -0.00000000000E+00 -0.34427038951E+02  0.34427038951E+02  0.00000000000E+00 0.  1.
        -13    1    1    2    0    0  0.59318366622E+02 -0.10455211755E+03  0.20455080718E+03  0.23725694465E+03  0.10566000000E+00 0.  1.
         13    1    1    2    0    0 -0.95682172521E+01  0.12623540058E+03  0.23053056929E+03  0.26300433776E+03  0.10566000000E+00 0. -1.
          4    1    1    2  501    0 -0.49750149370E+02 -0.21683283034E+02  0.39896643631E+03  0.40264060827E+03  0.00000000000E+00 0.  1.
</event>
<event>
 5    1  0.2540860E-005  0.4999329E+03  0.7818608E-02  0.9561632E-01
          4   -1    0    0  502    0 -0.00000000000E+00  0.00000000000E+00  0.37867368375E+04  0.37867368375E+04  0.00000000000E+00 0.  1.
         21   -1    0    0  501  502  0.00000000000E+00 -0.00000000000E+00 -0.19338085470E+03  0.19338085470E+03  0.00000000000E+00 0.  1.
        -13    1    1    2    0    0 -0.36226527387E+03 -0.42391408562E+03  0.70633760094E+03  0.89991782864E+03  0.10566000000E+00 0.  1.
         13    1    1    2    0    0 -0.13860931227E+03  0.34258168736E+03  0.21732031201E+04  0.22044016345E+04  0.10566000000E+00 0. -1.
          4    1    1    2  501    0  0.50087458614E+03  0.81332398256E+02  0.71381526176E+03  0.87579822902E+03  0.00000000000E+00 0.  1.
</event>
<event>
 5    1  0.2540860E-005  0.4472860E+03  0.7818608E-02  0.9843564E-01
         -4   -1    0    0    0  501 -0.00000000000E+00  0.00000000000E+00  0.11444974859E+04  0.11444974859E+04  0.00000000000E+00 0. -1.
         21   -1    0    0  501  502  0.00000000000E+00 -0.00000000000E+00 -0.58106207030E+03  0.58106207030E+03  0.00000000000E+00 0. -1.
        -13    1    1    2    0    0  0.17232949569E+03  0.87558367523E+02  0.68732870839E+03  0.71399207793E+03  0.10566000000E+00 0.  1.
         13    1    1    2    0    0  0.27989165810E+03  0.13369027660E+03  0.23848730488E+03  0.39126542919E+03  0.10566000000E+00 0. -1.
         -4    1    1    2    0  502 -0.45222115379E+03 -0.22124864412E+03 -0.36238059770E+03  0.62030204904E+03  0.00000000000E+00 0. -1.
</event>
<event>
 5    1  0.2540860E-005  0.4681233E+03  0.7818608E-02  0.9738097E-01
          4   -1    0    0  502    0 -0.00000000000E+00  0.00000000000E+00  0.96332628136E+03  0.96332628136E+03  0.00000000000E+00 0.  1.
         21   -1    0    0  501  502  0.00000000000E+00 -0.00000000000E+00 -0.42019866147E+03  0.42019866147E+03  0.00000000000E+00 0. -1.
        -13    1    1    2    0    0 -0.21073395759E+03  0.37917160970E+03  0.65748437038E+02  0.43875138589E+03  0.10566000000E+00 0.  1.
         13    1    1    2    0    0 -0.23981165066E+03 -0.31391388658E+02  0.99105482736E+02  0.26137512304E+03  0.10566000000E+00 0. -1.
          4    1    1    2  501    0  0.45054560824E+03 -0.34778022104E+03  0.37827370011E+03  0.68339843390E+03  0.00000000000E+00 0.  1.
</event>
<event>
 5    1  0.2540860E-005  0.6045367E+03  0.7818608E-02  0.9274314E-01
          4   -1    0    0  502    0 -0.00000000000E+00  0.00000000000E+00  0.16346763010E+04  0.16346763010E+04  0.00000000000E+00 0.  1.
         21   -1    0    0  501  502  0.00000000000E+00 -0.00000000000E+00 -0.28493410902E+03  0.28493410902E+03  0.00000000000E+00 0. -1.
        -13    1    1    2    0    0 -0.89032502581E+02 -0.58748139852E+03  0.41680671723E+03  0.72580233591E+03  0.10566000000E+00 0.  1.
         13    1    1    2    0    0  0.10550040368E+03  0.60129353457E+03  0.97281779423E+03  0.11485028175E+04  0.10566000000E+00 0. -1.
          4    1    1    2  501    0 -0.16467901099E+02 -0.13812136052E+02 -0.39882319480E+02  0.45305256605E+02  0.00000000000E+00 0.  1.
</event>
<event>
 5    1  0.2540860E-005  0.2575038E+02  0.7818608E-02  0.1468019E+00
         21   -1    0    0  501  502  0.00000000000E+00  0.00000000000E+00  0.83558054950E+02  0.83558054950E+02  0.00000000000E+00 0. -1.
          4   -1    0    0  502    0 -0.00000000000E+00 -0.00000000000E+00 -0.16419403630E+02  0.16419403630E+02  0.00000000000E+00 0.  1.
        -13    1    1    2    0    0 -0.69436222010E+01 -0.27281637226E+02  0.15416569745E+02  0.32096470300E+02  0.10566000000E+00 0.  1.
         13    1    1    2    0    0 -0.13687177484E+02  0.10739081189E+02  0.18098377923E+02  0.25104364953E+02  0.10566000000E+00 0. -1.
          4    1    1    2  501    0  0.20630799685E+02  0.16542556037E+02  0.33623703653E+02  0.42776623327E+02  0.00000000000E+00 0.  1.
</event>
<event>
 5    1  0.2540860E-005  0.2459589E+03  0.7818608E-02  0.1032508E+00
         -4   -1    0    0    0  501 -0.00000000000E+00  0.00000000000E+00  0.12121406674E+04  0.12121406674E+04  0.00000000000E+00 0. -1.
         21   -1    0    0  501  502  0.00000000000E+00 -0.00000000000E+00 -0.15754300882E+03  0.15754300882E+03  0.00000000000E+00 0. -1.
        -13    1    1    2    0    0  0.16305338804E+03  0.24189588333E+03  0.49501073390E+03  0.57457433250E+03  0.10566000000E+00 0.  1.
         13    1    1    2    0    0 -0.48472495893E+02 -0.22381286337E+03  0.62240252391E+03  0.66319431059E+03  0.10566000000E+00 0. -1.
         -4    1    1    2    0  502 -0.11458089214E+03 -0.18083019959E+02 -0.62815599240E+02  0.13191503312E+03  0.00000000000E+00 0. -1.
</event>
<event>
 5    1  0.2540860E-005  0.4823379E+03  0.7818608E-02  0.9727037E-01
         -4   -1    0    0    0  501 -0.00000000000E+00  0.00000000000E+00  0.17342363638E+04  0.17342363638E+04  0.00000000000E+00 0. -1.
         21   -1    0    0  501  502  0.00000000000E+00 -0.00000000000E+00 -0.22988154035E+03  0.22988154035E+03  0.00000000000E+00 0. -1.
        -13    1    1    2    0    0 -0.51049377843E+02  0.22398071135E+03  0.22247907941E+03  0.31979735767E+03  0.10566000000E+00 0.  1.
         13    1    1    2    0    0 -0.31096595613E+03  0.19556652739E+03  0.89791628758E+03  0.97015450480E+03  0.10566000000E+00 0. -1.
         -4    1    1    2    0  502  0.36201533398E+03 -0.41954723874E+03  0.38395945648E+03  0.67416604171E+03  0.00000000000E+00 0. -1.
</event>
<event>
 5    1  0.2540860E-005  0.3893904E+02  0.7818608E-02  0.1349329E+00
         21   -1    0    0  501  502  0.00000000000E+00  0.00000000000E+00  0.15848684189E+04  0.15848684189E+04  0.00000000000E+00 0. -1.
         -4   -1    0    0    0  501 -0.00000000000E+00 -0.00000000000E+00 -0.10628345360E+03  0.10628345360E+03  0.00000000000E+00 0. -1.
        -13    1    1    2    0    0 -0.29306902823E+02 -0.65831691992E+02  0.22716341616E+03  0.23831897749E+03  0.10566000000E+00 0.  1.
         13    1    1    2    0    0  0.82801038860E+00  0.36936378399E+02 -0.97001706158E+02  0.10379944033E+03  0.10566000000E+00 0. -1.
         -4    1    1    2    0  502  0.28478892435E+02  0.28895313594E+02  0.13484232553E+04  0.13490334547E+04  0.00000000000E+00 0. -1.
</event>
<event>
 5    1  0.2540860E-005  0.6085806E+03  0.7818608E-02  0.9267323E-01
         -4   -1    0    0    0  501 -0.00000000000E+00  0.00000000000E+00  0.12238985405E+04  0.12238985405E+04  0.00000000000E+00 0. -1.
         21   -1    0    0  501  502  0.00000000000E+00 -0.00000000000E+00 -0.77823707934E+03  0.77823707934E+03  0.00000000000E+00 0.  1.
        -13    1    1    2    0    0 -0.57311449954E+03  0.23182122812E+03  0.55550425452E+03  0.83113554812E+03  0.10566000000E+00 0.  1.
         13    1    1    2    0    0  0.32652557998E+03 -0.62298525182E+03 -0.60223623024E+02  0.70594367644E+03  0.10566000000E+00 0. -1.
         -4    1    1    2    0  502  0.24658891956E+03  0.39116402370E+03 -0.49619170382E+02  0.46505639525E+03  0.00000000000E+00 0. -1.
</event>
<event>
 5    1  0.2540860E-005  0.6825497E+03  0.7818608E-02  0.9148684E-01
         -4   -1    0    0    0  501 -0.00000000000E+00  0.00000000000E+00  0.39281049798E+04  0.39281049798E+04  0.00000000000E+00 0. -1.
         21   -1    0    0  501  502  0.00000000000E+00 -0.00000000000E+00 -0.46441749810E+03  0.46441749810E+03  0.00000000000E+00 0. -1.
        -13    1    1    2    0    0  0.56376493358E+03  0.34873119522E+03  0.30716852398E+04  0.31424026748E+04  0.10566000000E+00 0.  1.
         13    1    1    2    0    0 -0.79737182602E+03 -0.40837049392E+03  0.14966544481E+03  0.90827751583E+03  0.10566000000E+00 0. -1.
         -4    1    1    2    0  502  0.23360689244E+03  0.59639298696E+02  0.24233679707E+03  0.34184228726E+03  0.00000000000E+00 0. -1.
</event>
<event>
 5    1  0.2540860E-005  0.1823045E+03  0.7818608E-02  0.1084397E+00
         -4   -1    0    0    0  501 -0.00000000000E+00  0.00000000000E+00  0.63289903339E+03  0.63289903339E+03  0.00000000000E+00 0. -1.
         21   -1    0    0  501  502  0.00000000000E+00 -0.00000000000E+00 -0.27272847594E+03  0.27272847594E+03  0.00000000000E+00 0. -1.
        -13    1    1    2    0    0  0.10463185907E+03  0.16973250149E+03  0.10209637309E+03  0.22401033137E+03  0.10566000000E+00 0.  1.
         13    1    1    2    0    0  0.69843037259E+02 -0.11687956660E+03  0.41768335438E+03  0.43931569359E+03  0.10566000000E+00 0. -1.
         -4    1    1    2    0  502 -0.17447489633E+03 -0.52852934893E+02 -0.15960917002E+03  0.24230148437E+03  0.00000000000E+00 0. -1.
</event>
<event>
 5    1  0.2540860E-005  0.2842727E+02  0.7818608E-02  0.1457760E+00
         21   -1    0    0  501  502  0.00000000000E+00  0.00000000000E+00  0.36758577520E+02  0.36758577520E+02  0.00000000000E+00 0. -1.
         -4   -1    0    0    0  501 -0.00000000000E+00 -0.00000000000E+00 -0.10536911851E+03  0.10536911851E+03  0.00000000000E+00 0. -1.
        -13    1    1    2    0    0 -0.26796719237E+02 -0.21723448993E+02 -0.39112539124E+02  0.52151455193E+02  0.10566000000E+00 0.  1.
         13    1    1    2    0    0  0.13489841031E+02 -0.33969934058E+01 -0.51932048617E+02  0.53763037608E+02  0.10566000000E+00 0. -1.
         -4    1    1    2    0  502  0.13306878206E+02  0.25120442399E+02  0.22434046755E+02  0.36213203224E+02  0.00000000000E+00 0. -1.
</event>
<event>
 5    1  0.2540860E-005  0.8789454E+03  0.7818608E-02  0.8897490E-01
         -4   -1    0    0    0  501 -0.00000000000E+00  0.00000000000E+00  0.28036416047E+04  0.28036416047E+04  0.00000000000E+00 0. -1.
         21   -1    0    0  501  502  0.00000000000E+00 -0.00000000000E+00 -0.64032799111E+03  0.64032799111E+03  0.00000000000E+00 0.  1.
        -13    1    1    2    0    0  0.91008379217E+03 -0.68882434249E+03  0.81608181313E+03  0.14031111932E+04  0.10566000000E+00 0.  1.
         13    1    1    2    0    0 -0.32801261155E+03  0.73647153087E+03  0.11876279833E+04  0.14354242672E+04  0.10566000000E+00 0. -1.
         -4    1    1    2    0  502 -0.58207118062E+03 -0.47647188384E+02  0.15960381723E+03  0.60543413543E+03  0.00000000000E+00 0. -1.
</event>
<event>
 5    1  0.2540860E-005  0.2305537E+03  0.7818608E-02  0.1061264E+00
         21   -1    0    0  501  502  0.00000000000E+00  0.00000000000E+00  0.60924165543E+03  0.60924165543E+03  0.00000000000E+00 0.  1.
         -4   -1    0    0    0  501 -0.00000000000E+00 -0.00000000000E+00 -0.16523417742E+03  0.16523417742E+03  0.00000000000E+00 0. -1.
        -13    1    1    2    0    0  0.69095423237E+02 -0.10576519849E+03  0.15055022925E+03  0.19653457054E+03  0.10566000000E+00 0.  1.
         13    1    1    2    0    0 -0.10059715416E+03  0.29177414855E+03  0.16818775898E+03  0.35148125785E+03  0.10566000000E+00 0. -1.
         -4    1    1    2    0  502  0.31501730922E+02 -0.18600895006E+03  0.12526948977E+03  0.22646000446E+03  0.00000000000E+00 0. -1.
</event>
<event>
 5    1  0.2540860E-005  0.4589582E+03  0.7818608E-02  0.9805332E-01
         -4   -1    0    0    0  501 -0.00000000000E+00  0.00000000000E+00  0.13680726199E+04  0.13680726199E+04  0.00000000000E+00 0. -1.
         21   -1    0    0  501  502  0.00000000000E+00 -0.00000000000E+00 -0.30528349156E+03  0.30528349156E+03  0.00000000000E+00 0. -1.
        -13    1    1    2    0    0  0.93751924572E+02 -0.18088438618E+03  0.54877625588E+03  0.58537507182E+03  0.10566000000E+00 0.  1.
         13    1    1    2    0    0  0.32776406927E+03  0.35989260537E+03  0.35776116835E+03  0.60410680947E+03  0.10566000000E+00 0. -1.
         -4    1    1    2    0  502 -0.42151599384E+03 -0.17900821919E+03  0.15625170413E+03  0.48387423019E+03  0.00000000000E+00 0. -1.
</event>
<event>
 5    1  0.2540860E-005  0.6180923E+03  0.7818608E-02  0.9251102E-01
         -4   -1    0    0    0  501 -0.00000000000E+00  0.00000000000E+00  0.13630905189E+04  0.13630905189E+04  0.00000000000E+00 0. -1.
         21   -1    0    0  501  502  0.00000000000E+00 -0.00000000000E+00 -0.16252522802E+04  0.16252522802E+04  0.00000000000E+00 0. -1.
        -13    1    1    2    0    0  0.31869328801E+02 -0.61441017632E+03  0.10649440140E+04  0.12298866952E+04  0.10566000000E+00 0.  1.
         13    1    1    2    0    0 -0.38940474246E+03  0.63499092183E+03 -0.11190101747E+04  0.13442593896E+04  0.10566000000E+00 0. -1.
         -4    1    1    2    0  502  0.35753541366E+03 -0.20580745516E+02 -0.20809560065E+03  0.41419671428E+03  0.00000000000E+00 0. -1.
</event>
<event>
 5    1  0.2540860E-005  0.3648271E+03  0.7818608E-02  0.9836516E-01
         21   -1    0    0  501  502  0.00000000000E+00  0.00000000000E+00  0.14261957575E+03  0.14261957575E+03  0.00000000000E+00 0. -1.
          4   -1    0    0  502    0 -0.00000000000E+00 -0.00000000000E+00 -0.18916821073E+04  0.18916821073E+04  0.00000000000E+00 0.  1.
        -13    1    1    2    0    0 -0.21188692176E+03 -0.29808563971E+03 -0.15154992277E+04  0.15590025775E+04  0.10566000000E+00 0.  1.
         13    1    1    2    0    0  0.19654646502E+03  0.30315006813E+03 -0.25944142097E+03  0.44479246711E+03  0.10566000000E+00 0. -1.
          4    1    1    2  501    0  0.15340456745E+02 -0.50644284253E+01  0.25878117092E+02  0.30506638501E+02  0.00000000000E+00 0.  1.
</event>
<event>
 5    1  0.2540860E-005  0.2716338E+03  0.7818608E-02  0.1019754E+00
          4   -1    0    0  502    0 -0.00000000000E+00  0.00000000000E+00  0.67296974134E+03  0.67296974134E+03  0.00000000000E+00 0.  1.
         21   -1    0    0  501  502  0.00000000000E+00 -0.00000000000E+00 -0.16809602968E+03  0.16809602968E+03  0.00000000000E+00 0. -1.
        -13    1    1    2    0    0  0.20168569887E+03  0.17144351967E+03  0.96493452478E+02  0.28174633822E+03  0.10566000000E+00 0.  1.
         13    1    1    2    0    0 -0.21116736039E+03 -0.17546842245E+03  0.44411526265E+03  0.52212948495E+03  0.10566000000E+00 0. -1.
          4    1    1    2  501    0  0.94816615222E+01  0.40249027819E+01 -0.35735003469E+02  0.37189947843E+02  0.00000000000E+00 0.  1.
</event>
<event>
 5    1  0.2540860E-005  0.3459992E+03  0.7818608E-02  0.1014144E+00
          4   -1    0    0  502    0 -0.00000000000E+00  0.00000000000E+00  0.15393245297E+04  0.15393245297E+04  0.00000000000E+00 0.  1.
         21   -1    0    0  501  502  0.00000000000E+00 -0.00000000000E+00 -0.25995109521E+03  0.25995109521E+03  0.00000000000E+00 0.  1.
        -13    1    1    2    0    0 -0.34223213755E+03 -0.18463017290E+03  0.86836660026E+03  0.95145767133E+03  0.10566000000E+00 0.  1.
         13    1    1    2    0    0  0.13104955218E+03 -0.86494268376E+02  0.47319819720E+03  0.49856974295E+03  0.10566000000E+00 0. -1.
          4    1    1    2  501    0  0.21118258537E+03  0.27112444128E+03 -0.62191362952E+02  0.34924821065E+03  0.00000000000E+00 0.  1.
</event>
<event>
 5    1  0.2540860E-005  0.5339365E+03  0.7818608E-02  0.9406539E-01
         21   -1    0    0  501  502  0.00000000000E+00  0.00000000000E+00  0.30353557842E+03  0.30353557842E+03  0.00000000000E+00 0. -1.
          4   -1    0    0  502    0 -0.00000000000E+00 -0.00000000000E+00 -0.31397762934E+04  0.31397762934E+04  0.00000000000E+00 0.  1.
        -13    1    1    2    0    0 -0.34954979869E+03 -0.41443636013E+03 -0.17508993425E+04  0.18329187317E+04  0.10566000000E+00 0.  1.
         13    1    1    2    0    0 -0.93731048888E+02  0.67083460323E+03 -0.60126937673E+03  0.90572040331E+03  0.10566000000E+00 0. -1.
          4    1    1    2  501    0  0.44328084757E+03 -0.25639824310E+03 -0.48407199569E+03  0.70467273674E+03  0.00000000000E+00 0.  1.
</event>
<event>
 5    1  0.2540860E-005  0.4855293E+03  0.7818608E-02  0.9838984E-01
         21   -1    0    0  501  502  0.00000000000E+00  0.00000000000E+00  0.39701103703E+03  0.39701103703E+03  0.00000000000E+00 0.  1.
          4   -1    0    0  502    0 -0.00000000000E+00 -0.00000000000E+00 -0.12366819906E+04  0.12366819906E+04  0.00000000000E+00 0.  1.
        -13    1    1    2    0    0 -0.52630040092E+03 -0.17246248522E+03 -0.16328910712E+02  0.55407767082E+03  0.10566000000E+00 0.  1.
         13    1    1    2    0    0  0.15202321451E+03  0.21140731727E+02 -0.59777032706E+03  0.61716072734E+03  0.10566000000E+00 0. -1.
          4    1    1    2  501    0  0.37427718641E+03  0.15132175350E+03 -0.22557171578E+03  0.46245462946E+03  0.00000000000E+00 0.  1.
</event>
<event>
 5    1  0.2540860E-005  0.3633089E+03  0.7818608E-02  0.1005256E+00
          4   -1    0    0  502    0 -0.00000000000E+00  0.00000000000E+00  0.90435341723E+03  0.90435341723E+03  0.00000000000E+00 0.  1.
         21   -1    0    0  501  502  0.00000000000E+00 -0.00000000000E+00 -0.51537073615E+03  0.51537073615E+03  0.00000000000E+00 0.  1.
        -13    1    1    2    0    0  0.25257407097E+03 -0.29249346910E+03 -0.37536181791E+03  0.53874167864E+03  0.10566000000E+00 0.  1.
         13    1    1    2    0    0 -0.17361241234E+03  0.49378325552E+02  0.35791575872E+03  0.40085307814E+03  0.10566000000E+00 0. -1.
          4    1    1    2  501    0 -0.78961658628E+02  0.24311514355E+03  0.40642874027E+03  0.48012939660E+03  0.00000000000E+00 0.  1.
</event>
<event>
 5    1  0.2540860E-005  0.1953751E+03  0.7818608E-02  0.1063353E+00
         21   -1    0    0  501  502  0.00000000000E+00  0.00000000000E+00  0.56572236830E+02  0.56572236830E+02  0.00000000000E+00 0.  1.
          4   -1    0    0  502    0 -0.00000000000E+00 -0.00000000000E+00 -0.11690470601E+04  0.11690470601E+04  0.00000000000E+00 0.  1.
        -13    1    1    2    0    0 -0.25081348037E+02 -0.20399299882E+03 -0.53129401909E+03  0.56966267516E+03  0.10566000000E+00 0.  1.
         13    1    1    2    0    0 -0.84481759920E+01  0.18857443005E+03 -0.58876149376E+03  0.61828132354E+03  0.10566000000E+00 0. -1.
          4    1    1    2  501    0  0.33529524029E+02  0.15418568770E+02  0.75806895488E+01  0.37675298254E+02  0.00000000000E+00 0.  1.
</event>
<event>
 5    1  0.2540860E-005  0.4146961E+03  0.7818608E-02  0.9703646E-01
         21   -1    0    0  501  502  0.00000000000E+00  0.00000000000E+00  0.22188630633E+03  0.22188630633E+03  0.00000000000E+00 0. -1.
          4   -1    0    0  502    0 -0.00000000000E+00 -0.00000000000E+00 -0.25534198463E+04  0.25534198463E+04  0.00000000000E+00 0.  1.
        -13    1    1    2    0    0 -0.25157823090E+03 -0.32837959796E+03 -0.26184967648E+03  0.48958148541E+03  0.10566000000E+00 0.  1.
         13    1    1    2    0    0  0.38798163307E+03 -0.17713359961E+03 -0.70409394822E+03  0.82319764261E+03  0.10566000000E+00 0. -1.
          4    1    1    2  501    0 -0.13640340217E+03  0.50551319757E+03 -0.13655899153E+04  0.14625270246E+04  0.00000000000E+00 0.  1.
</event>
<event>
 5    1  0.2540860E-005  0.4822691E+03  0.7818608E-02  0.9663372E-01
         21   -1    0    0  501  502  0.00000000000E+00  0.00000000000E+00  0.18364207253E+03  0.18364207253E+03  0.00000000000E+00 0.  1.
         -4   -1    0    0    0  501 -0.00000000000E+00 -0.00000000000E+00 -0.27691870738E+04  0.27691870738E+04  0.00000000000E+00 0. -1.
        -13    1    1    2    0    0  0.28104448289E+03 -0.57851292944E+02 -0.22311593608E+03  0.36347421580E+03  0.10566000000E+00 0.  1.
         13    1    1    2    0    0 -0.28782119397E+03  0.46136786243E+03 -0.74506858873E+03  0.92240368455E+03  0.10566000000E+00 0. -1.
         -4    1    1    2    0  502  0.67767110879E+01 -0.40351656949E+03 -0.16173604764E+04  0.16669512460E+04  0.00000000000E+00 0. -1.
</event>
<event>
 5    1  0.2540860E-005  0.5030791E+03  0.7818608E-02  0.9471249E-01
          4   -1    0    0  502    0 -0.00000000000E+00  0.00000000000E+00  0.12076129381E+04  0.12076129381E+04  0.00000000000E+00 0.  1.
         21   -1    0    0  501  502  0.00000000000E+00 -0.00000000000E+00 -0.66684733528E+03  0.66684733528E+03  0.00000000000E+00 0.  1.
        -13    1    1    2    0    0  0.40876719604E+03  0.33627719093E+03 -0.40748031717E+03  0.66799190844E+03  0.10566000000E+00 0.  1.
         13    1    1    2    0    0 -0.49118919076E+03 -0.12242256508E+03  0.55401034865E+03  0.75045425119E+03  0.10566000000E+00 0. -1.
          4    1    1    2  501    0  0.82421994722E+02 -0.21385462586E+03  0.39423557130E+03  0.45601411370E+03  0.00000000000E+00 0.  1.
</event>
<event>
 5    1  0.2540860E-005  0.4964645E+03  0.7818608E-02  0.9641796E-01
         21   -1    0    0  501  502  0.00000000000E+00  0.00000000000E+00  0.25091629388E+03  0.25091629388E+03  0.00000000000E+00 0.  1.
         -4   -1    0    0    0  501 -0.00000000000E+00 -0.00000000000E+00 -0.17606790280E+04  0.17606790280E+04  0.00000000000E+00 0. -1.
        -13    1    1    2    0    0 -0.14947481368E+03 -0.24119965437E+03 -0.25703295482E+03  0.38286543879E+03  0.10566000000E+00 0.  1.
         13    1    1    2    0    0  0.55143606437E+03  0.30487811756E+03 -0.69224046149E+03  0.93607118711E+03  0.10566000000E+00 0. -1.
         -4    1    1    2    0  502 -0.40196125069E+03 -0.63678463193E+02 -0.56048931781E+03  0.69265869598E+03  0.00000000000E+00 0. -1.
</event>
<event>
 5    1  0.2540860E-005  0.4413528E+03  0.7818608E-02  0.1001382E+00
          4   -1    0    0  502    0 -0.00000000000E+00  0.00000000000E+00  0.65921684520E+03  0.65921684520E+03  0.00000000000E+00 0.  1.
         21   -1    0    0  501  502  0.00000000000E+00 -0.00000000000E+00 -0.50680143178E+03  0.50680143178E+03  0.00000000000E+00 0.  1.
        -13    1    1    2    0    0  0.69093937639E+02  0.46766176644E+03  0.33151181071E+03  0.57739206074E+03  0.10566000000E+00 0.  1.
         13    1    1    2    0    0 -0.10876764070E+03 -0.34836042867E+02  0.99709859358E+01  0.11464458675E+03  0.10566000000E+00 0. -1.
          4    1    1    2  501    0  0.39673703065E+02 -0.43282572357E+03 -0.18906738323E+03  0.47398162949E+03  0.00000000000E+00 0.  1.
</event>
<event>
 5    1  0.2540860E-005  0.9590292E+02  0.7818608E-02  0.1171518E+00
          4   -1    0    0  502    0 -0.00000000000E+00  0.00000000000E+00  0.57769478152E+03  0.57769478152E+03  0.00000000000E+00 0.  1.
         21   -1    0    0  501  502  0.00000000000E+00 -0.00000000000E+00 -0.27207680801E+02  0.27207680801E+02  0.00000000000E+00 0. -1.
        -13    1    1    2    0    0 -0.77838944026E+02  0.73692144384E+02  0.34803403045E+03  0.36416635054E+03  0.10566000000E+00 0.  1.
         13    1    1    2    0    0  0.37859189315E+02 -0.75939168458E+02  0.16670500311E+03  0.18705786470E+03  0.10566000000E+00 0. -1.
          4    1    1    2  501    0  0.39979754710E+02  0.22470240741E+01  0.35748067166E+02  0.53678247084E+02  0.00000000000E+00 0.  1.
</event>
<event>
 5    1  0.2540860E-005  0.9255917E+02  0.7818608E-02  0.1177490E+00
         -4   -1    0    0    0  501 -0.00000000000E+00  0.00000000000E+00  0.32432149281E+03  0.32432149281E+03  0.00000000000E+00 0. -1.
         21   -1    0    0  501  502  0.00000000000E+00 -0.00000000000E+00 -0.72995307479E+02  0.72995307479E+02  0.00000000000E+00 0.  1.
        -13    1    1    2    0    0  0.94524186440E+02 -0.22647511736E+02  0.39683982579E+02  0.10498838625E+03  0.10566000000E+00 0.  1.
         13    1    1    2    0    0 -0.68413333338E+02  0.64677983384E+02  0.22256325086E+03  0.24165685902E+03  0.10566000000E+00 0. -1.
         -4    1    1    2    0  502 -0.26110853102E+02 -0.42030471649E+02 -0.10921048105E+02  0.50671555023E+02  0.00000000000E+00 0. -1.
</event>
<event>
 5    1  0.2540860E-005  0.4902510E+03  0.7818608E-02  0.9828812E-01
         -4   -1    0    0    0  501 -0.00000000000E+00  0.00000000000E+00  0.15657661390E+04  0.15657661390E+04  0.00000000000E+00 0. -1.
         21   -1    0    0  501  502  0.00000000000E+00 -0.00000000000E+00 -0.21914002124E+03  0.21914002124E+03  0.00000000000E+00 0. -1.
        -13    1    1    2    0    0  0.62425027134E+02  0.14113664241E+03  0.13668308314E+03  0.20615215794E+03  0.10566000000E+00 0.  1.
         13    1    1    2    0    0 -0.92668268380E+02  0.42960302931E+03  0.46503009675E+03  0.63984308452E+03  0.10566000000E+00 0. -1.
         -4    1    1    2    0  502  0.30243241247E+02 -0.57073967172E+03  0.74491293791E+03  0.93891091781E+03  0.00000000000E+00 0. -1.
</event>
<event>
 5    1  0.2540860E-005  0.5871618E+02  0.7818608E-02  0.1259876E+00
         -4   -1    0    0    0  501 -0.00000000000E+00  0.00000000000E+00  0.13857603983E+03  0.13857603983E+03  0.00000000000E+00 0. -1.
         21   -1    0    0  501  502  0.00000000000E+00 -0.00000000000E+00 -0.34094763711E+03  0.34094763711E+03  0.00000000000E+00 0. -1.
        -13    1    1    2    0    0  0.54280707518E+02  0.12069439267E+02 -0.62206916255E+02  0.83437270850E+02  0.10566000000E+00 0.  1.
         13    1    1    2    0    0 -0.50181764693E+02 -0.31580871044E+02  0.12069153172E+03  0.13446939397E+03  0.10566000000E+00 0. -1.
         -4    1    1    2    0  502 -0.40989428252E+01  0.19511431777E+02 -0.26085621275E+03  0.26161701212E+03  0.00000000000E+00 0. -1.
</event>
<event>
 5    1  0.2540860E-005  0.4380667E+03  0.7818608E-02  0.9978233E-01
         21   -1    0    0  501  502  0.00000000000E+00  0.00000000000E+00  0.29026782314E+03  0.29026782314E+03  0.00000000000E+00 0.  1.
          4   -1    0    0  502    0 -0.00000000000E+00 -0.00000000000E+00 -0.12554802094E+04  0.12554802094E+04  0.00000000000E+00 0.  1.
        -13    1    1    2    0    0  0.18103871120E+03 -0.49590570188E+03 -0.63115656533E+03  0.82283418817E+03  0.10566000000E+00 0.  1.
         13    1    1    2    0    0 -0.89299605692E+02  0.96202196961E+02 -0.28003927315E+03  0.30927542409E+03  0.10566000000E+00 0. -1.
          4    1    1    2  501    0 -0.91739105507E+02  0.39970350492E+03 -0.54016547838E+02  0.41363842032E+03  0.00000000000E+00 0.  1.
</event>
<event>
 5    1  0.2540860E-005  0.9408150E+02  0.7818608E-02  0.1244670E+00
         21   -1    0    0  501  502  0.00000000000E+00  0.00000000000E+00  0.66360751851E+02  0.66360751851E+02  0.00000000000E+00 0.  1.
          4   -1    0    0  502    0 -0.00000000000E+00 -0.00000000000E+00 -0.19063924827E+03  0.19063924827E+03  0.00000000000E+00 0.  1.
        -13    1    1    2    0    0 -0.12759518250E+02 -0.93898974560E+02 -0.10485485427E+03  0.14133072687E+03  0.10566000000E+00 0.  1.
         13    1    1    2    0    0  0.19613387224E+02 -0.26090857336E+00 -0.36224086967E+01  0.19947081002E+02  0.10566000000E+00 0. -1.
          4    1    1    2  501    0 -0.68538689737E+01  0.94159883133E+02 -0.15801233460E+02  0.95722192257E+02  0.00000000000E+00 0.  1.
</event>
<event>
 5    1  0.2540860E-005  0.5082788E+02  0.7818608E-02  0.1326408E+00
         21   -1    0    0  501  502  0.00000000000E+00  0.00000000000E+00  0.48012516466E+02  0.48012516466E+02  0.00000000000E+00 0. -1.
         -4   -1    0    0    0  501 -0.00000000000E+00 -0.00000000000E+00 -0.11058794849E+03  0.11058794849E+03  0.00000000000E+00 0. -1.
        -13    1    1    2    0    0 -0.20891871359E+02 -0.12880184278E+02 -0.63217319021E+01  0.25344523949E+02  0.10566000000E+00 0.  1.
         13    1    1    2    0    0  0.66322861219E+02  0.15164612906E+02 -0.55436043983E+02  0.87760204771E+02  0.10566000000E+00 0. -1.
         -4    1    1    2    0  502 -0.45430989860E+02 -0.22844286280E+01 -0.81765613718E+00  0.45495736233E+02  0.00000000000E+00 0. -1.
</event>
<event>
 5    1  0.2540860E-005  0.4945033E+03  0.7818608E-02  0.9669441E-01
          4   -1    0    0  502    0 -0.00000000000E+00  0.00000000000E+00  0.24540647585E+04  0.24540647585E+04  0.00000000000E+00 0.  1.
         21   -1    0    0  501  502  0.00000000000E+00 -0.00000000000E+00 -0.17894967673E+03  0.17894967673E+03  0.00000000000E+00 0. -1.
        -13    1    1    2    0    0 -0.14551211301E+03 -0.35224334824E+03  0.69027388298E+03  0.78849679524E+03  0.10566000000E+00 0.  1.
         13    1    1    2    0    0 -0.85134203383E+02 -0.24625610848E+03  0.73486193870E+03  0.77968710626E+03  0.10566000000E+00 0. -1.
          4    1    1    2  501    0  0.23064631640E+03  0.59849945673E+03  0.84997926010E+03  0.10648305337E+04  0.00000000000E+00 0.  1.
</event>
<event>
 5    1  0.2540860E-005  0.4648396E+03  0.7818608E-02  0.9790840E-01
          4   -1    0    0  502    0 -0.00000000000E+00  0.00000000000E+00  0.14440097821E+04  0.14440097821E+04  0.00000000000E+00 0.  1.
         21   -1    0    0  501  502  0.00000000000E+00 -0.00000000000E+00 -0.34550000875E+03  0.34550000875E+03  0.00000000000E+00 0.  1.
        -13    1    1    2    0    0 -0.20648826320E+03 -0.57457358322E+03  0.42703334260E+03  0.74507025993E+03  0.10566000000E+00 0.  1.
         13    1    1    2    0    0  0.62458400244E+02  0.19635596744E+03  0.59878990102E+03  0.63325040421E+03  0.10566000000E+00 0. -1.
          4    1    1    2  501    0  0.14402986295E+03  0.37821761578E+03  0.72686529718E+02  0.41118912669E+03  0.00000000000E+00 0.  1.
</event>
<event>
 5    1  0.2540860E-005  0.1559060E+03  0.7818608E-02  0.1095429E+00
         21   -1    0    0  501  502  0.00000000000E+00  0.00000000000E+00  0.12137460952E+04  0.12137460952E+04  0.00000000000E+00 0.  1.
          4   -1    0    0  502    0 -0.00000000000E+00 -0.00000000000E+00 -0.30562822995E+02  0.30562822995E+02  0.00000000000E+00 0.  1.
        -13    1    1    2    0    0 -0.10682603955E+03  0.11501655694E+03  0.27676799657E+03  0.31818413880E+03  0.10566000000E+00 0.  1.
         13    1    1    2    0    0  0.96255229431E+02 -0.12021442388E+03  0.59887533905E+03  0.61835932902E+03  0.10566000000E+00 0. -1.
          4    1    1    2  501    0  0.10570810118E+02  0.51978669460E+01  0.30753993660E+03  0.30776545039E+03  0.00000000000E+00 0.  1.
</event>
<event>
 5    1  0.2540860E-005  0.9973336E+02  0.7818608E-02  0.1164997E+00
          4   -1    0    0  502    0 -0.00000000000E+00  0.00000000000E+00  0.37730062148E+03  0.37730062148E+03  0.00000000000E+00 0.  1.
         21   -1    0    0  501  502  0.00000000000E+00 -0.00000000000E+00 -0.15849355289E+03  0.15849355289E+03  0.00000000000E+00 0. -1.
        -13    1    1    2    0    0  0.98306787441E+02 -0.18575560580E+02  0.34420091480E+03  0.35844603056E+03  0.10566000000E+00 0.  1.
         13    1    1    2    0    0 -0.89038975349E+02  0.40416734839E+02 -0.80846408918E+02  0.12687633580E+03  0.10566000000E+00 0. -1.
          4    1    1    2  501    0 -0.92678120915E+01 -0.21841174259E+02 -0.44547437297E+02  0.50471808009E+02  0.00000000000E+00 0.  1.
</event>
<event>
 5    1  0.2540860E-005  0.4524367E+02  0.7818608E-02  0.1312566E+00
         -4   -1    0    0    0  501 -0.00000000000E+00  0.00000000000E+00  0.98918181007E+02  0.98918181007E+02  0.00000000000E+00 0. -1.
         21   -1    0    0  501  502  0.00000000000E+00 -0.00000000000E+00 -0.33976329530E+03  0.33976329530E+03  0.00000000000E+00 0. -1.
        -13    1    1    2    0    0  0.20503785492E+02 -0.40235261150E+02 -0.26096336303E+02  0.52156604488E+02  0.10566000000E+00 0.  1.
         13    1    1    2    0    0  0.13798736056E+02  0.94183714691E+01  0.83285369630E+02  0.84944539532E+02  0.10566000000E+00 0. -1.
         -4    1    1    2    0  502 -0.34302521548E+02  0.30816889681E+02 -0.29803414762E+03  0.30158033228E+03  0.00000000000E+00 0. -1.
</event>
<event>
 5    1  0.2540860E-005  0.4308934E+03  0.7818608E-02  0.9993156E-01
         21   -1    0    0  501  502  0.00000000000E+00  0.00000000000E+00  0.84495720357E+03  0.84495720357E+03  0.00000000000E+00 0. -1.
         -4   -1    0    0    0  501 -0.00000000000E+00 -0.00000000000E+00 -0.35031320297E+03  0.35031320297E+03  0.00000000000E+00 0. -1.
        -13    1    1    2    0    0  0.13053377392E+03  0.14378324206E+02  0.55117541016E+02  0.14242105474E+03  0.10566000000E+00 0.  1.
         13    1    1    2    0    0  0.38991228491E+03 -0.53784123933E+02  0.34295226396E+03  0.52205420067E+03  0.10566000000E+00 0. -1.
         -4    1    1    2    0  502 -0.52044605883E+03  0.39405799726E+02  0.96574195627E+02  0.53079515114E+03  0.00000000000E+00 0. -1.
</event>
<event>
 5    1  0.2540860E-005  0.4146494E+03  0.7818608E-02  0.9688099E-01
         21   -1    0    0  501  502  0.00000000000E+00  0.00000000000E+00  0.29566377384E+03  0.29566377384E+03  0.00000000000E+00 0.  1.
          4   -1    0    0  502    0 -0.00000000000E+00 -0.00000000000E+00 -0.19891110436E+04  0.19891110436E+04  0.00000000000E+00 0.  1.
        -13    1    1    2    0    0 -0.33856975998E+03 -0.41343660264E+03 -0.19512711414E+03  0.56888830943E+03  0.10566000000E+00 0.  1.
         13    1    1    2    0    0  0.42094069145E+03  0.67309015537E+01 -0.73213529851E+03  0.84454631445E+03  0.10566000000E+00 0. -1.
          4    1    1    2  501    0 -0.82370931469E+02  0.40670570108E+03 -0.76618485709E+03  0.87134019354E+03  0.00000000000E+00 0.  1.
</event>
<event>
 5    1  0.2540860E-005  0.3748921E+03  0.7818608E-02  0.9946249E-01
         -4   -1    0    0    0  501 -0.00000000000E+00  0.00000000000E+00  0.19829896331E+04  0.19829896331E+04  0.00000000000E+00 0. -1.
         21   -1    0    0  501  502  0.00000000000E+00 -0.00000000000E+00 -0.20983561457E+03  0.20983561457E+03  0.00000000000E+00 0. -1.
        -13    1    1    2    0    0 -0.23050823734E+03  0.32327913266E+02  0.53060375515E+03  0.57941306303E+03  0.10566000000E+00 0.  1.
         13    1    1    2    0    0 -0.24309222231E+03 -0.25263694357E+03  0.11203907055E+03  0.36806523647E+03  0.10566000000E+00 0. -1.
         -4    1    1    2    0  502  0.47360045966E+03  0.22030903031E+03  0.11305111928E+04  0.12453469482E+04  0.00000000000E+00 0. -1.
</event>
<event>
 5    1  0.2540860E-005  0.4194919E+03  0.7818608E-02  0.9754406E-01
         -4   -1    0    0    0  501 -0.00000000000E+00  0.00000000000E+00  0.63271136385E+03  0.63271136385E+03  0.00000000000E+00 0. -1.
         21   -1    0    0  501  502  0.00000000000E+00 -0.00000000000E+00 -0.81619552688E+03  0.81619552688E+03  0.00000000000E+00 0. -1.
        -13    1    1    2    0    0  0.19098245546E+03 -0.25389796051E+03  0.14210668390E+03  0.34804136740E+03  0.10566000000E+00 0.  1.
         13    1    1    2    0    0 -0.10315681896E+03  0.61354709583E+03 -0.22769393297E+02  0.62257515573E+03  0.10566000000E+00 0. -1.
         -4    1    1    2    0  502 -0.87825636504E+02 -0.35964913532E+03 -0.30282145364E+03  0.47829036760E+03  0.00000000000E+00 0. -1.
</event>
<event>
 5    1  0.2540860E-005  0.3709878E+03  0.7818608E-02  0.1019553E+00
         21   -1    0    0  501  502  0.00000000000E+00  0.00000000000E+00  0.23041237752E+03  0.23041237752E+03  0.00000000000E+00 0.  1.
          4   -1    0    0  502    0 -0.00000000000E+00 -0.00000000000E+00 -0.84761480820E+03  0.84761480820E+03  0.00000000000E+00 0.  1.
        -13    1    1    2    0    0  0.17575585570E+03 -0.34207203532E+03 -0.16934787097E+03  0.42021674256E+03  0.10566000000E+00 0.  1.
         13    1    1    2    0    0  0.72969190604E+02  0.78672683743E+02 -0.17091846448E+03  0.20180938186E+03  0.10566000000E+00 0. -1.
          4    1    1    2  501    0 -0.24872504630E+03  0.26339935158E+03 -0.27693609523E+03  0.45600106130E+03  0.00000000000E+00 0.  1.
</event>
<event>
 5    1  0.2540860E-005  0.1477076E+03  0.7818608E-02  0.1103395E+00
         -4   -1    0    0    0  501 -0.00000000000E+00  0.00000000000E+00  0.68783959101E+02  0.68783959101E+02  0.00000000000E+00 0. -1.
         21   -1    0    0  501  502  0.00000000000E+00 -0.00000000000E+00 -0.43491507220E+03  0.43491507220E+03  0.00000000000E+00 0.  1.
        -13    1    1    2    0    0 -0.61926471713E+02 -0.14994886141E+03 -0.15809011726E+03  0.22652162209E+03  0.10566000000E+00 0.  1.
         13    1    1    2    0    0  0.64091970902E+02  0.12115396765E+03 -0.11235093032E+03  0.17722530101E+03  0.10566000000E+00 0. -1.
         -4    1    1    2    0  502 -0.21654991885E+01  0.28794893761E+02 -0.95690065521E+02  0.99952108196E+02  0.00000000000E+00 0. -1.
</event>
<event>
 5    1  0.2540860E-005  0.4529191E+03  0.7818608E-02  0.9870271E-01
         -4   -1    0    0    0  501 -0.00000000000E+00  0.00000000000E+00  0.46293149197E+03  0.46293149197E+03  0.00000000000E+00 0. -1.
         21   -1    0    0  501  502  0.00000000000E+00 -0.00000000000E+00 -0.77382802562E+03  0.77382802562E+03  0.00000000000E+00 0. -1.
        -13    1    1    2    0    0 -0.78453806786E+02  0.15095818995E+03  0.21340849417E+02  0.17146083498E+03  0.10566000000E+00 0.  1.
         13    1    1    2    0    0  0.47251865219E+03 -0.28425572415E+03 -0.32165579619E+02  0.55236747647E+03  0.10566000000E+00 0. -1.
         -4    1    1    2    0  502 -0.39406484541E+03  0.13329753420E+03 -0.30007180345E+03  0.51293120614E+03  0.00000000000E+00 0. -1.
</event>
<event>
 5    1  0.2540860E-005  0.5011260E+03  0.7818608E-02  0.9716391E-01
          4   -1    0    0  502    0 -0.00000000000E+00  0.00000000000E+00  0.23247122539E+04  0.23247122539E+04  0.00000000000E+00 0.  1.
         21   -1    0    0  501  502  0.00000000000E+00 -0.00000000000E+00 -0.16660849534E+03  0.16660849534E+03  0.00000000000E+00 0.  1.
        -13    1    1    2    0    0 -0.25605667683E+03  0.40178075221E+03  0.77430203915E+03  0.90914050267E+03  0.10566000000E+00 0.  1.
         13    1    1    2    0    0 -0.19542318845E+03 -0.83579695556E+02  0.43960115045E+03  0.48828779499E+03  0.10566000000E+00 0. -1.
          4    1    1    2  501    0  0.45147986528E+03 -0.31820105666E+03  0.94420056895E+03  0.10938924516E+04  0.00000000000E+00 0.  1.
</event>
<event>
 5    1  0.2540860E-005  0.1552891E+03  0.7818608E-02  0.1096010E+00
         21   -1    0    0  501  502  0.00000000000E+00  0.00000000000E+00  0.30837867952E+03  0.30837867952E+03  0.00000000000E+00 0.  1.
         -4   -1    0    0    0  501 -0.00000000000E+00 -0.00000000000E+00 -0.10740162731E+03  0.10740162731E+03  0.00000000000E+00 0. -1.
        -13    1    1    2    0    0  0.15297671250E+03 -0.13330539252E+02  0.69765605415E+02  0.16866187686E+03  0.10566000000E+00 0.  1.
         13    1    1    2    0    0 -0.15328988998E+03  0.37303962509E+02  0.54762249078E+02  0.16699787746E+03  0.10566000000E+00 0. -1.
         -4    1    1    2    0  502  0.31317748048E+00 -0.23973423257E+02  0.76449197716E+02  0.80120552509E+02  0.00000000000E+00 0. -1.
</event>
<event>
 5    1  0.2540860E-005  0.4010131E+03  0.7818608E-02  0.9910638E-01
         21   -1    0    0  501  502  0.00000000000E+00  0.00000000000E+00  0.10184960464E+04  0.10184960464E+04  0.00000000000E+00 0. -1.
         -4   -1    0    0    0  501 -0.00000000000E+00 -0.00000000000E+00 -0.38870721351E+03  0.38870721351E+03  0.00000000000E+00 0. -1.
        -13    1    1    2    0    0  0.11920756186E+03  0.17783242193E+03  0.65708436144E+02  0.22394736622E+03  0.10566000000E+00 0.  1.
         13    1    1    2    0    0 -0.18509360283E+03  0.24739371618E+03 -0.15468650439E+03  0.34553034370E+03  0.10566000000E+00 0. -1.
         -4    1    1    2    0  502  0.65886040974E+02 -0.42522613811E+03  0.71876690111E+03  0.83772554996E+03  0.00000000000E+00 0. -1.
</event>
<event>
 5    1  0.2540860E-005  0.6074367E+02  0.7818608E-02  0.1260420E+00
          4   -1    0    0  502    0 -0.00000000000E+00  0.00000000000E+00  0.25475317307E+03  0.25475317307E+03  0.00000000000E+00 0.  1.
         21   -1    0    0  501  502  0.00000000000E+00 -0.00000000000E+00 -0.21108965595E+03  0.21108965595E+03  0.00000000000E+00 0. -1.
        -13    1    1    2    0    0 -0.51431904418E+02 -0.22676162391E+02  0.21883621255E+03  0.22593970041E+03  0.10566000000E+00 0.  1.
         13    1    1    2    0    0  0.85760066607E+02 -0.32963649641E+02 -0.13457086960E+03  0.16294392081E+03  0.10566000000E+00 0. -1.
          4    1    1    2  501    0 -0.34328162190E+02  0.55639812033E+02 -0.40601825835E+02  0.76959207789E+02  0.00000000000E+00 0.  1.
</event>
<event>
 5    1  0.2540860E-005  0.2800772E+03  0.7818608E-02  0.1033439E+00
         21   -1    0    0  501  502  0.00000000000E+00  0.00000000000E+00  0.87975160890E+02  0.87975160890E+02  0.00000000000E+00 0. -1.
         -4   -1    0    0    0  501 -0.00000000000E+00 -0.00000000000E+00 -0.27764189752E+04  0.27764189752E+04  0.00000000000E+00 0. -1.
        -13    1    1    2    0    0  0.31408230093E+02 -0.15880527361E+03 -0.46537701643E+03  0.49272849565E+03  0.10566000000E+00 0.  1.
         13    1    1    2    0    0  0.14943490482E+03  0.35425221924E+03 -0.19600041230E+04  0.19973586556E+04  0.10566000000E+00 0. -1.
         -4    1    1    2    0  502 -0.18084313491E+03 -0.19544694563E+03 -0.26306267484E+03  0.37430698483E+03  0.00000000000E+00 0. -1.
</event>
<event>
 5    1  0.2540860E-005  0.3526582E+03  0.7818608E-02  0.9995864E-01
          4   -1    0    0  502    0 -0.00000000000E+00  0.00000000000E+00  0.16669299976E+03  0.16669299976E+03  0.00000000000E+00 0.  1.
         21   -1    0    0  501  502  0.00000000000E+00 -0.00000000000E+00 -0.18576859467E+04  0.18576859467E+04  0.00000000000E+00 0.  1.
        -13    1    1    2    0    0 -0.50485658215E+03 -0.10299299190E+03 -0.69492428587E+03  0.86510548442E+03  0.10566000000E+00 0.  1.
         13    1    1    2    0    0  0.23494605142E+03 -0.34235327294E+02 -0.21025625845E+03  0.31714257062E+03  0.10566000000E+00 0. -1.
          4    1    1    2  501    0  0.26991053072E+03  0.13722831920E+03 -0.78581240259E+03  0.84213089140E+03  0.00000000000E+00 0.  1.
</event>
<event>
 5    1  0.2540860E-005  0.3317917E+03  0.7818608E-02  0.9949845E-01
         21   -1    0    0  501  502  0.00000000000E+00  0.00000000000E+00  0.34962142691E+03  0.34962142691E+03  0.00000000000E+00 0. -1.
         -4   -1    0    0    0  501 -0.00000000000E+00 -0.00000000000E+00 -0.20058012722E+04  0.20058012722E+04  0.00000000000E+00 0. -1.
        -13    1    1    2    0    0  0.26700917880E+03  0.20293060451E+03 -0.11286571759E+04  0.11774301524E+04  0.10566000000E+00 0.  1.
         13    1    1    2    0    0 -0.38288724035E+02 -0.40952294311E+03  0.14668024911E+03  0.43668086054E+03  0.10566000000E+00 0. -1.
         -4    1    1    2    0  502 -0.22872045477E+03  0.20659233860E+03 -0.67420291851E+03  0.74131168622E+03  0.00000000000E+00 0. -1.
</event>
<event>
 5    1  0.2540860E-005  0.1046888E+03  0.7818608E-02  0.1157023E+00
         21   -1    0    0  501  502  0.00000000000E+00  0.00000000000E+00  0.48422477221E+02  0.48422477221E+02  0.00000000000E+00 0.  1.
          4   -1    0    0  502    0 -0.00000000000E+00 -0.00000000000E+00 -0.32865265886E+03  0.32865265886E+03  0.00000000000E+00 0.  1.
        -13    1    1    2    0    0 -0.38761971416E+02 -0.10466400855E+03 -0.21083139253E+03  0.23855173936E+03  0.10566000000E+00 0.  1.
         13    1    1    2    0    0  0.16445487212E+02  0.91672280439E+02 -0.61145549942E+02  0.11141387029E+03  0.10566000000E+00 0. -1.
          4    1    1    2  501    0  0.22316484204E+02  0.12991728108E+02 -0.82532391664E+01  0.27109526429E+02  0.00000000000E+00 0.  1.
</event>
<event>
 5    1  0.2540860E-005  0.2426149E+03  0.7818608E-02  0.1049791E+00
         21   -1    0    0  501  502  0.00000000000E+00  0.00000000000E+00  0.10613969704E+04  0.10613969704E+04  0.00000000000E+00 0. -1.
         -4   -1    0    0    0  501 -0.00000000000E+00 -0.00000000000E+00 -0.41445850459E+03  0.41445850459E+03  0.00000000000E+00 0. -1.
        -13    1    1    2    0    0 -0.15156135438E+03 -0.11037643985E+02 -0.21434485939E+03  0.26274779473E+03  0.10566000000E+00 0.  1.
         13    1    1    2    0    0  0.32969156250E+03  0.15830673513E+03  0.49500010383E+02  0.36906342404E+03  0.10566000000E+00 0. -1.
         -4    1    1    2    0  502 -0.17813020811E+03 -0.14726909115E+03  0.81178331483E+03  0.84404425624E+03  0.00000000000E+00 0. -1.
</event>
<event>
 5    1  0.2540860E-005  0.2223609E+02  0.7818608E-02  0.1480936E+00
         21   -1    0    0  501  502  0.00000000000E+00  0.00000000000E+00  0.75845943946E+02  0.75845943946E+02  0.00000000000E+00 0. -1.
         -4   -1    0    0    0  501 -0.00000000000E+00 -0.00000000000E+00 -0.71980774537E+02  0.71980774537E+02  0.00000000000E+00 0. -1.
        -13    1    1    2    0    0  0.16354078750E+02  0.47974555120E+01  0.10800538324E+02  0.20177568319E+02  0.10566000000E+00 0.  1.
         13    1    1    2    0    0 -0.16717243569E+02 -0.15991653995E+02 -0.64750439366E+02  0.68759216053E+02  0.10566000000E+00 0. -1.
         -4    1    1    2    0  502  0.36316481919E+00  0.11194198483E+02  0.57815070451E+02  0.58889934111E+02  0.00000000000E+00 0. -1.
</event>
<event>
 5    1  0.2540860E-005  0.1829134E+03  0.7818608E-02  0.1072526E+00
         21   -1    0    0  501  502  0.00000000000E+00  0.00000000000E+00  0.73744664205E+02  0.73744664205E+02  0.00000000000E+00 0. -1.
          4   -1    0    0  502    0 -0.00000000000E+00 -0.00000000000E+00 -0.60443557280E+03  0.60443557280E+03  0.00000000000E+00 0.  1.
        -13    1    1    2    0    0  0.11319265473E+03  0.14496917431E+03 -0.24040744421E+03  0.30269520806E+03  0.10566000000E+00 0.  1.
         13    1    1    2    0    0 -0.13237678552E+03 -0.12629299327E+03 -0.29612116637E+03  0.34808230324E+03  0.10566000000E+00 0. -1.
          4    1    1    2  501    0  0.19184130787E+02 -0.18676181033E+02  0.58377019761E+01  0.27402725711E+02  0.00000000000E+00 0.  1.
</event>
<event>
 5    1  0.2540860E-005  0.4735854E+03  0.7818608E-02  0.9793420E-01
         21   -1    0    0  501  502  0.00000000000E+00  0.00000000000E+00  0.32211978508E+03  0.32211978508E+03  0.00000000000E+00 0.  1.
          4   -1    0    0  502    0 -0.00000000000E+00 -0.00000000000E+00 -0.15256380697E+04  0.15256380697E+04  0.00000000000E+00 0.  1.
        -13    1    1    2    0    0  0.22306133111E+03  0.39506674639E+03 -0.11531407439E+03  0.46811477060E+03  0.10566000000E+00 0.  1.
         13    1    1    2    0    0 -0.14288730324E+03  0.12993725909E+03 -0.68814553610E+03  0.71473405036E+03  0.10566000000E+00 0. -1.
          4    1    1    2  501    0 -0.80174027872E+02 -0.52500400548E+03 -0.40005867414E+03  0.66490903383E+03  0.00000000000E+00 0.  1.
</event>
<event>
 5    1  0.2540860E-005  0.4906783E+03  0.7818608E-02  0.1007524E+00
         -4   -1    0    0    0  501 -0.00000000000E+00  0.00000000000E+00  0.61957256854E+03  0.61957256854E+03  0.00000000000E+00 0. -1.
         21   -1    0    0  501  502  0.00000000000E+00 -0.00000000000E+00 -0.47932965462E+03  0.47932965462E+03  0.00000000000E+00 0. -1.
        -13    1    1    2    0    0  0.20161002460E+02 -0.65027200543E+02  0.85410843133E+02  0.10922465893E+03  0.10566000000E+00 0.  1.
         13    1    1    2    0    0  0.40520049531E+03 -0.22422852095E+03  0.98395033497E+02  0.47344214513E+03  0.10566000000E+00 0. -1.
         -4    1    1    2    0  502 -0.42536149777E+03  0.28925572149E+03 -0.43562962711E+02  0.51623541909E+03  0.00000000000E+00 0. -1.
</event>
<event>
 5    1  0.2540860E-005  0.3757982E+03  0.7818608E-02  0.9801667E-01
         21   -1    0    0  501  502  0.00000000000E+00  0.00000000000E+00  0.14720935508E+03  0.14720935508E+03  0.00000000000E+00 0.  1.
          4   -1    0    0  502    0 -0.00000000000E+00 -0.00000000000E+00 -0.19511222496E+04  0.19511222496E+04  0.00000000000E+00 0.  1.
        -13    1    1    2    0    0  0.99684671880E+02  0.36345739655E+03 -0.13469175763E+04  0.13986512365E+04  0.10566000000E+00 0.  1.
         13    1    1    2    0    0 -0.34828073920E+02 -0.37564006542E+03 -0.49589217184E+03  0.62307905656E+03  0.10566000000E+00 0. -1.
          4    1    1    2  501    0 -0.64856597960E+02  0.12182668861E+02  0.38896853599E+02  0.76601311604E+02  0.00000000000E+00 0.  1.
</event>
<event>
 5    1  0.2540860E-005  0.1534676E+03  0.7818608E-02  0.1097741E+00
         21   -1    0    0  501  502  0.00000000000E+00  0.00000000000E+00  0.20606117333E+03  0.20606117333E+03  0.00000000000E+00 0.  1.
         -4   -1    0    0    0  501 -0.00000000000E+00 -0.00000000000E+00 -0.18493450626E+03  0.18493450626E+03  0.00000000000E+00 0. -1.
        -13    1    1    2    0    0  0.15299862726E+03 -0.37802332503E+02 -0.71772370933E+02  0.17317297907E+03  0.10566000000E+00 0.  1.
         13    1    1    2    0    0 -0.14209161716E+03  0.35351742568E+02  0.24430308726E+02  0.14844737963E+03  0.10566000000E+00 0. -1.
         -4    1    1    2    0  502 -0.10907010099E+02  0.24505899350E+01  0.68468729280E+02  0.69375320897E+02  0.00000000000E+00 0. -1.
</event>
<event>
 5    1  0.2540860E-005  0.4532443E+02  0.7818608E-02  0.1332554E+00
         -4   -1    0    0    0  501 -0.00000000000E+00  0.00000000000E+00  0.49641652007E+02  0.49641652007E+02  0.00000000000E+00 0. -1.
         21   -1    0    0  501  502  0.00000000000E+00 -0.00000000000E+00 -0.91863656593E+02  0.91863656593E+02  0.00000000000E+00 0. -1.
        -13    1    1    2    0    0 -0.39557641416E+01 -0.30628955494E+02 -0.30150841159E+01  0.31030354185E+02  0.10566000000E+00 0.  1.
         13    1    1    2    0    0 -0.30310898757E+02 -0.96742289370E+01  0.14609545230E+02  0.35011301959E+02  0.10566000000E+00 0. -1.
         -4    1    1    2    0  502  0.34266662899E+02  0.40303184431E+02 -0.53816465700E+02  0.75463652455E+02  0.00000000000E+00 0. -1.
</event>
<event>
 5    1  0.2540860E-005  0.4104846E+03  0.7818608E-02  0.9870443E-01
         21   -1    0    0  501  502  0.00000000000E+00  0.00000000000E+00  0.82188558286E+03  0.82188558286E+03  0.00000000000E+00 0.  1.
         -4   -1    0    0    0  501 -0.00000000000E+00 -0.00000000000E+00 -0.47915225133E+03  0.47915225133E+03  0.00000000000E+00 0. -1.
        -13    1    1    2    0    0  0.20259534042E+03 -0.10545816269E+03  0.75384950186E+02  0.24051860202E+03  0.10566000000E+00 0.  1.
         13    1    1    2    0    0  0.26362929988E+03  0.29504618779E+03  0.37577586975E+03  0.54567405668E+03  0.10566000000E+00 0. -1.
         -4    1    1    2    0  502 -0.46622464030E+03 -0.18958802510E+03 -0.10842748841E+03  0.51484517549E+03  0.00000000000E+00 0. -1.
</event>
<event>
 5    1  0.2540860E-005  0.3426933E+03  0.7818608E-02  0.9910949E-01
         21   -1    0    0  501  502  0.00000000000E+00  0.00000000000E+00  0.10912436473E+03  0.10912436473E+03  0.00000000000E+00 0.  1.
         -4   -1    0    0    0  501 -0.00000000000E+00 -0.00000000000E+00 -0.23686923303E+04  0.23686923303E+04  0.00000000000E+00 0. -1.
        -13    1    1    2    0    0 -0.39875499940E+02  0.27189500590E+03 -0.42469426516E+03  0.50584798087E+03  0.10566000000E+00 0.  1.
         13    1    1    2    0    0  0.84610559204E+02 -0.36510665195E+03 -0.18305131781E+04  0.18684861038E+04  0.10566000000E+00 0. -1.
         -4    1    1    2    0  502 -0.44735059264E+02  0.93211646051E+02 -0.43605223747E+01  0.10348261034E+03  0.00000000000E+00 0. -1.
</event>
<event>
 5    1  0.2540860E-005  0.3982289E+03  0.7818608E-02  0.1010834E+00
          4   -1    0    0  502    0 -0.00000000000E+00  0.00000000000E+00  0.16821351886E+04  0.16821351886E+04  0.00000000000E+00 0.  1.
         21   -1    0    0  501  502  0.00000000000E+00 -0.00000000000E+00 -0.22945744960E+03  0.22945744960E+03  0.00000000000E+00 0.  1.
        -13    1    1    2    0    0  0.39812760436E+03  0.33127055779E+01  0.47441319537E+02  0.40095791966E+03  0.10566000000E+00 0.  1.
         13    1    1    2    0    0 -0.37796134578E+01  0.11442496863E+03  0.54663668872E+03  0.55849712582E+03  0.10566000000E+00 0. -1.
          4    1    1    2  501    0 -0.39434799091E+03 -0.11773767420E+03  0.85859973076E+03  0.95213759275E+03  0.00000000000E+00 0.  1.
</event>
<event>
 5    1  0.2540860E-005  0.4079324E+03  0.7818608E-02  0.9864805E-01
         21   -1    0    0  501  502  0.00000000000E+00  0.00000000000E+00  0.49477723080E+03  0.49477723080E+03  0.00000000000E+00 0.  1.
          4   -1    0    0  502    0 -0.00000000000E+00 -0.00000000000E+00 -0.80551135169E+03  0.80551135169E+03  0.00000000000E+00 0.  1.
        -13    1    1    2    0    0 -0.20569228489E+03  0.46438164576E+03 -0.27891026821E+03  0.57943988287E+03  0.10566000000E+00 0.  1.
         13    1    1    2    0    0 -0.95035551722E+02 -0.21730118788E+03 -0.18681371847E+03  0.30191213774E+03  0.10566000000E+00 0. -1.
          4    1    1    2  501    0  0.30072783661E+03 -0.24708045788E+03  0.15498986578E+03  0.41893656187E+03  0.00000000000E+00 0.  1.
</event>
<event>
 5    1  0.2540860E-005  0.3687773E+02  0.7818608E-02  0.1356896E+00
         21   -1    0    0  501  502  0.00000000000E+00  0.00000000000E+00  0.54219610225E+02  0.54219610225E+02  0.00000000000E+00 0.  1.
         -4   -1    0    0    0  501 -0.00000000000E+00 -0.00000000000E+00 -0.78542005397E+02  0.78542005397E+02  0.00000000000E+00 0. -1.
        -13    1    1    2    0    0 -0.16214869956E+02 -0.31378884251E+02  0.19333734750E+02  0.40266125316E+02  0.10566000000E+00 0.  1.
         13    1    1    2    0    0  0.26227706515E+02  0.26651176070E+02 -0.61217901665E+02  0.71734374070E+02  0.10566000000E+00 0. -1.
         -4    1    1    2    0  502 -0.10012836559E+02  0.47277081808E+01  0.17561771743E+02  0.20761116235E+02  0.00000000000E+00 0. -1.
</event>
<event>
 5    1  0.2540860E-005  0.2842662E+03  0.7818608E-02  0.1022486E+00
          4   -1    0    0  502    0 -0.00000000000E+00  0.00000000000E+00  0.11058253537E+04  0.11058253537E+04  0.00000000000E+00 0.  1.
         21   -1    0    0  501  502  0.00000000000E+00 -0.00000000000E+00 -0.64954053189E+03  0.64954053189E+03  0.00000000000E+00 0.  1.
        -13    1    1    2    0    0  0.16223270335E+03 -0.21209297899E+03 -0.44996364226E+03  0.52323051544E+03  0.10566000000E+00 0.  1.
         13    1    1    2    0    0  0.44992036489E+02 -0.21278966982E+03  0.66850441482E+03  0.70299494360E+03  0.10566000000E+00 0. -1.
          4    1    1    2  501    0 -0.20722473984E+03  0.42488264881E+03  0.23774404927E+03  0.52914042657E+03  0.00000000000E+00 0.  1.
</event>
<event>
 5    1  0.2540860E-005  0.5226204E+03  0.7818608E-02  0.9467904E-01
         21   -1    0    0  501  502  0.00000000000E+00  0.00000000000E+00  0.54821207860E+03  0.54821207860E+03  0.00000000000E+00 0. -1.
         -4   -1    0    0    0  501 -0.00000000000E+00 -0.00000000000E+00 -0.17730923471E+04  0.17730923471E+04  0.00000000000E+00 0. -1.
        -13    1    1    2    0    0 -0.49047628754E+03 -0.27142713741E+03 -0.10130006036E+04  0.11577607324E+04  0.10566000000E+00 0.  1.
         13    1    1    2    0    0 -0.79865563915E+02  0.47288232898E+03 -0.27920385066E+03  0.55493333541E+03  0.10566000000E+00 0. -1.
         -4    1    1    2    0  502  0.57034185145E+03 -0.20145519157E+03  0.67324185727E+02  0.60861035788E+03  0.00000000000E+00 0. -1.
</event>
<event>
 5    1  0.2540860E-005  0.4753058E+03  0.7818608E-02  0.9590777E-01
          4   -1    0    0  502    0 -0.00000000000E+00  0.00000000000E+00  0.24803353770E+04  0.24803353770E+04  0.00000000000E+00 0.  1.
         21   -1    0    0  501  502  0.00000000000E+00 -0.00000000000E+00 -0.37256918511E+03  0.37256918511E+03  0.00000000000E+00 0.  1.
        -13    1    1    2    0    0  0.29640538595E+03  0.27549540546E+03  0.34770227241E+03  0.53352671222E+03  0.10566000000E+00 0.  1.
         13    1    1    2    0    0  0.28283520381E+03 -0.26484305417E+03  0.16922968136E+04  0.17360893157E+04  0.10566000000E+00 0. -1.
          4    1    1    2  501    0 -0.57924058975E+03 -0.10652351289E+02  0.67767105892E+02  0.58328853413E+03  0.00000000000E+00 0.  1.
</event>
<event>
 5    1  0.2540860E-005  0.5669460E+03  0.7818608E-02  0.9342193E-01
          4   -1    0    0  502    0 -0.00000000000E+00  0.00000000000E+00  0.22162909914E+04  0.22162909914E+04  0.00000000000E+00 0.  1.
         21   -1    0    0  501  502  0.00000000000E+00 -0.00000000000E+00 -0.47196534743E+03  0.47196534743E+03  0.00000000000E+00 0.  1.
        -13    1    1    2    0    0 -0.16289315215E+03  0.70956600887E+03  0.10092482160E+03  0.73498566703E+03  0.10566000000E+00 0.  1.
         13    1    1    2    0    0 -0.17275346890E+03 -0.52678569675E+03  0.13852485477E+04  0.14920658435E+04  0.10566000000E+00 0. -1.
          4    1    1    2  501    0  0.33564662105E+03 -0.18278031211E+03  0.25815227469E+03  0.46120482830E+03  0.00000000000E+00 0.  1.
</event>
<event>
 5    1  0.2540860E-005  0.1372530E+03  0.7818608E-02  0.1114411E+00
         21   -1    0    0  501  502  0.00000000000E+00  0.00000000000E+00  0.21647740674E+03  0.21647740674E+03  0.00000000000E+00 0. -1.
          4   -1    0    0  502    0 -0.00000000000E+00 -0.00000000000E+00 -0.13179433917E+03  0.13179433917E+03  0.00000000000E+00 0.  1.
        -13    1    1    2    0    0 -0.13166699189E+03  0.37856315362E+02 -0.20962161002E+02  0.13859552924E+03  0.10566000000E+00 0.  1.
         13    1    1    2    0    0  0.13629447666E+03 -0.22869846576E+02  0.42463159913E+02  0.14457643433E+03  0.10566000000E+00 0. -1.
          4    1    1    2  501    0 -0.46274847683E+01 -0.14986468786E+02  0.63182068658E+02  0.65099782349E+02  0.00000000000E+00 0.  1.
</event>
<event>
 5    1  0.2540860E-005  0.4155054E+03  0.7818608E-02  0.9720183E-01
         21   -1    0    0  501  502  0.00000000000E+00  0.00000000000E+00  0.12721939305E+04  0.12721939305E+04  0.00000000000E+00 0. -1.
         -4   -1    0    0    0  501 -0.00000000000E+00 -0.00000000000E+00 -0.39210671680E+03  0.39210671680E+03  0.00000000000E+00 0. -1.
        -13    1    1    2    0    0 -0.37709373624E+02  0.43989670133E+03  0.20141627698E+03  0.48528304369E+03  0.10566000000E+00 0.  1.
         13    1    1    2    0    0  0.37267601409E+03 -0.12795020025E+03  0.43956180734E+02  0.39647297791E+03  0.10566000000E+00 0. -1.
         -4    1    1    2    0  502 -0.33496664047E+03 -0.31194650108E+03  0.63471475604E+03  0.78254462575E+03  0.00000000000E+00 0. -1.
</event>
<event>
 5    1  0.2540860E-005  0.1973021E+03  0.7818608E-02  0.1062001E+00
         21   -1    0    0  501  502  0.00000000000E+00  0.00000000000E+00  0.10501648509E+03  0.10501648509E+03  0.00000000000E+00 0.  1.
         -4   -1    0    0    0  501 -0.00000000000E+00 -0.00000000000E+00 -0.42071405055E+03  0.42071405055E+03  0.00000000000E+00 0. -1.
        -13    1    1    2    0    0 -0.19416435575E+03 -0.47240072732E+02 -0.19306198435E+03  0.27785673013E+03  0.10566000000E+00 0.  1.
         13    1    1    2    0    0  0.18376407816E+03  0.63896665118E+02 -0.11850949389E+03  0.22780810245E+03  0.10566000000E+00 0. -1.
         -4    1    1    2    0  502  0.10400277586E+02 -0.16656592387E+02 -0.41260872201E+01  0.20065703066E+02  0.00000000000E+00 0. -1.
</event>
<event>
 5    1  0.2540860E-005  0.4434688E+03  0.7818608E-02  0.9611308E-01
         21   -1    0    0  501  502  0.00000000000E+00  0.00000000000E+00  0.20101800795E+03  0.20101800795E+03  0.00000000000E+00 0. -1.
         -4   -1    0    0    0  501 -0.00000000000E+00 -0.00000000000E+00 -0.20538611334E+04  0.20538611334E+04  0.00000000000E+00 0. -1.
        -13    1    1    2    0    0 -0.47722063419E+03  0.27304544912E+02 -0.11816915796E+04  0.12747078380E+04  0.10566000000E+00 0.  1.
         13    1    1    2    0    0  0.40110627576E+03 -0.68043802579E+02 -0.75638358849E+03  0.85885525417E+03  0.10566000000E+00 0. -1.
         -4    1    1    2    0  502  0.76114358422E+02  0.40739257667E+02  0.85232042672E+02  0.12131604911E+03  0.00000000000E+00 0. -1.
</event>
<event>
 5    1  0.2540860E-005  0.4974476E+03  0.7818608E-02  0.9785045E-01
         21   -1    0    0  501  502  0.00000000000E+00  0.00000000000E+00  0.98515056687E+02  0.98515056687E+02  0.00000000000E+00 0.  1.
          4   -1    0    0  502    0 -0.00000000000E+00 -0.00000000000E+00 -0.35760219837E+04  0.35760219837E+04  0.00000000000E+00 0.  1.
        -13    1    1    2    0    0  0.28544651516E+03  0.32916970149E+03 -0.16369008524E+04  0.16938939805E+04  0.10566000000E+00 0.  1.
         13    1    1    2    0    0 -0.30387589725E+02  0.16878181602E+03 -0.40009536461E+03  0.43530106705E+03  0.10566000000E+00 0. -1.
          4    1    1    2  501    0 -0.25505892543E+03 -0.49795151751E+03 -0.14405107100E+04  0.15453419929E+04  0.00000000000E+00 0.  1.
</event>
<event>
 5    1  0.2540860E-005  0.4532908E+03  0.7818608E-02  0.9620286E-01
         21   -1    0    0  501  502  0.00000000000E+00  0.00000000000E+00  0.47126317781E+03  0.47126317781E+03  0.00000000000E+00 0. -1.
         -4   -1    0    0    0  501 -0.00000000000E+00 -0.00000000000E+00 -0.11266767711E+04  0.11266767711E+04  0.00000000000E+00 0. -1.
        -13    1    1    2    0    0  0.38269557291E+03 -0.12389883356E+03 -0.51628168663E+02  0.40555184803E+03  0.10566000000E+00 0.  1.
         13    1    1    2    0    0 -0.20616880783E+03 -0.37181876722E+03 -0.49950873746E+03  0.65594493896E+03  0.10566000000E+00 0. -1.
         -4    1    1    2    0  502 -0.17652676508E+03  0.49571760077E+03 -0.10427668717E+03  0.53644316194E+03  0.00000000000E+00 0. -1.
</event>
<event>
 5    1  0.2540860E-005  0.1084477E+03  0.7818608E-02  0.1151288E+00
         21   -1    0    0  501  502  0.00000000000E+00  0.00000000000E+00  0.82886855039E+03  0.82886855039E+03  0.00000000000E+00 0.  1.
          4   -1    0    0  502    0 -0.00000000000E+00 -0.00000000000E+00 -0.10119103495E+03  0.10119103495E+03  0.00000000000E+00 0.  1.
        -13    1    1    2    0    0  0.63548814510E+02  0.85716912271E+02 -0.46791029122E+02  0.11651288532E+03  0.10566000000E+00 0.  1.
         13    1    1    2    0    0 -0.53070134142E+02 -0.10669772407E+03  0.16450430068E+03  0.20313177882E+03  0.10566000000E+00 0. -1.
          4    1    1    2  501    0 -0.10478680368E+02  0.20980811798E+02  0.60996424389E+03  0.61041492120E+03  0.00000000000E+00 0.  1.
</event>
<event>
 5    1  0.2540860E-005  0.4227743E+03  0.7818608E-02  0.9665485E-01
         21   -1    0    0  501  502  0.00000000000E+00  0.00000000000E+00  0.11493436032E+03  0.11493436032E+03  0.00000000000E+00 0. -1.
          4   -1    0    0  502    0 -0.00000000000E+00 -0.00000000000E+00 -0.26633580893E+04  0.26633580893E+04  0.00000000000E+00 0.  1.
        -13    1    1    2    0    0 -0.19811337119E+03 -0.38336694376E+03 -0.18523697198E+04  0.19019707441E+04  0.10566000000E+00 0.  1.
         13    1    1    2    0    0  0.26872103697E+03  0.30951594089E+03 -0.63937269628E+03  0.75947914342E+03  0.10566000000E+00 0. -1.
          4    1    1    2  501    0 -0.70607665784E+02  0.73851002865E+02 -0.56681312932E+02  0.11684256214E+03  0.00000000000E+00 0.  1.
</event>
<event>
 5    1  0.2540860E-005  0.5096769E+03  0.7818608E-02  0.9794607E-01
         21   -1    0    0  501  502  0.00000000000E+00  0.00000000000E+00  0.19038039160E+03  0.19038039160E+03  0.00000000000E+00 0. -1.
         -4   -1    0    0    0  501 -0.00000000000E+00 -0.00000000000E+00 -0.20974279433E+04  0.20974279433E+04  0.00000000000E+00 0. -1.
        -13    1    1    2    0    0  0.13790035985E+03 -0.69254320205E+02 -0.61410305182E+03  0.63319447212E+03  0.10566000000E+00 0.  1.
         13    1    1    2    0    0  0.19663172692E+02 -0.46984435215E+03 -0.61700616855E+03  0.77578152775E+03  0.10566000000E+00 0. -1.
         -4    1    1    2    0  502 -0.15756353254E+03  0.53909867235E+03 -0.67593833135E+03  0.87883233504E+03  0.00000000000E+00 0. -1.
</event>
<event>
 5    1  0.2540860E-005  0.4958350E+03  0.7818608E-02  0.9739935E-01
          4   -1    0    0  502    0 -0.00000000000E+00  0.00000000000E+00  0.13839085381E+04  0.13839085381E+04  0.00000000000E+00 0.  1.
         21   -1    0    0  501  502  0.00000000000E+00 -0.00000000000E+00 -0.47146936621E+03  0.47146936621E+03  0.00000000000E+00 0.  1.
        -13    1    1    2    0    0 -0.27924045537E+03  0.54037034579E+03  0.19862617259E+02  0.60858021432E+03  0.10566000000E+00 0.  1.
         13    1    1    2    0    0  0.99377469331E+02 -0.17614200650E+03  0.80661687337E+03  0.83158443915E+03  0.10566000000E+00 0. -1.
          4    1    1    2  501    0  0.17986298604E+03 -0.36422833929E+03  0.85959681279E+02  0.41521325087E+03  0.00000000000E+00 0.  1.
</event>
<event>
 5    1  0.2540860E-005  0.3147942E+03  0.7818608E-02  0.1001379E+00
         21   -1    0    0  501  502  0.00000000000E+00  0.00000000000E+00  0.23885931012E+03  0.23885931012E+03  0.00000000000E+00 0.  1.
          4   -1    0    0  502    0 -0.00000000000E+00 -0.00000000000E+00 -0.13331581320E+04  0.13331581320E+04  0.00000000000E+00 0.  1.
        -13    1    1    2    0    0 -0.23390866503E+03  0.24738868178E+03 -0.41508096389E+03  0.53684880665E+03  0.10566000000E+00 0.  1.
         13    1    1    2    0    0  0.21132692942E+03 -0.21776809229E+03 -0.82796928305E+03  0.88182490210E+03  0.10566000000E+00 0. -1.
          4    1    1    2  501    0  0.22581735607E+02 -0.29620589491E+02  0.14875142506E+03  0.15334373337E+03  0.00000000000E+00 0.  1.
</event>
<event>
 5    1  0.2540860E-005  0.9420947E+02  0.7818608E-02  0.1174509E+00
          4   -1    0    0  502    0 -0.00000000000E+00  0.00000000000E+00  0.11567285664E+03  0.11567285664E+03  0.00000000000E+00 0.  1.
         21   -1    0    0  501  502  0.00000000000E+00 -0.00000000000E+00 -0.56793770198E+03  0.56793770198E+03  0.00000000000E+00 0.  1.
        -13    1    1    2    0    0  0.92724008775E+01 -0.14403191063E+03 -0.15645487385E+03  0.21285983043E+03  0.10566000000E+00 0.  1.
         13    1    1    2    0    0  0.32792573899E+01  0.88041693603E+02  0.62407563151E+02  0.10796670063E+03  0.10566000000E+00 0. -1.
          4    1    1    2  501    0 -0.12551658267E+02  0.55990217022E+02 -0.35821753464E+03  0.36278402756E+03  0.00000000000E+00 0.  1.
</event>
<event>
 5    1  0.2540860E-005  0.4380326E+03  0.7818608E-02  0.9625231E-01
         21   -1    0    0  501  502  0.00000000000E+00  0.00000000000E+00  0.21958731175E+03  0.21958731175E+03  0.00000000000E+00 0. -1.
         -4   -1    0    0    0  501 -0.00000000000E+00 -0.00000000000E+00 -0.24343936936E+04  0.24343936936E+04  0.00000000000E+00 0. -1.
        -13    1    1    2    0    0 -0.18077034462E+03 -0.36713339033E+03 -0.74504968704E+03  0.85003758218E+03  0.10566000000E+00 0.  1.
         13    1    1    2    0    0 -0.67183008616E+02  0.49010801340E+03 -0.14435161777E+04  0.15259286968E+04  0.10566000000E+00 0. -1.
         -4    1    1    2    0  502  0.24795335323E+03 -0.12297462307E+03 -0.26240517092E+02  0.27801472630E+03  0.00000000000E+00 0. -1.
</event>
<event>
 5    1  0.2540860E-005  0.1514632E+03  0.7818608E-02  0.1099677E+00
         21   -1    0    0  501  502  0.00000000000E+00  0.00000000000E+00  0.25638867757E+03  0.25638867757E+03  0.00000000000E+00 0.  1.
          4   -1    0    0  502    0 -0.00000000000E+00 -0.00000000000E+00 -0.12227404861E+03  0.12227404861E+03  0.00000000000E+00 0.  1.
        -13    1    1    2    0    0  0.85656048634E+02 -0.12707891324E+03 -0.22147986296E+02  0.15484364152E+03  0.10566000000E+00 0.  1.
         13    1    1    2    0    0 -0.90473485038E+02  0.11607346779E+03  0.13669741694E+03  0.20085989242E+03  0.10566000000E+00 0. -1.
          4    1    1    2  501    0  0.48174364046E+01  0.11005445446E+02  0.19565198319E+02  0.22959192239E+02  0.00000000000E+00 0.  1.
</event>
<event>
 5    1  0.2540860E-005  0.3949322E+02  0.7818608E-02  0.1362046E+00
          4   -1    0    0  502    0 -0.00000000000E+00  0.00000000000E+00  0.72017077673E+02  0.72017077673E+02  0.00000000000E+00 0.  1.
         21   -1    0    0  501  502  0.00000000000E+00 -0.00000000000E+00 -0.66311543717E+02  0.66311543717E+02  0.00000000000E+00 0. -1.
        -13    1    1    2    0    0  0.35321231508E+02 -0.40819948129E+02  0.33890367832E+02  0.63737161502E+02  0.10566000000E+00 0.  1.
         13    1    1    2    0    0 -0.10345728238E+00  0.27404188161E+02  0.20972527168E+00  0.27405389632E+02  0.10566000000E+00 0. -1.
          4    1    1    2  501    0 -0.35217774226E+02  0.13415759968E+02 -0.28394559148E+02  0.47186070255E+02  0.00000000000E+00 0.  1.
</event>
<event>
 5    1  0.2540860E-005  0.2591467E+03  0.7818608E-02  0.1025759E+00
         21   -1    0    0  501  502  0.00000000000E+00  0.00000000000E+00  0.14670520444E+03  0.14670520444E+03  0.00000000000E+00 0. -1.
          4   -1    0    0  502    0 -0.00000000000E+00 -0.00000000000E+00 -0.15120143627E+04  0.15120143627E+04  0.00000000000E+00 0.  1.
        -13    1    1    2    0    0 -0.26023593179E+03  0.18928105894E+03 -0.15275204262E+03  0.35620676180E+03  0.10566000000E+00 0.  1.
         13    1    1    2    0    0  0.20433435551E+03 -0.14607335750E+03 -0.12056344281E+04  0.12315211489E+04  0.10566000000E+00 0. -1.
          4    1    1    2  501    0  0.55901576280E+02 -0.43207701432E+02 -0.69226875546E+01  0.70991656528E+02  0.00000000000E+00 0.  1.
</event>
<event>
 5    1  0.2540860E-005  0.4628706E+03  0.7818608E-02  0.9648252E-01
         21   -1    0    0  501  502  0.00000000000E+00  0.00000000000E+00  0.92588568782E+03  0.92588568782E+03  0.00000000000E+00 0. -1.
         -4   -1    0    0    0  501 -0.00000000000E+00 -0.00000000000E+00 -0.85408761219E+03  0.85408761219E+03  0.00000000000E+00 0. -1.
        -13    1    1    2    0    0 -0.52934261484E+01  0.34222131875E+03 -0.47918713610E+03  0.58886651623E+03  0.10566000000E+00 0.  1.
         13    1    1    2    0    0 -0.42249366033E+03 -0.29212847755E+03  0.56053750349E+03  0.76029089459E+03  0.10566000000E+00 0. -1.
         -4    1    1    2    0  502  0.42778708647E+03 -0.50092841201E+02 -0.95522917690E+01  0.43081588918E+03  0.00000000000E+00 0. -1.
</event>
<event>
 5    1  0.2540860E-005  0.3963562E+03  0.7818608E-02  0.9739628E-01
          4   -1    0    0  502    0 -0.00000000000E+00  0.00000000000E+00  0.88950941852E+03  0.88950941852E+03  0.00000000000E+00 0.  1.
         21   -1    0    0  501  502  0.00000000000E+00 -0.00000000000E+00 -0.19639290255E+03  0.19639290255E+03  0.00000000000E+00 0. -1.
        -13    1    1    2    0    0 -0.32622642684E+03 -0.23267363346E+03  0.45129114139E+03  0.60351007177E+03  0.10566000000E+00 0.  1.
         13    1    1    2    0    0  0.32855507853E+03  0.21096678612E+03  0.24404370324E+03  0.46044843873E+03  0.10566000000E+00 0. -1.
          4    1    1    2  501    0 -0.23286516861E+01  0.21706847336E+02 -0.22183286586E+01  0.21943810562E+02  0.00000000000E+00 0.  1.
</event>
<event>
 5    1  0.2540860E-005  0.4613749E+03  0.7818608E-02  0.9623113E-01
         21   -1    0    0  501  502  0.00000000000E+00  0.00000000000E+00  0.37167481392E+03  0.37167481392E+03  0.00000000000E+00 0.  1.
          4   -1    0    0  502    0 -0.00000000000E+00 -0.00000000000E+00 -0.16075792893E+04  0.16075792893E+04  0.00000000000E+00 0.  1.
        -13    1    1    2    0    0 -0.74081192785E+02  0.41707140991E+03 -0.98176823917E+02  0.43482787860E+03  0.10566000000E+00 0.  1.
         13    1    1    2    0    0 -0.37703427355E+03  0.21997601144E+02 -0.63492087441E+03  0.73875792099E+03  0.10566000000E+00 0. -1.
          4    1    1    2  501    0  0.45111546634E+03 -0.43906901105E+03 -0.50280677705E+03  0.80566830364E+03  0.00000000000E+00 0.  1.
</event>
<event>
 5    1  0.2540860E-005  0.7705873E+02  0.7818608E-02  0.1218711E+00
         21   -1    0    0  501  502  0.00000000000E+00  0.00000000000E+00  0.26900033577E+03  0.26900033577E+03  0.00000000000E+00 0. -1.
         -4   -1    0    0    0  501 -0.00000000000E+00 -0.00000000000E+00 -0.13874462621E+03  0.13874462621E+03  0.00000000000E+00 0. -1.
        -13    1    1    2    0    0 -0.44425171094E+02 -0.44039287674E+02  0.86349999178E+02  0.10662733331E+03  0.10566000000E+00 0.  1.
         13    1    1    2    0    0  0.97746033264E+02 -0.11495664192E+02 -0.98493508509E+02  0.13923871479E+03  0.10566000000E+00 0. -1.
         -4    1    1    2    0  502 -0.53320862170E+02  0.55534951866E+02  0.14239921889E+03  0.16187891388E+03  0.00000000000E+00 0. -1.
</event>
<event>
 5    1  0.2540860E-005  0.4306619E+03  0.7818608E-02  0.9750115E-01
         -4   -1    0    0    0  501 -0.00000000000E+00  0.00000000000E+00  0.20182928282E+04  0.20182928282E+04  0.00000000000E+00 0. -1.
         21   -1    0    0  501  502  0.00000000000E+00 -0.00000000000E+00 -0.24189786412E+03  0.24189786412E+03  0.00000000000E+00 0. -1.
        -13    1    1    2    0    0 -0.84371916516E+02 -0.28580471285E+03  0.73922231044E+03  0.79702734557E+03  0.10566000000E+00 0.  1.
         13    1    1    2    0    0 -0.29218069075E+02 -0.20777557394E+03  0.91957433696E+03  0.94320801367E+03  0.10566000000E+00 0. -1.
         -4    1    1    2    0  502  0.11358998559E+03  0.49358028678E+03  0.11759831670E+03  0.51995533310E+03  0.00000000000E+00 0. -1.
</event>
<event>
 5    1  0.2540860E-005  0.1345978E+03  0.7818608E-02  0.1117380E+00
         21   -1    0    0  501  502  0.00000000000E+00  0.00000000000E+00  0.59303908207E+03  0.59303908207E+03  0.00000000000E+00 0.  1.
          4   -1    0    0  502    0 -0.00000000000E+00 -0.00000000000E+00 -0.22620690311E+03  0.22620690311E+03  0.00000000000E+00 0.  1.
        -13    1    1    2    0    0  0.13871051654E+03 -0.21861573065E+02 -0.17151080141E+03  0.22166303693E+03  0.10566000000E+00 0.  1.
         13    1    1    2    0    0 -0.10910818562E+03  0.16391223633E+02  0.75338305309E+02  0.13360067288E+03  0.10566000000E+00 0. -1.
          4    1    1    2  501    0 -0.29602330919E+02  0.54703494316E+01  0.46300467507E+03  0.46398227537E+03  0.00000000000E+00 0.  1.
</event>
<event>
 5    1  0.2540860E-005  0.1137398E+03  0.7818608E-02  0.1143631E+00
          4   -1    0    0  502    0 -0.00000000000E+00  0.00000000000E+00  0.13603101533E+03  0.13603101533E+03  0.00000000000E+00 0.  1.
         21   -1    0    0  501  502  0.00000000000E+00 -0.00000000000E+00 -0.15739889644E+03  0.15739889644E+03  0.00000000000E+00 0.  1.
        -13    1    1    2    0    0  0.99042954518E+02  0.75466268411E+02  0.54041093994E+02  0.13573914510E+03  0.10566000000E+00 0.  1.
         13    1    1    2    0    0 -0.77244588548E+02 -0.58999580406E+02 -0.25012286557E+02  0.10036584375E+03  0.10566000000E+00 0. -1.
          4    1    1    2  501    0 -0.21798365970E+02 -0.16466688005E+02 -0.50396688539E+02  0.57324922927E+02  0.00000000000E+00 0.  1.
</event>
<event>
 5    1  0.2540860E-005  0.4973106E+03  0.7818608E-02  0.9643072E-01
         21   -1    0    0  501  502  0.00000000000E+00  0.00000000000E+00  0.18951168120E+03  0.18951168120E+03  0.00000000000E+00 0. -1.
         -4   -1    0    0    0  501 -0.00000000000E+00 -0.00000000000E+00 -0.23474082008E+04  0.23474082008E+04  0.00000000000E+00 0. -1.
        -13    1    1    2    0    0  0.10595811352E+03 -0.26030866731E+03 -0.65607935477E+03  0.71374214883E+03  0.10566000000E+00 0.  1.
         13    1    1    2    0    0  0.19983587637E+03  0.56002092791E+03 -0.74017910518E+03  0.94943295503E+03  0.10566000000E+00 0. -1.
         -4    1    1    2    0  502 -0.30579398989E+03 -0.29971226061E+03 -0.76163805964E+03  0.87374477812E+03  0.00000000000E+00 0. -1.
</event>
<event>
 5    1  0.2540860E-005  0.6401470E+02  0.7818608E-02  0.1276792E+00
         21   -1    0    0  501  502  0.00000000000E+00  0.00000000000E+00  0.35201434823E+03  0.35201434823E+03  0.00000000000E+00 0.  1.
         -4   -1    0    0    0  501 -0.00000000000E+00 -0.00000000000E+00 -0.33827101236E+02  0.33827101236E+02  0.00000000000E+00 0. -1.
        -13    1    1    2    0    0 -0.73594840553E+01 -0.31244476736E+02  0.12731082551E+03  0.13129522759E+03  0.10566000000E+00 0.  1.
         13    1    1    2    0    0  0.69445506722E+02  0.16931442875E+02  0.23164877059E+02  0.75139702255E+02  0.10566000000E+00 0. -1.
         -4    1    1    2    0  502 -0.62086022667E+02  0.14313033861E+02  0.16771154443E+03  0.17940651962E+03  0.00000000000E+00 0. -1.
</event>
<event>
 5    1  0.2540860E-005  0.6225662E+03  0.7818608E-02  0.9243578E-01
         21   -1    0    0  501  502  0.00000000000E+00  0.00000000000E+00  0.47006865125E+03  0.47006865125E+03  0.00000000000E+00 0. -1.
          4   -1    0    0  502    0 -0.00000000000E+00 -0.00000000000E+00 -0.23828680448E+04  0.23828680448E+04  0.00000000000E+00 0.  1.
        -13    1    1    2    0    0 -0.23322889702E+02 -0.58454080840E+03 -0.68594443894E+03  0.90152742518E+03  0.10566000000E+00 0.  1.
         13    1    1    2    0    0 -0.30457466585E+03  0.61076086774E+03 -0.14160487128E+04  0.15719378272E+04  0.10566000000E+00 0. -1.
          4    1    1    2  501    0  0.32789755555E+03 -0.26220059337E+02  0.18919375812E+03  0.37947144367E+03  0.00000000000E+00 0.  1.
</event>
<event>
 5    1  0.2540860E-005  0.6070756E+02  0.7818608E-02  0.1253450E+00
         -4   -1    0    0    0  501 -0.00000000000E+00  0.00000000000E+00  0.23601466812E+02  0.23601466812E+02  0.00000000000E+00 0. -1.
         21   -1    0    0  501  502  0.00000000000E+00 -0.00000000000E+00 -0.38683229530E+03  0.38683229530E+03  0.00000000000E+00 0.  1.
        -13    1    1    2    0    0  0.59341317606E+02  0.32638547795E+02 -0.24346925146E+03  0.25271318594E+03  0.10566000000E+00 0.  1.
         13    1    1    2    0    0 -0.55745155891E+02 -0.20728653922E+02 -0.29104644616E+02  0.66213978894E+02  0.10566000000E+00 0. -1.
         -4    1    1    2    0  502 -0.35961617147E+01 -0.11909893873E+02 -0.90656932405E+02  0.91506597271E+02  0.00000000000E+00 0. -1.
</event>
<event>
 5    1  0.2540860E-005  0.4309785E+03  0.7818608E-02  0.9643621E-01
         -4   -1    0    0    0  501 -0.00000000000E+00  0.00000000000E+00  0.16538043856E+04  0.16538043856E+04  0.00000000000E+00 0. -1.
         21   -1    0    0  501  502  0.00000000000E+00 -0.00000000000E+00 -0.35589863100E+03  0.35589863100E+03  0.00000000000E+00 0. -1.
        -13    1    1    2    0    0 -0.92240260371E+01  0.40176550154E+03  0.60230156616E+03  0.72406338718E+03  0.10566000000E+00 0.  1.
         13    1    1    2    0    0 -0.12483967487E+03 -0.44972973480E+03  0.91322130982E+03  0.10255802995E+04  0.10566000000E+00 0. -1.
         -4    1    1    2    0  502  0.13406370091E+03  0.47964233262E+02 -0.21761712139E+03  0.26005932995E+03  0.00000000000E+00 0. -1.
</event>
<event>
 5    1  0.2540860E-005  0.4083540E+03  0.7818608E-02  0.1019253E+00
          4   -1    0    0  502    0 -0.00000000000E+00  0.00000000000E+00  0.17159092496E+04  0.17159092496E+04  0.00000000000E+00 0.  1.
         21   -1    0    0  501  502  0.00000000000E+00 -0.00000000000E+00 -0.19626297608E+03  0.19626297608E+03  0.00000000000E+00 0.  1.
        -13    1    1    2    0    0 -0.39906742640E+03 -0.14666213032E+03  0.11337229980E+03  0.44002031864E+03  0.10566000000E+00 0.  1.
         13    1    1    2    0    0  0.69639538297E+02  0.41806077000E+02  0.39954043100E+03  0.40771311058E+03  0.10566000000E+00 0. -1.
          4    1    1    2  501    0  0.32942788811E+03  0.10485605332E+03  0.10067335428E+04  0.10644387965E+04  0.00000000000E+00 0.  1.
</event>
<event>
 5    1  0.2540860E-005  0.5852190E+03  0.7818608E-02  0.9308525E-01
          4   -1    0    0  502    0 -0.00000000000E+00  0.00000000000E+00  0.17619532462E+04  0.17619532462E+04  0.00000000000E+00 0.  1.
         21   -1    0    0  501  502  0.00000000000E+00 -0.00000000000E+00 -0.70752799668E+03  0.70752799668E+03  0.00000000000E+00 0. -1.
        -13    1    1    2    0    0  0.47286386218E+03  0.51603803147E+02  0.56603528742E+03  0.73936401213E+03  0.10566000000E+00 0.  1.
         13    1    1    2    0    0 -0.74292456610E+03 -0.12955693554E+03  0.93573070431E+03  0.12017961028E+04  0.10566000000E+00 0. -1.
          4    1    1    2  501    0  0.27006070392E+03  0.77953132397E+02 -0.44734074221E+03  0.52832112800E+03  0.00000000000E+00 0.  1.
</event>
<event>
 5    1  0.2540860E-005  0.2801665E+03  0.7818608E-02  0.1015845E+00
         21   -1    0    0  501  502  0.00000000000E+00  0.00000000000E+00  0.81224115130E+03  0.81224115130E+03  0.00000000000E+00 0.  1.
         -4   -1    0    0    0  501 -0.00000000000E+00 -0.00000000000E+00 -0.53695325870E+03  0.53695325870E+03  0.00000000000E+00 0. -1.
        -13    1    1    2    0    0 -0.18675111290E+03 -0.17979711499E+03  0.19411353132E+03  0.32385653449E+03  0.10566000000E+00 0.  1.
         13    1    1    2    0    0  0.24144419827E+03  0.15040831037E+03 -0.42716907738E+03  0.51321671108E+03  0.10566000000E+00 0. -1.
         -4    1    1    2    0  502 -0.54693085369E+02  0.29388804621E+02  0.50834343866E+03  0.51212116442E+03  0.00000000000E+00 0. -1.
</event>
<event>
 5    1  0.2540860E-005  0.1236386E+03  0.7818608E-02  0.1130469E+00
         21   -1    0    0  501  502  0.00000000000E+00  0.00000000000E+00  0.95894559305E+03  0.95894559305E+03  0.00000000000E+00 0.  1.
          4   -1    0    0  502    0 -0.00000000000E+00 -0.00000000000E+00 -0.40738018915E+02  0.40738018915E+02  0.00000000000E+00 0.  1.
        -13    1    1    2    0    0 -0.11512537928E+03  0.28179289583E+02  0.14768579070E+03  0.18936480469E+03  0.10566000000E+00 0.  1.
         13    1    1    2    0    0  0.13487536670E+03  0.15095505679E+02  0.22525553528E+03  0.26298157002E+03  0.10566000000E+00 0. -1.
          4    1    1    2  501    0 -0.19749987415E+02 -0.43274795262E+02  0.54526624815E+03  0.54733723725E+03  0.00000000000E+00 0.  1.
</event>
<event>
 5    1  0.2540860E-005  0.5041893E+03  0.7818608E-02  0.9681775E-01
         -4   -1    0    0    0  501 -0.00000000000E+00  0.00000000000E+00  0.82977529530E+03  0.82977529530E+03  0.00000000000E+00 0. -1.
         21   -1    0    0  501  502  0.00000000000E+00 -0.00000000000E+00 -0.52616480431E+03  0.52616480431E+03  0.00000000000E+00 0.  1.
        -13    1    1    2    0    0  0.20771514596E+03 -0.11084190238E+03 -0.84261167819E+02  0.25006292158E+03  0.10566000000E+00 0.  1.
         13    1    1    2    0    0 -0.49963227827E+03 -0.25570515266E+03  0.15311289979E+03  0.58177410550E+03  0.10566000000E+00 0. -1.
         -4    1    1    2    0  502  0.29191713232E+03  0.36654705504E+03  0.23475875902E+03  0.52410307253E+03  0.00000000000E+00 0. -1.
</event>
<event>
 5    1  0.2540860E-005  0.4682760E+03  0.7818608E-02  0.9656189E-01
         21   -1    0    0  501  502  0.00000000000E+00  0.00000000000E+00  0.44189762287E+03  0.44189762287E+03  0.00000000000E+00 0.  1.
          4   -1    0    0  502    0 -0.00000000000E+00 -0.00000000000E+00 -0.12128335993E+04  0.12128335993E+04  0.00000000000E+00 0.  1.
        -13    1    1    2    0    0  0.17066507986E+03  0.33090679866E+03 -0.20851623065E+03  0.42673751709E+03  0.10566000000E+00 0.  1.
         13    1    1    2    0    0 -0.19454286172E+03  0.25588963147E+03 -0.55417583411E+03  0.64065380263E+03  0.10566000000E+00 0. -1.
          4    1    1    2  501    0  0.23877781857E+02 -0.58679643013E+03 -0.82439116142E+01  0.58733990241E+03  0.00000000000E+00 0.  1.
</event>
<event>
 5    1  0.2540860E-005  0.6489254E+02  0.7818608E-02  0.1240801E+00
         21   -1    0    0  501  502  0.00000000000E+00  0.00000000000E+00  0.14068958258E+02  0.14068958258E+02  0.00000000000E+00 0. -1.
          4   -1    0    0  502    0 -0.00000000000E+00 -0.00000000000E+00 -0.41932290612E+03  0.41932290612E+03  0.00000000000E+00 0.  1.
        -13    1    1    2    0    0 -0.60681087169E+02 -0.21214780659E+02 -0.21106790861E+03  0.22063982974E+03  0.10566000000E+00 0.  1.
         13    1    1    2    0    0  0.67317545598E+02  0.41392303713E+01 -0.13697168905E+03  0.15267625859E+03  0.10566000000E+00 0. -1.
          4    1    1    2  501    0 -0.66364584291E+01  0.17075550288E+02 -0.57214350209E+02  0.60075776049E+02  0.00000000000E+00 0.  1.
</event>
<event>
 5    1  0.2540860E-005  0.2671900E+03  0.7818608E-02  0.1021851E+00
         21   -1    0    0  501  502  0.00000000000E+00  0.00000000000E+00  0.52095185509E+03  0.52095185509E+03  0.00000000000E+00 0.  1.
         -4   -1    0    0    0  501 -0.00000000000E+00 -0.00000000000E+00 -0.16799001717E+03  0.16799001717E+03  0.00000000000E+00 0. -1.
        -13    1    1    2    0    0  0.85036551569E+02  0.24483582387E+03  0.20473318255E+03  0.33028999826E+03  0.10566000000E+00 0.  1.
         13    1    1    2    0    0 -0.82789652487E+02 -0.25966657504E+03  0.73290889241E+02  0.28222760737E+03  0.10566000000E+00 0. -1.
         -4    1    1    2    0  502 -0.22468990814E+01  0.14830751177E+02  0.74937766130E+02  0.76424266620E+02  0.00000000000E+00 0. -1.
</event>
<event>
 5    1  0.2540860E-005  0.5816659E+03  0.7818608E-02  0.9314969E-01
         -4   -1    0    0    0  501 -0.00000000000E+00  0.00000000000E+00  0.10116505308E+04  0.10116505308E+04  0.00000000000E+00 0. -1.
         21   -1    0    0  501  502  0.00000000000E+00 -0.00000000000E+00 -0.71221041296E+03  0.71221041296E+03  0.00000000000E+00 0. -1.
        -13    1    1    2    0    0  0.52268848433E+03  0.12067990077E+03  0.10751824886E+03  0.54710791906E+03  0.10566000000E+00 0.  1.
         13    1    1    2    0    0 -0.54506303659E+03 -0.29463508409E+03  0.51727249585E+03  0.80713963646E+03  0.10566000000E+00 0. -1.
         -4    1    1    2    0  502  0.22374552260E+02  0.17395518332E+03 -0.32535062684E+03  0.36961338826E+03  0.00000000000E+00 0. -1.
</event>
<event>
 5    1  0.2540860E-005  0.4127876E+03  0.7818608E-02  0.1021387E+00
          4   -1    0    0  502    0 -0.00000000000E+00  0.00000000000E+00  0.61911752509E+03  0.61911752509E+03  0.00000000000E+00 0.  1.
         21   -1    0    0  501  502  0.00000000000E+00 -0.00000000000E+00 -0.36055149247E+03  0.36055149247E+03  0.00000000000E+00 0.  1.
        -13    1    1    2    0    0 -0.42500194326E+03  0.10247234469E+03 -0.47173951678E+01  0.43720647088E+03  0.10566000000E+00 0.  1.
         13    1    1    2    0    0  0.72246350871E+02  0.13646654552E+02 -0.19049946127E+02  0.75951813712E+02  0.10566000000E+00 0. -1.
          4    1    1    2  501    0  0.35275559239E+03 -0.11611899924E+03  0.28233337391E+03  0.46651073296E+03  0.00000000000E+00 0.  1.
</event>
<event>
 5    1  0.2540860E-005  0.2957494E+03  0.7818608E-02  0.1011703E+00
         -4   -1    0    0    0  501 -0.00000000000E+00  0.00000000000E+00  0.12398897202E+04  0.12398897202E+04  0.00000000000E+00 0. -1.
         21   -1    0    0  501  502  0.00000000000E+00 -0.00000000000E+00 -0.11308084063E+04  0.11308084063E+04  0.00000000000E+00 0. -1.
        -13    1    1    2    0    0  0.28106460931E+03 -0.34764868457E+03  0.91821255358E+03  0.10212596277E+04  0.10566000000E+00 0.  1.
         13    1    1    2    0    0 -0.44511542959E+02  0.17013714489E+03  0.21827802941E+03  0.28030917718E+03  0.10566000000E+00 0. -1.
         -4    1    1    2    0  502 -0.23655306635E+03  0.17751153969E+03 -0.10274092691E+04  0.10691293216E+04  0.00000000000E+00 0. -1.
</event>
<event>
 5    1  0.2540860E-005  0.4846087E+03  0.7818608E-02  0.9563364E-01
          4   -1    0    0  502    0 -0.00000000000E+00  0.00000000000E+00  0.32169609108E+04  0.32169609108E+04  0.00000000000E+00 0.  1.
         21   -1    0    0  501  502  0.00000000000E+00 -0.00000000000E+00 -0.17881306721E+03  0.17881306721E+03  0.00000000000E+00 0. -1.
        -13    1    1    2    0    0 -0.50433682648E+03  0.18533213461E+03  0.11370979781E+04  0.12576547450E+04  0.10566000000E+00 0.  1.
         13    1    1    2    0    0  0.38353822987E+02 -0.40139886293E+03  0.12212123548E+04  0.12860605311E+04  0.10566000000E+00 0. -1.
          4    1    1    2  501    0  0.46598300349E+03  0.21606672832E+03  0.67983751079E+03  0.85205870203E+03  0.00000000000E+00 0.  1.
</event>
<event>
 5    1  0.2540860E-005  0.5421772E+03  0.7818608E-02  0.9412006E-01
         -4   -1    0    0    0  501 -0.00000000000E+00  0.00000000000E+00  0.20902017743E+04  0.20902017743E+04  0.00000000000E+00 0. -1.
         21   -1    0    0  501  502  0.00000000000E+00 -0.00000000000E+00 -0.38439587583E+03  0.38439587583E+03  0.00000000000E+00 0.  1.
        -13    1    1    2    0    0 -0.13639401454E+03 -0.57740649462E+03  0.71032710778E+03  0.92550861608E+03  0.10566000000E+00 0.  1.
         13    1    1    2    0    0  0.55624993212E+03  0.19972960442E+03  0.68468001035E+03  0.90448473155E+03  0.10566000000E+00 0. -1.
         -4    1    1    2    0  502 -0.41985591758E+03  0.37767689019E+03  0.31079878030E+03  0.64460430246E+03  0.00000000000E+00 0. -1.
</event>
<event>
 5    1  0.2540860E-005  0.5415246E+03  0.7818608E-02  0.9391325E-01
         21   -1    0    0  501  502  0.00000000000E+00  0.00000000000E+00  0.59870920213E+03  0.59870920213E+03  0.00000000000E+00 0. -1.
         -4   -1    0    0    0  501 -0.00000000000E+00 -0.00000000000E+00 -0.12228144243E+04  0.12228144243E+04  0.00000000000E+00 0. -1.
        -13    1    1    2    0    0 -0.25135625643E+03  0.39425095666E+03 -0.46741403426E+03  0.66112757851E+03  0.10566000000E+00 0.  1.
         13    1    1    2    0    0  0.48952060649E+03 -0.64074966040E+03 -0.12797200555E+03  0.81643578857E+03  0.10566000000E+00 0. -1.
         -4    1    1    2    0  502 -0.23816435006E+03  0.24649870374E+03 -0.28719182375E+02  0.34396025937E+03  0.00000000000E+00 0. -1.
</event>
<event>
 5    1  0.2540860E-005  0.4817304E+03  0.7818608E-02  0.9578339E-01
          4   -1    0    0  502    0 -0.00000000000E+00  0.00000000000E+00  0.19078773483E+04  0.19078773483E+04  0.00000000000E+00 0.  1.
         21   -1    0    0  501  502  0.00000000000E+00 -0.00000000000E+00 -0.62711746443E+03  0.62711746443E+03  0.00000000000E+00 0.  1.
        -13    1    1    2    0    0  0.47776609298E+02 -0.38652219682E+03 -0.26969716499E+02  0.39039645209E+03  0.10566000000E+00 0.  1.
         13    1    1    2    0    0 -0.31230366338E+03 -0.23204524374E+03  0.14112714834E+04  0.14639213723E+04  0.10566000000E+00 0. -1.
          4    1    1    2  501    0  0.26452705409E+03  0.61856744057E+03 -0.10354188305E+03  0.68067698831E+03  0.00000000000E+00 0.  1.
</event>
<event>
 5    1  0.2540860E-005  0.7928218E+03  0.7818608E-02  0.8998224E-01
         21   -1    0    0  501  502  0.00000000000E+00  0.00000000000E+00  0.24121235334E+03  0.24121235334E+03  0.00000000000E+00 0.  1.
         -4   -1    0    0    0  501 -0.00000000000E+00 -0.00000000000E+00 -0.41834146974E+04  0.41834146974E+04  0.00000000000E+00 0. -1.
        -13    1    1    2    0    0 -0.70191614953E+03  0.37676480092E+03 -0.76500147718E+03  0.11044751095E+04  0.10566000000E+00 0.  1.
         13    1    1    2    0    0  0.68300652329E+03 -0.40067802599E+03 -0.31902019370E+04  0.32870091574E+04  0.10566000000E+00 0. -1.
         -4    1    1    2    0  502  0.18909626238E+02  0.23913225076E+02  0.13001070068E+02  0.33142783844E+02  0.00000000000E+00 0. -1.
</event>
<event>
 5    1  0.2540860E-005  0.2087316E+03  0.7818608E-02  0.1054309E+00
          4   -1    0    0  502    0 -0.00000000000E+00  0.00000000000E+00  0.12346733195E+03  0.12346733195E+03  0.00000000000E+00 0.  1.
         21   -1    0    0  501  502  0.00000000000E+00 -0.00000000000E+00 -0.13440382694E+04  0.13440382694E+04  0.00000000000E+00 0. -1.
        -13    1    1    2    0    0 -0.19781293552E+03  0.65026255470E+02  0.19945230881E+01  0.20823630962E+03  0.10566000000E+00 0.  1.
         13    1    1    2    0    0  0.22024048919E+03 -0.14370790004E+02 -0.11303262266E+04  0.11516726021E+04  0.10566000000E+00 0. -1.
          4    1    1    2  501    0 -0.22427553677E+02 -0.50655465467E+02 -0.92239233967E+02  0.10759668967E+03  0.00000000000E+00 0.  1.
</event>
<event>
 5    1  0.2540860E-005  0.4042582E+03  0.7818608E-02  0.1024290E+00
         -4   -1    0    0    0  501 -0.00000000000E+00  0.00000000000E+00  0.94617736676E+03  0.94617736676E+03  0.00000000000E+00 0. -1.
         21   -1    0    0  501  502  0.00000000000E+00 -0.00000000000E+00 -0.26562371270E+03  0.26562371270E+03  0.00000000000E+00 0. -1.
        -13    1    1    2    0    0  0.41815961832E+02  0.57957169624E+02  0.15365154442E+03  0.16945918813E+03  0.10566000000E+00 0.  1.
         13    1    1    2    0    0 -0.41505043340E+03 -0.16444591546E+03  0.47312595716E+03  0.65050557559E+03  0.10566000000E+00 0. -1.
         -4    1    1    2    0  502  0.37323447157E+03  0.10648874584E+03  0.53776152487E+02  0.39183631574E+03  0.00000000000E+00 0. -1.
</event>
<event>
 5    1  0.2540860E-005  0.4924451E+03  0.7818608E-02  0.9556591E-01
         21   -1    0    0  501  502  0.00000000000E+00  0.00000000000E+00  0.63606089486E+03  0.63606089486E+03  0.00000000000E+00 0. -1.
         -4   -1    0    0    0  501 -0.00000000000E+00 -0.00000000000E+00 -0.18094181458E+04  0.18094181458E+04  0.00000000000E+00 0. -1.
        -13    1    1    2    0    0  0.24003290753E+03 -0.31210650554E+03 -0.13163442609E+04  0.13739681553E+04  0.10566000000E+00 0.  1.
         13    1    1    2    0    0  0.36291834145E+03  0.27156881676E+03  0.13476646809E+02  0.45347654401E+03  0.10566000000E+00 0. -1.
         -4    1    1    2    0  502 -0.60295124898E+03  0.40537688780E+02  0.12951036317E+03  0.61803434130E+03  0.00000000000E+00 0. -1.
</event>
<event>
 5    1  0.2540860E-005  0.4480740E+03  0.7818608E-02  0.9737167E-01
         -4   -1    0    0    0  501 -0.00000000000E+00  0.00000000000E+00  0.21705435556E+04  0.21705435556E+04  0.00000000000E+00 0. -1.
         21   -1    0    0  501  502  0.00000000000E+00 -0.00000000000E+00 -0.20799424533E+03  0.20799424533E+03  0.00000000000E+00 0. -1.
        -13    1    1    2    0    0  0.15530892088E+03 -0.22898628414E+03  0.54797671829E+03  0.61386812443E+03  0.10566000000E+00 0.  1.
         13    1    1    2    0    0 -0.15519164483E+03 -0.27739792577E+03  0.11504295557E+04  0.11935335059E+04  0.10566000000E+00 0. -1.
         -4    1    1    2    0  502 -0.11727605593E+00  0.50638420991E+03  0.26414303630E+03  0.57113617065E+03  0.00000000000E+00 0. -1.
</event>
<event>
 5    1  0.2540860E-005  0.3493652E+03  0.7818608E-02  0.9887897E-01
         21   -1    0    0  501  502  0.00000000000E+00  0.00000000000E+00  0.19239931005E+03  0.19239931005E+03  0.00000000000E+00 0.  1.
         -4   -1    0    0    0  501 -0.00000000000E+00 -0.00000000000E+00 -0.10785810243E+04  0.10785810243E+04  0.00000000000E+00 0. -1.
        -13    1    1    2    0    0  0.13326496344E+03  0.33458308701E+03 -0.38337469411E+03  0.52600528499E+03  0.10566000000E+00 0.  1.
         13    1    1    2    0    0 -0.10986205383E+03 -0.32432766128E+03 -0.57452984650E+03  0.66883679506E+03  0.10566000000E+00 0. -1.
         -4    1    1    2    0  502 -0.23402909610E+02 -0.10255425729E+02  0.71722826391E+02  0.76138254253E+02  0.00000000000E+00 0. -1.
</event>
<event>
 5    1  0.2540860E-005  0.5254050E+03  0.7818608E-02  0.9423963E-01
         21   -1    0    0  501  502  0.00000000000E+00  0.00000000000E+00  0.11326953726E+04  0.11326953726E+04  0.00000000000E+00 0. -1.
         -4   -1    0    0    0  501 -0.00000000000E+00 -0.00000000000E+00 -0.11218748619E+04  0.11218748619E+04  0.00000000000E+00 0. -1.
        -13    1    1    2    0    0  0.50798102840E+03 -0.19921045269E+03 -0.71878695106E+03  0.90243239185E+03  0.10566000000E+00 0.  1.
         13    1    1    2    0    0 -0.19324505528E+03  0.37398226287E+03  0.86939367752E+03  0.96594604508E+03  0.10566000000E+00 0. -1.
         -4    1    1    2    0  502 -0.31473597311E+03 -0.17477181018E+03 -0.13978621568E+03  0.38619179755E+03  0.00000000000E+00 0. -1.
</event>
<event>
 5    1  0.2540860E-005  0.2518391E+03  0.7818608E-02  0.1029444E+00
         21   -1    0    0  501  502  0.00000000000E+00  0.00000000000E+00  0.87367849093E+03  0.87367849093E+03  0.00000000000E+00 0. -1.
          4   -1    0    0  502    0 -0.00000000000E+00 -0.00000000000E+00 -0.13989295020E+04  0.13989295020E+04  0.00000000000E+00 0.  1.
        -13    1    1    2    0    0  0.35069864650E+03 -0.70292363211E+02  0.51898695964E+03  0.63029995433E+03  0.10566000000E+00 0.  1.
         13    1    1    2    0    0 -0.23159137589E+03  0.93630330314E+02 -0.13187292270E+04  0.13421803118E+04  0.10566000000E+00 0. -1.
          4    1    1    2  501    0 -0.11910727061E+03 -0.23337967102E+02  0.27449125627E+03  0.30012772680E+03  0.00000000000E+00 0.  1.
</event>
<event>
 5    1  0.2540860E-005  0.4781226E+03  0.7818608E-02  0.9543846E-01
         21   -1    0    0  501  502  0.00000000000E+00  0.00000000000E+00  0.25082446289E+03  0.25082446289E+03  0.00000000000E+00 0. -1.
         -4   -1    0    0    0  501 -0.00000000000E+00 -0.00000000000E+00 -0.27587408372E+04  0.27587408372E+04  0.00000000000E+00 0. -1.
        -13    1    1    2    0    0 -0.26385168811E+02  0.52724072822E+03 -0.67269737391E+03  0.85510276029E+03  0.10566000000E+00 0.  1.
         13    1    1    2    0    0  0.44194389647E+03 -0.26265345775E+03 -0.14199294419E+04  0.15101327351E+04  0.10566000000E+00 0. -1.
         -4    1    1    2    0  502 -0.41555872766E+03 -0.26458727047E+03 -0.41528955853E+03  0.64432980472E+03  0.00000000000E+00 0. -1.
</event>
<event>
 5    1  0.2611495E-005  0.4123274E+03  0.7818608E-02  0.9898347E-01
         -4   -1    0    0    0  501 -0.00000000000E+00  0.00000000000E+00  0.17668586431E+04  0.17668586431E+04  0.00000000000E+00 0. -1.
         21   -1    0    0  501  502  0.00000000000E+00 -0.00000000000E+00 -0.22972197034E+03  0.22972197034E+03  0.00000000000E+00 0. -1.
        -13    1    1    2    0    0  0.17171556148E+03  0.11235087282E+03  0.49694169206E+03  0.53764301274E+03  0.10566000000E+00 0.  1.
         13    1    1    2    0    0  0.26701598451E+03  0.50739377986E+01  0.96162077043E+03  0.99801693278E+03  0.10566000000E+00 0. -1.
         -4    1    1    2    0  502 -0.43873154599E+03 -0.11742481062E+03  0.78574210261E+02  0.46092066791E+03  0.00000000000E+00 0. -1.
</event>
<event>
 5    1  0.2540860E-005  0.4037829E+03  0.7818608E-02  0.9793750E-01
         21   -1    0    0  501  502  0.00000000000E+00  0.00000000000E+00  0.15611786727E+04  0.15611786727E+04  0.00000000000E+00 0. -1.
         -4   -1    0    0    0  501 -0.00000000000E+00 -0.00000000000E+00 -0.34535096344E+03  0.34535096344E+03  0.00000000000E+00 0. -1.
        -13    1    1    2    0    0  0.26376184972E+03 -0.16525782630E+03  0.17665071101E+02  0.31175716258E+03  0.10566000000E+00 0.  1.
         13    1    1    2    0    0 -0.47884074953E+03  0.43351173211E+03  0.50105012860E+03  0.81747912990E+03  0.10566000000E+00 0. -1.
         -4    1    1    2    0  502  0.21507889981E+03 -0.26825390581E+03  0.69711250959E+03  0.77729334370E+03  0.00000000000E+00 0. -1.
</event>
<event>
 5    1  0.2540860E-005  0.4974588E+03  0.7818608E-02  0.9767477E-01
         21   -1    0    0  501  502  0.00000000000E+00  0.00000000000E+00  0.14973150046E+03  0.14973150046E+03  0.00000000000E+00 0.  1.
          4   -1    0    0  502    0 -0.00000000000E+00 -0.00000000000E+00 -0.24083346820E+04  0.24083346820E+04  0.00000000000E+00 0.  1.
        -13    1    1    2    0    0  0.23182839873E+03  0.54213972425E+03 -0.10720948231E+04  0.12235388053E+04  0.10566000000E+00 0.  1.
         13    1    1    2    0    0 -0.92048373090E+01 -0.18190318144E+03 -0.28064069832E+03  0.33456346059E+03  0.10566000000E+00 0. -1.
          4    1    1    2  501    0 -0.22262356142E+03 -0.36023654281E+03 -0.90586766008E+03  0.99996391658E+03  0.00000000000E+00 0.  1.
</event>
<event>
 5    1  0.2540860E-005  0.5078706E+03  0.7818608E-02  0.9564811E-01
          4   -1    0    0  502    0 -0.00000000000E+00  0.00000000000E+00  0.16035163661E+04  0.16035163661E+04  0.00000000000E+00 0.  1.
         21   -1    0    0  501  502  0.00000000000E+00 -0.00000000000E+00 -0.62684634593E+03  0.62684634593E+03  0.00000000000E+00 0.  1.
        -13    1    1    2    0    0 -0.56201294488E+03  0.45904971747E+02 -0.96467172344E+02  0.57207669341E+03  0.10566000000E+00 0.  1.
         13    1    1    2    0    0  0.13518019819E+03 -0.32122107951E+03  0.10957737435E+04  0.11498594593E+04  0.10566000000E+00 0. -1.
          4    1    1    2  501    0  0.42683274669E+03  0.27531610777E+03 -0.22636550986E+02  0.50842655938E+03  0.00000000000E+00 0.  1.
</event>
<event>
 5    1  0.2540860E-005  0.3017690E+03  0.7818608E-02  0.1006578E+00
         21   -1    0    0  501  502  0.00000000000E+00  0.00000000000E+00  0.12596449845E+03  0.12596449845E+03  0.00000000000E+00 0. -1.
         -4   -1    0    0    0  501 -0.00000000000E+00 -0.00000000000E+00 -0.15304140926E+04  0.15304140926E+04  0.00000000000E+00 0. -1.
        -13    1    1    2    0    0 -0.23010417935E+03  0.28216281354E+02 -0.24276298845E+03  0.33567539620E+03  0.10566000000E+00 0.  1.
         13    1    1    2    0    0  0.33554676594E+03 -0.39428906159E+02 -0.11666145353E+04  0.12145516687E+04  0.10566000000E+00 0. -1.
         -4    1    1    2    0  502 -0.10544258659E+03  0.11212624805E+02  0.49279295849E+01  0.10615152619E+03  0.00000000000E+00 0. -1.
</event>
<event>
 5    1  0.2540860E-005  0.7784587E+03  0.7818608E-02  0.9016328E-01
          4   -1    0    0  502    0 -0.00000000000E+00  0.00000000000E+00  0.25904987455E+04  0.25904987455E+04  0.00000000000E+00 0.  1.
         21   -1    0    0  501  502  0.00000000000E+00 -0.00000000000E+00 -0.35156653531E+03  0.35156653531E+03  0.00000000000E+00 0.  1.
        -13    1    1    2    0    0  0.70191573812E+03 -0.59432430009E+03  0.10821760411E+04  0.14202155020E+04  0.10566000000E+00 0.  1.
         13    1    1    2    0    0 -0.61039374972E+03  0.32124919299E+03  0.91476227433E+03  0.11456751736E+04  0.10566000000E+00 0. -1.
          4    1    1    2  501    0 -0.91521988397E+02  0.27307510710E+03  0.24199389473E+03  0.37617460516E+03  0.00000000000E+00 0.  1.
</event>
<event>
 5    1  0.2540860E-005  0.4564606E+03  0.7818608E-02  0.9903728E-01
         21   -1    0    0  501  502  0.00000000000E+00  0.00000000000E+00  0.19036987372E+03  0.19036987372E+03  0.00000000000E+00 0.  1.
          4   -1    0    0  502    0 -0.00000000000E+00 -0.00000000000E+00 -0.17623655598E+04  0.17623655598E+04  0.00000000000E+00 0.  1.
        -13    1    1    2    0    0  0.13687516473E+03  0.54333890492E+03 -0.98541358088E+03  0.11335748378E+04  0.10566000000E+00 0.  1.
         13    1    1    2    0    0 -0.24696068195E+02 -0.14648800108E+03 -0.23092320010E+03  0.27457998061E+03  0.10566000000E+00 0. -1.
          4    1    1    2  501    0 -0.11217909653E+03 -0.39685090384E+03 -0.35565890507E+03  0.54458061509E+03  0.00000000000E+00 0.  1.
</event>
<event>
 5    1  0.2540860E-005  0.3721371E+03  0.7818608E-02  0.9844996E-01
         21   -1    0    0  501  502  0.00000000000E+00  0.00000000000E+00  0.23353964564E+03  0.23353964564E+03  0.00000000000E+00 0. -1.
          4   -1    0    0  502    0 -0.00000000000E+00 -0.00000000000E+00 -0.27171211535E+04  0.27171211535E+04  0.00000000000E+00 0.  1.
        -13    1    1    2    0    0 -0.16337006258E+03 -0.19973557228E+03 -0.12180699907E+04  0.12451018390E+04  0.10566000000E+00 0.  1.
         13    1    1    2    0    0 -0.20841846471E+03  0.33294544273E+03 -0.12500638337E+04  0.13103245872E+04  0.10566000000E+00 0. -1.
          4    1    1    2  501    0  0.37178852728E+03 -0.13320987045E+03 -0.15447683446E+02  0.39523437291E+03  0.00000000000E+00 0.  1.
</event>
<event>
 5    1  0.2540860E-005  0.3162206E+03  0.7818608E-02  0.1010464E+00
          4   -1    0    0  502    0 -0.00000000000E+00  0.00000000000E+00  0.19602959389E+04  0.19602959389E+04  0.00000000000E+00 0.  1.
         21   -1    0    0  501  502  0.00000000000E+00 -0.00000000000E+00 -0.20800143363E+03  0.20800143363E+03  0.00000000000E+00 0.  1.
        -13    1    1    2    0    0 -0.13176972183E+03 -0.34331909212E+03  0.15105732721E+04  0.15546906059E+04  0.10566000000E+00 0.  1.
         13    1    1    2    0    0 -0.14302961596E+03  0.18188553498E+03  0.16947203064E+03  0.28681108627E+03  0.10566000000E+00 0. -1.
          4    1    1    2  501    0  0.27479933779E+03  0.16143355713E+03  0.72249202538E+02  0.32679568033E+03  0.00000000000E+00 0.  1.
</event>
<event>
 5    1  0.2540860E-005  0.4428123E+03  0.7818608E-02  0.1012506E+00
         21   -1    0    0  501  502  0.00000000000E+00  0.00000000000E+00  0.37110935553E+03  0.37110935553E+03  0.00000000000E+00 0. -1.
         -4   -1    0    0    0  501 -0.00000000000E+00 -0.00000000000E+00 -0.80534771555E+03  0.80534771555E+03  0.00000000000E+00 0. -1.
        -13    1    1    2    0    0  0.19002563617E+02  0.76607406261E+02 -0.15951185783E+03  0.17797144735E+03  0.10566000000E+00 0.  1.
         13    1    1    2    0    0 -0.35091749660E+02 -0.49505702809E+03 -0.29832886707E+03  0.57906218669E+03  0.10566000000E+00 0. -1.
         -4    1    1    2    0  502  0.16089186043E+02  0.41844962183E+03  0.23602364886E+02  0.41942343705E+03  0.00000000000E+00 0. -1.
</event>
<event>
 5    1  0.2540860E-005  0.1378639E+03  0.7818608E-02  0.1113739E+00
         21   -1    0    0  501  502  0.00000000000E+00  0.00000000000E+00  0.23841794763E+03  0.23841794763E+03  0.00000000000E+00 0.  1.
          4   -1    0    0  502    0 -0.00000000000E+00 -0.00000000000E+00 -0.15840984455E+03  0.15840984455E+03  0.00000000000E+00 0.  1.
        -13    1    1    2    0    0  0.13465279181E+03  0.93765228500E+02  0.76503205792E+02  0.18104155346E+03  0.10566000000E+00 0.  1.
         13    1    1    2    0    0 -0.12940046789E+03 -0.23349624677E+02 -0.34024742572E+02  0.13582113361E+03  0.10566000000E+00 0. -1.
          4    1    1    2  501    0 -0.52523239177E+01 -0.70415603823E+02  0.37529639853E+02  0.79965105114E+02  0.00000000000E+00 0.  1.
</event>
<event>
 5    1  0.2540860E-005  0.3753851E+03  0.7818608E-02  0.1022767E+00
         -4   -1    0    0    0  501 -0.00000000000E+00  0.00000000000E+00  0.76734594075E+03  0.76734594075E+03  0.00000000000E+00 0. -1.
         21   -1    0    0  501  502  0.00000000000E+00 -0.00000000000E+00 -0.26560073942E+03  0.26560073942E+03  0.00000000000E+00 0. -1.
        -13    1    1    2    0    0  0.37206389970E+02 -0.85908063072E+02  0.13696190897E+03  0.16590083312E+03  0.10566000000E+00 0.  1.
         13    1    1    2    0    0 -0.33880548675E+03 -0.15616496457E+03  0.67187556537E+02  0.37906573694E+03  0.10566000000E+00 0. -1.
         -4    1    1    2    0  502  0.30159909677E+03  0.24207302764E+03  0.29759573582E+03  0.48798011011E+03  0.00000000000E+00 0. -1.
</event>
<event>
 5    1  0.2540860E-005  0.4709773E+03  0.7818608E-02  0.9809978E-01
         21   -1    0    0  501  502  0.00000000000E+00  0.00000000000E+00  0.28640281097E+03  0.28640281097E+03  0.00000000000E+00 0.  1.
          4   -1    0    0  502    0 -0.00000000000E+00 -0.00000000000E+00 -0.14348626824E+04  0.14348626824E+04  0.00000000000E+00 0.  1.
        -13    1    1    2    0    0  0.30105853719E+03 -0.49675968880E+03 -0.51776381399E+03  0.77812968680E+03  0.10566000000E+00 0.  1.
         13    1    1    2    0    0 -0.15391897385E+03  0.10366129021E+03 -0.44885930975E+03  0.48570711825E+03  0.10566000000E+00 0. -1.
          4    1    1    2  501    0 -0.14713956334E+03  0.39309839858E+03 -0.18183674764E+03  0.45742868828E+03  0.00000000000E+00 0.  1.
</event>
<event>
 5    1  0.2540860E-005  0.1684288E+03  0.7818608E-02  0.1084234E+00
          4   -1    0    0  502    0 -0.00000000000E+00  0.00000000000E+00  0.31996941808E+03  0.31996941808E+03  0.00000000000E+00 0.  1.
         21   -1    0    0  501  502  0.00000000000E+00 -0.00000000000E+00 -0.46827081491E+03  0.46827081491E+03  0.00000000000E+00 0.  1.
        -13    1    1    2    0    0  0.47084580152E+02  0.14595260711E+03  0.85010738583E+02  0.17534525386E+03  0.10566000000E+00 0.  1.
         13    1    1    2    0    0 -0.31997581018E+02 -0.18140650279E+03  0.14388100218E+03  0.23373899631E+03  0.10566000000E+00 0. -1.
          4    1    1    2  501    0 -0.15086999134E+02  0.35453895671E+02 -0.37719313759E+03  0.37915598282E+03  0.00000000000E+00 0.  1.
</event>
<event>
 5    1  0.2540860E-005  0.3674625E+03  0.7818608E-02  0.9828027E-01
         -4   -1    0    0    0  501 -0.00000000000E+00  0.00000000000E+00  0.15468061708E+04  0.15468061708E+04  0.00000000000E+00 0. -1.
         21   -1    0    0  501  502  0.00000000000E+00 -0.00000000000E+00 -0.36624233936E+03  0.36624233936E+03  0.00000000000E+00 0. -1.
        -13    1    1    2    0    0 -0.33836504674E+03  0.94387600919E+02  0.30741315496E+02  0.35262581259E+03  0.10566000000E+00 0.  1.
         13    1    1    2    0    0  0.35501302320E+03 -0.10426319980E+03  0.13293356567E+04  0.13798689651E+04  0.10566000000E+00 0. -1.
         -4    1    1    2    0  502 -0.16647976461E+02  0.98755988808E+01 -0.17951314080E+03  0.18055373243E+03  0.00000000000E+00 0. -1.
</event>
<event>
 5    1  0.2913951E-005  0.4949625E+03  0.7818608E-02  0.1006705E+00
         -4   -1    0    0    0  501 -0.00000000000E+00  0.00000000000E+00  0.58203800705E+03  0.58203800705E+03  0.00000000000E+00 0. -1.
         21   -1    0    0  501  502  0.00000000000E+00 -0.00000000000E+00 -0.71423535759E+03  0.71423535759E+03  0.00000000000E+00 0. -1.
        -13    1    1    2    0    0 -0.33449690667E+02 -0.59327386418E+02  0.21944777299E+03  0.22977370785E+03  0.10566000000E+00 0.  1.
         13    1    1    2    0    0 -0.91255093503E+02 -0.44768844105E+03 -0.40480536227E+02  0.45868411496E+03  0.10566000000E+00 0. -1.
         -4    1    1    2    0  502  0.12470478417E+03  0.50701582746E+03 -0.31116458730E+03  0.60781554183E+03  0.00000000000E+00 0. -1.
</event>
<event>
 5    1  0.2540860E-005  0.4954293E+03  0.7818608E-02  0.9722936E-01
         -4   -1    0    0    0  501 -0.00000000000E+00  0.00000000000E+00  0.91264944234E+03  0.91264944234E+03  0.00000000000E+00 0. -1.
         21   -1    0    0  501  502  0.00000000000E+00 -0.00000000000E+00 -0.11008907389E+04  0.11008907389E+04  0.00000000000E+00 0. -1.
        -13    1    1    2    0    0 -0.14362555919E+03 -0.16002297566E+03  0.65644312777E+03  0.69076279948E+03  0.10566000000E+00 0.  1.
         13    1    1    2    0    0 -0.40964387457E+03  0.18045885555E+01 -0.19129402065E+03  0.45211146193E+03  0.10566000000E+00 0. -1.
         -4    1    1    2    0  502  0.55326943375E+03  0.15821838710E+03 -0.65339040372E+03  0.87066591987E+03  0.00000000000E+00 0. -1.
</event>
<event>
 5    1  0.2540860E-005  0.9332541E+03  0.7818608E-02  0.8839965E-01
         21   -1    0    0  501  502  0.00000000000E+00  0.00000000000E+00  0.10262468514E+04  0.10262468514E+04  0.00000000000E+00 0. -1.
         -4   -1    0    0    0  501 -0.00000000000E+00 -0.00000000000E+00 -0.18551233080E+04  0.18551233080E+04  0.00000000000E+00 0. -1.
        -13    1    1    2    0    0  0.91450958230E+03  0.21397673659E+03 -0.64275134027E+03  0.11380874819E+04  0.10566000000E+00 0.  1.
         13    1    1    2    0    0 -0.90484349589E+03 -0.20555343046E+03 -0.74148889562E+03  0.11877709200E+04  0.10566000000E+00 0. -1.
         -4    1    1    2    0  502 -0.96660864043E+01 -0.84233061264E+01  0.55536377936E+03  0.55551175752E+03  0.00000000000E+00 0. -1.
</event>
<event>
 5    1  0.2540860E-005  0.4420200E+03  0.7818608E-02  0.9769956E-01
          4   -1    0    0  502    0 -0.00000000000E+00  0.00000000000E+00  0.94535946779E+03  0.94535946779E+03  0.00000000000E+00 0.  1.
         21   -1    0    0  501  502  0.00000000000E+00 -0.00000000000E+00 -0.40316603926E+03  0.40316603926E+03  0.00000000000E+00 0.  1.
        -13    1    1    2    0    0  0.19551995154E+03  0.27887430629E+03  0.13216407056E+03  0.36533037496E+03  0.10566000000E+00 0.  1.
         13    1    1    2    0    0  0.15794688705E+03  0.20326801529E+03  0.26202469828E+03  0.36731738162E+03  0.10566000000E+00 0. -1.
          4    1    1    2  501    0 -0.35346683858E+03 -0.48214232158E+03  0.14800465969E+03  0.61587775047E+03  0.00000000000E+00 0.  1.
</event>
<event>
 5    1  0.2540860E-005  0.2424807E+03  0.7818608E-02  0.1034365E+00
         21   -1    0    0  501  502  0.00000000000E+00  0.00000000000E+00  0.52024538404E+02  0.52024538404E+02  0.00000000000E+00 0. -1.
          4   -1    0    0  502    0 -0.00000000000E+00 -0.00000000000E+00 -0.20046125500E+04  0.20046125500E+04  0.00000000000E+00 0.  1.
        -13    1    1    2    0    0 -0.83770975146E+02 -0.18714509031E+03 -0.73297914995E+03  0.76111714377E+03  0.10566000000E+00 0.  1.
         13    1    1    2    0    0  0.15444709190E+03  0.25057328588E+03 -0.11194366093E+04  0.11574883192E+04  0.10566000000E+00 0. -1.
          4    1    1    2  501    0 -0.70676116759E+02 -0.63428195568E+02 -0.10017225242E+03  0.13803162546E+03  0.00000000000E+00 0.  1.
</event>
<event>
 5    1  0.2540860E-005  0.3827861E+03  0.7818608E-02  0.1012082E+00
         -4   -1    0    0    0  501 -0.00000000000E+00  0.00000000000E+00  0.11293246791E+04  0.11293246791E+04  0.00000000000E+00 0. -1.
         21   -1    0    0  501  502  0.00000000000E+00 -0.00000000000E+00 -0.29397508952E+03  0.29397508952E+03  0.00000000000E+00 0.  1.
        -13    1    1    2    0    0  0.45816384842E+02  0.11506860906E+03 -0.36761650629E+02  0.12919503099E+03  0.10566000000E+00 0.  1.
         13    1    1    2    0    0  0.28440990505E+03 -0.30025970448E+03  0.81131312129E+03  0.91064475849E+03  0.10566000000E+00 0. -1.
         -4    1    1    2    0  502 -0.33022628989E+03  0.18519109542E+03  0.60798118955E+02  0.38345997917E+03  0.00000000000E+00 0. -1.
</event>
<event>
 5    1  0.2540860E-005  0.2699015E+03  0.7818608E-02  0.1026112E+00
         -4   -1    0    0    0  501 -0.00000000000E+00  0.00000000000E+00  0.28159384071E+04  0.28159384071E+04  0.00000000000E+00 0. -1.
         21   -1    0    0  501  502  0.00000000000E+00 -0.00000000000E+00 -0.15528586356E+03  0.15528586356E+03  0.00000000000E+00 0. -1.
        -13    1    1    2    0    0 -0.22210197759E+03  0.46319364382E+02  0.57029877611E+03  0.61377151870E+03  0.10566000000E+00 0.  1.
         13    1    1    2    0    0  0.33421869538E+03 -0.28106967969E+03  0.20478007458E+04  0.20938457934E+04  0.10566000000E+00 0. -1.
         -4    1    1    2    0  502 -0.11211671779E+03  0.23475031530E+03  0.42553021694E+02  0.26360695856E+03  0.00000000000E+00 0. -1.
</event>
<event>
 5    1  0.2540860E-005  0.4189676E+03  0.7818608E-02  0.9706708E-01
         21   -1    0    0  501  502  0.00000000000E+00  0.00000000000E+00  0.65478352283E+03  0.65478352283E+03  0.00000000000E+00 0.  1.
         -4   -1    0    0    0  501 -0.00000000000E+00 -0.00000000000E+00 -0.80796858845E+03  0.80796858845E+03  0.00000000000E+00 0. -1.
        -13    1    1    2    0    0  0.30391276857E+03  0.22164856396E+03  0.11759927289E+02  0.37633676921E+03  0.10566000000E+00 0.  1.
         13    1    1    2    0    0  0.91334440743E+02 -0.43362435899E+03 -0.38482967572E+03  0.58691222108E+03  0.10566000000E+00 0. -1.
         -4    1    1    2    0  502 -0.39524720931E+03  0.21197579503E+03  0.21988468281E+03  0.49950312099E+03  0.00000000000E+00 0. -1.
</event>
<event>
 5    1  0.2540860E-005  0.5354083E+02  0.7818608E-02  0.1278007E+00
         21   -1    0    0  501  502  0.00000000000E+00  0.00000000000E+00  0.20121969311E+03  0.20121969311E+03  0.00000000000E+00 0. -1.
          4   -1    0    0  502    0 -0.00000000000E+00 -0.00000000000E+00 -0.36296048445E+02  0.36296048445E+02  0.00000000000E+00 0.  1.
        -13    1    1    2    0    0  0.19667204141E+02 -0.56149102727E+02  0.15987833376E+02  0.61604729006E+02  0.10566000000E+00 0.  1.
         13    1    1    2    0    0 -0.67830023242E+01  0.30720069209E+02  0.14347776412E+03  0.14688639057E+03  0.10566000000E+00 0. -1.
          4    1    1    2  501    0 -0.12884201817E+02  0.25429033519E+02  0.54580471662E+01  0.29024621979E+02  0.00000000000E+00 0.  1.
</event>
<event>
 5    1  0.2540860E-005  0.6634329E+03  0.7818608E-02  0.9413143E-01
         21   -1    0    0  501  502  0.00000000000E+00  0.00000000000E+00  0.41505658921E+03  0.41505658921E+03  0.00000000000E+00 0.  1.
         -4   -1    0    0    0  501 -0.00000000000E+00 -0.00000000000E+00 -0.25631909785E+04  0.25631909785E+04  0.00000000000E+00 0. -1.
        -13    1    1    2    0    0 -0.51487987381E+03 -0.46573772822E+03 -0.13191546475E+04  0.14906984642E+04  0.10566000000E+00 0.  1.
         13    1    1    2    0    0  0.21575446318E+03 -0.12643385008E+03 -0.78363461704E+03  0.82256837468E+03  0.10566000000E+00 0. -1.
         -4    1    1    2    0  502  0.29912541063E+03  0.59217157830E+03 -0.45345124780E+02  0.66498072887E+03  0.00000000000E+00 0. -1.
</event>
<event>
 5    1  0.2540860E-005  0.1345162E+03  0.7818608E-02  0.1117473E+00
         -4   -1    0    0    0  501 -0.00000000000E+00  0.00000000000E+00  0.11382389968E+03  0.11382389968E+03  0.00000000000E+00 0. -1.
         21   -1    0    0  501  502  0.00000000000E+00 -0.00000000000E+00 -0.28088659453E+03  0.28088659453E+03  0.00000000000E+00 0.  1.
        -13    1    1    2    0    0  0.10303098178E+03  0.52199853070E+01 -0.10027682340E+03  0.14386828674E+03  0.10566000000E+00 0.  1.
         13    1    1    2    0    0 -0.14741709425E+03 -0.50110362163E+02  0.43138857639E+01  0.15576093492E+03  0.10566000000E+00 0. -1.
         -4    1    1    2    0  502  0.44386112471E+02  0.44890376856E+02 -0.71099757214E+02  0.95081272554E+02  0.00000000000E+00 0. -1.
</event>
<event>
 5    1  0.2540860E-005  0.3044300E+03  0.7818608E-02  0.1007578E+00
         21   -1    0    0  501  502  0.00000000000E+00  0.00000000000E+00  0.51445745439E+03  0.51445745439E+03  0.00000000000E+00 0.  1.
          4   -1    0    0  502    0 -0.00000000000E+00 -0.00000000000E+00 -0.10077595367E+04  0.10077595367E+04  0.00000000000E+00 0.  1.
        -13    1    1    2    0    0 -0.73353537122E+02 -0.50395641743E+03 -0.35608516099E+03  0.62140925735E+03  0.10566000000E+00 0.  1.
         13    1    1    2    0    0  0.16257419347E+03  0.23357296030E+03 -0.41488423627E+03  0.50310598967E+03  0.10566000000E+00 0. -1.
          4    1    1    2  501    0 -0.89220656345E+02  0.27038345713E+03  0.27766731498E+03  0.39770174404E+03  0.00000000000E+00 0.  1.
</event>
<event>
 5    1  0.2540860E-005  0.8293642E+03  0.7818608E-02  0.8953923E-01
         21   -1    0    0  501  502  0.00000000000E+00  0.00000000000E+00  0.62506232086E+03  0.62506232086E+03  0.00000000000E+00 0. -1.
          4   -1    0    0  502    0 -0.00000000000E+00 -0.00000000000E+00 -0.17854230718E+04  0.17854230718E+04  0.00000000000E+00 0.  1.
        -13    1    1    2    0    0 -0.82132419417E+03  0.25384271708E+02 -0.12526647376E+04  0.14981277480E+04  0.10566000000E+00 0.  1.
         13    1    1    2    0    0  0.85707668920E+03 -0.39837877650E+02  0.56703179519E+02  0.85987369386E+03  0.10566000000E+00 0. -1.
          4    1    1    2  501    0 -0.35752495022E+02  0.14453605942E+02  0.35600807155E+02  0.52483950834E+02  0.00000000000E+00 0.  1.
</event>
<event>
 5    1  0.2718243E-005  0.8692131E+03  0.7818608E-02  0.8908256E-01
         21   -1    0    0  501  502  0.00000000000E+00  0.00000000000E+00  0.65104961184E+03  0.65104961184E+03  0.00000000000E+00 0. -1.
          4   -1    0    0  502    0 -0.00000000000E+00 -0.00000000000E+00 -0.17145566828E+04  0.17145566828E+04  0.00000000000E+00 0.  1.
        -13    1    1    2    0    0 -0.50914921764E+03 -0.76156761925E+03 -0.84818129140E+03  0.12484509116E+04  0.10566000000E+00 0.  1.
         13    1    1    2    0    0  0.31388838078E+03  0.75215393946E+03 -0.34236954444E+03  0.88401265848E+03  0.10566000000E+00 0. -1.
          4    1    1    2  501    0  0.19526083687E+03  0.94136797885E+01  0.12704376491E+03  0.23314272449E+03  0.00000000000E+00 0.  1.
</event>
<event>
 5    1  0.2540860E-005  0.2676691E+02  0.7818608E-02  0.1432918E+00
          4   -1    0    0  502    0 -0.00000000000E+00  0.00000000000E+00  0.91094500294E+02  0.91094500294E+02  0.00000000000E+00 0.  1.
         21   -1    0    0  501  502  0.00000000000E+00 -0.00000000000E+00 -0.47617811209E+02  0.47617811209E+02  0.00000000000E+00 0. -1.
        -13    1    1    2    0    0  0.68286168477E+01 -0.26276462295E+02  0.80655557065E+02  0.85102364998E+02  0.10566000000E+00 0.  1.
         13    1    1    2    0    0 -0.14939421245E+02  0.16997471562E+02 -0.34068142816E+02  0.40899264853E+02  0.10566000000E+00 0. -1.
          4    1    1    2  501    0  0.81108043969E+01  0.92789907338E+01 -0.31107251646E+01  0.12710681652E+02  0.00000000000E+00 0.  1.
</event>
<event>
 5    1  0.2540860E-005  0.4563876E+03  0.7818608E-02  0.9778059E-01
         21   -1    0    0  501  502  0.00000000000E+00  0.00000000000E+00  0.37946218050E+03  0.37946218050E+03  0.00000000000E+00 0. -1.
         -4   -1    0    0    0  501 -0.00000000000E+00 -0.00000000000E+00 -0.13030123331E+04  0.13030123331E+04  0.00000000000E+00 0. -1.
        -13    1    1    2    0    0  0.17028835563E+03 -0.15078629636E+03 -0.58377613442E+03  0.62652152199E+03  0.10566000000E+00 0.  1.
         13    1    1    2    0    0 -0.48174409522E+03 -0.16969981219E+03 -0.33163965241E+03  0.60898297985E+03  0.10566000000E+00 0. -1.
         -4    1    1    2    0  502  0.31145573958E+03  0.32048610855E+03 -0.81343657653E+01  0.44697001175E+03  0.00000000000E+00 0. -1.
</event>
<event>
 5    1  0.2540860E-005  0.2118378E+03  0.7818608E-02  0.1052310E+00
         21   -1    0    0  501  502  0.00000000000E+00  0.00000000000E+00  0.36680173292E+03  0.36680173292E+03  0.00000000000E+00 0. -1.
          4   -1    0    0  502    0 -0.00000000000E+00 -0.00000000000E+00 -0.28045637912E+03  0.28045637912E+03  0.00000000000E+00 0.  1.
        -13    1    1    2    0    0  0.16754980226E+03 -0.12540885629E+03  0.18352688072E+03  0.27835668589E+03  0.10566000000E+00 0.  1.
         13    1    1    2    0    0 -0.18137300619E+03  0.11079812705E+03 -0.18317894374E+03  0.28058319430E+03  0.10566000000E+00 0. -1.
          4    1    1    2  501    0  0.13823203933E+02  0.14610729232E+02  0.85997416820E+02  0.88318231840E+02  0.00000000000E+00 0.  1.
</event>
<event>
 5    1  0.2540860E-005  0.6685736E+03  0.7818608E-02  0.9297554E-01
          4   -1    0    0  502    0 -0.00000000000E+00  0.00000000000E+00  0.18961006007E+04  0.18961006007E+04  0.00000000000E+00 0.  1.
         21   -1    0    0  501  502  0.00000000000E+00 -0.00000000000E+00 -0.68395100143E+03  0.68395100143E+03  0.00000000000E+00 0. -1.
        -13    1    1    2    0    0  0.19240320357E+03  0.26714372898E+03  0.69972874604E+03  0.77330789074E+03  0.10566000000E+00 0.  1.
         13    1    1    2    0    0  0.61334531759E+03 -0.59517376301E+03  0.16754878473E+03  0.87091727117E+03  0.10566000000E+00 0. -1.
          4    1    1    2  501    0 -0.80574852116E+03  0.32803003403E+03  0.34487206848E+03  0.93582644021E+03  0.00000000000E+00 0.  1.
</event>
<event>
 5    1  0.2540860E-005  0.4967945E+03  0.7818608E-02  0.9712747E-01
         21   -1    0    0  501  502  0.00000000000E+00  0.00000000000E+00  0.61296756196E+03  0.61296756196E+03  0.00000000000E+00 0.  1.
          4   -1    0    0  502    0 -0.00000000000E+00 -0.00000000000E+00 -0.16698346298E+04  0.16698346298E+04  0.00000000000E+00 0.  1.
        -13    1    1    2    0    0  0.54161292367E+03  0.25166500188E+03  0.22761966142E+03  0.63913265735E+03  0.10566000000E+00 0.  1.
         13    1    1    2    0    0 -0.21852425414E+03 -0.32528384599E+02 -0.12297725422E+04  0.12494604685E+04  0.10566000000E+00 0. -1.
          4    1    1    2  501    0 -0.32308866953E+03 -0.21913661728E+03 -0.54714187019E+02  0.39420906595E+03  0.00000000000E+00 0.  1.
</event>
<event>
 5    1  0.2540860E-005  0.3107259E+02  0.7818608E-02  0.1396497E+00
         21   -1    0    0  501  502  0.00000000000E+00  0.00000000000E+00  0.60576477983E+02  0.60576477983E+02  0.00000000000E+00 0. -1.
          4   -1    0    0  502    0 -0.00000000000E+00 -0.00000000000E+00 -0.22032618723E+03  0.22032618723E+03  0.00000000000E+00 0.  1.
        -13    1    1    2    0    0  0.62414270116E+01  0.29718851995E+02 -0.17959871067E+03  0.18214794430E+03  0.10566000000E+00 0.  1.
         13    1    1    2    0    0 -0.15932913671E+02 -0.56681279279E+02  0.32704550953E+02  0.67351495721E+02  0.10566000000E+00 0. -1.
          4    1    1    2  501    0  0.96914866589E+01  0.26962427284E+02 -0.12855549534E+02  0.31403225193E+02  0.00000000000E+00 0.  1.
</event>
<event>
 5    1  0.2540860E-005  0.3452164E+02  0.7818608E-02  0.1371894E+00
          4   -1    0    0  502    0 -0.00000000000E+00  0.00000000000E+00  0.97613128453E+02  0.97613128453E+02  0.00000000000E+00 0.  1.
         21   -1    0    0  501  502  0.00000000000E+00 -0.00000000000E+00 -0.38942931271E+03  0.38942931271E+03  0.00000000000E+00 0.  1.
        -13    1    1    2    0    0  0.20588349574E+02 -0.27866856403E+02  0.90963951707E+02  0.97339064605E+02  0.10566000000E+00 0.  1.
         13    1    1    2    0    0 -0.63387331305E+01  0.33679431572E+02 -0.86758893975E+02  0.93282369698E+02  0.10566000000E+00 0. -1.
          4    1    1    2  501    0 -0.14249616443E+02 -0.58125751694E+01 -0.29602124199E+03  0.29642100686E+03  0.00000000000E+00 0.  1.
</event>
<event>
 5    1  0.2540860E-005  0.4578167E+03  0.7818608E-02  0.9620880E-01
         -4   -1    0    0    0  501 -0.00000000000E+00  0.00000000000E+00  0.57322530482E+03  0.57322530482E+03  0.00000000000E+00 0. -1.
         21   -1    0    0  501  502  0.00000000000E+00 -0.00000000000E+00 -0.11962255369E+04  0.11962255369E+04  0.00000000000E+00 0. -1.
        -13    1    1    2    0    0  0.37631414236E+03  0.10095057636E+03  0.16613801185E+03  0.42356251340E+03  0.10566000000E+00 0.  1.
         13    1    1    2    0    0  0.61551470170E+02 -0.38775892332E+03  0.74864994370E+01  0.39268514733E+03  0.10566000000E+00 0. -1.
         -4    1    1    2    0  502 -0.43786561253E+03  0.28680834696E+03 -0.79662474332E+03  0.95320318096E+03  0.00000000000E+00 0. -1.
</event>
<event>
 5    1  0.2540860E-005  0.5826254E+03  0.7818608E-02  0.9313224E-01
         21   -1    0    0  501  502  0.00000000000E+00  0.00000000000E+00  0.49838451035E+03  0.49838451035E+03  0.00000000000E+00 0.  1.
          4   -1    0    0  502    0 -0.00000000000E+00 -0.00000000000E+00 -0.17075389381E+04  0.17075389381E+04  0.00000000000E+00 0.  1.
        -13    1    1    2    0    0  0.64253174356E+03  0.39254418363E+03 -0.18294850214E+03  0.77486007975E+03  0.10566000000E+00 0.  1.
         13    1    1    2    0    0 -0.55329427210E+03 -0.28632186363E+02 -0.85569711677E+03  0.10193978225E+04  0.10566000000E+00 0. -1.
          4    1    1    2  501    0 -0.89237471463E+02 -0.36391199727E+03 -0.17050880885E+03  0.41166554625E+03  0.00000000000E+00 0.  1.
</event>
<event>
 5    1  0.2540860E-005  0.4164674E+03  0.7818608E-02  0.9901479E-01
         -4   -1    0    0    0  501 -0.00000000000E+00  0.00000000000E+00  0.15790836245E+04  0.15790836245E+04  0.00000000000E+00 0. -1.
         21   -1    0    0  501  502  0.00000000000E+00 -0.00000000000E+00 -0.23721789108E+03  0.23721789108E+03  0.00000000000E+00 0. -1.
        -13    1    1    2    0    0 -0.17262299827E+03 -0.95067718791E+02  0.40377262819E+03  0.44929824964E+03  0.10566000000E+00 0.  1.
         13    1    1    2    0    0  0.53394775650E+03  0.17794713186E+03  0.78502977907E+03  0.96593848334E+03  0.10566000000E+00 0. -1.
         -4    1    1    2    0  502 -0.36132475823E+03 -0.82879413068E+02  0.15306332615E+03  0.40106478259E+03  0.00000000000E+00 0. -1.
</event>
<event>
 5    1  0.2540860E-005  0.2082217E+03  0.7818608E-02  0.1054641E+00
         -4   -1    0    0    0  501 -0.00000000000E+00  0.00000000000E+00  0.10939724808E+04  0.10939724808E+04  0.00000000000E+00 0. -1.
         21   -1    0    0  501  502  0.00000000000E+00 -0.00000000000E+00 -0.44928575356E+03  0.44928575356E+03  0.00000000000E+00 0. -1.
        -13    1    1    2    0    0 -0.20440071773E+03 -0.40094804235E+02  0.45702467009E+03  0.50225372768E+03  0.10566000000E+00 0.  1.
         13    1    1    2    0    0  0.15762123945E+03  0.24283966557E+03 -0.35601566126E+03  0.45887113717E+03  0.10566000000E+00 0. -1.
         -4    1    1    2    0  502  0.46779478275E+02 -0.20274486134E+03  0.54367771842E+03  0.58213336951E+03  0.00000000000E+00 0. -1.
</event>
<event>
 5    1  0.2540860E-005  0.1890505E+03  0.7818608E-02  0.1070989E+00
          4   -1    0    0  502    0 -0.00000000000E+00  0.00000000000E+00  0.42058751276E+03  0.42058751276E+03  0.00000000000E+00 0.  1.
         21   -1    0    0  501  502  0.00000000000E+00 -0.00000000000E+00 -0.86520864103E+03  0.86520864103E+03  0.00000000000E+00 0.  1.
        -13    1    1    2    0    0  0.14984764336E+03  0.15999924789E+03  0.31505928657E+03  0.38381823923E+03  0.10566000000E+00 0.  1.
         13    1    1    2    0    0  0.40641089748E+02 -0.16825991190E+03 -0.70492968916E+02  0.18690202235E+03  0.10566000000E+00 0. -1.
          4    1    1    2  501    0 -0.19048873311E+03  0.82606640067E+01 -0.68918744592E+03  0.71507589221E+03  0.00000000000E+00 0.  1.
</event>
<event>
 5    1  0.2540860E-005  0.9235942E+02  0.7818608E-02  0.1196317E+00
          4   -1    0    0  502    0 -0.00000000000E+00  0.00000000000E+00  0.48949467506E+03  0.48949467506E+03  0.00000000000E+00 0.  1.
         21   -1    0    0  501  502  0.00000000000E+00 -0.00000000000E+00 -0.10756814980E+03  0.10756814980E+03  0.00000000000E+00 0. -1.
        -13    1    1    2    0    0 -0.53055686501E+02  0.53377420199E+02  0.41852492550E+03  0.42523779146E+03  0.10566000000E+00 0.  1.
         13    1    1    2    0    0 -0.42682587004E+02 -0.42334248230E+02 -0.44990006596E+02  0.75087306944E+02  0.10566000000E+00 0. -1.
          4    1    1    2  501    0  0.95738273506E+02 -0.11043171968E+02  0.83916063572E+01  0.96737726447E+02  0.00000000000E+00 0.  1.
</event>
<event>
 5    1  0.2540860E-005  0.5939056E+02  0.7818608E-02  0.1282197E+00
         21   -1    0    0  501  502  0.00000000000E+00  0.00000000000E+00  0.29798843508E+02  0.29798843508E+02  0.00000000000E+00 0.  1.
          4   -1    0    0  502    0 -0.00000000000E+00 -0.00000000000E+00 -0.29102026818E+03  0.29102026818E+03  0.00000000000E+00 0.  1.
        -13    1    1    2    0    0 -0.67030986683E+02 -0.47083955922E+02 -0.17137431307E+03  0.18994530377E+03  0.10566000000E+00 0.  1.
         13    1    1    2    0    0  0.14567889057E+02  0.33000787658E+02 -0.56811423148E+02  0.67296540340E+02  0.10566000000E+00 0. -1.
          4    1    1    2  501    0  0.52463097625E+02  0.14083168264E+02 -0.33035688457E+02  0.63577267577E+02  0.00000000000E+00 0.  1.
</event>
<event>
 5    1  0.2540860E-005  0.2034643E+03  0.7818608E-02  0.1057787E+00
          4   -1    0    0  502    0 -0.00000000000E+00  0.00000000000E+00  0.61493914428E+02  0.61493914428E+02  0.00000000000E+00 0.  1.
         21   -1    0    0  501  502  0.00000000000E+00 -0.00000000000E+00 -0.15573850561E+04  0.15573850561E+04  0.00000000000E+00 0. -1.
        -13    1    1    2    0    0  0.45204450218E+02  0.21333806965E+03 -0.20310584582E+03  0.29800766777E+03  0.10566000000E+00 0.  1.
         13    1    1    2    0    0 -0.42955139938E+02 -0.16591462702E+03 -0.53898284188E+03  0.56557521384E+03  0.10566000000E+00 0. -1.
          4    1    1    2  501    0 -0.22493102802E+01 -0.47423442635E+02 -0.75380245402E+03  0.75529608895E+03  0.00000000000E+00 0.  1.
</event>
<event>
 5    1  0.2540860E-005  0.4968578E+03  0.7818608E-02  0.9672290E-01
         21   -1    0    0  501  502  0.00000000000E+00  0.00000000000E+00  0.38410662630E+03  0.38410662630E+03  0.00000000000E+00 0. -1.
          4   -1    0    0  502    0 -0.00000000000E+00 -0.00000000000E+00 -0.12453198725E+04  0.12453198725E+04  0.00000000000E+00 0.  1.
        -13    1    1    2    0    0  0.19306208501E+03  0.39562833511E+03 -0.68461869091E+03  0.81393950102E+03  0.10566000000E+00 0.  1.
         13    1    1    2    0    0  0.24276316599E+03 -0.75789317445E+02 -0.35498009931E+02  0.25678414140E+03  0.10566000000E+00 0. -1.
          4    1    1    2  501    0 -0.43582525101E+03 -0.31983901767E+03 -0.14109654539E+03  0.55870285641E+03  0.00000000000E+00 0.  1.
</event>
<event>
 5    1  0.2540860E-005  0.4568263E+03  0.7818608E-02  0.9963170E-01
         21   -1    0    0  501  502  0.00000000000E+00  0.00000000000E+00  0.22755922013E+03  0.22755922013E+03  0.00000000000E+00 0. -1.
         -4   -1    0    0    0  501 -0.00000000000E+00 -0.00000000000E+00 -0.14686753001E+04  0.14686753001E+04  0.00000000000E+00 0. -1.
        -13    1    1    2    0    0  0.94316591611E+02  0.76813276797E+02 -0.39867050779E+03  0.41681420788E+03  0.10566000000E+00 0.  1.
         13    1    1    2    0    0  0.39573085028E+03 -0.62441173635E+02 -0.62665372073E+03  0.74377194280E+03  0.10566000000E+00 0. -1.
         -4    1    1    2    0  502 -0.49004744189E+03 -0.14372103162E+02 -0.21579185147E+03  0.53564836956E+03  0.00000000000E+00 0. -1.
</event>
<event>
 5    1  0.2540860E-005  0.2798751E+03  0.7818608E-02  0.1015976E+00
          4   -1    0    0  502    0 -0.00000000000E+00  0.00000000000E+00  0.76888262535E+03  0.76888262535E+03  0.00000000000E+00 0.  1.
         21   -1    0    0  501  502  0.00000000000E+00 -0.00000000000E+00 -0.25276152848E+03  0.25276152848E+03  0.00000000000E+00 0. -1.
        -13    1    1    2    0    0  0.46560883069E+01  0.32343616973E+03 -0.80538995664E+02  0.33334543050E+03  0.10566000000E+00 0.  1.
         13    1    1    2    0    0 -0.35784778711E+02 -0.27093584583E+03  0.53905066446E+03  0.60436943418E+03  0.10566000000E+00 0. -1.
          4    1    1    2  501    0  0.31128690404E+02 -0.52500323901E+02  0.57609428068E+02  0.83929289157E+02  0.00000000000E+00 0.  1.
</event>
<event>
 5    1  0.2540860E-005  0.3939397E+03  0.7818608E-02  0.1002725E+00
         21   -1    0    0  501  502  0.00000000000E+00  0.00000000000E+00  0.53488768798E+03  0.53488768798E+03  0.00000000000E+00 0. -1.
         -4   -1    0    0    0  501 -0.00000000000E+00 -0.00000000000E+00 -0.77701515905E+03  0.77701515905E+03  0.00000000000E+00 0. -1.
        -13    1    1    2    0    0 -0.72434539280E+02  0.13558470492E+03  0.15185820426E+03  0.21608077206E+03  0.10566000000E+00 0.  1.
         13    1    1    2    0    0 -0.20716885907E+03 -0.40076953936E+03 -0.52182803550E+03  0.68981132901E+03  0.10566000000E+00 0. -1.
         -4    1    1    2    0  502  0.27960339835E+03  0.26518483444E+03  0.12784236016E+03  0.40601074596E+03  0.00000000000E+00 0. -1.
</event>
<event>
 5    1  0.2540860E-005  0.6346590E+03  0.7818608E-02  0.9223569E-01
         21   -1    0    0  501  502  0.00000000000E+00  0.00000000000E+00  0.48301863498E+03  0.48301863498E+03  0.00000000000E+00 0.  1.
         -4   -1    0    0    0  501 -0.00000000000E+00 -0.00000000000E+00 -0.10203760956E+04  0.10203760956E+04  0.00000000000E+00 0. -1.
        -13    1    1    2    0    0  0.59227050467E+03 -0.10465175676E+03 -0.27982212484E+03  0.66335267664E+03  0.10566000000E+00 0.  1.
         13    1    1    2    0    0 -0.66907176207E+03  0.70500211538E+02 -0.31020914049E+03  0.74084885411E+03  0.10566000000E+00 0. -1.
         -4    1    1    2    0  502  0.76801257398E+02  0.34151545220E+02  0.52673804748E+02  0.99193199794E+02  0.00000000000E+00 0. -1.
</event>
<event>
 5    1  0.2540860E-005  0.4948576E+03  0.7818608E-02  0.9591833E-01
         -4   -1    0    0    0  501 -0.00000000000E+00  0.00000000000E+00  0.23758393789E+04  0.23758393789E+04  0.00000000000E+00 0. -1.
         21   -1    0    0  501  502  0.00000000000E+00 -0.00000000000E+00 -0.55671641888E+03  0.55671641888E+03  0.00000000000E+00 0. -1.
        -13    1    1    2    0    0 -0.11703637768E+03  0.32140443591E+03  0.18519641445E+04  0.18832868950E+04  0.10566000000E+00 0.  1.
         13    1    1    2    0    0 -0.42102019789E+03 -0.62209965651E+02  0.10057941552E+03  0.43731489438E+03  0.10566000000E+00 0. -1.
         -4    1    1    2    0  502  0.53805657557E+03 -0.25919447026E+03 -0.13342060000E+03  0.61195400843E+03  0.00000000000E+00 0. -1.
</event>
<event>
 5    1  0.2540860E-005  0.1196120E+03  0.7818608E-02  0.1135654E+00
         21   -1    0    0  501  502  0.00000000000E+00  0.00000000000E+00  0.11521318347E+03  0.11521318347E+03  0.00000000000E+00 0. -1.
         -4   -1    0    0    0  501 -0.00000000000E+00 -0.00000000000E+00 -0.20259907838E+03  0.20259907838E+03  0.00000000000E+00 0. -1.
        -13    1    1    2    0    0  0.12037671641E+03  0.11823311962E+02 -0.58305690170E+02  0.13427549751E+03  0.10566000000E+00 0.  1.
         13    1    1    2    0    0 -0.11889553875E+03  0.67711476046E+01 -0.70302013681E+02  0.13829093198E+03  0.10566000000E+00 0. -1.
         -4    1    1    2    0  502 -0.14811776615E+01 -0.18594459566E+02  0.41221808945E+02  0.45245832366E+02  0.00000000000E+00 0. -1.
</event>
<event>
 5    1  0.2540860E-005  0.4365419E+03  0.7818608E-02  0.1025711E+00
         21   -1    0    0  501  502  0.00000000000E+00  0.00000000000E+00  0.17429498321E+03  0.17429498321E+03  0.00000000000E+00 0.  1.
          4   -1    0    0  502    0 -0.00000000000E+00 -0.00000000000E+00 -0.17126727611E+04  0.17126727611E+04  0.00000000000E+00 0.  1.
        -13    1    1    2    0    0 -0.32365481568E+03 -0.30565064593E+03 -0.99011350128E+03  0.10855871746E+04  0.10566000000E+00 0.  1.
         13    1    1    2    0    0  0.46247590318E+02 -0.28443998255E+02 -0.29231180824E+03  0.29731146134E+03  0.10566000000E+00 0. -1.
          4    1    1    2  501    0  0.27740722536E+03  0.33409464419E+03 -0.25595246839E+03  0.50406910839E+03  0.00000000000E+00 0.  1.
</event>
<event>
 5    1  0.2540860E-005  0.5900676E+03  0.7818608E-02  0.9299809E-01
          4   -1    0    0  502    0 -0.00000000000E+00  0.00000000000E+00  0.15019591446E+04  0.15019591446E+04  0.00000000000E+00 0.  1.
         21   -1    0    0  501  502  0.00000000000E+00 -0.00000000000E+00 -0.52085252547E+03  0.52085252547E+03  0.00000000000E+00 0.  1.
        -13    1    1    2    0    0 -0.26470753549E+03 -0.57362002413E+03  0.96477097943E+03  0.11532098965E+04  0.10566000000E+00 0.  1.
         13    1    1    2    0    0 -0.66875549978E+02  0.53055531871E+03 -0.15515963984E+01  0.53475574238E+03  0.10566000000E+00 0. -1.
          4    1    1    2  501    0  0.33158308547E+03  0.43064705421E+02  0.17887236130E+02  0.33484603124E+03  0.00000000000E+00 0.  1.
</event>
<event>
 5    1  0.2540860E-005  0.2950846E+03  0.7818608E-02  0.1030952E+00
         21   -1    0    0  501  502  0.00000000000E+00  0.00000000000E+00  0.24109826459E+03  0.24109826459E+03  0.00000000000E+00 0.  1.
          4   -1    0    0  502    0 -0.00000000000E+00 -0.00000000000E+00 -0.14422058644E+04  0.14422058644E+04  0.00000000000E+00 0.  1.
        -13    1    1    2    0    0  0.28706369290E+03  0.24170520342E+02  0.71939353014E+02  0.29692601690E+03  0.10566000000E+00 0.  1.
         13    1    1    2    0    0  0.82619500480E+02 -0.12450944066E+03 -0.22111301870E+03  0.26686993251E+03  0.10566000000E+00 0. -1.
          4    1    1    2  501    0 -0.36968319338E+03  0.10033892032E+03 -0.10519339341E+04  0.11195081795E+04  0.00000000000E+00 0.  1.
</event>
<event>
 5    1  0.2540860E-005  0.4495967E+02  0.7818608E-02  0.1313792E+00
         -4   -1    0    0    0  501 -0.00000000000E+00  0.00000000000E+00  0.30726909464E+03  0.30726909464E+03  0.00000000000E+00 0. -1.
         21   -1    0    0  501  502  0.00000000000E+00 -0.00000000000E+00 -0.16174098377E+02  0.16174098377E+02  0.00000000000E+00 0.  1.
        -13    1    1    2    0    0 -0.29490288960E+02  0.17905611830E+02  0.32062211218E+02  0.47098669091E+02  0.10566000000E+00 0.  1.
         13    1    1    2    0    0  0.50601826062E+02 -0.24236763935E+02  0.91242779343E+02  0.10711312465E+03  0.10566000000E+00 0. -1.
         -4    1    1    2    0  502 -0.21111537102E+02  0.63311521046E+01  0.16779000570E+03  0.16923139927E+03  0.00000000000E+00 0. -1.
</event>
<event>
 5    1  0.2540860E-005  0.4880358E+03  0.7818608E-02  0.9735587E-01
         21   -1    0    0  501  502  0.00000000000E+00  0.00000000000E+00  0.63417621160E+03  0.63417621160E+03  0.00000000000E+00 0. -1.
         -4   -1    0    0    0  501 -0.00000000000E+00 -0.00000000000E+00 -0.60564854455E+03  0.60564854455E+03  0.00000000000E+00 0. -1.
        -13    1    1    2    0    0 -0.26904238287E+02 -0.21361744819E+03 -0.84057037616E+02  0.23113167015E+03  0.10566000000E+00 0.  1.
         13    1    1    2    0    0 -0.47047182245E+03  0.27845450620E+02  0.61885742015E+02  0.47534088933E+03  0.10566000000E+00 0. -1.
         -4    1    1    2    0  502  0.49737606074E+03  0.18577199757E+03  0.50698962650E+02  0.53335219667E+03  0.00000000000E+00 0. -1.
</event>
<event>
 5    1  0.2540860E-005  0.7541839E+03  0.7818608E-02  0.9047876E-01
         21   -1    0    0  501  502  0.00000000000E+00  0.00000000000E+00  0.29242629261E+03  0.29242629261E+03  0.00000000000E+00 0. -1.
         -4   -1    0    0    0  501 -0.00000000000E+00 -0.00000000000E+00 -0.29436782033E+04  0.29436782033E+04  0.00000000000E+00 0. -1.
        -13    1    1    2    0    0  0.16056306534E+03 -0.63680026203E+03 -0.98137157187E+03  0.11808409058E+04  0.10566000000E+00 0.  1.
         13    1    1    2    0    0 -0.38124151111E+03  0.82405761542E+03 -0.12340603823E+04  0.15320969557E+04  0.10566000000E+00 0. -1.
         -4    1    1    2    0  502  0.22067844577E+03 -0.18725735339E+03 -0.43581995655E+03  0.52316663441E+03  0.00000000000E+00 0. -1.
</event>
<event>
 5    1  0.2540860E-005  0.2436215E+03  0.7818608E-02  0.1033752E+00
         21   -1    0    0  501  502  0.00000000000E+00  0.00000000000E+00  0.73828052534E+03  0.73828052534E+03  0.00000000000E+00 0.  1.
          4   -1    0    0  502    0 -0.00000000000E+00 -0.00000000000E+00 -0.21648153200E+03  0.21648153200E+03  0.00000000000E+00 0.  1.
        -13    1    1    2    0    0  0.23752084009E+03 -0.40242846459E+01  0.35208310349E+03  0.42472916932E+03  0.10566000000E+00 0.  1.
         13    1    1    2    0    0 -0.24141757401E+03  0.44742531756E+02 -0.94190245955E+02  0.26297557451E+03  0.10566000000E+00 0. -1.
          4    1    1    2  501    0  0.38967339223E+01 -0.40718247110E+02  0.26390613581E+03  0.26705731351E+03  0.00000000000E+00 0.  1.
</event>
<event>
 5    1  0.2540860E-005  0.5913411E+03  0.7818608E-02  0.9336686E-01
          4   -1    0    0  502    0 -0.00000000000E+00  0.00000000000E+00  0.14737563710E+04  0.14737563710E+04  0.00000000000E+00 0.  1.
         21   -1    0    0  501  502  0.00000000000E+00 -0.00000000000E+00 -0.63623264078E+03  0.63623264078E+03  0.00000000000E+00 0. -1.
        -13    1    1    2    0    0 -0.57827455421E+03  0.29360734912E+02  0.16680225954E+03  0.60256660856E+03  0.10566000000E+00 0.  1.
         13    1    1    2    0    0  0.29751012621E+03 -0.60081802688E+03  0.53177622077E+03  0.85573391703E+03  0.10566000000E+00 0. -1.
          4    1    1    2  501    0  0.28076442800E+03  0.57145729197E+03  0.13894524994E+03  0.65168848621E+03  0.00000000000E+00 0.  1.
</event>
<event>
 5    1  0.2540860E-005  0.3906289E+03  0.7818608E-02  0.9756507E-01
         21   -1    0    0  501  502  0.00000000000E+00  0.00000000000E+00  0.10192996503E+04  0.10192996503E+04  0.00000000000E+00 0. -1.
         -4   -1    0    0    0  501 -0.00000000000E+00 -0.00000000000E+00 -0.11858512193E+04  0.11858512193E+04  0.00000000000E+00 0. -1.
        -13    1    1    2    0    0 -0.11341245081E+02  0.28672071736E+03 -0.15133120608E+03  0.32440489932E+03  0.10566000000E+00 0.  1.
         13    1    1    2    0    0  0.23175802586E+03 -0.42089436064E+03 -0.86672685200E+03  0.99099913850E+03  0.10566000000E+00 0. -1.
         -4    1    1    2    0  502 -0.22041678078E+03  0.13417364328E+03  0.85150648902E+03  0.88974683176E+03  0.00000000000E+00 0. -1.
</event>
<event>
 5    1  0.2540860E-005  0.2765994E+03  0.7818608E-02  0.1017461E+00
          4   -1    0    0  502    0 -0.00000000000E+00  0.00000000000E+00  0.25699495756E+03  0.25699495756E+03  0.00000000000E+00 0.  1.
         21   -1    0    0  501  502  0.00000000000E+00 -0.00000000000E+00 -0.82255170527E+03  0.82255170527E+03  0.00000000000E+00 0.  1.
        -13    1    1    2    0    0 -0.21272560303E+03 -0.18441948168E+03  0.45110339019E+02  0.28512748246E+03  0.10566000000E+00 0.  1.
         13    1    1    2    0    0  0.21885628711E+03  0.15672577122E+03 -0.10655258869E+03  0.28950735239E+03  0.10566000000E+00 0. -1.
          4    1    1    2  501    0 -0.61306840802E+01  0.27693710462E+02 -0.50411449804E+03  0.50491182797E+03  0.00000000000E+00 0.  1.
</event>
<event>
 5    1  0.2540860E-005  0.3452861E+03  0.7818608E-02  0.9946827E-01
         21   -1    0    0  501  502  0.00000000000E+00  0.00000000000E+00  0.34622279462E+03  0.34622279462E+03  0.00000000000E+00 0. -1.
         -4   -1    0    0    0  501 -0.00000000000E+00 -0.00000000000E+00 -0.24859272136E+04  0.24859272136E+04  0.00000000000E+00 0. -1.
        -13    1    1    2    0    0  0.11806796454E+03 -0.40138486284E+03 -0.15499372477E+04  0.16054143812E+04  0.10566000000E+00 0.  1.
         13    1    1    2    0    0  0.16847333254E+03  0.20872832070E+03 -0.78535658922E+03  0.82990105376E+03  0.10566000000E+00 0. -1.
         -4    1    1    2    0  502 -0.28654129708E+03  0.19265654215E+03  0.19558941791E+03  0.39683457330E+03  0.00000000000E+00 0. -1.
</event>
<event>
 5    1  0.2540860E-005  0.4971741E+03  0.7818608E-02  0.9869227E-01
         21   -1    0    0  501  502  0.00000000000E+00  0.00000000000E+00  0.15139255210E+03  0.15139255210E+03  0.00000000000E+00 0.  1.
          4   -1    0    0  502    0 -0.00000000000E+00 -0.00000000000E+00 -0.25471300962E+04  0.25471300962E+04  0.00000000000E+00 0.  1.
        -13    1    1    2    0    0  0.51861642075E+03 -0.14370790948E+03 -0.64611658266E+03  0.84088144508E+03  0.10566000000E+00 0.  1.
         13    1    1    2    0    0 -0.11817380882E+03 -0.51912502723E+02 -0.77864439540E+03  0.78926995552E+03  0.10566000000E+00 0. -1.
          4    1    1    2  501    0 -0.40044261194E+03  0.19562041220E+03 -0.97097656599E+03  0.10683712477E+04  0.00000000000E+00 0.  1.
</event>
<event>
 5    1  0.2540860E-005  0.2465225E+03  0.7818608E-02  0.1055111E+00
         21   -1    0    0  501  502  0.00000000000E+00  0.00000000000E+00  0.19872942901E+03  0.19872942901E+03  0.00000000000E+00 0. -1.
         -4   -1    0    0    0  501 -0.00000000000E+00 -0.00000000000E+00 -0.20544732798E+04  0.20544732798E+04  0.00000000000E+00 0. -1.
        -13    1    1    2    0    0  0.11376994746E+03 -0.48671740791E+02 -0.71627628869E+03  0.72688669832E+03  0.10566000000E+00 0.  1.
         13    1    1    2    0    0 -0.10597222708E+03  0.29208337899E+03 -0.12283716204E+04  0.12670594549E+04  0.10566000000E+00 0. -1.
         -4    1    1    2    0  502 -0.77977203746E+01 -0.24341163820E+03  0.88904058289E+02  0.25925655562E+03  0.00000000000E+00 0. -1.
</event>
<event>
 5    1  0.2540860E-005  0.4941795E+02  0.7818608E-02  0.1351093E+00
         21   -1    0    0  501  502  0.00000000000E+00  0.00000000000E+00  0.28902430618E+03  0.28902430618E+03  0.00000000000E+00 0.  1.
         -4   -1    0    0    0  501 -0.00000000000E+00 -0.00000000000E+00 -0.14763017892E+02  0.14763017892E+02  0.00000000000E+00 0. -1.
        -13    1    1    2    0    0 -0.23468984968E+01 -0.16837079652E+02  0.64225988846E+02  0.66437820487E+02  0.10566000000E+00 0.  1.
         13    1    1    2    0    0  0.44071934914E+02  0.37388694789E+02  0.76037964936E+02  0.95509335778E+02  0.10566000000E+00 0. -1.
         -4    1    1    2    0  502 -0.41725036417E+02 -0.20551615137E+02  0.13399733450E+03  0.14184016781E+03  0.00000000000E+00 0. -1.
</event>
<event>
 5    1  0.2540860E-005  0.3094769E+03  0.7818608E-02  0.1031770E+00
         -4   -1    0    0    0  501 -0.00000000000E+00  0.00000000000E+00  0.54149953586E+03  0.54149953586E+03  0.00000000000E+00 0. -1.
         21   -1    0    0  501  502  0.00000000000E+00 -0.00000000000E+00 -0.80010842079E+03  0.80010842079E+03  0.00000000000E+00 0. -1.
        -13    1    1    2    0    0 -0.78000553489E+02 -0.99347856661E+02  0.20113916381E+03  0.23751012052E+03  0.10566000000E+00 0.  1.
         13    1    1    2    0    0 -0.10542691036E+03  0.34384865557E+03  0.17471997747E+03  0.39984223521E+03  0.10566000000E+00 0. -1.
         -4    1    1    2    0  502  0.18342746385E+03 -0.24450079891E+03 -0.63446802621E+03  0.70425560093E+03  0.00000000000E+00 0. -1.
</event>
<event>
 5    1  0.2540860E-005  0.4416976E+03  0.7818608E-02  0.9703734E-01
          4   -1    0    0  502    0 -0.00000000000E+00  0.00000000000E+00  0.10797809298E+04  0.10797809298E+04  0.00000000000E+00 0.  1.
         21   -1    0    0  501  502  0.00000000000E+00 -0.00000000000E+00 -0.88773081620E+03  0.88773081620E+03  0.00000000000E+00 0.  1.
        -13    1    1    2    0    0  0.16178389389E+03  0.32841460497E+03  0.94441841479E+02  0.37808656901E+03  0.10566000000E+00 0.  1.
         13    1    1    2    0    0 -0.28704885361E+03  0.15103330265E+03  0.72245770936E+03  0.79193008267E+03  0.10566000000E+00 0. -1.
          4    1    1    2  501    0  0.12526495972E+03 -0.47944790762E+03 -0.62484943723E+03  0.79749509432E+03  0.00000000000E+00 0.  1.
</event>
<event>
 5    1  0.2540860E-005  0.3996590E+03  0.7818608E-02  0.9730031E-01
         -4   -1    0    0    0  501 -0.00000000000E+00  0.00000000000E+00  0.82930048627E+03  0.82930048627E+03  0.00000000000E+00 0. -1.
         21   -1    0    0  501  502  0.00000000000E+00 -0.00000000000E+00 -0.73656110492E+03  0.73656110492E+03  0.00000000000E+00 0. -1.
        -13    1    1    2    0    0  0.41038816437E+03 -0.15243034086E+03  0.74765462266E+02  0.44412086168E+03  0.10566000000E+00 0.  1.
         13    1    1    2    0    0 -0.37313531259E+03  0.10092218712E+03  0.50198974638E+03  0.63356843828E+03  0.10566000000E+00 0. -1.
         -4    1    1    2    0  502 -0.37252851778E+02  0.51508153740E+02 -0.48401582728E+03  0.48817229123E+03  0.00000000000E+00 0. -1.
</event>
<event>
 5    1  0.2540860E-005  0.2938918E+03  0.7818608E-02  0.1053895E+00
         21   -1    0    0  501  502  0.00000000000E+00  0.00000000000E+00  0.11767024283E+04  0.11767024283E+04  0.00000000000E+00 0. -1.
         -4   -1    0    0    0  501 -0.00000000000E+00 -0.00000000000E+00 -0.10263587476E+04  0.10263587476E+04  0.00000000000E+00 0. -1.
        -13    1    1    2    0    0  0.56264858265E+03  0.15788964759E+03 -0.36622089828E+03  0.68965232246E+03  0.10566000000E+00 0.  1.
         13    1    1    2    0    0  0.16297993945E+02 -0.14584829007E+03 -0.40177698027E+03  0.42774069407E+03  0.10566000000E+00 0. -1.
         -4    1    1    2    0  502 -0.57894657660E+03 -0.12041357528E+02  0.91834155923E+03  0.10856681594E+04  0.00000000000E+00 0. -1.
</event>
<event>
 5    1  0.2540860E-005  0.1495822E+03  0.7818608E-02  0.1138429E+00
         -4   -1    0    0    0  501 -0.00000000000E+00  0.00000000000E+00  0.76642407693E+03  0.76642407693E+03  0.00000000000E+00 0. -1.
         21   -1    0    0  501  502  0.00000000000E+00 -0.00000000000E+00 -0.51485754343E+02  0.51485754343E+02  0.00000000000E+00 0. -1.
        -13    1    1    2    0    0 -0.56819461019E+02 -0.45698895353E+01  0.34803422241E+02  0.66787906125E+02  0.10566000000E+00 0.  1.
         13    1    1    2    0    0  0.12931523270E+03 -0.11467445084E+03  0.44910572980E+03  0.48121577986E+03  0.10566000000E+00 0. -1.
         -4    1    1    2    0  502 -0.72495771677E+02  0.11924434037E+03  0.23102917055E+03  0.26990614529E+03  0.00000000000E+00 0. -1.
</event>
<event>
 5    1  0.2540860E-005  0.4908871E+03  0.7818608E-02  0.9749693E-01
         -4   -1    0    0    0  501 -0.00000000000E+00  0.00000000000E+00  0.23558849646E+03  0.23558849646E+03  0.00000000000E+00 0. -1.
         21   -1    0    0  501  502  0.00000000000E+00 -0.00000000000E+00 -0.15757667897E+04  0.15757667897E+04  0.00000000000E+00 0. -1.
        -13    1    1    2    0    0  0.20116239021E+03  0.11927164434E+02 -0.25870555012E+03  0.32792855520E+03  0.10566000000E+00 0.  1.
         13    1    1    2    0    0 -0.20349834384E+03  0.47116484901E+03 -0.69937501102E+03  0.86748677689E+03  0.10566000000E+00 0. -1.
         -4    1    1    2    0  502  0.23359536251E+01 -0.48309201344E+03 -0.38209773206E+03  0.61593995403E+03  0.00000000000E+00 0. -1.
</event>
<event>
 5    1  0.2540860E-005  0.9359075E+02  0.7818608E-02  0.1175619E+00
          4   -1    0    0  502    0 -0.00000000000E+00  0.00000000000E+00  0.16713100107E+03  0.16713100107E+03  0.00000000000E+00 0.  1.
         21   -1    0    0  501  502  0.00000000000E+00 -0.00000000000E+00 -0.10239374440E+03  0.10239374440E+03  0.00000000000E+00 0. -1.
        -13    1    1    2    0    0 -0.79382404945E+02  0.53172922157E+02  0.12272862327E+03  0.15553537218E+03  0.10566000000E+00 0.  1.
         13    1    1    2    0    0  0.66177367845E+02 -0.53137769476E+02 -0.51513081624E+02  0.99280790198E+02  0.10566000000E+00 0. -1.
          4    1    1    2  501    0  0.13205037100E+02 -0.35152681255E-01 -0.64782849694E+01  0.14708583095E+02  0.00000000000E+00 0.  1.
</event>
<event>
 5    1  0.2540860E-005  0.3038360E+03  0.7818608E-02  0.1007065E+00
         21   -1    0    0  501  502  0.00000000000E+00  0.00000000000E+00  0.34528358365E+03  0.34528358365E+03  0.00000000000E+00 0.  1.
          4   -1    0    0  502    0 -0.00000000000E+00 -0.00000000000E+00 -0.26505132452E+04  0.26505132452E+04  0.00000000000E+00 0.  1.
        -13    1    1    2    0    0 -0.18328659149E+03 -0.53826565854E+03 -0.21269203450E+04  0.22016162379E+04  0.10566000000E+00 0.  1.
         13    1    1    2    0    0  0.15637285959E+03  0.24544994440E+03 -0.34880923429E+03  0.45427529045E+03  0.10566000000E+00 0. -1.
          4    1    1    2  501    0  0.26913731904E+02  0.29281571413E+03  0.17049991770E+03  0.33990530055E+03  0.00000000000E+00 0.  1.
</event>
<event>
 5    1  0.2540860E-005  0.7289897E+03  0.7818608E-02  0.9081953E-01
         -4   -1    0    0    0  501 -0.00000000000E+00  0.00000000000E+00  0.27045546368E+04  0.27045546368E+04  0.00000000000E+00 0. -1.
         21   -1    0    0  501  502  0.00000000000E+00 -0.00000000000E+00 -0.23505953478E+03  0.23505953478E+03  0.00000000000E+00 0.  1.
        -13    1    1    2    0    0 -0.64563226220E+03  0.32378364616E+03  0.16493414803E+04  0.18005566354E+04  0.10566000000E+00 0.  1.
         13    1    1    2    0    0  0.66284573058E+03 -0.33240107572E+03  0.83352066031E+03  0.11156216384E+04  0.10566000000E+00 0. -1.
         -4    1    1    2    0  502 -0.17213468385E+02  0.86174295601E+01 -0.13367038565E+02  0.23435897808E+02  0.00000000000E+00 0. -1.
</event>
<event>
 5    1  0.2540860E-005  0.4101441E+03  0.7818608E-02  0.9730575E-01
         21   -1    0    0  501  502  0.00000000000E+00  0.00000000000E+00  0.29242964058E+03  0.29242964058E+03  0.00000000000E+00 0. -1.
         -4   -1    0    0    0  501 -0.00000000000E+00 -0.00000000000E+00 -0.21058985648E+04  0.21058985648E+04  0.00000000000E+00 0. -1.
        -13    1    1    2    0    0 -0.23982716420E+03  0.28055256627E+03 -0.98356547206E+03  0.10505369390E+04  0.10566000000E+00 0.  1.
         13    1    1    2    0    0  0.32001284374E+02  0.15955808379E+03 -0.84531294374E+03  0.86083497159E+03  0.10566000000E+00 0. -1.
         -4    1    1    2    0  502  0.20782587983E+03 -0.44011065007E+03  0.15409491584E+02  0.48695629482E+03  0.00000000000E+00 0. -1.
</event>
<event>
 5    1  0.2540860E-005  0.2620311E+03  0.7818608E-02  0.1045314E+00
         21   -1    0    0  501  502  0.00000000000E+00  0.00000000000E+00  0.54727851530E+03  0.54727851530E+03  0.00000000000E+00 0.  1.
          4   -1    0    0  502    0 -0.00000000000E+00 -0.00000000000E+00 -0.65795424072E+03  0.65795424072E+03  0.00000000000E+00 0.  1.
        -13    1    1    2    0    0 -0.25713821986E+03 -0.80522769391E+02 -0.42659615781E+03  0.50456741227E+03  0.10566000000E+00 0.  1.
         13    1    1    2    0    0 -0.62656372730E+00  0.13788285539E+03 -0.12539589876E+03  0.18637654623E+03  0.10566000000E+00 0. -1.
          4    1    1    2  501    0  0.25776478359E+03 -0.57360086001E+02  0.44131633114E+03  0.51428879752E+03  0.00000000000E+00 0.  1.
</event>
<event>
 5    1  0.2540860E-005  0.4154067E+03  0.7818608E-02  0.9845011E-01
         -4   -1    0    0    0  501 -0.00000000000E+00  0.00000000000E+00  0.11611597880E+04  0.11611597880E+04  0.00000000000E+00 0. -1.
         21   -1    0    0  501  502  0.00000000000E+00 -0.00000000000E+00 -0.47446525035E+03  0.47446525035E+03  0.00000000000E+00 0. -1.
        -13    1    1    2    0    0 -0.23920819280E+03 -0.20950615410E+02  0.55310012697E+03  0.60297533068E+03  0.10566000000E+00 0.  1.
         13    1    1    2    0    0 -0.32044048508E+03 -0.17574375900E+03 -0.12399226003E+03  0.38593012971E+03  0.10566000000E+00 0. -1.
         -4    1    1    2    0  502  0.55964867788E+03  0.19669437441E+03  0.25758667067E+03  0.64671957793E+03  0.00000000000E+00 0. -1.
</event>
<event>
 5    1  0.2540860E-005  0.4326098E+03  0.7818608E-02  0.9639335E-01
         -4   -1    0    0    0  501 -0.00000000000E+00  0.00000000000E+00  0.56704673637E+03  0.56704673637E+03  0.00000000000E+00 0. -1.
         21   -1    0    0  501  502  0.00000000000E+00 -0.00000000000E+00 -0.12734130225E+04  0.12734130225E+04  0.00000000000E+00 0.  1.
        -13    1    1    2    0    0  0.37927094373E+03 -0.10561943148E+03  0.18991375336E+03  0.43711458217E+03  0.10566000000E+00 0.  1.
         13    1    1    2    0    0 -0.56308067705E+03  0.42897750026E+03 -0.58330939914E+03  0.91724119559E+03  0.10566000000E+00 0. -1.
         -4    1    1    2    0  502  0.18380973332E+03 -0.32335806878E+03 -0.31297064030E+03  0.48610398105E+03  0.00000000000E+00 0. -1.
</event>
<event>
 5    1  0.2540860E-005  0.5009458E+03  0.7818608E-02  0.9475902E-01
          4   -1    0    0  502    0 -0.00000000000E+00  0.00000000000E+00  0.24565222029E+04  0.24565222029E+04  0.00000000000E+00 0.  1.
         21   -1    0    0  501  502  0.00000000000E+00 -0.00000000000E+00 -0.20059320714E+03  0.20059320714E+03  0.00000000000E+00 0. -1.
        -13    1    1    2    0    0 -0.43791977749E+03 -0.23870854937E+03  0.16447730737E+04  0.17187303390E+04  0.10566000000E+00 0.  1.
         13    1    1    2    0    0  0.45721573878E+03  0.21767560992E+03  0.68922919152E+03  0.85525773457E+03  0.10566000000E+00 0. -1.
          4    1    1    2  501    0 -0.19295961287E+02  0.21032939452E+02 -0.78073269457E+02  0.83127336465E+02  0.00000000000E+00 0.  1.
</event>
<event>
 5    1  0.2540860E-005  0.1831867E+03  0.7818608E-02  0.1083768E+00
         -4   -1    0    0    0  501 -0.00000000000E+00  0.00000000000E+00  0.15059465532E+03  0.15059465532E+03  0.00000000000E+00 0. -1.
         21   -1    0    0  501  502  0.00000000000E+00 -0.00000000000E+00 -0.22143370422E+04  0.22143370422E+04  0.00000000000E+00 0. -1.
        -13    1    1    2    0    0  0.13225080138E+03 -0.99833974444E+01 -0.37011517798E+03  0.39316052552E+03  0.10566000000E+00 0.  1.
         13    1    1    2    0    0 -0.30740467942E+03  0.44991762419E+02 -0.45500786265E+02  0.31399399410E+03  0.10566000000E+00 0. -1.
         -4    1    1    2    0  502  0.17515387804E+03 -0.35008364974E+02 -0.16481264226E+04  0.16577771779E+04  0.00000000000E+00 0. -1.
</event>
<event>
 5    1  0.2540860E-005  0.2944626E+03  0.7818608E-02  0.1009618E+00
         21   -1    0    0  501  502  0.00000000000E+00  0.00000000000E+00  0.13651752561E+03  0.13651752561E+03  0.00000000000E+00 0. -1.
         -4   -1    0    0    0  501 -0.00000000000E+00 -0.00000000000E+00 -0.17881624624E+04  0.17881624624E+04  0.00000000000E+00 0. -1.
        -13    1    1    2    0    0  0.11326419762E+03 -0.27411377650E+03 -0.54277071981E+03  0.61852017460E+03  0.10566000000E+00 0.  1.
         13    1    1    2    0    0 -0.12291078866E+03  0.26656328107E+03 -0.11892069300E+04  0.12248984359E+04  0.10566000000E+00 0. -1.
         -4    1    1    2    0  502  0.96465910404E+01  0.75504954377E+01  0.80332712998E+02  0.81261377528E+02  0.00000000000E+00 0. -1.
</event>
<event>
 5    1  0.2540860E-005  0.3824280E+03  0.7818608E-02  0.9781212E-01
         -4   -1    0    0    0  501 -0.00000000000E+00  0.00000000000E+00  0.12054163285E+04  0.12054163285E+04  0.00000000000E+00 0. -1.
         21   -1    0    0  501  502  0.00000000000E+00 -0.00000000000E+00 -0.13782446336E+03  0.13782446336E+03  0.00000000000E+00 0.  1.
        -13    1    1    2    0    0 -0.12768208539E+03 -0.35247140661E+03  0.57143559899E+03  0.68343065659E+03  0.10566000000E+00 0.  1.
         13    1    1    2    0    0  0.12310087172E+03  0.37168909389E+03  0.50428807698E+03  0.63844583395E+03  0.10566000000E+00 0. -1.
         -4    1    1    2    0  502  0.45812136620E+01 -0.19217687285E+02 -0.81318108403E+01  0.21364301317E+02  0.00000000000E+00 0. -1.
</event>
<event>
 5    1  0.2540860E-005  0.3566779E+02  0.7818608E-02  0.1364434E+00
         21   -1    0    0  501  502  0.00000000000E+00  0.00000000000E+00  0.21627443453E+03  0.21627443453E+03  0.00000000000E+00 0. -1.
         -4   -1    0    0    0  501 -0.00000000000E+00 -0.00000000000E+00 -0.18743597017E+02  0.18743597017E+02  0.00000000000E+00 0. -1.
        -13    1    1    2    0    0 -0.21837602917E+02  0.20015201606E+01  0.64986501251E+02  0.68586758875E+02  0.10566000000E+00 0.  1.
         13    1    1    2    0    0  0.41025198172E+02 -0.77890730162E+00  0.97954080577E+01  0.42185717543E+02  0.10566000000E+00 0. -1.
         -4    1    1    2    0  502 -0.19187595255E+02 -0.12226128590E+01  0.12274892820E+03  0.12424555513E+03  0.00000000000E+00 0. -1.
</event>
<event>
 5    1  0.2540860E-005  0.1929022E+03  0.7818608E-02  0.1065114E+00
         21   -1    0    0  501  502  0.00000000000E+00  0.00000000000E+00  0.74045189152E+02  0.74045189152E+02  0.00000000000E+00 0.  1.
          4   -1    0    0  502    0 -0.00000000000E+00 -0.00000000000E+00 -0.19463744141E+04  0.19463744141E+04  0.00000000000E+00 0.  1.
        -13    1    1    2    0    0 -0.27721460263E+03 -0.97780858216E+02 -0.87465675482E+03  0.92273153304E+03  0.10566000000E+00 0.  1.
         13    1    1    2    0    0  0.13862672157E+03  0.87794080445E+02 -0.92773096341E+03  0.94213052181E+03  0.10566000000E+00 0. -1.
          4    1    1    2  501    0  0.13858788106E+03  0.99867777713E+01 -0.69941506744E+02  0.15555754843E+03  0.00000000000E+00 0.  1.
</event>
<event>
 5    1  0.2540860E-005  0.4692184E+03  0.7818608E-02  0.9548117E-01
         -4   -1    0    0    0  501 -0.00000000000E+00  0.00000000000E+00  0.18308191532E+04  0.18308191532E+04  0.00000000000E+00 0. -1.
         21   -1    0    0  501  502  0.00000000000E+00 -0.00000000000E+00 -0.19113597281E+03  0.19113597281E+03  0.00000000000E+00 0. -1.
        -13    1    1    2    0    0  0.40865207674E+03  0.18717694886E+02  0.53040472533E+03  0.66983285658E+03  0.10566000000E+00 0.  1.
         13    1    1    2    0    0 -0.51437973421E+03 -0.20604163684E+03  0.85772347548E+03  0.10211411453E+04  0.10566000000E+00 0. -1.
         -4    1    1    2    0  502  0.10572765746E+03  0.18732394195E+03  0.25155497958E+03  0.33098112414E+03  0.00000000000E+00 0. -1.
</event>
<event>
 5    1  0.2540860E-005  0.4874267E+03  0.7818608E-02  0.9953547E-01
         -4   -1    0    0    0  501 -0.00000000000E+00  0.00000000000E+00  0.79725916318E+03  0.79725916318E+03  0.00000000000E+00 0. -1.
         21   -1    0    0  501  502  0.00000000000E+00 -0.00000000000E+00 -0.42605761382E+03  0.42605761382E+03  0.00000000000E+00 0. -1.
        -13    1    1    2    0    0 -0.38358858817E+02  0.95993791140E+02  0.19493604074E+03  0.22064967965E+03  0.10566000000E+00 0.  1.
         13    1    1    2    0    0  0.49543285137E+03 -0.13521387392E+03  0.67530194306E+01  0.51359723164E+03  0.10566000000E+00 0. -1.
         -4    1    1    2    0  502 -0.45707399255E+03  0.39220082780E+02  0.16951248920E+03  0.48906986572E+03  0.00000000000E+00 0. -1.
</event>
<event>
 5    1  0.2540860E-005  0.3660639E+03  0.7818608E-02  0.9954492E-01
         -4   -1    0    0    0  501 -0.00000000000E+00  0.00000000000E+00  0.16185255721E+04  0.16185255721E+04  0.00000000000E+00 0. -1.
         21   -1    0    0  501  502  0.00000000000E+00 -0.00000000000E+00 -0.47871190077E+03  0.47871190077E+03  0.00000000000E+00 0. -1.
        -13    1    1    2    0    0 -0.20513370844E+03 -0.13079136782E+03  0.42034089203E+03  0.48566726976E+03  0.10566000000E+00 0.  1.
         13    1    1    2    0    0  0.39875005170E+03  0.42249191420E+03  0.10043077223E+04  0.11602305950E+04  0.10566000000E+00 0. -1.
         -4    1    1    2    0  502 -0.19361634326E+03 -0.29170054638E+03 -0.28483494299E+03  0.45133960815E+03  0.00000000000E+00 0. -1.
</event>
<event>
 5    1  0.2540860E-005  0.5012148E+03  0.7818608E-02  0.9687691E-01
         21   -1    0    0  501  502  0.00000000000E+00  0.00000000000E+00  0.41041303266E+03  0.41041303266E+03  0.00000000000E+00 0. -1.
         -4   -1    0    0    0  501 -0.00000000000E+00 -0.00000000000E+00 -0.97720803046E+03  0.97720803046E+03  0.00000000000E+00 0. -1.
        -13    1    1    2    0    0 -0.21788255256E+03 -0.87387165845E+02 -0.10673424871E+03  0.25787891437E+03  0.10566000000E+00 0.  1.
         13    1    1    2    0    0 -0.72668628330E+02 -0.41753042055E+03 -0.31876159288E+03  0.53030306984E+03  0.10566000000E+00 0. -1.
         -4    1    1    2    0  502  0.29055118089E+03  0.50491758639E+03 -0.14129915621E+03  0.59943907890E+03  0.00000000000E+00 0. -1.
</event>
<event>
 5    1  0.2540860E-005  0.5012285E+03  0.7818608E-02  0.9660753E-01
         -4   -1    0    0    0  501 -0.00000000000E+00  0.00000000000E+00  0.10268021198E+04  0.10268021198E+04  0.00000000000E+00 0. -1.
         21   -1    0    0  501  502  0.00000000000E+00 -0.00000000000E+00 -0.57621377123E+03  0.57621377123E+03  0.00000000000E+00 0. -1.
        -13    1    1    2    0    0 -0.18639527740E+03 -0.17831542822E+03  0.50129997923E+03  0.56377413183E+03  0.10566000000E+00 0.  1.
         13    1    1    2    0    0 -0.34416869083E+03 -0.13552212620E+03  0.13764773785E+03  0.39467105966E+03  0.10566000000E+00 0. -1.
         -4    1    1    2    0  502  0.53056396823E+03  0.31383755443E+03 -0.18835936854E+03  0.64457069951E+03  0.00000000000E+00 0. -1.
</event>
<event>
 5    1  0.2540860E-005  0.2136047E+02  0.7818608E-02  0.1491766E+00
         21   -1    0    0  501  502  0.00000000000E+00  0.00000000000E+00  0.14745748680E+03  0.14745748680E+03  0.00000000000E+00 0. -1.
          4   -1    0    0  502    0 -0.00000000000E+00 -0.00000000000E+00 -0.74020548748E+01  0.74020548748E+01  0.00000000000E+00 0.  1.
        -13    1    1    2    0    0  0.60702125746E+00  0.26052930779E+02  0.44606981009E+02  0.51661567879E+02  0.10566000000E+00 0.  1.
         13    1    1    2    0    0  0.12382234639E+02 -0.15876266157E+02  0.33458753148E+02  0.39049646452E+02  0.10566000000E+00 0. -1.
          4    1    1    2  501    0 -0.12989255897E+02 -0.10176664621E+02  0.61989697764E+02  0.64148327339E+02  0.00000000000E+00 0.  1.
</event>
<event>
 5    1  0.2540860E-005  0.4379855E+03  0.7818608E-02  0.9681533E-01
          4   -1    0    0  502    0 -0.00000000000E+00  0.00000000000E+00  0.93680087095E+03  0.93680087095E+03  0.00000000000E+00 0.  1.
         21   -1    0    0  501  502  0.00000000000E+00 -0.00000000000E+00 -0.66130492038E+03  0.66130492038E+03  0.00000000000E+00 0.  1.
        -13    1    1    2    0    0 -0.21415912589E+03  0.31809145960E+03  0.25985989479E+03  0.46322077237E+03  0.10566000000E+00 0.  1.
         13    1    1    2    0    0 -0.26900944331E+03 -0.23841961122E+03  0.38107982345E+03  0.52386241954E+03  0.10566000000E+00 0. -1.
          4    1    1    2  501    0  0.48316856919E+03 -0.79671848382E+02 -0.36544376766E+03  0.61102259942E+03  0.00000000000E+00 0.  1.
</event>
<event>
 5    1  0.2540860E-005  0.1953394E+03  0.7818608E-02  0.1063379E+00
         21   -1    0    0  501  502  0.00000000000E+00  0.00000000000E+00  0.26090607828E+02  0.26090607828E+02  0.00000000000E+00 0. -1.
          4   -1    0    0  502    0 -0.00000000000E+00 -0.00000000000E+00 -0.19662946447E+04  0.19662946447E+04  0.00000000000E+00 0.  1.
        -13    1    1    2    0    0  0.49134779394E+02  0.19372129442E+03 -0.12003331217E+04  0.12168573379E+04  0.10566000000E+00 0.  1.
         13    1    1    2    0    0 -0.52487973138E+02 -0.18146962478E+03 -0.73903653370E+03  0.76279828352E+03  0.10566000000E+00 0. -1.
          4    1    1    2  501    0  0.33531937441E+01 -0.12251669642E+02 -0.83438148914E+00  0.12729631172E+02  0.00000000000E+00 0.  1.
</event>
<event>
 5    1  0.2540860E-005  0.5022687E+03  0.7818608E-02  0.9920797E-01
          4   -1    0    0  502    0 -0.00000000000E+00  0.00000000000E+00  0.13560467451E+04  0.13560467451E+04  0.00000000000E+00 0.  1.
         21   -1    0    0  501  502  0.00000000000E+00 -0.00000000000E+00 -0.25901453634E+03  0.25901453634E+03  0.00000000000E+00 0.  1.
        -13    1    1    2    0    0 -0.47237363032E+03  0.26819170915E+03  0.27223496481E+03  0.60759816220E+03  0.10566000000E+00 0.  1.
         13    1    1    2    0    0  0.66056649264E+02 -0.82042132448E+02  0.30105693454E+03  0.31895090752E+03  0.10566000000E+00 0. -1.
          4    1    1    2  501    0  0.40631698105E+03 -0.18614957671E+03  0.52374030944E+03  0.68851221175E+03  0.00000000000E+00 0.  1.
</event>
<event>
 5    1  0.2540860E-005  0.3831043E+03  0.7818608E-02  0.1005203E+00
         21   -1    0    0  501  502  0.00000000000E+00  0.00000000000E+00  0.33190848093E+03  0.33190848093E+03  0.00000000000E+00 0. -1.
         -4   -1    0    0    0  501 -0.00000000000E+00 -0.00000000000E+00 -0.14870750767E+04  0.14870750767E+04  0.00000000000E+00 0. -1.
        -13    1    1    2    0    0 -0.12240209172E+03 -0.93783373826E+02 -0.70797476776E+03  0.72457289227E+03  0.10566000000E+00 0.  1.
         13    1    1    2    0    0  0.26367413497E+02 -0.29955968907E+03 -0.59232443031E+03  0.66428870961E+03  0.10566000000E+00 0. -1.
         -4    1    1    2    0  502  0.96034678226E+02  0.39334306289E+03  0.14513260231E+03  0.43012195573E+03  0.00000000000E+00 0. -1.
</event>
<event>
 5    1  0.2540860E-005  0.5584284E+02  0.7818608E-02  0.1269670E+00
         -4   -1    0    0    0  501 -0.00000000000E+00  0.00000000000E+00  0.10867959851E+03  0.10867959851E+03  0.00000000000E+00 0. -1.
         21   -1    0    0  501  502  0.00000000000E+00 -0.00000000000E+00 -0.19167154644E+03  0.19167154644E+03  0.00000000000E+00 0. -1.
        -13    1    1    2    0    0  0.48959019410E+02  0.50943163104E+02 -0.60634171712E+02  0.93105882692E+02  0.10566000000E+00 0.  1.
         13    1    1    2    0    0 -0.11253689074E+02 -0.54096869838E+02  0.80505611701E+02  0.97643645587E+02  0.10566000000E+00 0. -1.
         -4    1    1    2    0  502 -0.37705330335E+02  0.31537067339E+01 -0.10286338792E+03  0.10960161667E+03  0.00000000000E+00 0. -1.
</event>
<event>
 5    1  0.2540860E-005  0.5660271E+03  0.7818608E-02  0.9343922E-01
         21   -1    0    0  501  502  0.00000000000E+00  0.00000000000E+00  0.28436368061E+03  0.28436368061E+03  0.00000000000E+00 0. -1.
         -4   -1    0    0    0  501 -0.00000000000E+00 -0.00000000000E+00 -0.27719077643E+04  0.27719077643E+04  0.00000000000E+00 0. -1.
        -13    1    1    2    0    0 -0.21914239943E+03 -0.46033457532E+03 -0.14108972006E+04  0.15001873997E+04  0.10566000000E+00 0.  1.
         13    1    1    2    0    0  0.10158142920E+03  0.73785499390E+03 -0.99673060833E+03  0.12442751687E+04  0.10566000000E+00 0. -1.
         -4    1    1    2    0  502  0.11756097023E+03 -0.27752041859E+03 -0.79916274750E+02  0.31180887644E+03  0.00000000000E+00 0. -1.
</event>
<event>
 5    1  0.2540860E-005  0.4326014E+03  0.7818608E-02  0.9875220E-01
         21   -1    0    0  501  502  0.00000000000E+00  0.00000000000E+00  0.21001812602E+03  0.21001812602E+03  0.00000000000E+00 0.  1.
          4   -1    0    0  502    0 -0.00000000000E+00 -0.00000000000E+00 -0.22152835556E+04  0.22152835556E+04  0.00000000000E+00 0.  1.
        -13    1    1    2    0    0 -0.21572222493E+03 -0.39345233943E+03 -0.16289632201E+03  0.47736363982E+03  0.10566000000E+00 0.  1.
         13    1    1    2    0    0  0.19109774057E+03 -0.18782977190E+02 -0.87997114605E+03  0.90067773134E+03  0.10566000000E+00 0. -1.
          4    1    1    2  501    0  0.24624484367E+02  0.41223531662E+03 -0.96239796154E+03  0.10472603105E+04  0.00000000000E+00 0.  1.
</event>
<event>
 5    1  0.2540860E-005  0.5912346E+02  0.7818608E-02  0.1258539E+00
         21   -1    0    0  501  502  0.00000000000E+00  0.00000000000E+00  0.37407883593E+03  0.37407883593E+03  0.00000000000E+00 0.  1.
         -4   -1    0    0    0  501 -0.00000000000E+00 -0.00000000000E+00 -0.23855675086E+02  0.23855675086E+02  0.00000000000E+00 0. -1.
        -13    1    1    2    0    0  0.54956811227E+02  0.54446500676E+02  0.21359863045E+03  0.22717627215E+03  0.10566000000E+00 0.  1.
         13    1    1    2    0    0 -0.30613235763E+02 -0.46062609106E+02  0.33931377490E+02  0.64886698975E+02  0.10566000000E+00 0. -1.
         -4    1    1    2    0  502 -0.24343575464E+02 -0.83838915705E+01  0.10269315290E+03  0.10587153988E+03  0.00000000000E+00 0. -1.
</event>
<event>
 5    1  0.2540860E-005  0.4703777E+03  0.7818608E-02  0.9699813E-01
         21   -1    0    0  501  502  0.00000000000E+00  0.00000000000E+00  0.40240002499E+03  0.40240002499E+03  0.00000000000E+00 0.  1.
          4   -1    0    0  502    0 -0.00000000000E+00 -0.00000000000E+00 -0.17070993259E+04  0.17070993259E+04  0.00000000000E+00 0.  1.
        -13    1    1    2    0    0 -0.41999669149E+03 -0.70126627203E+02 -0.26300311665E+02  0.42662241182E+03  0.10566000000E+00 0.  1.
         13    1    1    2    0    0 -0.78307104876E+02 -0.26075797492E+03 -0.97475309999E+03  0.10120624196E+04  0.10566000000E+00 0. -1.
          4    1    1    2  501    0  0.49830379637E+03  0.33088460212E+03 -0.30364588923E+03  0.67081451940E+03  0.00000000000E+00 0.  1.
</event>
<event>
 5    1  0.2540860E-005  0.5086989E+03  0.7818608E-02  0.9587288E-01
         21   -1    0    0  501  502  0.00000000000E+00  0.00000000000E+00  0.49023436237E+03  0.49023436237E+03  0.00000000000E+00 0. -1.
         -4   -1    0    0    0  501 -0.00000000000E+00 -0.00000000000E+00 -0.18691770718E+04  0.18691770718E+04  0.00000000000E+00 0. -1.
        -13    1    1    2    0    0  0.30573980873E+03  0.94549966638E+02 -0.12426498793E+04  0.12831972804E+04  0.10566000000E+00 0.  1.
         13    1    1    2    0    0  0.56313958634E+02 -0.50992402932E+03 -0.10929573359E+03  0.52453726861E+03  0.10566000000E+00 0. -1.
         -4    1    1    2    0  502 -0.36205376737E+03  0.41537406268E+03 -0.26997096592E+02  0.55167688518E+03  0.00000000000E+00 0. -1.
</event>
<event>
 5    1  0.2540860E-005  0.4907802E+03  0.7818608E-02  0.9762250E-01
         21   -1    0    0  501  502  0.00000000000E+00  0.00000000000E+00  0.28075039027E+03  0.28075039027E+03  0.00000000000E+00 0. -1.
         -4   -1    0    0    0  501 -0.00000000000E+00 -0.00000000000E+00 -0.20993818341E+04  0.20993818341E+04  0.00000000000E+00 0. -1.
        -13    1    1    2    0    0  0.19234825886E+03  0.17168103453E+02 -0.11280196030E+04  0.11444303528E+04  0.10566000000E+00 0.  1.
         13    1    1    2    0    0 -0.24138925960E+03 -0.48533321868E+03 -0.46282390631E+03  0.71275738314E+03  0.10566000000E+00 0. -1.
         -4    1    1    2    0  502  0.49041000749E+02  0.46816511523E+03 -0.22778793451E+03  0.52294448843E+03  0.00000000000E+00 0. -1.
</event>
<event>
 5    1  0.2540860E-005  0.4757570E+02  0.7818608E-02  0.1306775E+00
          4   -1    0    0  502    0 -0.00000000000E+00  0.00000000000E+00  0.60260911514E+03  0.60260911514E+03  0.00000000000E+00 0.  1.
         21   -1    0    0  501  502  0.00000000000E+00 -0.00000000000E+00 -0.19903816307E+02  0.19903816307E+02  0.00000000000E+00 0.  1.
        -13    1    1    2    0    0 -0.11105604353E+02  0.67642729223E+02  0.30034080577E+03  0.30806409080E+03  0.10566000000E+00 0.  1.
         13    1    1    2    0    0 -0.23485862113E+02 -0.36475466953E+02  0.25852418921E+03  0.26213891924E+03  0.10566000000E+00 0. -1.
          4    1    1    2  501    0  0.34591466466E+02 -0.31167262270E+02  0.23840303844E+02  0.52309921402E+02  0.00000000000E+00 0.  1.
</event>
<event>
 5    1  0.2540860E-005  0.3085109E+02  0.7818608E-02  0.1398202E+00
         -4   -1    0    0    0  501 -0.00000000000E+00  0.00000000000E+00  0.13515025426E+03  0.13515025426E+03  0.00000000000E+00 0. -1.
         21   -1    0    0  501  502  0.00000000000E+00 -0.00000000000E+00 -0.14577242439E+02  0.14577242439E+02  0.00000000000E+00 0. -1.
        -13    1    1    2    0    0  0.10123852746E+02 -0.23063819085E+02  0.44831537848E+02  0.51422855766E+02  0.10566000000E+00 0.  1.
         13    1    1    2    0    0 -0.18902932300E+02  0.39555737257E+02  0.56073812900E+02  0.71177671054E+02  0.10566000000E+00 0. -1.
         -4    1    1    2    0  502  0.87790795539E+01 -0.16491918172E+02  0.19667661073E+02  0.27126969880E+02  0.00000000000E+00 0. -1.
</event>
<event>
 5    1  0.2540860E-005  0.4237001E+03  0.7818608E-02  0.9662991E-01
         21   -1    0    0  501  502  0.00000000000E+00  0.00000000000E+00  0.53334119197E+03  0.53334119197E+03  0.00000000000E+00 0. -1.
         -4   -1    0    0    0  501 -0.00000000000E+00 -0.00000000000E+00 -0.10132850498E+04  0.10132850498E+04  0.00000000000E+00 0. -1.
        -13    1    1    2    0    0  0.31236268518E+03 -0.13742945636E+03 -0.31504463693E+03  0.46444637688E+03  0.10566000000E+00 0.  1.
         13    1    1    2    0    0 -0.63728924542E+03  0.21242309774E+03 -0.28227570302E+03  0.72865680431E+03  0.10566000000E+00 0. -1.
         -4    1    1    2    0  502  0.32492656024E+03 -0.74993641380E+02  0.11737648214E+03  0.35352306057E+03  0.00000000000E+00 0. -1.
</event>
<event>
 5    1  0.2540860E-005  0.1417927E+03  0.7818608E-02  0.1156083E+00
         -4   -1    0    0    0  501 -0.00000000000E+00  0.00000000000E+00  0.27377468743E+03  0.27377468743E+03  0.00000000000E+00 0. -1.
         21   -1    0    0  501  502  0.00000000000E+00 -0.00000000000E+00 -0.16352783818E+03  0.16352783818E+03  0.00000000000E+00 0. -1.
        -13    1    1    2    0    0 -0.20399341241E+02  0.37984472608E+02 -0.41883047121E+02  0.60109517404E+02  0.10566000000E+00 0.  1.
         13    1    1    2    0    0  0.15621075512E+03 -0.50203634242E+02  0.17391964855E+03  0.23910303265E+03  0.10566000000E+00 0. -1.
         -4    1    1    2    0  502 -0.13581141388E+03  0.12219161634E+02 -0.21789752183E+02  0.13808997556E+03  0.00000000000E+00 0. -1.
</event>
<event>
 5    1  0.2540860E-005  0.4914410E+03  0.7818608E-02  0.9850038E-01
         21   -1    0    0  501  502  0.00000000000E+00  0.00000000000E+00  0.18674571434E+03  0.18674571434E+03  0.00000000000E+00 0.  1.
          4   -1    0    0  502    0 -0.00000000000E+00 -0.00000000000E+00 -0.22197497732E+04  0.22197497732E+04  0.00000000000E+00 0.  1.
        -13    1    1    2    0    0 -0.40292518619E+03 -0.23165361874E+03 -0.48781076154E+03  0.67377403852E+03  0.10566000000E+00 0.  1.
         13    1    1    2    0    0  0.15142203497E+02 -0.14177400768E+03 -0.80458594148E+03  0.81712159681E+03  0.10566000000E+00 0. -1.
          4    1    1    2  501    0  0.38778298270E+03  0.37342762643E+03 -0.74060735580E+03  0.91559985218E+03  0.00000000000E+00 0.  1.
</event>
<event>
 5    1  0.2540860E-005  0.3112848E+03  0.7818608E-02  0.1002753E+00
         21   -1    0    0  501  502  0.00000000000E+00  0.00000000000E+00  0.78535204663E+03  0.78535204663E+03  0.00000000000E+00 0.  1.
          4   -1    0    0  502    0 -0.00000000000E+00 -0.00000000000E+00 -0.40443492756E+03  0.40443492756E+03  0.00000000000E+00 0.  1.
        -13    1    1    2    0    0 -0.11262969568E+03 -0.28185077630E+03 -0.12807918041E+03  0.32943830388E+03  0.10566000000E+00 0.  1.
         13    1    1    2    0    0  0.96222177256E+02  0.30871304282E+03 -0.26020783622E+02  0.32440644653E+03  0.10566000000E+00 0. -1.
          4    1    1    2  501    0  0.16407518422E+02 -0.26862266524E+02  0.53501708310E+03  0.53594222378E+03  0.00000000000E+00 0.  1.
</event>
<event>
 5    1  0.2540860E-005  0.4397052E+03  0.7818608E-02  0.9932398E-01
         21   -1    0    0  501  502  0.00000000000E+00  0.00000000000E+00  0.57347553188E+03  0.57347553188E+03  0.00000000000E+00 0. -1.
         -4   -1    0    0    0  501 -0.00000000000E+00 -0.00000000000E+00 -0.11095855321E+04  0.11095855321E+04  0.00000000000E+00 0. -1.
        -13    1    1    2    0    0  0.11019223400E+03 -0.10331008981E+03 -0.62755288468E+03  0.64547497033E+03  0.10566000000E+00 0.  1.
         13    1    1    2    0    0 -0.47413436866E+03 -0.12327173466E+03 -0.18922578904E+03  0.52517209609E+03  0.10566000000E+00 0. -1.
         -4    1    1    2    0  502  0.36394213465E+03  0.22658182447E+03  0.28066867354E+03  0.51241399753E+03  0.00000000000E+00 0. -1.
</event>
<event>
 5    1  0.2540860E-005  0.4891290E+03  0.7818608E-02  0.9655502E-01
         -4   -1    0    0    0  501 -0.00000000000E+00  0.00000000000E+00  0.22876851576E+04  0.22876851576E+04  0.00000000000E+00 0. -1.
         21   -1    0    0  501  502  0.00000000000E+00 -0.00000000000E+00 -0.26621796803E+03  0.26621796803E+03  0.00000000000E+00 0. -1.
        -13    1    1    2    0    0  0.28224634119E+03  0.16721467502E+02  0.11555022051E+04  0.11895915105E+04  0.10566000000E+00 0.  1.
         13    1    1    2    0    0 -0.66813756657E+03 -0.17303854089E+02  0.54957122043E+03  0.86529519166E+03  0.10566000000E+00 0. -1.
         -4    1    1    2    0  502  0.38589122538E+03  0.58238658706E+00  0.31639376399E+03  0.49901642347E+03  0.00000000000E+00 0. -1.
</event>
<event>
 5    1  0.2540860E-005  0.4931451E+03  0.7818608E-02  0.9999980E-01
         21   -1    0    0  501  502  0.00000000000E+00  0.00000000000E+00  0.18292028443E+03  0.18292028443E+03  0.00000000000E+00 0.  1.
          4   -1    0    0  502    0 -0.00000000000E+00 -0.00000000000E+00 -0.17834048480E+04  0.17834048480E+04  0.00000000000E+00 0.  1.
        -13    1    1    2    0    0 -0.28826805068E+03  0.44050957534E+03 -0.54481696516E+03  0.75760985454E+03  0.10566000000E+00 0.  1.
         13    1    1    2    0    0  0.78623630785E+02 -0.34013565929E+02 -0.40135398831E+03  0.41039448471E+03  0.10566000000E+00 0. -1.
          4    1    1    2  501    0  0.20964441990E+03 -0.40649600941E+03 -0.65431361007E+03  0.79832079316E+03  0.00000000000E+00 0.  1.
</event>
<event>
 5    1  0.2540860E-005  0.3924156E+03  0.7818608E-02  0.9825265E-01
         21   -1    0    0  501  502  0.00000000000E+00  0.00000000000E+00  0.54040761034E+03  0.54040761034E+03  0.00000000000E+00 0.  1.
          4   -1    0    0  502    0 -0.00000000000E+00 -0.00000000000E+00 -0.21212579785E+04  0.21212579785E+04  0.00000000000E+00 0.  1.
        -13    1    1    2    0    0  0.43683742279E+02  0.35638720264E+03  0.23050940061E+03  0.42667868763E+03  0.10566000000E+00 0.  1.
         13    1    1    2    0    0  0.27464686623E+03  0.13164904801E+03 -0.15783154759E+04  0.16074333969E+04  0.10566000000E+00 0. -1.
          4    1    1    2  501    0 -0.31833060850E+03 -0.48803625065E+03 -0.23304429285E+03  0.62755350424E+03  0.00000000000E+00 0.  1.
</event>
<event>
 5    1  0.2540860E-005  0.1470415E+03  0.7818608E-02  0.1148104E+00
         21   -1    0    0  501  502  0.00000000000E+00  0.00000000000E+00  0.14159261768E+03  0.14159261768E+03  0.00000000000E+00 0.  1.
          4   -1    0    0  502    0 -0.00000000000E+00 -0.00000000000E+00 -0.23531325660E+03  0.23531325660E+03  0.00000000000E+00 0.  1.
        -13    1    1    2    0    0 -0.10936923312E+03  0.94418801129E+02 -0.68692551087E+02  0.15998505211E+03  0.10566000000E+00 0.  1.
         13    1    1    2    0    0 -0.30182653422E+02 -0.36131946317E+02 -0.44074553459E+02  0.64490988044E+02  0.10566000000E+00 0. -1.
          4    1    1    2  501    0  0.13955188654E+03 -0.58286854812E+02  0.19046465626E+02  0.15242983413E+03  0.00000000000E+00 0.  1.
</event>
<event>
 5    1  0.2540860E-005  0.7588949E+02  0.7818608E-02  0.1248481E+00
         21   -1    0    0  501  502  0.00000000000E+00  0.00000000000E+00  0.21723664337E+03  0.21723664337E+03  0.00000000000E+00 0.  1.
          4   -1    0    0  502    0 -0.00000000000E+00 -0.00000000000E+00 -0.11194307612E+03  0.11194307612E+03  0.00000000000E+00 0.  1.
        -13    1    1    2    0    0 -0.37371269048E+02 -0.88807590991E+02 -0.51551988736E+02  0.10927496820E+03  0.10566000000E+00 0.  1.
         13    1    1    2    0    0  0.31165242120E+02  0.14764250687E+02 -0.11123328627E+02  0.36235273126E+02  0.10566000000E+00 0. -1.
          4    1    1    2  501    0  0.62060269283E+01  0.74043340304E+02  0.16796888461E+03  0.18366947817E+03  0.00000000000E+00 0.  1.
</event>
<event>
 5    1  0.2540860E-005  0.4708933E+03  0.7818608E-02  0.9636525E-01
          4   -1    0    0  502    0 -0.00000000000E+00  0.00000000000E+00  0.11096701066E+04  0.11096701066E+04  0.00000000000E+00 0.  1.
         21   -1    0    0  501  502  0.00000000000E+00 -0.00000000000E+00 -0.77217953879E+03  0.77217953879E+03  0.00000000000E+00 0.  1.
        -13    1    1    2    0    0 -0.15120271727E+03  0.21640490267E+03  0.16701099979E+03  0.31238762591E+03  0.10566000000E+00 0.  1.
         13    1    1    2    0    0 -0.51748816201E+02  0.33480976905E+03  0.70060803762E+03  0.77822050536E+03  0.10566000000E+00 0. -1.
          4    1    1    2  501    0  0.20295153347E+03 -0.55121467172E+03 -0.53012846964E+03  0.79124151407E+03  0.00000000000E+00 0.  1.
</event>
<event>
 5    1  0.2540860E-005  0.4980079E+03  0.7818608E-02  0.9860996E-01
         21   -1    0    0  501  502  0.00000000000E+00  0.00000000000E+00  0.25304899868E+03  0.25304899868E+03  0.00000000000E+00 0. -1.
         -4   -1    0    0    0  501 -0.00000000000E+00 -0.00000000000E+00 -0.13385254851E+04  0.13385254851E+04  0.00000000000E+00 0. -1.
        -13    1    1    2    0    0 -0.18839309297E+02 -0.13068709749E+03 -0.25179312498E+03  0.28431290152E+03  0.10566000000E+00 0.  1.
         13    1    1    2    0    0 -0.27350303094E+03 -0.34928010677E+03 -0.40108713883E+03  0.59805635605E+03  0.10566000000E+00 0. -1.
         -4    1    1    2    0  502  0.29234234023E+03  0.47996720426E+03 -0.43259622259E+03  0.70920522619E+03  0.00000000000E+00 0. -1.
</event>
<event>
 5    1  0.2540860E-005  0.4985127E+03  0.7818608E-02  0.9575515E-01
          4   -1    0    0  502    0 -0.00000000000E+00  0.00000000000E+00  0.11054478787E+04  0.11054478787E+04  0.00000000000E+00 0.  1.
         21   -1    0    0  501  502  0.00000000000E+00 -0.00000000000E+00 -0.73085749008E+03  0.73085749008E+03  0.00000000000E+00 0.  1.
        -13    1    1    2    0    0 -0.27454510222E+03  0.16072536513E+03  0.14847246668E+03  0.35107227272E+03  0.10566000000E+00 0.  1.
         13    1    1    2    0    0 -0.35014124346E+03 -0.56370882917E+02  0.63785516192E+03  0.72981900877E+03  0.10566000000E+00 0. -1.
          4    1    1    2  501    0  0.62468634569E+03 -0.10435448221E+03 -0.41173723999E+03  0.75541408727E+03  0.00000000000E+00 0.  1.
</event>
<event>
 5    1  0.2540860E-005  0.4742139E+03  0.7818608E-02  0.9712248E-01
         -4   -1    0    0    0  501 -0.00000000000E+00  0.00000000000E+00  0.54700542503E+03  0.54700542503E+03  0.00000000000E+00 0. -1.
         21   -1    0    0  501  502  0.00000000000E+00 -0.00000000000E+00 -0.75968572690E+03  0.75968572690E+03  0.00000000000E+00 0. -1.
        -13    1    1    2    0    0 -0.25156589401E+03  0.38266929429E+02 -0.98627897302E+02  0.27290516705E+03  0.10566000000E+00 0.  1.
         13    1    1    2    0    0  0.52121216457E+03  0.28693968121E+03  0.45659898523E+01  0.59499358028E+03  0.10566000000E+00 0. -1.
         -4    1    1    2    0  502 -0.26964627057E+03 -0.32520661063E+03 -0.11861839442E+03  0.43879240459E+03  0.00000000000E+00 0. -1.
</event>
<event>
 5    1  0.2540860E-005  0.3539516E+03  0.7818608E-02  0.9883056E-01
         -4   -1    0    0    0  501 -0.00000000000E+00  0.00000000000E+00  0.13822955132E+04  0.13822955132E+04  0.00000000000E+00 0. -1.
         21   -1    0    0  501  502  0.00000000000E+00 -0.00000000000E+00 -0.47229448870E+03  0.47229448870E+03  0.00000000000E+00 0.  1.
        -13    1    1    2    0    0 -0.31947739978E+03  0.12054115786E+03 -0.14000452344E+03  0.36904912607E+03  0.10566000000E+00 0.  1.
         13    1    1    2    0    0  0.98696974683E+01 -0.34057432998E+03  0.10519010201E+04  0.11057052285E+04  0.10566000000E+00 0. -1.
         -4    1    1    2    0  502  0.30960770231E+03  0.22003317212E+03 -0.18954721205E+01  0.37983564732E+03  0.00000000000E+00 0. -1.
</event>
<event>
 5    1  0.2540860E-005  0.4782472E+03  0.7818608E-02  0.9941444E-01
         21   -1    0    0  501  502  0.00000000000E+00  0.00000000000E+00  0.36852966293E+03  0.36852966293E+03  0.00000000000E+00 0. -1.
         -4   -1    0    0    0  501 -0.00000000000E+00 -0.00000000000E+00 -0.87475858539E+03  0.87475858539E+03  0.00000000000E+00 0. -1.
        -13    1    1    2    0    0  0.89856640130E+02 -0.70023701838E+02 -0.16162261620E+03  0.19773572218E+03  0.10566000000E+00 0.  1.
         13    1    1    2    0    0 -0.77312005587E+02  0.52043503084E+03 -0.26081075048E+03  0.58724102910E+03  0.10566000000E+00 0. -1.
         -4    1    1    2    0  502 -0.12544634543E+02 -0.45041132900E+03 -0.83795555793E+02  0.45831149704E+03  0.00000000000E+00 0. -1.
</event>
<event>
 5    1  0.2540860E-005  0.2190252E+03  0.7818608E-02  0.1047822E+00
         -4   -1    0    0    0  501 -0.00000000000E+00  0.00000000000E+00  0.11956701408E+04  0.11956701408E+04  0.00000000000E+00 0. -1.
         21   -1    0    0  501  502  0.00000000000E+00 -0.00000000000E+00 -0.35392113920E+03  0.35392113920E+03  0.00000000000E+00 0. -1.
        -13    1    1    2    0    0  0.44453215704E+02  0.17731288215E+03  0.40550942010E+03  0.44480765227E+03  0.10566000000E+00 0.  1.
         13    1    1    2    0    0  0.79756125156E+02 -0.27796534285E+03  0.72176829876E+03  0.77754437789E+03  0.10566000000E+00 0. -1.
         -4    1    1    2    0  502 -0.12420934086E+03  0.10065246070E+03 -0.28552871731E+03  0.32723924980E+03  0.00000000000E+00 0. -1.
</event>
<event>
 5    1  0.2540860E-005  0.4788430E+03  0.7818608E-02  0.9538240E-01
         21   -1    0    0  501  502  0.00000000000E+00  0.00000000000E+00  0.63720349692E+03  0.63720349692E+03  0.00000000000E+00 0.  1.
         -4   -1    0    0    0  501 -0.00000000000E+00 -0.00000000000E+00 -0.14622319279E+04  0.14622319279E+04  0.00000000000E+00 0. -1.
        -13    1    1    2    0    0  0.42980161131E+03 -0.23509988291E+03 -0.90270089628E+03  0.10270687900E+04  0.10566000000E+00 0.  1.
         13    1    1    2    0    0 -0.25229871368E+01  0.53380304107E+03 -0.48416269392E+02  0.53600018510E+03  0.10566000000E+00 0. -1.
         -4    1    1    2    0  502 -0.42727862417E+03 -0.29870315816E+03  0.12608873471E+03  0.53636644973E+03  0.00000000000E+00 0. -1.
</event>
<event>
 5    1  0.2540860E-005  0.4163024E+03  0.7818608E-02  0.9904943E-01
         21   -1    0    0  501  502  0.00000000000E+00  0.00000000000E+00  0.33440492234E+03  0.33440492234E+03  0.00000000000E+00 0. -1.
         -4   -1    0    0    0  501 -0.00000000000E+00 -0.00000000000E+00 -0.10307970583E+04  0.10307970583E+04  0.00000000000E+00 0. -1.
        -13    1    1    2    0    0  0.60274907666E+02 -0.18548549521E+03 -0.24873779159E+03  0.31608295360E+03  0.10566000000E+00 0.  1.
         13    1    1    2    0    0 -0.22902597821E+03  0.50646718908E+03 -0.39677528744E+03  0.68292939034E+03  0.10566000000E+00 0. -1.
         -4    1    1    2    0  502  0.16875107054E+03 -0.32098169387E+03 -0.50879056963E+02  0.36618963673E+03  0.00000000000E+00 0. -1.
</event>
<event>
 5    1  0.2540860E-005  0.1449805E+03  0.7818608E-02  0.1106170E+00
         21   -1    0    0  501  502  0.00000000000E+00  0.00000000000E+00  0.39964207340E+03  0.39964207340E+03  0.00000000000E+00 0. -1.
          4   -1    0    0  502    0 -0.00000000000E+00 -0.00000000000E+00 -0.78630989477E+02  0.78630989477E+02  0.00000000000E+00 0.  1.
        -13    1    1    2    0    0  0.95601127097E+02 -0.11179624473E+03  0.40832285505E+02  0.15266061228E+03  0.10566000000E+00 0.  1.
         13    1    1    2    0    0 -0.10285150926E+03  0.95906896471E+02  0.20613040758E+03  0.24953220602E+03  0.10566000000E+00 0. -1.
          4    1    1    2  501    0  0.72503821598E+01  0.15889348260E+02  0.74048390843E+02  0.76080244585E+02  0.00000000000E+00 0.  1.
</event>
<event>
 5    1  0.2540860E-005  0.4318145E+03  0.7818608E-02  0.9692864E-01
          4   -1    0    0  502    0 -0.00000000000E+00  0.00000000000E+00  0.18941672737E+04  0.18941672737E+04  0.00000000000E+00 0.  1.
         21   -1    0    0  501  502  0.00000000000E+00 -0.00000000000E+00 -0.34419094526E+03  0.34419094526E+03  0.00000000000E+00 0.  1.
        -13    1    1    2    0    0  0.11382154347E+03 -0.31898155714E+03  0.12388766805E+03  0.36062826153E+03  0.10566000000E+00 0.  1.
         13    1    1    2    0    0 -0.90735940227E+02 -0.34893606903E+03  0.10515006326E+04  0.11115947925E+04  0.10566000000E+00 0. -1.
          4    1    1    2  501    0 -0.23085603238E+02  0.66791762618E+03  0.37458802777E+03  0.76613516496E+03  0.00000000000E+00 0.  1.
</event>
<event>
 5    1  0.2540860E-005  0.2824713E+03  0.7818608E-02  0.1014815E+00
         -4   -1    0    0    0  501 -0.00000000000E+00  0.00000000000E+00  0.13234195010E+04  0.13234195010E+04  0.00000000000E+00 0. -1.
         21   -1    0    0  501  502  0.00000000000E+00 -0.00000000000E+00 -0.17631179687E+03  0.17631179687E+03  0.00000000000E+00 0. -1.
        -13    1    1    2    0    0 -0.13765384722E+03 -0.17700301854E+03  0.25383798699E+03  0.33869216853E+03  0.10566000000E+00 0.  1.
         13    1    1    2    0    0  0.27001498166E+03  0.17934851843E+03  0.95967096330E+03  0.10129374859E+04  0.10566000000E+00 0. -1.
         -4    1    1    2    0  502 -0.13236113444E+03 -0.23454998943E+01 -0.66401246193E+02  0.14810164339E+03  0.00000000000E+00 0. -1.
</event>
<event>
 5    1  0.2540860E-005  0.5019192E+03  0.7818608E-02  0.9484543E-01
         -4   -1    0    0    0  501 -0.00000000000E+00  0.00000000000E+00  0.20322732771E+04  0.20322732771E+04  0.00000000000E+00 0. -1.
         21   -1    0    0  501  502  0.00000000000E+00 -0.00000000000E+00 -0.50330401643E+03  0.50330401643E+03  0.00000000000E+00 0. -1.
        -13    1    1    2    0    0  0.12472227154E+03 -0.46618537306E+03  0.12954263039E+04  0.13823942155E+04  0.10566000000E+00 0.  1.
         13    1    1    2    0    0 -0.41736327965E+03 -0.90221847836E+02  0.29875311623E+03  0.52113868082E+03  0.10566000000E+00 0. -1.
         -4    1    1    2    0  502  0.29264100811E+03  0.55640722090E+03 -0.65210159480E+02  0.63204439717E+03  0.00000000000E+00 0. -1.
</event>
<event>
 5    1  0.2540860E-005  0.5146380E+03  0.7818608E-02  0.9446453E-01
         21   -1    0    0  501  502  0.00000000000E+00  0.00000000000E+00  0.45753647336E+03  0.45753647336E+03  0.00000000000E+00 0.  1.
          4   -1    0    0  502    0 -0.00000000000E+00 -0.00000000000E+00 -0.13676616974E+04  0.13676616974E+04  0.00000000000E+00 0.  1.
        -13    1    1    2    0    0 -0.38680834421E+03  0.63434836735E+03 -0.50055413543E+03  0.89586438705E+03  0.10566000000E+00 0.  1.
         13    1    1    2    0    0  0.19061929491E+03 -0.37151491900E+03 -0.43170518788E+03  0.60060671910E+03  0.10566000000E+00 0. -1.
          4    1    1    2  501    0  0.19618904930E+03 -0.26283344836E+03  0.22134099293E+02  0.32872706459E+03  0.00000000000E+00 0.  1.
</event>
<event>
 5    1  0.2540860E-005  0.2752945E+03  0.7818608E-02  0.1018058E+00
         -4   -1    0    0    0  501 -0.00000000000E+00  0.00000000000E+00  0.23492203695E+03  0.23492203695E+03  0.00000000000E+00 0. -1.
         21   -1    0    0  501  502  0.00000000000E+00 -0.00000000000E+00 -0.12984745790E+04  0.12984745790E+04  0.00000000000E+00 0. -1.
        -13    1    1    2    0    0 -0.18456876205E+03 -0.12542610558E+03 -0.20785369746E+03  0.30495984423E+03  0.10566000000E+00 0.  1.
         13    1    1    2    0    0  0.21166222376E+03  0.21549383213E+03  0.59967779210E+02  0.30795232481E+03  0.10566000000E+00 0. -1.
         -4    1    1    2    0  502 -0.27093461709E+02 -0.90067726550E+02 -0.91566662383E+03  0.92048444692E+03  0.00000000000E+00 0. -1.
</event>
<event>
 5    1  0.2540860E-005  0.2508134E+03  0.7818608E-02  0.1029972E+00
         -4   -1    0    0    0  501 -0.00000000000E+00  0.00000000000E+00  0.18163839911E+04  0.18163839911E+04  0.00000000000E+00 0. -1.
         21   -1    0    0  501  502  0.00000000000E+00 -0.00000000000E+00 -0.25354259987E+03  0.25354259987E+03  0.00000000000E+00 0. -1.
        -13    1    1    2    0    0 -0.23282294744E+03 -0.64470987463E+02  0.66915927274E+03  0.71143318488E+03  0.10566000000E+00 0.  1.
         13    1    1    2    0    0  0.26073402220E+03 -0.16551798300E+03  0.10397282501E+04  0.10846258702E+04  0.10566000000E+00 0. -1.
         -4    1    1    2    0  502 -0.27911074755E+02  0.22998897047E+03 -0.14604613166E+03  0.27386753587E+03  0.00000000000E+00 0. -1.
</event>
<event>
 5    1  0.2540860E-005  0.3774237E+03  0.7818608E-02  0.9828420E-01
         -4   -1    0    0    0  501 -0.00000000000E+00  0.00000000000E+00  0.13622685393E+04  0.13622685393E+04  0.00000000000E+00 0. -1.
         21   -1    0    0  501  502  0.00000000000E+00 -0.00000000000E+00 -0.34590892978E+03  0.34590892978E+03  0.00000000000E+00 0. -1.
        -13    1    1    2    0    0 -0.27770439736E+03  0.19385978702E+03  0.20982129278E+03  0.39840473818E+03  0.10566000000E+00 0.  1.
         13    1    1    2    0    0  0.29163641879E+03  0.21353328227E+03  0.82605608090E+03  0.90167451076E+03  0.10566000000E+00 0. -1.
         -4    1    1    2    0  502 -0.13932021428E+02 -0.40739306929E+03 -0.19517764210E+02  0.40809822010E+03  0.00000000000E+00 0. -1.
</event>
<event>
 5    1  0.2540860E-005  0.4954185E+03  0.7818608E-02  0.9763136E-01
          4   -1    0    0  502    0 -0.00000000000E+00  0.00000000000E+00  0.24437209519E+03  0.24437209519E+03  0.00000000000E+00 0.  1.
         21   -1    0    0  501  502  0.00000000000E+00 -0.00000000000E+00 -0.17198638892E+04  0.17198638892E+04  0.00000000000E+00 0.  1.
        -13    1    1    2    0    0 -0.14322670459E+03  0.44973490346E+03 -0.74418310971E+03  0.88123996973E+03  0.10566000000E+00 0.  1.
         13    1    1    2    0    0 -0.18640742190E+03 -0.16855940985E+02 -0.21144388450E+02  0.18835855704E+03  0.10566000000E+00 0. -1.
          4    1    1    2  501    0  0.32963412649E+03 -0.43287896248E+03 -0.71016429589E+03  0.89463745767E+03  0.00000000000E+00 0.  1.
</event>
<event>
 5    1  0.2540860E-005  0.4107301E+03  0.7818608E-02  0.9698558E-01
          4   -1    0    0  502    0 -0.00000000000E+00  0.00000000000E+00  0.91464504296E+03  0.91464504296E+03  0.00000000000E+00 0.  1.
         21   -1    0    0  501  502  0.00000000000E+00 -0.00000000000E+00 -0.58905975556E+03  0.58905975556E+03  0.00000000000E+00 0.  1.
        -13    1    1    2    0    0  0.14280280143E+03 -0.59162399309E+03 -0.62442117625E+02  0.61180929914E+03  0.10566000000E+00 0.  1.
         13    1    1    2    0    0  0.13244211475E+03  0.35772984454E+03  0.36816588942E+03  0.53014874208E+03  0.10566000000E+00 0. -1.
          4    1    1    2  501    0 -0.27524491618E+03  0.23389414855E+03  0.19861515602E+02  0.36174675729E+03  0.00000000000E+00 0.  1.
</event>
<event>
 5    1  0.2540860E-005  0.4834938E+03  0.7818608E-02  0.9554049E-01
          4   -1    0    0  502    0 -0.00000000000E+00  0.00000000000E+00  0.19624446797E+04  0.19624446797E+04  0.00000000000E+00 0.  1.
         21   -1    0    0  501  502  0.00000000000E+00 -0.00000000000E+00 -0.30636206377E+03  0.30636206377E+03  0.00000000000E+00 0. -1.
        -13    1    1    2    0    0 -0.41456375373E+03  0.31566057800E+03  0.62527273393E+03  0.81392303651E+03  0.10566000000E+00 0.  1.
         13    1    1    2    0    0 -0.10445677832E+03 -0.40662175856E+03  0.74571743955E+03  0.85577274080E+03  0.10566000000E+00 0. -1.
          4    1    1    2  501    0  0.51902053205E+03  0.90961180559E+02  0.28509244250E+03  0.59911096620E+03  0.00000000000E+00 0.  1.
</event>
<event>
 5    1  0.2540860E-005  0.6350033E+03  0.7818608E-02  0.9223006E-01
         21   -1    0    0  501  502  0.00000000000E+00  0.00000000000E+00  0.43638913899E+03  0.43638913899E+03  0.00000000000E+00 0.  1.
          4   -1    0    0  502    0 -0.00000000000E+00 -0.00000000000E+00 -0.34390670050E+04  0.34390670050E+04  0.00000000000E+00 0.  1.
        -13    1    1    2    0    0 -0.54753751428E+03  0.29216998123E+03 -0.46700087410E+03  0.77669199497E+03  0.10566000000E+00 0.  1.
         13    1    1    2    0    0  0.13740238833E+03 -0.68386973962E+03 -0.24218772294E+04  0.25203266777E+04  0.10566000000E+00 0. -1.
          4    1    1    2  501    0  0.41013512595E+03  0.39169975840E+03 -0.11379976256E+03  0.57843747132E+03  0.00000000000E+00 0.  1.
</event>
<event>
 5    1  0.2540860E-005  0.4930793E+03  0.7818608E-02  0.9671862E-01
         -4   -1    0    0    0  501 -0.00000000000E+00  0.00000000000E+00  0.16959335077E+04  0.16959335077E+04  0.00000000000E+00 0. -1.
         21   -1    0    0  501  502  0.00000000000E+00 -0.00000000000E+00 -0.32539119565E+03  0.32539119565E+03  0.00000000000E+00 0. -1.
        -13    1    1    2    0    0  0.19095851358E+03 -0.17733483269E+03  0.81080766181E+03  0.85165830731E+03  0.10566000000E+00 0.  1.
         13    1    1    2    0    0 -0.54984906915E+03 -0.11746777516E+03  0.32146553290E+03  0.64766718077E+03  0.10566000000E+00 0. -1.
         -4    1    1    2    0  502  0.35889055557E+03  0.29480260785E+03  0.23826911736E+03  0.52199921529E+03  0.00000000000E+00 0. -1.
</event>
<event>
 5    1  0.2540860E-005  0.4762861E+03  0.7818608E-02  0.9740925E-01
         -4   -1    0    0    0  501 -0.00000000000E+00  0.00000000000E+00  0.25234579060E+04  0.25234579060E+04  0.00000000000E+00 0. -1.
         21   -1    0    0  501  502  0.00000000000E+00 -0.00000000000E+00 -0.18318772931E+03  0.18318772931E+03  0.00000000000E+00 0. -1.
        -13    1    1    2    0    0  0.22247525980E+03  0.47075217130E+02  0.98017566432E+03  0.10062085576E+04  0.10566000000E+00 0.  1.
         13    1    1    2    0    0 -0.60159996939E+03  0.99513046167E+02  0.89177772769E+03  0.10803207377E+04  0.10566000000E+00 0. -1.
         -4    1    1    2    0  502  0.37912470959E+03 -0.14658826330E+03  0.46831678470E+03  0.62011634004E+03  0.00000000000E+00 0. -1.
</event>
<event>
 5    1  0.2540860E-005  0.1320712E+03  0.7818608E-02  0.1120275E+00
         -4   -1    0    0    0  501 -0.00000000000E+00  0.00000000000E+00  0.31060399421E+03  0.31060399421E+03  0.00000000000E+00 0. -1.
         21   -1    0    0  501  502  0.00000000000E+00 -0.00000000000E+00 -0.15621115680E+04  0.15621115680E+04  0.00000000000E+00 0. -1.
        -13    1    1    2    0    0  0.25120453110E+02  0.11551882287E+03  0.13308808745E+03  0.17801147656E+03  0.10566000000E+00 0.  1.
         13    1    1    2    0    0 -0.90822727125E+02 -0.13906319450E+03  0.10952451811E+03  0.19895469600E+03  0.10566000000E+00 0. -1.
         -4    1    1    2    0  502  0.65702274016E+02  0.23544371632E+02 -0.14941201793E+04  0.14957493896E+04  0.00000000000E+00 0. -1.
</event>
<event>
 5    1  0.2540860E-005  0.1721948E+03  0.7818608E-02  0.1081072E+00
          4   -1    0    0  502    0 -0.00000000000E+00  0.00000000000E+00  0.40109880763E+03  0.40109880763E+03  0.00000000000E+00 0.  1.
         21   -1    0    0  501  502  0.00000000000E+00 -0.00000000000E+00 -0.92370878017E+02  0.92370878017E+02  0.00000000000E+00 0. -1.
        -13    1    1    2    0    0 -0.11833988259E+03 -0.13297805175E+03  0.10113396270E+03  0.20473294711E+03  0.10566000000E+00 0.  1.
         13    1    1    2    0    0  0.91926949044E+02  0.14230240205E+03  0.19413502961E+03  0.25766054893E+03  0.10566000000E+00 0. -1.
          4    1    1    2  501    0  0.26412933546E+02 -0.93243503025E+01  0.13458937305E+02  0.31076189607E+02  0.00000000000E+00 0.  1.
</event>
<event>
 5    1  0.2540860E-005  0.1817753E+03  0.7818608E-02  0.1073403E+00
         21   -1    0    0  501  502  0.00000000000E+00  0.00000000000E+00  0.14024511081E+03  0.14024511081E+03  0.00000000000E+00 0. -1.
          4   -1    0    0  502    0 -0.00000000000E+00 -0.00000000000E+00 -0.37712948730E+03  0.37712948730E+03  0.00000000000E+00 0.  1.
        -13    1    1    2    0    0 -0.14722153543E+03  0.12305757684E+03 -0.24708047500E+03  0.31283561179E+03  0.10566000000E+00 0.  1.
         13    1    1    2    0    0  0.10231208727E+03 -0.12152598827E+03  0.20603162260E+01  0.15887285827E+03  0.10566000000E+00 0. -1.
          4    1    1    2  501    0  0.44909448159E+02 -0.15315885690E+01  0.81357822851E+01  0.45666128048E+02  0.00000000000E+00 0.  1.
</event>
<event>
 5    1  0.2540860E-005  0.2823823E+03  0.7818608E-02  0.1014855E+00
         -4   -1    0    0    0  501 -0.00000000000E+00  0.00000000000E+00  0.97219514778E+03  0.97219514778E+03  0.00000000000E+00 0. -1.
         21   -1    0    0  501  502  0.00000000000E+00 -0.00000000000E+00 -0.56959255733E+03  0.56959255733E+03  0.00000000000E+00 0.  1.
        -13    1    1    2    0    0 -0.57567486386E+02 -0.20693195395E+03 -0.15225165718E+03  0.26327823179E+03  0.10566000000E+00 0.  1.
         13    1    1    2    0    0  0.21536943918E+03  0.19954969100E+03  0.87422108265E+03  0.92220745336E+03  0.10566000000E+00 0. -1.
         -4    1    1    2    0  502 -0.15780195279E+03  0.73822629552E+01 -0.31936683504E+03  0.35630201997E+03  0.00000000000E+00 0. -1.
</event>
<event>
 5    1  0.2540860E-005  0.4353940E+02  0.7818608E-02  0.1383208E+00
          4   -1    0    0  502    0 -0.00000000000E+00  0.00000000000E+00  0.19696985752E+02  0.19696985752E+02  0.00000000000E+00 0.  1.
         21   -1    0    0  501  502  0.00000000000E+00 -0.00000000000E+00 -0.51536626519E+03  0.51536626519E+03  0.00000000000E+00 0.  1.
        -13    1    1    2    0    0  0.32408631144E+02 -0.33583038920E+02 -0.43134764230E+02  0.63551230712E+02  0.10566000000E+00 0.  1.
         13    1    1    2    0    0  0.57803885630E+01  0.12917107773E+02  0.25336553617E+01  0.14376896003E+02  0.10566000000E+00 0. -1.
          4    1    1    2  501    0 -0.38189019707E+02  0.20665931148E+02 -0.45506817057E+03  0.45713512423E+03  0.00000000000E+00 0.  1.
</event>
<event>
 5    1  0.2540860E-005  0.5013858E+03  0.7818608E-02  0.9655253E-01
          4   -1    0    0  502    0 -0.00000000000E+00  0.00000000000E+00  0.15240642849E+04  0.15240642849E+04  0.00000000000E+00 0.  1.
         21   -1    0    0  501  502  0.00000000000E+00 -0.00000000000E+00 -0.28586329792E+03  0.28586329792E+03  0.00000000000E+00 0.  1.
        -13    1    1    2    0    0  0.61569111713E+03  0.19352070988E+03  0.54934675600E+03  0.84753034539E+03  0.10566000000E+00 0.  1.
         13    1    1    2    0    0 -0.20904773682E+03 -0.15915600418E+03  0.29866964103E+03  0.39778782734E+03  0.10566000000E+00 0. -1.
          4    1    1    2  501    0 -0.40664338031E+03 -0.34364705704E+02  0.39018458998E+03  0.56460941013E+03  0.00000000000E+00 0.  1.
</event>
<event>
 5    1  0.2540860E-005  0.4727543E+03  0.7818608E-02  0.9810776E-01
         21   -1    0    0  501  502  0.00000000000E+00  0.00000000000E+00  0.22812734948E+03  0.22812734948E+03  0.00000000000E+00 0. -1.
         -4   -1    0    0    0  501 -0.00000000000E+00 -0.00000000000E+00 -0.21571765615E+04  0.21571765615E+04  0.00000000000E+00 0. -1.
        -13    1    1    2    0    0 -0.15975758884E+03  0.89231278496E+02 -0.10395331272E+04  0.10555159127E+04  0.10566000000E+00 0.  1.
         13    1    1    2    0    0  0.37446835929E+03  0.32878127383E+03 -0.59104443793E+03  0.77308293016E+03  0.10566000000E+00 0. -1.
         -4    1    1    2    0  502 -0.21471077045E+03 -0.41801255233E+03 -0.29847164684E+03  0.55670506807E+03  0.00000000000E+00 0. -1.
</event>
<event>
 5    1  0.2540860E-005  0.4426518E+02  0.7818608E-02  0.1317080E+00
         -4   -1    0    0    0  501 -0.00000000000E+00  0.00000000000E+00  0.31897846191E+02  0.31897846191E+02  0.00000000000E+00 0. -1.
         21   -1    0    0  501  502  0.00000000000E+00 -0.00000000000E+00 -0.31629195054E+03  0.31629195054E+03  0.00000000000E+00 0. -1.
        -13    1    1    2    0    0 -0.23413151643E+02 -0.30795675276E+02 -0.22798575068E+02  0.44903624294E+02  0.10566000000E+00 0.  1.
         13    1    1    2    0    0  0.19397263259E+02  0.45955922318E+02 -0.95929192452E+01  0.50796022303E+02  0.10566000000E+00 0. -1.
         -4    1    1    2    0  502  0.40158883846E+01 -0.15160247043E+02 -0.25200261003E+03  0.25249015013E+03  0.00000000000E+00 0. -1.
</event>
<event>
 5    1  0.2540860E-005  0.5339047E+03  0.7818608E-02  0.9522830E-01
          4   -1    0    0  502    0 -0.00000000000E+00  0.00000000000E+00  0.78579836502E+03  0.78579836502E+03  0.00000000000E+00 0.  1.
         21   -1    0    0  501  502  0.00000000000E+00 -0.00000000000E+00 -0.80758847179E+03  0.80758847179E+03  0.00000000000E+00 0. -1.
        -13    1    1    2    0    0 -0.27970470550E+03 -0.47230027883E+03 -0.17461558577E+03  0.57601466094E+03  0.10566000000E+00 0.  1.
         13    1    1    2    0    0 -0.24934497568E+03  0.24406047724E+03  0.25505037673E+03  0.43219109116E+03  0.10566000000E+00 0. -1.
          4    1    1    2  501    0  0.52904968118E+03  0.22823980159E+03 -0.10222489773E+03  0.58518108471E+03  0.00000000000E+00 0.  1.
</event>
<event>
 5    1  0.2540860E-005  0.4712060E+03  0.7818608E-02  0.9543418E-01
         21   -1    0    0  501  502  0.00000000000E+00  0.00000000000E+00  0.10628861174E+04  0.10628861174E+04  0.00000000000E+00 0.  1.
          4   -1    0    0  502    0 -0.00000000000E+00 -0.00000000000E+00 -0.12557176316E+04  0.12557176316E+04  0.00000000000E+00 0.  1.
        -13    1    1    2    0    0 -0.69644035772E+03  0.10201190782E+03  0.34561077095E+03  0.78414438553E+03  0.10566000000E+00 0.  1.
         13    1    1    2    0    0  0.43034899377E+03  0.14966849151E+03 -0.90690563854E+03  0.10149279591E+04  0.10566000000E+00 0. -1.
          4    1    1    2  501    0  0.26609136395E+03 -0.25168039933E+03  0.36846335330E+03  0.51953140435E+03  0.00000000000E+00 0.  1.
</event>
<event>
 5    1  0.2540860E-005  0.4615182E+03  0.7818608E-02  0.9675425E-01
         21   -1    0    0  501  502  0.00000000000E+00  0.00000000000E+00  0.50538768973E+03  0.50538768973E+03  0.00000000000E+00 0.  1.
          4   -1    0    0  502    0 -0.00000000000E+00 -0.00000000000E+00 -0.93961846145E+03  0.93961846145E+03  0.00000000000E+00 0.  1.
        -13    1    1    2    0    0 -0.17891000821E+03 -0.18635884909E+03 -0.45351263853E+03  0.52193116035E+03  0.10566000000E+00 0.  1.
         13    1    1    2    0    0 -0.65632313002E+02 -0.30692437101E+03 -0.14889538406E+03  0.34739029432E+03  0.10566000000E+00 0. -1.
          4    1    1    2  501    0  0.24454232121E+03  0.49328322010E+03  0.16817725087E+03  0.57568469652E+03  0.00000000000E+00 0.  1.
</event>
<event>
 5    1  0.2540860E-005  0.1347014E+03  0.7818608E-02  0.1117263E+00
          4   -1    0    0  502    0 -0.00000000000E+00  0.00000000000E+00  0.32051002274E+03  0.32051002274E+03  0.00000000000E+00 0.  1.
         21   -1    0    0  501  502  0.00000000000E+00 -0.00000000000E+00 -0.95395787635E+02  0.95395787635E+02  0.00000000000E+00 0. -1.
        -13    1    1    2    0    0 -0.58948180802E+02 -0.12194155954E+03  0.18576586680E+03  0.22989910916E+03  0.10566000000E+00 0.  1.
         13    1    1    2    0    0  0.92319001903E+02  0.10120829895E+03  0.49108815075E+02  0.14552527193E+03  0.10566000000E+00 0. -1.
          4    1    1    2  501    0 -0.33370821101E+02  0.20733260588E+02 -0.97604467661E+01  0.40481429281E+02  0.00000000000E+00 0.  1.
</event>
<event>
 5    1  0.2540860E-005  0.4382680E+03  0.7818608E-02  0.9624624E-01
          4   -1    0    0  502    0 -0.00000000000E+00  0.00000000000E+00  0.49617776589E+03  0.49617776589E+03  0.00000000000E+00 0.  1.
         21   -1    0    0  501  502  0.00000000000E+00 -0.00000000000E+00 -0.73428373815E+03  0.73428373815E+03  0.00000000000E+00 0. -1.
        -13    1    1    2    0    0 -0.42842382847E+03 -0.64095985209E+02  0.27184553510E+03  0.51142475325E+03  0.10566000000E+00 0.  1.
         13    1    1    2    0    0  0.46116813316E+03  0.35587132411E+02 -0.45295124989E+03  0.64738499903E+03  0.10566000000E+00 0. -1.
          4    1    1    2  501    0 -0.32744304691E+02  0.28508852798E+02 -0.57000257472E+02  0.71651751754E+02  0.00000000000E+00 0.  1.
</event>
<event>
 5    1  0.2540860E-005  0.3059716E+02  0.7818608E-02  0.1466744E+00
          4   -1    0    0  502    0 -0.00000000000E+00  0.00000000000E+00  0.64921357319E+02  0.64921357319E+02  0.00000000000E+00 0.  1.
         21   -1    0    0  501  502  0.00000000000E+00 -0.00000000000E+00 -0.20642468692E+03  0.20642468692E+03  0.00000000000E+00 0. -1.
        -13    1    1    2    0    0 -0.16284735949E+02 -0.66755475287E+01  0.47246514287E+02  0.50418249037E+02  0.10566000000E+00 0.  1.
         13    1    1    2    0    0  0.57312477993E+02 -0.25352211410E+02 -0.98568348229E+02  0.11680404614E+03  0.10566000000E+00 0. -1.
          4    1    1    2  501    0 -0.41027742045E+02  0.32027758939E+02 -0.90181495656E+02  0.10412374906E+03  0.00000000000E+00 0.  1.
</event>
<event>
 5    1  0.2540860E-005  0.2082185E+03  0.7818608E-02  0.1054643E+00
         -4   -1    0    0    0  501 -0.00000000000E+00  0.00000000000E+00  0.73286584426E+03  0.73286584426E+03  0.00000000000E+00 0. -1.
         21   -1    0    0  501  502  0.00000000000E+00 -0.00000000000E+00 -0.16025531547E+03  0.16025531547E+03  0.00000000000E+00 0. -1.
        -13    1    1    2    0    0  0.20160457583E+03 -0.47819583453E+02  0.56487153677E+03  0.60167348435E+03  0.10566000000E+00 0.  1.
         13    1    1    2    0    0 -0.19140807741E+03  0.11497621662E+03  0.22115495147E+01  0.22329685309E+03  0.10566000000E+00 0. -1.
         -4    1    1    2    0  502 -0.10196498429E+02 -0.67156633167E+02  0.55274425109E+01  0.68150822293E+02  0.00000000000E+00 0. -1.
</event>
<event>
 5    1  0.2540860E-005  0.1126419E+03  0.7818608E-02  0.1145181E+00
          4   -1    0    0  502    0 -0.00000000000E+00  0.00000000000E+00  0.27448285261E+03  0.27448285261E+03  0.00000000000E+00 0.  1.
         21   -1    0    0  501  502  0.00000000000E+00 -0.00000000000E+00 -0.19682267303E+03  0.19682267303E+03  0.00000000000E+00 0. -1.
        -13    1    1    2    0    0  0.38613731659E+02  0.10462258447E+03  0.23066203865E+03  0.25620673819E+03  0.10566000000E+00 0.  1.
         13    1    1    2    0    0 -0.37085175630E+02 -0.11824947281E+03 -0.96813112220E+02  0.15726105027E+03  0.10566000000E+00 0. -1.
          4    1    1    2  501    0 -0.15285560284E+01  0.13626888333E+02 -0.56188746853E+02  0.57837737180E+02  0.00000000000E+00 0.  1.
</event>
<event>
 5    1  0.2540860E-005  0.3520399E+03  0.7818608E-02  0.9919149E-01
         21   -1    0    0  501  502  0.00000000000E+00  0.00000000000E+00  0.24349575968E+03  0.24349575968E+03  0.00000000000E+00 0.  1.
         -4   -1    0    0    0  501 -0.00000000000E+00 -0.00000000000E+00 -0.19052238447E+04  0.19052238447E+04  0.00000000000E+00 0. -1.
        -13    1    1    2    0    0 -0.19810901506E+03 -0.23529427378E+03 -0.39881569635E+03  0.50365121656E+03  0.10566000000E+00 0.  1.
         13    1    1    2    0    0 -0.16447702267E+03  0.31178770780E+03 -0.12224943692E+04  0.12723037215E+04  0.10566000000E+00 0. -1.
         -4    1    1    2    0  502  0.36258603773E+03 -0.76493434019E+02 -0.40418019487E+02  0.37276466638E+03  0.00000000000E+00 0. -1.
</event>
<event>
 5    1  0.2540860E-005  0.1382404E+03  0.7818608E-02  0.1113326E+00
         21   -1    0    0  501  502  0.00000000000E+00  0.00000000000E+00  0.10575437547E+03  0.10575437547E+03  0.00000000000E+00 0.  1.
          4   -1    0    0  502    0 -0.00000000000E+00 -0.00000000000E+00 -0.54856683051E+03  0.54856683051E+03  0.00000000000E+00 0.  1.
        -13    1    1    2    0    0  0.12069033347E+03  0.64109408054E+02 -0.45342107361E+03  0.47356821468E+03  0.10566000000E+00 0.  1.
         13    1    1    2    0    0 -0.12566478497E+03 -0.80541463614E+02 -0.14903132383E+02  0.15000226685E+03  0.10566000000E+00 0. -1.
          4    1    1    2  501    0  0.49744514984E+01  0.16432055560E+02  0.25511750952E+02  0.30750724451E+02  0.00000000000E+00 0.  1.
</event>
<event>
 5    1  0.2540860E-005  0.3487166E+03  0.7818608E-02  0.1010653E+00
         -4   -1    0    0    0  501 -0.00000000000E+00  0.00000000000E+00  0.41543728951E+03  0.41543728951E+03  0.00000000000E+00 0. -1.
         21   -1    0    0  501  502  0.00000000000E+00 -0.00000000000E+00 -0.91409071059E+03  0.91409071059E+03  0.00000000000E+00 0. -1.
        -13    1    1    2    0    0 -0.10151785825E+03 -0.13822412244E+03  0.52170614776E+02  0.17925838273E+03  0.10566000000E+00 0.  1.
         13    1    1    2    0    0  0.35240296129E+03  0.34456713795E+03  0.20241633965E+02  0.49327892169E+03  0.10566000000E+00 0. -1.
         -4    1    1    2    0  502 -0.25088510304E+03 -0.20634301551E+03 -0.57106566982E+03  0.65699069569E+03  0.00000000000E+00 0. -1.
</event>
<event>
 5    1  0.2540860E-005  0.2926154E+03  0.7818608E-02  0.1025964E+00
         -4   -1    0    0    0  501 -0.00000000000E+00  0.00000000000E+00  0.73120052664E+03  0.73120052664E+03  0.00000000000E+00 0. -1.
         21   -1    0    0  501  502  0.00000000000E+00 -0.00000000000E+00 -0.89221088876E+03  0.89221088876E+03  0.00000000000E+00 0. -1.
        -13    1    1    2    0    0  0.12709264225E+03 -0.12585253254E+03  0.49391517434E+03  0.52530335071E+03  0.10566000000E+00 0.  1.
         13    1    1    2    0    0  0.23590227743E+03  0.16413793456E+03 -0.67388628863E+03  0.73260759430E+03  0.10566000000E+00 0. -1.
         -4    1    1    2    0  502 -0.36299491969E+03 -0.38285402019E+02  0.18960752172E+02  0.36550047038E+03  0.00000000000E+00 0. -1.
</event>
<event>
 5    1  0.2540860E-005  0.4501251E+03  0.7818608E-02  0.9925663E-01
          4   -1    0    0  502    0 -0.00000000000E+00  0.00000000000E+00  0.44454153440E+03  0.44454153440E+03  0.00000000000E+00 0.  1.
         21   -1    0    0  501  502  0.00000000000E+00 -0.00000000000E+00 -0.79676097029E+03  0.79676097029E+03  0.00000000000E+00 0.  1.
        -13    1    1    2    0    0  0.13065978394E+03  0.35088782770E+03  0.11476291327E+03  0.39161816122E+03  0.10566000000E+00 0.  1.
         13    1    1    2    0    0  0.13460102436E+03  0.51136586971E+02  0.40949698049E+02  0.14969727860E+03  0.10566000000E+00 0. -1.
          4    1    1    2  501    0 -0.26526080830E+03 -0.40202441468E+03 -0.50793204721E+03  0.69998706488E+03  0.00000000000E+00 0.  1.
</event>
<event>
 5    1  0.2540860E-005  0.4666999E+03  0.7818608E-02  0.9929653E-01
         -4   -1    0    0    0  501 -0.00000000000E+00  0.00000000000E+00  0.23323899733E+04  0.23323899733E+04  0.00000000000E+00 0. -1.
         21   -1    0    0  501  502  0.00000000000E+00 -0.00000000000E+00 -0.15340153901E+03  0.15340153901E+03  0.00000000000E+00 0. -1.
        -13    1    1    2    0    0  0.12651067866E+03 -0.15701446852E+02  0.63732474556E+03  0.64994948243E+03  0.10566000000E+00 0.  1.
         13    1    1    2    0    0  0.57922965075E+02  0.45500355240E+03  0.10757366146E+04  0.11694411391E+04  0.10566000000E+00 0. -1.
         -4    1    1    2    0  502 -0.18443364373E+03 -0.43930210554E+03  0.46592707415E+03  0.66640089083E+03  0.00000000000E+00 0. -1.
</event>
<event>
 5    1  0.2540860E-005  0.4832006E+03  0.7818608E-02  0.9975300E-01
         21   -1    0    0  501  502  0.00000000000E+00  0.00000000000E+00  0.15760272535E+03  0.15760272535E+03  0.00000000000E+00 0. -1.
         -4   -1    0    0    0  501 -0.00000000000E+00 -0.00000000000E+00 -0.19506940767E+04  0.19506940767E+04  0.00000000000E+00 0. -1.
        -13    1    1    2    0    0  0.13884763564E+02  0.97775622535E+02 -0.11452009150E+03  0.15122077087E+03  0.10566000000E+00 0.  1.
         13    1    1    2    0    0  0.33304778505E+03  0.27984062206E+03 -0.11058487784E+04  0.11883320801E+04  0.10566000000E+00 0. -1.
         -4    1    1    2    0  502 -0.34693254862E+03 -0.37761624459E+03 -0.57272248146E+03  0.76874395102E+03  0.00000000000E+00 0. -1.
</event>
<event>
 5    1  0.2540860E-005  0.5105980E+03  0.7818608E-02  0.9467942E-01
         -4   -1    0    0    0  501 -0.00000000000E+00  0.00000000000E+00  0.40314839159E+04  0.40314839159E+04  0.00000000000E+00 0. -1.
         21   -1    0    0  501  502  0.00000000000E+00 -0.00000000000E+00 -0.17943588607E+03  0.17943588607E+03  0.00000000000E+00 0. -1.
        -13    1    1    2    0    0  0.10755620380E+03  0.51162101676E+03  0.80805420928E+03  0.96243234467E+03  0.10566000000E+00 0.  1.
         13    1    1    2    0    0  0.32365952967E+03  0.26655303771E+02  0.17722566612E+04  0.18017657119E+04  0.10566000000E+00 0. -1.
         -4    1    1    2    0  502 -0.43121573347E+03 -0.53827632054E+03  0.12717371593E+04  0.14467217454E+04  0.00000000000E+00 0. -1.
</event>
<event>
 5    1  0.2540860E-005  0.4588746E+03  0.7818608E-02  0.9582712E-01
         21   -1    0    0  501  502  0.00000000000E+00  0.00000000000E+00  0.28071761849E+03  0.28071761849E+03  0.00000000000E+00 0.  1.
          4   -1    0    0  502    0 -0.00000000000E+00 -0.00000000000E+00 -0.22255809509E+04  0.22255809509E+04  0.00000000000E+00 0.  1.
        -13    1    1    2    0    0 -0.21566769082E+03  0.36290855315E+03 -0.11667640750E+04  0.12407874874E+04  0.10566000000E+00 0.  1.
         13    1    1    2    0    0 -0.31000170191E+03 -0.34917395120E+03 -0.43096390593E+03  0.63541592895E+03  0.10566000000E+00 0. -1.
          4    1    1    2  501    0  0.52566939273E+03 -0.13734601946E+02 -0.34713535146E+03  0.63009515311E+03  0.00000000000E+00 0.  1.
</event>
<event>
 5    1  0.2540860E-005  0.4406144E+03  0.7818608E-02  0.9865241E-01
         21   -1    0    0  501  502  0.00000000000E+00  0.00000000000E+00  0.22010560309E+03  0.22010560309E+03  0.00000000000E+00 0. -1.
         -4   -1    0    0    0  501 -0.00000000000E+00 -0.00000000000E+00 -0.21515472589E+04  0.21515472589E+04  0.00000000000E+00 0. -1.
        -13    1    1    2    0    0 -0.12700280972E+03 -0.13853283619E+03 -0.11354326039E+03  0.21957491552E+03  0.10566000000E+00 0.  1.
         13    1    1    2    0    0 -0.62651277914E+02  0.52104822496E+03 -0.15766156012E+04  0.16616657909E+04  0.10566000000E+00 0. -1.
         -4    1    1    2    0  502  0.18965408764E+03 -0.38251538877E+03 -0.24128279421E+03  0.49041215563E+03  0.00000000000E+00 0. -1.
</event>
<event>
 5    1  0.2540860E-005  0.1022332E+03  0.7818608E-02  0.1160913E+00
          4   -1    0    0  502    0 -0.00000000000E+00  0.00000000000E+00  0.22484883657E+03  0.22484883657E+03  0.00000000000E+00 0.  1.
         21   -1    0    0  501  502  0.00000000000E+00 -0.00000000000E+00 -0.62879188077E+03  0.62879188077E+03  0.00000000000E+00 0.  1.
        -13    1    1    2    0    0 -0.11572303722E+03 -0.89108967972E+01  0.11378670256E+03  0.16253815019E+03  0.10566000000E+00 0.  1.
         13    1    1    2    0    0  0.88551937568E+02  0.10813761692E+02  0.63330933052E+02  0.10940384515E+03  0.10566000000E+00 0. -1.
          4    1    1    2  501    0  0.27171099648E+02 -0.19028648946E+01 -0.58106067981E+03  0.58169872200E+03  0.00000000000E+00 0.  1.
</event>
<event>
 5    1  0.2540860E-005  0.1177453E+03  0.7818608E-02  0.1138134E+00
         21   -1    0    0  501  502  0.00000000000E+00  0.00000000000E+00  0.50083068240E+02  0.50083068240E+02  0.00000000000E+00 0. -1.
          4   -1    0    0  502    0 -0.00000000000E+00 -0.00000000000E+00 -0.59572458870E+03  0.59572458870E+03  0.00000000000E+00 0.  1.
        -13    1    1    2    0    0  0.10152383341E+03 -0.52331586776E+02 -0.42105563681E+03  0.43627232800E+03  0.10566000000E+00 0.  1.
         13    1    1    2    0    0 -0.10498062154E+03  0.84868810294E+02 -0.10782933609E+03  0.17277390644E+03  0.10566000000E+00 0. -1.
          4    1    1    2  501    0  0.34567881277E+01 -0.32537223518E+02 -0.16756547556E+02  0.36761422503E+02  0.00000000000E+00 0.  1.
</event>
<event>
 5    1  0.2540860E-005  0.8150621E+02  0.7818608E-02  0.1199408E+00
         21   -1    0    0  501  502  0.00000000000E+00  0.00000000000E+00  0.10877339264E+03  0.10877339264E+03  0.00000000000E+00 0.  1.
          4   -1    0    0  502    0 -0.00000000000E+00 -0.00000000000E+00 -0.13074503618E+03  0.13074503618E+03  0.00000000000E+00 0.  1.
        -13    1    1    2    0    0 -0.55148066885E+02  0.64742888211E+02 -0.33865413668E+02  0.91541401901E+02  0.10566000000E+00 0.  1.
         13    1    1    2    0    0  0.71125435374E+02 -0.38708665903E+02 -0.38020294669E+02  0.89458047955E+02  0.10566000000E+00 0. -1.
          4    1    1    2  501    0 -0.15977368489E+02 -0.26034222308E+02  0.49914064799E+02  0.58518978971E+02  0.00000000000E+00 0.  1.
</event>
<event>
 5    1  0.2540860E-005  0.9012367E+03  0.7818608E-02  0.9200235E-01
         -4   -1    0    0    0  501 -0.00000000000E+00  0.00000000000E+00  0.32759868771E+04  0.32759868771E+04  0.00000000000E+00 0. -1.
         21   -1    0    0  501  502  0.00000000000E+00 -0.00000000000E+00 -0.59399656982E+03  0.59399656982E+03  0.00000000000E+00 0.  1.
        -13    1    1    2    0    0  0.87429924895E+02  0.10683368532E+04  0.19949013352E+04  0.22646454407E+04  0.10566000000E+00 0.  1.
         13    1    1    2    0    0 -0.51550815917E+02 -0.16781467586E+03  0.68184895909E+03  0.70408612132E+03  0.10566000000E+00 0. -1.
         -4    1    1    2    0  502 -0.35879108978E+02 -0.90052217732E+03  0.52400129606E+01  0.90125188490E+03  0.00000000000E+00 0. -1.
</event>
<event>
 5    1  0.2540860E-005  0.6721492E+02  0.7818608E-02  0.1234230E+00
         21   -1    0    0  501  502  0.00000000000E+00  0.00000000000E+00  0.77143670799E+03  0.77143670799E+03  0.00000000000E+00 0.  1.
         -4   -1    0    0    0  501 -0.00000000000E+00 -0.00000000000E+00 -0.85548100199E+01  0.85548100199E+01  0.00000000000E+00 0. -1.
        -13    1    1    2    0    0  0.63553685992E+02  0.38586954275E+01  0.35414079655E+03  0.35981894819E+03  0.10566000000E+00 0.  1.
         13    1    1    2    0    0 -0.68334417107E+02 -0.13066860777E+02  0.21130026483E+03  0.22245931874E+03  0.10566000000E+00 0. -1.
         -4    1    1    2    0  502  0.47807311142E+01  0.92081653498E+01  0.19744083659E+03  0.19771325108E+03  0.00000000000E+00 0. -1.
</event>
<event>
 5    1  0.2540860E-005  0.4824612E+03  0.7818608E-02  0.9772723E-01
         21   -1    0    0  501  502  0.00000000000E+00  0.00000000000E+00  0.20432430803E+03  0.20432430803E+03  0.00000000000E+00 0.  1.
          4   -1    0    0  502    0 -0.00000000000E+00 -0.00000000000E+00 -0.20509076105E+04  0.20509076105E+04  0.00000000000E+00 0.  1.
        -13    1    1    2    0    0 -0.58069187401E+03 -0.10679967640E+03 -0.78002123182E+03  0.97828541677E+03  0.10566000000E+00 0.  1.
         13    1    1    2    0    0  0.15535952122E+03  0.11964380681E+03 -0.65964363343E+03  0.68817218459E+03  0.10566000000E+00 0. -1.
          4    1    1    2  501    0  0.42533235278E+03 -0.12844130412E+02 -0.40691843721E+03  0.58877431716E+03  0.00000000000E+00 0.  1.
</event>
<event>
 5    1  0.2540860E-005  0.1999119E+03  0.7818608E-02  0.1060196E+00
         21   -1    0    0  501  502  0.00000000000E+00  0.00000000000E+00  0.17753503762E+03  0.17753503762E+03  0.00000000000E+00 0.  1.
         -4   -1    0    0    0  501 -0.00000000000E+00 -0.00000000000E+00 -0.65222333123E+03  0.65222333123E+03  0.00000000000E+00 0. -1.
        -13    1    1    2    0    0  0.18111762774E+03 -0.96625345895E+02 -0.32906099718E+02  0.20790111859E+03  0.10566000000E+00 0.  1.
         13    1    1    2    0    0 -0.17893912790E+03  0.86612518775E+02 -0.51286129040E+03  0.55004332035E+03  0.10566000000E+00 0. -1.
         -4    1    1    2    0  502 -0.21784998426E+01  0.10012827120E+02  0.71079096508E+02  0.71813929909E+02  0.00000000000E+00 0. -1.
</event>
<event>
 5    1  0.2540860E-005  0.6413438E+02  0.7818608E-02  0.1243013E+00
         21   -1    0    0  501  502  0.00000000000E+00  0.00000000000E+00  0.22119903926E+02  0.22119903926E+02  0.00000000000E+00 0.  1.
          4   -1    0    0  502    0 -0.00000000000E+00 -0.00000000000E+00 -0.37411880371E+03  0.37411880371E+03  0.00000000000E+00 0.  1.
        -13    1    1    2    0    0 -0.25427286230E+02  0.64407645062E+02 -0.24825311850E+03  0.25772953582E+03  0.10566000000E+00 0.  1.
         13    1    1    2    0    0  0.17692455707E+02 -0.53947501037E+02 -0.11021608754E+03  0.12397964741E+03  0.10566000000E+00 0. -1.
          4    1    1    2  501    0  0.77348305231E+01 -0.10460144025E+02  0.64703062507E+01  0.14529524398E+02  0.00000000000E+00 0.  1.
</event>
<event>
 5    1  0.2540860E-005  0.4939136E+03  0.7818608E-02  0.9606763E-01
          4   -1    0    0  502    0 -0.00000000000E+00  0.00000000000E+00  0.20635941598E+04  0.20635941598E+04  0.00000000000E+00 0.  1.
         21   -1    0    0  501  502  0.00000000000E+00 -0.00000000000E+00 -0.25602198213E+03  0.25602198213E+03  0.00000000000E+00 0.  1.
        -13    1    1    2    0    0  0.20749996583E+03 -0.50229416681E+03  0.33081449857E+03  0.63623416245E+03  0.10566000000E+00 0.  1.
         13    1    1    2    0    0 -0.32329594963E+03  0.43559527834E+02  0.72684774698E+03  0.79669653066E+03  0.10566000000E+00 0. -1.
          4    1    1    2  501    0  0.11579598380E+03  0.45873463898E+03  0.74990993211E+03  0.88668544881E+03  0.00000000000E+00 0.  1.
</event>
<event>
 5    1  0.2540860E-005  0.6227439E+03  0.7818608E-02  0.9243280E-01
         21   -1    0    0  501  502  0.00000000000E+00  0.00000000000E+00  0.88109582865E+03  0.88109582865E+03  0.00000000000E+00 0. -1.
         -4   -1    0    0    0  501 -0.00000000000E+00 -0.00000000000E+00 -0.91254239855E+03  0.91254239855E+03  0.00000000000E+00 0. -1.
        -13    1    1    2    0    0 -0.33400466190E+03  0.51583589343E+03 -0.31054365720E+03  0.68853696873E+03  0.10566000000E+00 0.  1.
         13    1    1    2    0    0  0.34479740148E+03 -0.53121171378E+03 -0.16991225985E+03  0.65569910792E+03  0.10566000000E+00 0. -1.
         -4    1    1    2    0  502 -0.10792739579E+02  0.15375820350E+02  0.44900934716E+03  0.44940215055E+03  0.00000000000E+00 0. -1.
</event>
<event>
 5    1  0.2540860E-005  0.1814281E+03  0.7818608E-02  0.1129235E+00
          4   -1    0    0  502    0 -0.00000000000E+00  0.00000000000E+00  0.33752632500E+03  0.33752632500E+03  0.00000000000E+00 0.  1.
         21   -1    0    0  501  502  0.00000000000E+00 -0.00000000000E+00 -0.41349992255E+03  0.41349992255E+03  0.00000000000E+00 0.  1.
        -13    1    1    2    0    0 -0.10055259847E+03  0.16247799717E+03  0.25998765616E+03  0.32265076653E+03  0.10566000000E+00 0.  1.
         13    1    1    2    0    0  0.39691684232E+02  0.74695527742E+01 -0.19555778906E+03  0.19968496198E+03  0.10566000000E+00 0. -1.
          4    1    1    2  501    0  0.60860914235E+02 -0.16994754995E+03 -0.14040346465E+03  0.22869051904E+03  0.00000000000E+00 0.  1.
</event>
<event>
 5    1  0.2540860E-005  0.2397733E+03  0.7818608E-02  0.1069964E+00
         21   -1    0    0  501  502  0.00000000000E+00  0.00000000000E+00  0.10531072442E+03  0.10531072442E+03  0.00000000000E+00 0. -1.
         -4   -1    0    0    0  501 -0.00000000000E+00 -0.00000000000E+00 -0.10283458923E+04  0.10283458923E+04  0.00000000000E+00 0. -1.
        -13    1    1    2    0    0  0.87151283450E+02 -0.61604980398E+01 -0.58672553717E+02  0.10524152064E+03  0.10566000000E+00 0.  1.
         13    1    1    2    0    0 -0.21382732397E+03  0.19255078170E+03 -0.67602432493E+03  0.73471547354E+03  0.10566000000E+00 0. -1.
         -4    1    1    2    0  502  0.12667604052E+03 -0.18639028366E+03 -0.18833828924E+03  0.29369962253E+03  0.00000000000E+00 0. -1.
</event>
<event>
 5    1  0.2540860E-005  0.3497520E+03  0.7818608E-02  0.9886578E-01
         -4   -1    0    0    0  501 -0.00000000000E+00  0.00000000000E+00  0.21890528314E+03  0.21890528314E+03  0.00000000000E+00 0. -1.
         21   -1    0    0  501  502  0.00000000000E+00 -0.00000000000E+00 -0.13250726546E+04  0.13250726546E+04  0.00000000000E+00 0.  1.
        -13    1    1    2    0    0 -0.33349197670E+03  0.40202297962E+01 -0.66392027388E+03  0.74298263910E+03  0.10566000000E+00 0.  1.
         13    1    1    2    0    0  0.35378641278E+03 -0.62573948083E+00  0.44594676700E+01  0.35381508649E+03  0.10566000000E+00 0. -1.
         -4    1    1    2    0  502 -0.20294436077E+02 -0.33944903154E+01 -0.44670656521E+03  0.44718021210E+03  0.00000000000E+00 0. -1.
</event>
<event>
 5    1  0.2540860E-005  0.3881682E+03  0.7818608E-02  0.1007101E+00
         -4   -1    0    0    0  501 -0.00000000000E+00  0.00000000000E+00  0.13526534716E+04  0.13526534716E+04  0.00000000000E+00 0. -1.
         21   -1    0    0  501  502  0.00000000000E+00 -0.00000000000E+00 -0.34874160188E+03  0.34874160188E+03  0.00000000000E+00 0. -1.
        -13    1    1    2    0    0  0.53620565285E+02  0.12868484744E+03  0.56291158723E+03  0.57991759862E+03  0.10566000000E+00 0.  1.
         13    1    1    2    0    0  0.21000375121E+03 -0.34274089401E+03 -0.15882089016E+03  0.43220016458E+03  0.10566000000E+00 0. -1.
         -4    1    1    2    0  502 -0.26362431649E+03  0.21405604657E+03  0.59982117266E+03  0.68927731029E+03  0.00000000000E+00 0. -1.
</event>
<event>
 5    1  0.2540860E-005  0.4909441E+03  0.7818608E-02  0.9892712E-01
          4   -1    0    0  502    0 -0.00000000000E+00  0.00000000000E+00  0.68163978893E+03  0.68163978893E+03  0.00000000000E+00 0.  1.
         21   -1    0    0  501  502  0.00000000000E+00 -0.00000000000E+00 -0.62275046990E+03  0.62275046990E+03  0.00000000000E+00 0.  1.
        -13    1    1    2    0    0 -0.41207585659E+03  0.13969648494E+03 -0.79255336010E+01  0.43518323122E+03  0.10566000000E+00 0.  1.
         13    1    1    2    0    0 -0.75276769467E+02  0.98389223299E+02  0.26436504661E+03  0.29195191439E+03  0.10566000000E+00 0. -1.
          4    1    1    2  501    0  0.48735262605E+03 -0.23808570824E+03 -0.19755019398E+03  0.57725511321E+03  0.00000000000E+00 0.  1.
</event>
<event>
 5    1  0.2540860E-005  0.9414901E+02  0.7818608E-02  0.1174617E+00
         21   -1    0    0  501  502  0.00000000000E+00  0.00000000000E+00  0.32961652455E+03  0.32961652455E+03  0.00000000000E+00 0.  1.
          4   -1    0    0  502    0 -0.00000000000E+00 -0.00000000000E+00 -0.75496068979E+02  0.75496068979E+02  0.00000000000E+00 0.  1.
        -13    1    1    2    0    0  0.10323945934E+03 -0.79552496558E+01 -0.21692240833E+02  0.10579336670E+03  0.10566000000E+00 0.  1.
         13    1    1    2    0    0 -0.67564176662E+02 -0.69681702626E+01  0.11185330722E+03  0.13086117402E+03  0.10566000000E+00 0. -1.
          4    1    1    2  501    0 -0.35675282674E+02  0.14923419918E+02  0.16395938918E+03  0.16845805281E+03  0.00000000000E+00 0.  1.
</event>
<event>
 5    1  0.2540860E-005  0.3386927E+03  0.7818608E-02  0.9925041E-01
          4   -1    0    0  502    0 -0.00000000000E+00  0.00000000000E+00  0.10440383528E+04  0.10440383528E+04  0.00000000000E+00 0.  1.
         21   -1    0    0  501  502  0.00000000000E+00 -0.00000000000E+00 -0.17560484452E+03  0.17560484452E+03  0.00000000000E+00 0. -1.
        -13    1    1    2    0    0 -0.34598806549E+03  0.52752801228E+02  0.52713504248E+03  0.63274162474E+03  0.10566000000E+00 0.  1.
         13    1    1    2    0    0  0.32048624084E+03 -0.62278342151E+02  0.40347874907E+03  0.51902325052E+03  0.10566000000E+00 0. -1.
          4    1    1    2  501    0  0.25501824651E+02  0.95255409230E+01 -0.62180283221E+02  0.67878322105E+02  0.00000000000E+00 0.  1.
</event>
<event>
 5    1  0.2540860E-005  0.5699291E+03  0.7818608E-02  0.9336606E-01
          4   -1    0    0  502    0 -0.00000000000E+00  0.00000000000E+00  0.28686545980E+04  0.28686545980E+04  0.00000000000E+00 0.  1.
         21   -1    0    0  501  502  0.00000000000E+00 -0.00000000000E+00 -0.39043401307E+03  0.39043401307E+03  0.00000000000E+00 0. -1.
        -13    1    1    2    0    0  0.52279412756E+03  0.21526304602E+03  0.22972355507E+04  0.23657859298E+04  0.10566000000E+00 0.  1.
         13    1    1    2    0    0 -0.63974857428E+03 -0.14924404237E+02  0.16456513494E+03  0.66074402831E+03  0.10566000000E+00 0. -1.
          4    1    1    2  501    0  0.11695444672E+03 -0.20033864178E+03  0.16419899269E+02  0.23255865301E+03  0.00000000000E+00 0.  1.
</event>
<event>
 5    1  0.2540860E-005  0.6739780E+02  0.7818608E-02  0.1233725E+00
          4   -1    0    0  502    0 -0.00000000000E+00  0.00000000000E+00  0.89797244350E+02  0.89797244350E+02  0.00000000000E+00 0.  1.
         21   -1    0    0  501  502  0.00000000000E+00 -0.00000000000E+00 -0.12867109752E+03  0.12867109752E+03  0.00000000000E+00 0. -1.
        -13    1    1    2    0    0 -0.38067861960E+01 -0.67191571646E+02  0.58988114299E+02  0.89491942173E+02  0.10566000000E+00 0.  1.
         13    1    1    2    0    0 -0.98896984039E+01  0.68528575451E+02 -0.88345464507E+02  0.11224483975E+03  0.10566000000E+00 0. -1.
          4    1    1    2  501    0  0.13696484600E+02 -0.13370038050E+01 -0.95165029637E+01  0.16731559946E+02  0.00000000000E+00 0.  1.
</event>
<event>
 5    1  0.2540860E-005  0.2882694E+03  0.7818608E-02  0.1012268E+00
         -4   -1    0    0    0  501 -0.00000000000E+00  0.00000000000E+00  0.42676665254E+03  0.42676665254E+03  0.00000000000E+00 0. -1.
         21   -1    0    0  501  502  0.00000000000E+00 -0.00000000000E+00 -0.64386089320E+03  0.64386089320E+03  0.00000000000E+00 0. -1.
        -13    1    1    2    0    0 -0.24143968947E+02 -0.26664776475E+03  0.13037637055E+03  0.29779518271E+03  0.10566000000E+00 0.  1.
         13    1    1    2    0    0  0.26882375787E+03  0.33919249762E+03 -0.24876897567E+03  0.49920314267E+03  0.10566000000E+00 0. -1.
         -4    1    1    2    0  502 -0.24467978892E+03 -0.72544732868E+02 -0.98701635551E+02  0.27362922036E+03  0.00000000000E+00 0. -1.
</event>
<event>
 5    1  0.2540860E-005  0.3475847E+03  0.7818608E-02  0.9998260E-01
         21   -1    0    0  501  502  0.00000000000E+00  0.00000000000E+00  0.88346972351E+03  0.88346972351E+03  0.00000000000E+00 0.  1.
          4   -1    0    0  502    0 -0.00000000000E+00 -0.00000000000E+00 -0.50866784683E+03  0.50866784683E+03  0.00000000000E+00 0.  1.
        -13    1    1    2    0    0  0.41681554131E+03 -0.33795733621E+03  0.24528730852E+03  0.59001375531E+03  0.10566000000E+00 0.  1.
         13    1    1    2    0    0 -0.18188242632E+03  0.16568806471E+03 -0.23177321009E+03  0.33801269780E+03  0.10566000000E+00 0. -1.
          4    1    1    2  501    0 -0.23493311499E+03  0.17226927150E+03  0.36128777826E+03  0.46411111723E+03  0.00000000000E+00 0.  1.
</event>
<event>
 5    1  0.2540860E-005  0.3767022E+03  0.7818608E-02  0.9798851E-01
          4   -1    0    0  502    0 -0.00000000000E+00  0.00000000000E+00  0.10513361707E+04  0.10513361707E+04  0.00000000000E+00 0.  1.
         21   -1    0    0  501  502  0.00000000000E+00 -0.00000000000E+00 -0.69704610680E+03  0.69704610680E+03  0.00000000000E+00 0.  1.
        -13    1    1    2    0    0 -0.10254882738E+03  0.41519992292E+03  0.45611303763E+03  0.62525702895E+03  0.10566000000E+00 0.  1.
         13    1    1    2    0    0 -0.89648748893E+01 -0.34639417989E+03  0.44319599826E+03  0.56257621784E+03  0.10566000000E+00 0. -1.
          4    1    1    2  501    0  0.11151370227E+03 -0.68805743035E+02 -0.54501897196E+03  0.56054903074E+03  0.00000000000E+00 0.  1.
</event>
<event>
 5    1  0.2540860E-005  0.3048983E+03  0.7818608E-02  0.1005304E+00
         21   -1    0    0  501  502  0.00000000000E+00  0.00000000000E+00  0.44837992381E+03  0.44837992381E+03  0.00000000000E+00 0. -1.
         -4   -1    0    0    0  501 -0.00000000000E+00 -0.00000000000E+00 -0.80125999702E+03  0.80125999702E+03  0.00000000000E+00 0. -1.
        -13    1    1    2    0    0  0.73705200009E+02 -0.38344821575E+03 -0.31960003454E+03  0.50458813295E+03  0.10566000000E+00 0.  1.
         13    1    1    2    0    0 -0.22583128299E+02  0.26192007496E+03 -0.32908238836E+03  0.42119752236E+03  0.10566000000E+00 0. -1.
         -4    1    1    2    0  502 -0.51122071710E+02  0.12152814079E+03  0.29580234969E+03  0.32385426553E+03  0.00000000000E+00 0. -1.
</event>
<event>
 5    1  0.2540860E-005  0.3669599E+03  0.7818608E-02  0.1019813E+00
         21   -1    0    0  501  502  0.00000000000E+00  0.00000000000E+00  0.13382540791E+04  0.13382540791E+04  0.00000000000E+00 0. -1.
         -4   -1    0    0    0  501 -0.00000000000E+00 -0.00000000000E+00 -0.30325227799E+03  0.30325227799E+03  0.00000000000E+00 0. -1.
        -13    1    1    2    0    0 -0.49056833687E+02 -0.98418917340E+02 -0.65434720309E+02  0.12796315879E+03  0.10566000000E+00 0.  1.
         13    1    1    2    0    0 -0.32496983730E+03  0.71893349254E+02 -0.18609068416E+02  0.33334720250E+03  0.10566000000E+00 0. -1.
         -4    1    1    2    0  502  0.37402667099E+03  0.26525568086E+02  0.11190455898E+04  0.11801959958E+04  0.00000000000E+00 0. -1.
</event>
<event>
 5    1  0.2540860E-005  0.1001554E+03  0.7818608E-02  0.1164299E+00
         -4   -1    0    0    0  501 -0.00000000000E+00  0.00000000000E+00  0.14091571044E+03  0.14091571044E+03  0.00000000000E+00 0. -1.
         21   -1    0    0  501  502  0.00000000000E+00 -0.00000000000E+00 -0.43386657076E+03  0.43386657076E+03  0.00000000000E+00 0.  1.
        -13    1    1    2    0    0 -0.86466092766E+02  0.48623988672E+02 -0.24576880884E+03  0.26503395261E+03  0.10566000000E+00 0.  1.
         13    1    1    2    0    0  0.50812771676E+02 -0.87570173577E+02  0.10668194939E+03  0.14707658738E+03  0.10566000000E+00 0. -1.
         -4    1    1    2    0  502  0.35653321090E+02  0.38946184905E+02 -0.15386400087E+03  0.16267174120E+03  0.00000000000E+00 0. -1.
</event>
<event>
 5    1  0.2540860E-005  0.4994276E+03  0.7818608E-02  0.9642623E-01
          4   -1    0    0  502    0 -0.00000000000E+00  0.00000000000E+00  0.18942973507E+04  0.18942973507E+04  0.00000000000E+00 0.  1.
         21   -1    0    0  501  502  0.00000000000E+00 -0.00000000000E+00 -0.10271245160E+04  0.10271245160E+04  0.00000000000E+00 0.  1.
        -13    1    1    2    0    0 -0.44421569849E+03  0.14573258468E+03 -0.26029301862E+03  0.53508694595E+03  0.10566000000E+00 0.  1.
         13    1    1    2    0    0 -0.10619468210E+03 -0.25683999203E+03  0.16174143579E+04  0.16411195290E+04  0.10566000000E+00 0. -1.
          4    1    1    2  501    0  0.55041038059E+03  0.11110740735E+03 -0.48994850458E+03  0.74521539179E+03  0.00000000000E+00 0.  1.
</event>
<event>
 5    1  0.4313010E-005  0.5885408E+03  0.7818608E-02  0.9561795E-01
         21   -1    0    0  501  502  0.00000000000E+00  0.00000000000E+00  0.77378518234E+03  0.77378518234E+03  0.00000000000E+00 0. -1.
          4   -1    0    0  502    0 -0.00000000000E+00 -0.00000000000E+00 -0.17962174251E+04  0.17962174251E+04  0.00000000000E+00 0.  1.
        -13    1    1    2    0    0  0.10575499677E+03 -0.22940481448E+03 -0.35314432495E+02  0.25506432238E+03  0.10566000000E+00 0.  1.
         13    1    1    2    0    0  0.91099064907E+03 -0.26573939082E+03 -0.58440329240E+03  0.11144723441E+04  0.10566000000E+00 0. -1.
          4    1    1    2  501    0 -0.10167456458E+04  0.49514420529E+03 -0.40271451785E+03  0.12004659409E+04  0.00000000000E+00 0.  1.
</event>
<event>
 5    1  0.2540860E-005  0.2038247E+03  0.7818608E-02  0.1057545E+00
         -4   -1    0    0    0  501 -0.00000000000E+00  0.00000000000E+00  0.35258705295E+03  0.35258705295E+03  0.00000000000E+00 0. -1.
         21   -1    0    0  501  502  0.00000000000E+00 -0.00000000000E+00 -0.30769585264E+03  0.30769585264E+03  0.00000000000E+00 0.  1.
        -13    1    1    2    0    0  0.14601803560E+03  0.63519068927E+02 -0.18207343690E+03  0.24188155454E+03  0.10566000000E+00 0.  1.
         13    1    1    2    0    0 -0.15974984407E+03 -0.14110865103E+03  0.25716718971E+03  0.33401592582E+03  0.10566000000E+00 0. -1.
         -4    1    1    2    0  502  0.13731808475E+02  0.77589582100E+02 -0.30202552501E+02  0.84385425235E+02  0.00000000000E+00 0. -1.
</event>
<event>
 5    1  0.2540860E-005  0.1714178E+03  0.7818608E-02  0.1081717E+00
         -4   -1    0    0    0  501 -0.00000000000E+00  0.00000000000E+00  0.32802956255E+02  0.32802956255E+02  0.00000000000E+00 0. -1.
         21   -1    0    0  501  502  0.00000000000E+00 -0.00000000000E+00 -0.13024938633E+04  0.13024938633E+04  0.00000000000E+00 0.  1.
        -13    1    1    2    0    0 -0.17171259815E+03  0.31663486809E+02 -0.85418599976E+03  0.87184948593E+03  0.10566000000E+00 0.  1.
         13    1    1    2    0    0  0.16472306522E+03 -0.43677385497E+02 -0.28397122119E+03  0.33118132171E+03  0.10566000000E+00 0. -1.
         -4    1    1    2    0  502  0.69895329380E+01  0.12013898689E+02 -0.13153368607E+03  0.13226601190E+03  0.00000000000E+00 0. -1.
</event>
<event>
 5    1  0.2540860E-005  0.4986443E+03  0.7818608E-02  0.9758694E-01
         21   -1    0    0  501  502  0.00000000000E+00  0.00000000000E+00  0.88127089662E+03  0.88127089662E+03  0.00000000000E+00 0.  1.
          4   -1    0    0  502    0 -0.00000000000E+00 -0.00000000000E+00 -0.72926397537E+03  0.72926397537E+03  0.00000000000E+00 0.  1.
        -13    1    1    2    0    0  0.39418515947E+03  0.36879883844E+03  0.37686991139E+03  0.65835056350E+03  0.10566000000E+00 0.  1.
         13    1    1    2    0    0 -0.18033068976E+03  0.47122365816E+02 -0.40907322037E+03  0.44953374269E+03  0.10566000000E+00 0. -1.
          4    1    1    2  501    0 -0.21385446972E+03 -0.41592120426E+03  0.18421023024E+03  0.50265056579E+03  0.00000000000E+00 0.  1.
</event>
<event>
 5    1  0.2540860E-005  0.3065891E+03  0.7818608E-02  0.1004917E+00
          4   -1    0    0  502    0 -0.00000000000E+00  0.00000000000E+00  0.20589822315E+04  0.20589822315E+04  0.00000000000E+00 0.  1.
         21   -1    0    0  501  502  0.00000000000E+00 -0.00000000000E+00 -0.35104886077E+03  0.35104886077E+03  0.00000000000E+00 0.  1.
        -13    1    1    2    0    0 -0.18101123501E+03  0.23891136118E+03 -0.17642856575E+03  0.34780850432E+03  0.10566000000E+00 0.  1.
         13    1    1    2    0    0  0.20600253995E+03  0.22310981151E+03  0.11876951418E+04  0.12259016255E+04  0.10566000000E+00 0. -1.
          4    1    1    2  501    0 -0.24991304944E+02 -0.46202117270E+03  0.69666679466E+03  0.83632096238E+03  0.00000000000E+00 0.  1.
</event>
<event>
 5    1  0.2540860E-005  0.6659786E+02  0.7818608E-02  0.1235947E+00
         -4   -1    0    0    0  501 -0.00000000000E+00  0.00000000000E+00  0.11579431517E+03  0.11579431517E+03  0.00000000000E+00 0. -1.
         21   -1    0    0  501  502  0.00000000000E+00 -0.00000000000E+00 -0.63738535691E+02  0.63738535691E+02  0.00000000000E+00 0.  1.
        -13    1    1    2    0    0  0.22959431023E+02  0.49004530312E+02 -0.88009483262E+01  0.54827432180E+02  0.10566000000E+00 0.  1.
         13    1    1    2    0    0 -0.14157104843E+02 -0.72239716690E+02  0.66525613048E+02  0.99220303569E+02  0.10566000000E+00 0. -1.
         -4    1    1    2    0  502 -0.88023261797E+01  0.23235186378E+02 -0.56688852452E+01  0.25485115109E+02  0.00000000000E+00 0. -1.
</event>
<event>
 5    1  0.2540860E-005  0.1449288E+02  0.7818608E-02  0.1614054E+00
         21   -1    0    0  501  502  0.00000000000E+00  0.00000000000E+00  0.22110453470E+03  0.22110453470E+03  0.00000000000E+00 0. -1.
          4   -1    0    0  502    0 -0.00000000000E+00 -0.00000000000E+00 -0.41278442491E+01  0.41278442491E+01  0.00000000000E+00 0.  1.
        -13    1    1    2    0    0 -0.11495467580E+02  0.50760129856E+00  0.12846600193E+02  0.17246731126E+02  0.10566000000E+00 0.  1.
         13    1    1    2    0    0  0.24259768861E+02  0.63565278556E+01  0.11690938486E+03  0.11956904810E+03  0.10566000000E+00 0. -1.
          4    1    1    2  501    0 -0.12764301281E+02 -0.68641291542E+01  0.87220705394E+02  0.88416599717E+02  0.00000000000E+00 0.  1.
</event>
<event>
 5    1  0.2540860E-005  0.3549778E+03  0.7818608E-02  0.1006813E+00
         -4   -1    0    0    0  501 -0.00000000000E+00  0.00000000000E+00  0.47834297447E+03  0.47834297447E+03  0.00000000000E+00 0. -1.
         21   -1    0    0  501  502  0.00000000000E+00 -0.00000000000E+00 -0.10197715696E+04  0.10197715696E+04  0.00000000000E+00 0. -1.
        -13    1    1    2    0    0  0.18299353145E+03  0.19141364382E+02  0.17489380398E+03  0.25385207941E+03  0.10566000000E+00 0.  1.
         13    1    1    2    0    0 -0.98061101759E+02  0.34497001365E+03 -0.78598681732E+03  0.86394188355E+03  0.10566000000E+00 0. -1.
         -4    1    1    2    0  502 -0.84932429691E+02 -0.36411137803E+03  0.69664418242E+02  0.38032058108E+03  0.00000000000E+00 0. -1.
</event>
<event>
 5    1  0.2540860E-005  0.4780192E+03  0.7818608E-02  0.9654491E-01
         21   -1    0    0  501  502  0.00000000000E+00  0.00000000000E+00  0.27953587261E+03  0.27953587261E+03  0.00000000000E+00 0. -1.
         -4   -1    0    0    0  501 -0.00000000000E+00 -0.00000000000E+00 -0.15371814875E+04  0.15371814875E+04  0.00000000000E+00 0. -1.
        -13    1    1    2    0    0 -0.14661763193E+03  0.26630139936E+03 -0.32591380242E+03  0.44568260350E+03  0.10566000000E+00 0.  1.
         13    1    1    2    0    0 -0.34060915651E+03 -0.37154810921E+03 -0.41313785223E+03  0.65172501185E+03  0.10566000000E+00 0. -1.
         -4    1    1    2    0  502  0.48722678844E+03  0.10524670985E+03 -0.51859396022E+03  0.71930974474E+03  0.00000000000E+00 0. -1.
</event>
<event>
 5    1  0.2540860E-005  0.1141377E+03  0.7818608E-02  0.1143074E+00
         21   -1    0    0  501  502  0.00000000000E+00  0.00000000000E+00  0.18151385083E+03  0.18151385083E+03  0.00000000000E+00 0.  1.
         -4   -1    0    0    0  501 -0.00000000000E+00 -0.00000000000E+00 -0.37676339329E+03  0.37676339329E+03  0.00000000000E+00 0. -1.
        -13    1    1    2    0    0  0.86316181291E+02  0.83974065627E+02  0.78429546725E+02  0.14371267103E+03  0.10566000000E+00 0.  1.
         13    1    1    2    0    0 -0.89620493428E+02 -0.69906630591E+02 -0.33385781447E+03  0.35267523487E+03  0.10566000000E+00 0. -1.
         -4    1    1    2    0  502  0.33043121376E+01 -0.14067435036E+02  0.60178725297E+02  0.61889338222E+02  0.00000000000E+00 0. -1.
</event>
<event>
 5    1  0.2540860E-005  0.5018975E+03  0.7818608E-02  0.9473823E-01
         21   -1    0    0  501  502  0.00000000000E+00  0.00000000000E+00  0.29433363119E+03  0.29433363119E+03  0.00000000000E+00 0.  1.
          4   -1    0    0  502    0 -0.00000000000E+00 -0.00000000000E+00 -0.25152356876E+04  0.25152356876E+04  0.00000000000E+00 0.  1.
        -13    1    1    2    0    0 -0.28798720286E+03  0.72200334351E+03 -0.67620539367E+03  0.10302811280E+04  0.10566000000E+00 0.  1.
         13    1    1    2    0    0  0.21846653133E+03 -0.38617025798E+03 -0.12524131460E+04  0.13286812232E+04  0.10566000000E+00 0. -1.
          4    1    1    2  501    0  0.69520671531E+02 -0.33583308552E+03 -0.29228351669E+03  0.45060696758E+03  0.00000000000E+00 0.  1.
</event>
<event>
 5    1  0.2540860E-005  0.4726076E+03  0.7818608E-02  0.9768624E-01
          4   -1    0    0  502    0 -0.00000000000E+00  0.00000000000E+00  0.14927015088E+04  0.14927015088E+04  0.00000000000E+00 0.  1.
         21   -1    0    0  501  502  0.00000000000E+00 -0.00000000000E+00 -0.25315301365E+03  0.25315301365E+03  0.00000000000E+00 0.  1.
        -13    1    1    2    0    0 -0.21645686099E+03 -0.33528823139E+03  0.78121160049E+03  0.87724759714E+03  0.10566000000E+00 0.  1.
         13    1    1    2    0    0 -0.20984402198E+03  0.26966315666E+02  0.12342420390E+03  0.24493925985E+03  0.10566000000E+00 0. -1.
          4    1    1    2  501    0  0.42630088297E+03  0.30832191572E+03  0.33491269076E+03  0.62366766548E+03  0.00000000000E+00 0.  1.
</event>
<event>
 5    1  0.2540860E-005  0.4364662E+03  0.7818608E-02  0.9629283E-01
         21   -1    0    0  501  502  0.00000000000E+00  0.00000000000E+00  0.39544593633E+03  0.39544593633E+03  0.00000000000E+00 0. -1.
          4   -1    0    0  502    0 -0.00000000000E+00 -0.00000000000E+00 -0.14447194404E+04  0.14447194404E+04  0.00000000000E+00 0.  1.
        -13    1    1    2    0    0  0.59601041086E+03 -0.27611437048E+03 -0.43016787176E+03  0.78518275866E+03  0.10566000000E+00 0.  1.
         13    1    1    2    0    0 -0.35886633545E+03  0.11228668161E+03 -0.66419314204E+03  0.76324693690E+03  0.10566000000E+00 0. -1.
          4    1    1    2  501    0 -0.23714407541E+03  0.16382768886E+03  0.45087509715E+02  0.29173568118E+03  0.00000000000E+00 0.  1.
</event>
<event>
 5    1  0.2540860E-005  0.2494747E+03  0.7818608E-02  0.1030665E+00
         21   -1    0    0  501  502  0.00000000000E+00  0.00000000000E+00  0.17174354240E+03  0.17174354240E+03  0.00000000000E+00 0.  1.
         -4   -1    0    0    0  501 -0.00000000000E+00 -0.00000000000E+00 -0.81547993798E+03  0.81547993798E+03  0.00000000000E+00 0. -1.
        -13    1    1    2    0    0 -0.22082305618E+03 -0.75894599256E+02 -0.10092502077E+03  0.25437901509E+03  0.10566000000E+00 0.  1.
         13    1    1    2    0    0  0.24343570235E+03  0.75304412387E+02 -0.61046316164E+03  0.66151113263E+03  0.10566000000E+00 0. -1.
         -4    1    1    2    0  502 -0.22612646169E+02  0.59018686905E+00  0.67651786825E+02  0.71333332657E+02  0.00000000000E+00 0. -1.
</event>
<event>
 5    1  0.2540860E-005  0.4410292E+03  0.7818608E-02  0.9927529E-01
         21   -1    0    0  501  502  0.00000000000E+00  0.00000000000E+00  0.15608762052E+03  0.15608762052E+03  0.00000000000E+00 0. -1.
         -4   -1    0    0    0  501 -0.00000000000E+00 -0.00000000000E+00 -0.20483106936E+04  0.20483106936E+04  0.00000000000E+00 0. -1.
        -13    1    1    2    0    0 -0.11720786305E+03  0.96989683539E+02 -0.23070788990E+03  0.27635271574E+03  0.10566000000E+00 0.  1.
         13    1    1    2    0    0 -0.11932389804E+03  0.38456638839E+03 -0.45475968445E+03  0.60740092318E+03  0.10566000000E+00 0. -1.
         -4    1    1    2    0  502  0.23653176109E+03 -0.48155607193E+03 -0.12067554988E+04  0.13206446752E+04  0.00000000000E+00 0. -1.
</event>
<event>
 5    1  0.2540860E-005  0.2489052E+03  0.7818608E-02  0.1030962E+00
         21   -1    0    0  501  502  0.00000000000E+00  0.00000000000E+00  0.17620236785E+03  0.17620236785E+03  0.00000000000E+00 0.  1.
         -4   -1    0    0    0  501 -0.00000000000E+00 -0.00000000000E+00 -0.10091675755E+04  0.10091675755E+04  0.00000000000E+00 0. -1.
        -13    1    1    2    0    0 -0.21988667484E+03 -0.10329219071E+03 -0.36130181397E+03  0.43538309381E+03  0.10566000000E+00 0.  1.
         13    1    1    2    0    0  0.15791896984E+03  0.21744593368E+03 -0.54003127161E+03  0.60320387979E+03  0.10566000000E+00 0. -1.
         -4    1    1    2    0  502  0.61967704993E+02 -0.11415374296E+03  0.68367877894E+02  0.14678296980E+03  0.00000000000E+00 0. -1.
</event>
<event>
 5    1  0.2540860E-005  0.4748508E+03  0.7818608E-02  0.9929325E-01
          4   -1    0    0  502    0 -0.00000000000E+00  0.00000000000E+00  0.15263625281E+04  0.15263625281E+04  0.00000000000E+00 0.  1.
         21   -1    0    0  501  502  0.00000000000E+00 -0.00000000000E+00 -0.30027264636E+03  0.30027264636E+03  0.00000000000E+00 0.  1.
        -13    1    1    2    0    0 -0.42391185728E+03  0.19476462335E+03  0.14292165496E+03  0.48791508674E+03  0.10566000000E+00 0.  1.
         13    1    1    2    0    0  0.35803140066E+02  0.11574992238E+03  0.70192842575E+03  0.71230852544E+03  0.10566000000E+00 0. -1.
          4    1    1    2  501    0  0.38810871722E+03 -0.31051454573E+03  0.38123980106E+03  0.62641156231E+03  0.00000000000E+00 0.  1.
</event>
<event>
 5    1  0.2540860E-005  0.4474478E+03  0.7818608E-02  0.1010320E+00
          4   -1    0    0  502    0 -0.00000000000E+00  0.00000000000E+00  0.63745135129E+03  0.63745135129E+03  0.00000000000E+00 0.  1.
         21   -1    0    0  501  502  0.00000000000E+00 -0.00000000000E+00 -0.51978709578E+03  0.51978709578E+03  0.00000000000E+00 0.  1.
        -13    1    1    2    0    0 -0.43868802303E+03  0.44903679194E+01  0.17919247075E+03  0.47389587220E+03  0.10566000000E+00 0.  1.
         13    1    1    2    0    0 -0.81418572710E+01 -0.81648108734E+02  0.15914605980E+03  0.17905357582E+03  0.10566000000E+00 0. -1.
          4    1    1    2  501    0  0.44682988030E+03  0.77157740815E+02 -0.22067427504E+03  0.50428899905E+03  0.00000000000E+00 0.  1.
</event>
<event>
 5    1  0.2540860E-005  0.4428064E+03  0.7818608E-02  0.1026115E+00
         21   -1    0    0  501  502  0.00000000000E+00  0.00000000000E+00  0.32187918164E+03  0.32187918164E+03  0.00000000000E+00 0.  1.
          4   -1    0    0  502    0 -0.00000000000E+00 -0.00000000000E+00 -0.87800178380E+03  0.87800178380E+03  0.00000000000E+00 0.  1.
        -13    1    1    2    0    0  0.14440900588E+03  0.45387206895E+03 -0.51320948182E+03  0.70016983607E+03  0.10566000000E+00 0.  1.
         13    1    1    2    0    0  0.83531679680E+01 -0.50688549180E+02 -0.45388062506E+02  0.68550651457E+02  0.10566000000E+00 0. -1.
          4    1    1    2  501    0 -0.15276217385E+03 -0.40318351977E+03  0.24749421605E+01  0.43116047791E+03  0.00000000000E+00 0.  1.
</event>
<event>
 5    1  0.2540860E-005  0.4981814E+03  0.7818608E-02  0.9571860E-01
         21   -1    0    0  501  502  0.00000000000E+00  0.00000000000E+00  0.50224631300E+03  0.50224631300E+03  0.00000000000E+00 0. -1.
         -4   -1    0    0    0  501 -0.00000000000E+00 -0.00000000000E+00 -0.14893666289E+04  0.14893666289E+04  0.00000000000E+00 0. -1.
        -13    1    1    2    0    0  0.29614432297E+03  0.20475205620E+03 -0.83316456250E+03  0.90762771218E+03  0.10566000000E+00 0.  1.
         13    1    1    2    0    0  0.91843784998E+02  0.30233912009E+03 -0.29255631887E+03  0.43061982682E+03  0.10566000000E+00 0. -1.
         -4    1    1    2    0  502 -0.38798810797E+03 -0.50709117629E+03  0.13860056544E+03  0.65336540292E+03  0.00000000000E+00 0. -1.
</event>
<event>
 5    1  0.2540860E-005  0.2881700E+03  0.7818608E-02  0.1023067E+00
          4   -1    0    0  502    0 -0.00000000000E+00  0.00000000000E+00  0.40033445806E+03  0.40033445806E+03  0.00000000000E+00 0.  1.
         21   -1    0    0  501  502  0.00000000000E+00 -0.00000000000E+00 -0.13132540480E+04  0.13132540480E+04  0.00000000000E+00 0.  1.
        -13    1    1    2    0    0  0.37546368844E+03 -0.28389980126E+03 -0.11858041278E+03  0.48542085241E+03  0.10566000000E+00 0.  1.
         13    1    1    2    0    0 -0.17978385809E+03  0.98508490325E+02  0.14488117757E+03  0.25103132289E+03  0.10566000000E+00 0. -1.
          4    1    1    2  501    0 -0.19567983036E+03  0.18539131093E+03 -0.93922035471E+03  0.97713633075E+03  0.00000000000E+00 0.  1.
</event>
<event>
 5    1  0.2540860E-005  0.4697366E+03  0.7818608E-02  0.9606307E-01
         21   -1    0    0  501  502  0.00000000000E+00  0.00000000000E+00  0.28870127043E+03  0.28870127043E+03  0.00000000000E+00 0. -1.
          4   -1    0    0  502    0 -0.00000000000E+00 -0.00000000000E+00 -0.19169382137E+04  0.19169382137E+04  0.00000000000E+00 0.  1.
        -13    1    1    2    0    0 -0.38703190561E+03  0.54315093143E+02 -0.10193381730E+04  0.10916932479E+04  0.10566000000E+00 0.  1.
         13    1    1    2    0    0  0.44255775389E+02  0.37725315832E+03 -0.21438210370E+03  0.43616306202E+03  0.10566000000E+00 0. -1.
          4    1    1    2  501    0  0.34277613022E+03 -0.43156825146E+03 -0.39451666657E+03  0.67778317427E+03  0.00000000000E+00 0.  1.
</event>
<event>
 5    1  0.2540860E-005  0.1156426E+04  0.7818608E-02  0.8640117E-01
         -4   -1    0    0    0  501 -0.00000000000E+00  0.00000000000E+00  0.10177766827E+04  0.10177766827E+04  0.00000000000E+00 0. -1.
         21   -1    0    0  501  502  0.00000000000E+00 -0.00000000000E+00 -0.16595810792E+04  0.16595810792E+04  0.00000000000E+00 0.  1.
        -13    1    1    2    0    0 -0.88760091084E+03 -0.65758260122E+03 -0.15816933139E+03  0.11159156791E+04  0.10566000000E+00 0.  1.
         13    1    1    2    0    0  0.10747744895E+04  0.61632017126E+03 -0.55412960977E+03  0.13572215708E+04  0.10566000000E+00 0. -1.
         -4    1    1    2    0  502 -0.18717357864E+03  0.41262429959E+02  0.70494544710E+02  0.20422051195E+03  0.00000000000E+00 0. -1.
</event>
<event>
 5    1  0.2540860E-005  0.3607112E+02  0.7818608E-02  0.1361884E+00
         -4   -1    0    0    0  501 -0.00000000000E+00  0.00000000000E+00  0.20222942469E+02  0.20222942469E+02  0.00000000000E+00 0. -1.
         21   -1    0    0  501  502  0.00000000000E+00 -0.00000000000E+00 -0.53980778439E+03  0.53980778439E+03  0.00000000000E+00 0. -1.
        -13    1    1    2    0    0 -0.52191165650E+00  0.31417176508E+02 -0.63001431395E+02  0.70402435280E+02  0.10566000000E+00 0.  1.
         13    1    1    2    0    0 -0.78301019078E+01 -0.36965392515E+02 -0.52096585095E+01  0.38143183473E+02  0.10566000000E+00 0. -1.
         -4    1    1    2    0  502  0.83520135643E+01  0.55482160067E+01 -0.45137375201E+03  0.45148510810E+03  0.00000000000E+00 0. -1.
</event>
<event>
 5    1  0.2540860E-005  0.5758220E+03  0.7818608E-02  0.9325674E-01
          4   -1    0    0  502    0 -0.00000000000E+00  0.00000000000E+00  0.15494060981E+04  0.15494060981E+04  0.00000000000E+00 0.  1.
         21   -1    0    0  501  502  0.00000000000E+00 -0.00000000000E+00 -0.40380217758E+03  0.40380217758E+03  0.00000000000E+00 0. -1.
        -13    1    1    2    0    0 -0.74771261786E+03 -0.78606866795E+02  0.65204435071E+03  0.99519598315E+03  0.10566000000E+00 0.  1.
         13    1    1    2    0    0  0.46833509418E+03 -0.72122631612E+02  0.41759443855E+03  0.63160475039E+03  0.10566000000E+00 0. -1.
          4    1    1    2  501    0  0.27937752368E+03  0.15072949841E+03  0.75965131297E+02  0.32640754219E+03  0.00000000000E+00 0.  1.
</event>
<event>
 5    1  0.2540860E-005  0.1075448E+04  0.7818608E-02  0.8706762E-01
          4   -1    0    0  502    0 -0.00000000000E+00  0.00000000000E+00  0.38833808467E+04  0.38833808467E+04  0.00000000000E+00 0.  1.
         21   -1    0    0  501  502  0.00000000000E+00 -0.00000000000E+00 -0.47969184486E+03  0.47969184486E+03  0.00000000000E+00 0. -1.
        -13    1    1    2    0    0 -0.10293450776E+04 -0.17532531631E+03  0.13160438593E+04  0.16799588406E+04  0.10566000000E+00 0.  1.
         13    1    1    2    0    0  0.11115472412E+04 -0.14910317410E+03  0.20622439453E+04  0.23474707937E+04  0.10566000000E+00 0. -1.
          4    1    1    2  501    0 -0.82202163515E+02  0.32442849041E+03  0.25401197220E+02  0.33564305728E+03  0.00000000000E+00 0.  1.
</event>
<event>
 5    1  0.2540860E-005  0.2181855E+03  0.7818608E-02  0.1048337E+00
          4   -1    0    0  502    0 -0.00000000000E+00  0.00000000000E+00  0.61700312440E+02  0.61700312440E+02  0.00000000000E+00 0.  1.
         21   -1    0    0  501  502  0.00000000000E+00 -0.00000000000E+00 -0.10079205662E+04  0.10079205662E+04  0.00000000000E+00 0. -1.
        -13    1    1    2    0    0  0.17733961730E+03 -0.14344553428E+03 -0.48924281354E+03  0.53980042880E+03  0.10566000000E+00 0.  1.
         13    1    1    2    0    0 -0.13326523605E+03  0.16489610808E+03 -0.41173424129E+03  0.46311493845E+03  0.10566000000E+00 0. -1.
          4    1    1    2  501    0 -0.44074381246E+02 -0.21450573801E+02 -0.45243198887E+02  0.66705511348E+02  0.00000000000E+00 0.  1.
</event>
<event>
 5    1  0.2540860E-005  0.3425237E+03  0.7818608E-02  0.9976304E-01
         -4   -1    0    0    0  501 -0.00000000000E+00  0.00000000000E+00  0.12974941886E+04  0.12974941886E+04  0.00000000000E+00 0. -1.
         21   -1    0    0  501  502  0.00000000000E+00 -0.00000000000E+00 -0.33193573330E+03  0.33193573330E+03  0.00000000000E+00 0.  1.
        -13    1    1    2    0    0 -0.19582117296E+03 -0.19497952263E+03  0.17590454183E+03  0.32757497619E+03  0.10566000000E+00 0.  1.
         13    1    1    2    0    0  0.38859278096E+03 -0.94585625086E+02  0.85864332135E+03  0.94721652981E+03  0.10566000000E+00 0. -1.
         -4    1    1    2    0  502 -0.19277160800E+03  0.28956514771E+03 -0.68989407887E+02  0.35463841589E+03  0.00000000000E+00 0. -1.
</event>
<event>
 5    1  0.2540860E-005  0.4188626E+03  0.7818608E-02  0.9860738E-01
         21   -1    0    0  501  502  0.00000000000E+00  0.00000000000E+00  0.29032820964E+03  0.29032820964E+03  0.00000000000E+00 0. -1.
         -4   -1    0    0    0  501 -0.00000000000E+00 -0.00000000000E+00 -0.14544288446E+04  0.14544288446E+04  0.00000000000E+00 0. -1.
        -13    1    1    2    0    0 -0.15294993980E+03  0.16105825189E+03 -0.45161809421E+03  0.50328158993E+03  0.10566000000E+00 0.  1.
         13    1    1    2    0    0 -0.32145288852E+02 -0.45074956432E+03 -0.16716243761E+01  0.45189743839E+03  0.10566000000E+00 0. -1.
         -4    1    1    2    0  502  0.18509522865E+03  0.28969131243E+03 -0.71081091638E+03  0.78957802591E+03  0.00000000000E+00 0. -1.
</event>
<event>
 5    1  0.2540860E-005  0.3955045E+03  0.7818608E-02  0.9887782E-01
          4   -1    0    0  502    0 -0.00000000000E+00  0.00000000000E+00  0.19962576471E+04  0.19962576471E+04  0.00000000000E+00 0.  1.
         21   -1    0    0  501  502  0.00000000000E+00 -0.00000000000E+00 -0.20313768153E+03  0.20313768153E+03  0.00000000000E+00 0.  1.
        -13    1    1    2    0    0 -0.29718455075E+03  0.42457721418E+03  0.13103453909E+04  0.14091094786E+04  0.10566000000E+00 0.  1.
         13    1    1    2    0    0 -0.17992534186E+02 -0.24022459777E+03  0.98661180501E+02  0.26031832122E+03  0.10566000000E+00 0. -1.
          4    1    1    2  501    0  0.31517708493E+03 -0.18435261640E+03  0.38411339417E+03  0.52996752884E+03  0.00000000000E+00 0.  1.
</event>
<event>
 5    1  0.2540860E-005  0.1115261E+03  0.7818608E-02  0.1146777E+00
          4   -1    0    0  502    0 -0.00000000000E+00  0.00000000000E+00  0.38049309911E+03  0.38049309911E+03  0.00000000000E+00 0.  1.
         21   -1    0    0  501  502  0.00000000000E+00 -0.00000000000E+00 -0.78038445545E+02  0.78038445545E+02  0.00000000000E+00 0.  1.
        -13    1    1    2    0    0 -0.86093757426E+02 -0.68746411687E+02  0.77628273954E+02  0.13477523611E+03  0.10566000000E+00 0.  1.
         13    1    1    2    0    0  0.75527871849E+02  0.83364751710E+02  0.26051737366E+03  0.28376654911E+03  0.10566000000E+00 0. -1.
          4    1    1    2  501    0  0.10565885577E+02 -0.14618340023E+02 -0.35690994049E+02  0.39989759430E+02  0.00000000000E+00 0.  1.
</event>
<event>
 5    1  0.2540860E-005  0.4807359E+03  0.7818608E-02  0.9521225E-01
          4   -1    0    0  502    0 -0.00000000000E+00  0.00000000000E+00  0.94663228466E+03  0.94663228466E+03  0.00000000000E+00 0.  1.
         21   -1    0    0  501  502  0.00000000000E+00 -0.00000000000E+00 -0.58499862419E+03  0.58499862419E+03  0.00000000000E+00 0. -1.
        -13    1    1    2    0    0 -0.48341644115E+03 -0.32521002833E+03  0.44658353775E+03  0.73409119696E+03  0.10566000000E+00 0.  1.
         13    1    1    2    0    0  0.40883541866E+03 -0.20312807840E+02  0.63345913522E+02  0.41421217467E+03  0.10566000000E+00 0. -1.
          4    1    1    2  501    0  0.74581022483E+02  0.34552283617E+03 -0.14829579081E+03  0.38332753723E+03  0.00000000000E+00 0.  1.
</event>
<event>
 5    1  0.2540860E-005  0.1241973E+03  0.7818608E-02  0.1129766E+00
          4   -1    0    0  502    0 -0.00000000000E+00  0.00000000000E+00  0.11885144309E+04  0.11885144309E+04  0.00000000000E+00 0.  1.
         21   -1    0    0  501  502  0.00000000000E+00 -0.00000000000E+00 -0.49628129039E+02  0.49628129039E+02  0.00000000000E+00 0.  1.
        -13    1    1    2    0    0 -0.10800232004E+02  0.14334007027E+03  0.49537021544E+03  0.51580488779E+03  0.10566000000E+00 0.  1.
         13    1    1    2    0    0 -0.20767234460E+02 -0.11413573041E+03  0.66445505167E+03  0.67450631564E+03  0.10566000000E+00 0. -1.
          4    1    1    2  501    0  0.31567466465E+02 -0.29204339856E+02 -0.20938965212E+02  0.47831356552E+02  0.00000000000E+00 0.  1.
</event>
<event>
 5    1  0.2540860E-005  0.4719709E+03  0.7818608E-02  0.9547800E-01
         21   -1    0    0  501  502  0.00000000000E+00  0.00000000000E+00  0.22046204459E+04  0.22046204459E+04  0.00000000000E+00 0. -1.
         -4   -1    0    0    0  501 -0.00000000000E+00 -0.00000000000E+00 -0.31350779168E+03  0.31350779168E+03  0.00000000000E+00 0. -1.
        -13    1    1    2    0    0  0.25756822732E+03 -0.38303670668E+03  0.21876644630E+03  0.51080062606E+03  0.10566000000E+00 0.  1.
         13    1    1    2    0    0  0.31558055469E+03 -0.12915752634E+03  0.48418783950E+03  0.59220826420E+03  0.10566000000E+00 0. -1.
         -4    1    1    2    0  502 -0.57314878201E+03  0.51219423303E+03  0.11881583684E+04  0.14151193473E+04  0.00000000000E+00 0. -1.
</event>
<event>
 5    1  0.2540860E-005  0.2441917E+03  0.7818608E-02  0.1033447E+00
         -4   -1    0    0    0  501 -0.00000000000E+00  0.00000000000E+00  0.17339687585E+03  0.17339687585E+03  0.00000000000E+00 0. -1.
         21   -1    0    0  501  502  0.00000000000E+00 -0.00000000000E+00 -0.67486859312E+03  0.67486859312E+03  0.00000000000E+00 0. -1.
        -13    1    1    2    0    0  0.19174609367E+03  0.14076283018E+03 -0.11395962957E+03  0.26375660586E+03  0.10566000000E+00 0.  1.
         13    1    1    2    0    0 -0.21908640107E+03 -0.12140743994E+03 -0.63007702800E+02  0.25828007934E+03  0.10566000000E+00 0. -1.
         -4    1    1    2    0  502  0.27340307399E+02 -0.19355390234E+02 -0.32450438491E+03  0.32622878377E+03  0.00000000000E+00 0. -1.
</event>
<event>
 5    1  0.2540860E-005  0.2832631E+03  0.7818608E-02  0.1063461E+00
          4   -1    0    0  502    0 -0.00000000000E+00  0.00000000000E+00  0.66153515949E+03  0.66153515949E+03  0.00000000000E+00 0.  1.
         21   -1    0    0  501  502  0.00000000000E+00 -0.00000000000E+00 -0.42170181376E+03  0.42170181376E+03  0.00000000000E+00 0.  1.
        -13    1    1    2    0    0 -0.28251343310E+03  0.23524524688E+02 -0.30967102989E+03  0.41983735072E+03  0.10566000000E+00 0.  1.
         13    1    1    2    0    0 -0.21322015567E+01 -0.63872820837E+02  0.32166731074E+02  0.71547140245E+02  0.10566000000E+00 0. -1.
          4    1    1    2  501    0  0.28464563466E+03  0.40348296149E+02  0.51733764454E+03  0.59185248229E+03  0.00000000000E+00 0.  1.
</event>
<event>
 5    1  0.2540860E-005  0.3677172E+03  0.7818608E-02  0.9827211E-01
         21   -1    0    0  501  502  0.00000000000E+00  0.00000000000E+00  0.22089503540E+03  0.22089503540E+03  0.00000000000E+00 0.  1.
         -4   -1    0    0    0  501 -0.00000000000E+00 -0.00000000000E+00 -0.12732508516E+04  0.12732508516E+04  0.00000000000E+00 0. -1.
        -13    1    1    2    0    0 -0.32806543357E+03  0.37258788601E+02 -0.41805275341E+03  0.53271311400E+03  0.10566000000E+00 0.  1.
         13    1    1    2    0    0  0.36266102813E+03 -0.25685293601E+03 -0.58338734733E+03  0.73337388844E+03  0.10566000000E+00 0. -1.
         -4    1    1    2    0  502 -0.34595594553E+02  0.21959414741E+03 -0.50915715444E+02  0.22805888454E+03  0.00000000000E+00 0. -1.
</event>
<event>
 5    1  0.2540860E-005  0.1008486E+03  0.7818608E-02  0.1163159E+00
         21   -1    0    0  501  502  0.00000000000E+00  0.00000000000E+00  0.82447969420E+03  0.82447969420E+03  0.00000000000E+00 0.  1.
          4   -1    0    0  502    0 -0.00000000000E+00 -0.00000000000E+00 -0.26709278380E+02  0.26709278380E+02  0.00000000000E+00 0.  1.
        -13    1    1    2    0    0  0.85647948539E+02 -0.89555917162E+02  0.17338628324E+03  0.21311651219E+03  0.10566000000E+00 0.  1.
         13    1    1    2    0    0 -0.59208631357E+02  0.30271628296E+02  0.30754448172E+03  0.31465163739E+03  0.10566000000E+00 0. -1.
          4    1    1    2  501    0 -0.26439317182E+02  0.59284288866E+02  0.31683965085E+03  0.32342082300E+03  0.00000000000E+00 0.  1.
</event>
<event>
 5    1  0.2540860E-005  0.2317846E+03  0.7818608E-02  0.1113821E+00
         -4   -1    0    0    0  501 -0.00000000000E+00  0.00000000000E+00  0.61487370666E+03  0.61487370666E+03  0.00000000000E+00 0. -1.
         21   -1    0    0  501  502  0.00000000000E+00 -0.00000000000E+00 -0.20946404203E+03  0.20946404203E+03  0.00000000000E+00 0. -1.
        -13    1    1    2    0    0 -0.46298490689E+01 -0.28573804809E+02 -0.17994003830E+02  0.34083620135E+02  0.10566000000E+00 0.  1.
         13    1    1    2    0    0  0.21203378580E+03  0.12671593495E+03  0.49220447483E+03  0.55070909807E+03  0.10566000000E+00 0. -1.
         -4    1    1    2    0  502 -0.20740393673E+03 -0.98142130145E+02 -0.68800806367E+02  0.23954503050E+03  0.00000000000E+00 0. -1.
</event>
<event>
 5    1  0.2540860E-005  0.4837696E+03  0.7818608E-02  0.9553911E-01
         -4   -1    0    0    0  501 -0.00000000000E+00  0.00000000000E+00  0.25311188869E+04  0.25311188869E+04  0.00000000000E+00 0. -1.
         21   -1    0    0  501  502  0.00000000000E+00 -0.00000000000E+00 -0.22507594370E+03  0.22507594370E+03  0.00000000000E+00 0. -1.
        -13    1    1    2    0    0 -0.16456719514E+03  0.38567051165E+03  0.91173354810E+03  0.10035348420E+04  0.10566000000E+00 0.  1.
         13    1    1    2    0    0 -0.29543915009E+03  0.70876919606E+02  0.86199306178E+03  0.91396929864E+03  0.10566000000E+00 0. -1.
         -4    1    1    2    0  502  0.46000634523E+03 -0.45654743125E+03  0.53231633327E+03  0.83869068988E+03  0.00000000000E+00 0. -1.
</event>
<event>
 5    1  0.2540860E-005  0.1429624E+03  0.7818608E-02  0.1108267E+00
         -4   -1    0    0    0  501 -0.00000000000E+00  0.00000000000E+00  0.29830548523E+03  0.29830548523E+03  0.00000000000E+00 0. -1.
         21   -1    0    0  501  502  0.00000000000E+00 -0.00000000000E+00 -0.19848551149E+03  0.19848551149E+03  0.00000000000E+00 0. -1.
        -13    1    1    2    0    0  0.38849677119E+02 -0.12718816633E+03  0.15209909474E+03  0.20204027532E+03  0.10566000000E+00 0.  1.
         13    1    1    2    0    0 -0.11481440202E+03  0.14434398030E+03  0.23692975963E+02  0.18595402613E+03  0.10566000000E+00 0. -1.
         -4    1    1    2    0  502  0.75964724904E+02 -0.17155813970E+02 -0.75972096964E+02  0.10879669526E+03  0.00000000000E+00 0. -1.
</event>
<event>
 5    1  0.2540860E-005  0.1776723E+03  0.7818608E-02  0.1076624E+00
         21   -1    0    0  501  502  0.00000000000E+00  0.00000000000E+00  0.56979699594E+02  0.56979699594E+02  0.00000000000E+00 0. -1.
         -4   -1    0    0    0  501 -0.00000000000E+00 -0.00000000000E+00 -0.12236288914E+04  0.12236288914E+04  0.00000000000E+00 0. -1.
        -13    1    1    2    0    0  0.17246778368E+03  0.17927780765E+01 -0.89652718030E+03  0.91296733054E+03  0.10566000000E+00 0.  1.
         13    1    1    2    0    0 -0.19827224854E+03  0.16455443947E+02 -0.27080044851E+03  0.33602910626E+03  0.10566000000E+00 0. -1.
         -4    1    1    2    0  502  0.25804464858E+02 -0.18248222023E+02  0.67843704162E+00  0.31612154157E+02  0.00000000000E+00 0. -1.
</event>
<event>
 5    1  0.2540860E-005  0.2960400E+03  0.7818608E-02  0.1045784E+00
         -4   -1    0    0    0  501 -0.00000000000E+00  0.00000000000E+00  0.21792910295E+04  0.21792910295E+04  0.00000000000E+00 0. -1.
         21   -1    0    0  501  502  0.00000000000E+00 -0.00000000000E+00 -0.35224240488E+03  0.35224240488E+03  0.00000000000E+00 0. -1.
        -13    1    1    2    0    0 -0.17676213260E+03  0.54233958018E+03  0.91991643223E+03  0.10824155049E+04  0.10566000000E+00 0.  1.
         13    1    1    2    0    0 -0.11459893776E+03 -0.10609205583E+03  0.91121842664E+03  0.92450390646E+03  0.10566000000E+00 0. -1.
         -4    1    1    2    0  502  0.29136107035E+03 -0.43624752435E+03 -0.40862342912E+01  0.52461402300E+03  0.00000000000E+00 0. -1.
</event>
<event>
 5    1  0.2540860E-005  0.4190267E+02  0.7818608E-02  0.1328794E+00
          4   -1    0    0  502    0 -0.00000000000E+00  0.00000000000E+00  0.98558950412E+02  0.98558950412E+02  0.00000000000E+00 0.  1.
         21   -1    0    0  501  502  0.00000000000E+00 -0.00000000000E+00 -0.32554058140E+02  0.32554058140E+02  0.00000000000E+00 0. -1.
        -13    1    1    2    0    0  0.31197774834E+02  0.27902439137E+02  0.65626076740E+02  0.77837268559E+02  0.10566000000E+00 0.  1.
         13    1    1    2    0    0 -0.24324695783E+02 -0.35493718409E+02  0.23646658666E-01  0.43029136578E+02  0.10566000000E+00 0. -1.
          4    1    1    2  501    0 -0.68730790511E+01  0.75912792717E+01  0.35516887286E+00  0.10246603415E+02  0.00000000000E+00 0.  1.
</event>
<event>
 5    1  0.2540860E-005  0.4703143E+03  0.7818608E-02  0.9545523E-01
         -4   -1    0    0    0  501 -0.00000000000E+00  0.00000000000E+00  0.19078537318E+04  0.19078537318E+04  0.00000000000E+00 0. -1.
         21   -1    0    0  501  502  0.00000000000E+00 -0.00000000000E+00 -0.61738860853E+03  0.61738860853E+03  0.00000000000E+00 0. -1.
        -13    1    1    2    0    0  0.44737293954E+03 -0.11925611945E+03  0.13455000355E+04  0.14229318065E+04  0.10566000000E+00 0.  1.
         13    1    1    2    0    0 -0.39505963961E+03  0.40351259548E+03  0.30404672655E+03  0.64135712099E+03  0.10566000000E+00 0. -1.
         -4    1    1    2    0  502 -0.52313299924E+02 -0.28425647603E+03 -0.35908163881E+03  0.46095341288E+03  0.00000000000E+00 0. -1.
</event>
<event>
 5    1  0.2540860E-005  0.4771827E+03  0.7818608E-02  0.9771175E-01
         21   -1    0    0  501  502  0.00000000000E+00  0.00000000000E+00  0.53511326027E+03  0.53511326027E+03  0.00000000000E+00 0.  1.
          4   -1    0    0  502    0 -0.00000000000E+00 -0.00000000000E+00 -0.15300173738E+04  0.15300173738E+04  0.00000000000E+00 0.  1.
        -13    1    1    2    0    0 -0.48151862392E+03 -0.17988095050E+03  0.20127547369E+03  0.55202279754E+03  0.10566000000E+00 0.  1.
         13    1    1    2    0    0  0.47863766526E+02  0.19804767608E+03 -0.10274047662E+04  0.10474131882E+04  0.10566000000E+00 0. -1.
          4    1    1    2  501    0  0.43365485739E+03 -0.18166725582E+02 -0.16877482107E+03  0.46569464833E+03  0.00000000000E+00 0.  1.
</event>
<event>
 5    1  0.2540860E-005  0.4000659E+03  0.7818608E-02  0.9909949E-01
         21   -1    0    0  501  502  0.00000000000E+00  0.00000000000E+00  0.16209695787E+03  0.16209695787E+03  0.00000000000E+00 0.  1.
          4   -1    0    0  502    0 -0.00000000000E+00 -0.00000000000E+00 -0.25553172847E+04  0.25553172847E+04  0.00000000000E+00 0.  1.
        -13    1    1    2    0    0 -0.44319702387E+03 -0.90687036355E+01 -0.18279640380E+04  0.18809461393E+04  0.10566000000E+00 0.  1.
         13    1    1    2    0    0  0.97495518490E+02 -0.19286979253E+03 -0.19090889131E+03  0.28835802216E+03  0.10566000000E+00 0. -1.
          4    1    1    2  501    0  0.34570150538E+03  0.20193849616E+03 -0.37434739751E+03  0.54811008116E+03  0.00000000000E+00 0.  1.
</event>
<event>
 5    1  0.2540860E-005  0.1419257E+03  0.7818608E-02  0.1109359E+00
          4   -1    0    0  502    0 -0.00000000000E+00  0.00000000000E+00  0.11258544796E+03  0.11258544796E+03  0.00000000000E+00 0.  1.
         21   -1    0    0  501  502  0.00000000000E+00 -0.00000000000E+00 -0.35361252777E+03  0.35361252777E+03  0.00000000000E+00 0. -1.
        -13    1    1    2    0    0  0.14830316464E+03 -0.71884619923E+02 -0.12820465148E+02  0.16530457560E+03  0.10566000000E+00 0.  1.
         13    1    1    2    0    0 -0.95496563051E+02  0.96225506583E+01 -0.18525910834E+03  0.20864595712E+03  0.10566000000E+00 0. -1.
          4    1    1    2  501    0 -0.52806601593E+02  0.62262069265E+02 -0.42947506331E+02  0.92247443005E+02  0.00000000000E+00 0.  1.
</event>
<event>
 5    1  0.2540860E-005  0.2299274E+03  0.7818608E-02  0.1041354E+00
         -4   -1    0    0    0  501 -0.00000000000E+00  0.00000000000E+00  0.17816385855E+04  0.17816385855E+04  0.00000000000E+00 0. -1.
         21   -1    0    0  501  502  0.00000000000E+00 -0.00000000000E+00 -0.36172988834E+02  0.36172988834E+02  0.00000000000E+00 0.  1.
        -13    1    1    2    0    0 -0.62517239375E+02 -0.21786185704E+03  0.10447300425E+04  0.10690337071E+04  0.10566000000E+00 0.  1.
         13    1    1    2    0    0  0.83228363682E+02  0.22058522097E+03  0.67838136538E+03  0.71818248955E+03  0.10566000000E+00 0. -1.
         -4    1    1    2    0  502 -0.20711124307E+02 -0.27233639287E+01  0.22354188729E+02  0.30595377672E+02  0.00000000000E+00 0. -1.
</event>
<event>
 5    1  0.2540860E-005  0.8918302E+02  0.7818608E-02  0.1245186E+00
          4   -1    0    0  502    0 -0.00000000000E+00  0.00000000000E+00  0.55346039051E+02  0.55346039051E+02  0.00000000000E+00 0.  1.
         21   -1    0    0  501  502  0.00000000000E+00 -0.00000000000E+00 -0.19916520926E+03  0.19916520926E+03  0.00000000000E+00 0.  1.
        -13    1    1    2    0    0 -0.29219338051E+02 -0.88941062458E+02 -0.40488173939E+02  0.10199796910E+03  0.10566000000E+00 0.  1.
         13    1    1    2    0    0  0.22725829093E+02  0.15462254290E+01 -0.11284825169E+02  0.25420711323E+02  0.10566000000E+00 0. -1.
          4    1    1    2  501    0  0.64935089579E+01  0.87394837029E+02 -0.92046171097E+02  0.12709256788E+03  0.00000000000E+00 0.  1.
</event>
<event>
 5    1  0.2540860E-005  0.4342668E+03  0.7818608E-02  0.9714339E-01
         -4   -1    0    0    0  501 -0.00000000000E+00  0.00000000000E+00  0.94464931676E+03  0.94464931676E+03  0.00000000000E+00 0. -1.
         21   -1    0    0  501  502  0.00000000000E+00 -0.00000000000E+00 -0.44126590773E+03  0.44126590773E+03  0.00000000000E+00 0. -1.
        -13    1    1    2    0    0 -0.31779094291E+03 -0.84920606860E+02  0.13965242911E+03  0.35735893019E+03  0.10566000000E+00 0.  1.
         13    1    1    2    0    0  0.10051848292E+02 -0.39078943715E+03  0.99406985087E+02  0.40335986871E+03  0.10566000000E+00 0. -1.
         -4    1    1    2    0  502  0.30773909462E+03  0.47571004401E+03  0.26432399484E+03  0.62519642559E+03  0.00000000000E+00 0. -1.
</event>
<event>
 5    1  0.2540860E-005  0.5043729E+03  0.7818608E-02  0.9512507E-01
          4   -1    0    0  502    0 -0.00000000000E+00  0.00000000000E+00  0.10269094792E+04  0.10269094792E+04  0.00000000000E+00 0.  1.
         21   -1    0    0  501  502  0.00000000000E+00 -0.00000000000E+00 -0.59909501555E+03  0.59909501555E+03  0.00000000000E+00 0.  1.
        -13    1    1    2    0    0  0.58152049314E+03 -0.11855989905E+03  0.50053121803E+02  0.59559034560E+03  0.10566000000E+00 0.  1.
         13    1    1    2    0    0 -0.30566783343E+03 -0.30188542589E+03  0.29411219077E+03  0.52064347367E+03  0.10566000000E+00 0. -1.
          4    1    1    2  501    0 -0.27585265972E+03  0.42044532493E+03  0.83649151114E+02  0.50977067551E+03  0.00000000000E+00 0.  1.
</event>
<event>
 5    1  0.2540860E-005  0.4971072E+03  0.7818608E-02  0.9579529E-01
          4   -1    0    0  502    0 -0.00000000000E+00  0.00000000000E+00  0.10158033436E+04  0.10158033436E+04  0.00000000000E+00 0.  1.
         21   -1    0    0  501  502  0.00000000000E+00 -0.00000000000E+00 -0.49861899553E+03  0.49861899553E+03  0.00000000000E+00 0.  1.
        -13    1    1    2    0    0 -0.27026917808E+03  0.25947397555E+03  0.25974175759E+03  0.45589249216E+03  0.10566000000E+00 0.  1.
         13    1    1    2    0    0 -0.69745991769E+01  0.35250157336E+03  0.54921251195E+02  0.35682258793E+03  0.10566000000E+00 0. -1.
          4    1    1    2  501    0  0.27724377726E+03 -0.61197554891E+03  0.20252133926E+03  0.70170725901E+03  0.00000000000E+00 0.  1.
</event>
<event>
 5    1  0.2540860E-005  0.5174009E+03  0.7818608E-02  0.1002279E+00
         -4   -1    0    0    0  501 -0.00000000000E+00  0.00000000000E+00  0.87043444839E+03  0.87043444839E+03  0.00000000000E+00 0. -1.
         21   -1    0    0  501  502  0.00000000000E+00 -0.00000000000E+00 -0.37692462723E+03  0.37692462723E+03  0.00000000000E+00 0. -1.
        -13    1    1    2    0    0  0.68841680620E+02 -0.21106866939E+00  0.67334848961E+02  0.96297531584E+02  0.10566000000E+00 0.  1.
         13    1    1    2    0    0  0.56826746690E+01 -0.51634851364E+03  0.74500247525E+02  0.52172634434E+03  0.10566000000E+00 0. -1.
         -4    1    1    2    0  502 -0.74524355289E+02  0.51655958231E+03  0.35167472467E+03  0.62933519970E+03  0.00000000000E+00 0. -1.
</event>
<event>
 5    1  0.2540860E-005  0.6361566E+02  0.7818608E-02  0.1244545E+00
         -4   -1    0    0    0  501 -0.00000000000E+00  0.00000000000E+00  0.37393048304E+03  0.37393048304E+03  0.00000000000E+00 0. -1.
         21   -1    0    0  501  502  0.00000000000E+00 -0.00000000000E+00 -0.13977599595E+02  0.13977599595E+02  0.00000000000E+00 0.  1.
        -13    1    1    2    0    0  0.38698611085E+02 -0.57156611867E+02  0.18379058145E+03  0.19632485776E+03  0.10566000000E+00 0.  1.
         13    1    1    2    0    0 -0.29117237749E+02  0.51664051243E+02  0.16705239920E+03  0.17726675652E+03  0.10566000000E+00 0. -1.
         -4    1    1    2    0  502 -0.95813733362E+01  0.54925606235E+01  0.91099027930E+01  0.14316468353E+02  0.00000000000E+00 0. -1.
</event>
<event>
 5    1  0.2540860E-005  0.2533833E+03  0.7818608E-02  0.1048938E+00
         -4   -1    0    0    0  501 -0.00000000000E+00  0.00000000000E+00  0.12114541273E+04  0.12114541273E+04  0.00000000000E+00 0. -1.
         21   -1    0    0  501  502  0.00000000000E+00 -0.00000000000E+00 -0.12288997302E+03  0.12288997302E+03  0.00000000000E+00 0. -1.
        -13    1    1    2    0    0  0.11059109832E+03 -0.80574415801E+02  0.59616472893E+03  0.61166577695E+03  0.10566000000E+00 0.  1.
         13    1    1    2    0    0 -0.27246192682E+03 -0.96206516700E+02  0.28170499636E+03  0.40354542688E+03  0.10566000000E+00 0. -1.
         -4    1    1    2    0  502  0.16187082849E+03  0.17678093250E+03  0.21069442898E+03  0.31913289648E+03  0.00000000000E+00 0. -1.
</event>
<event>
 5    1  0.2540860E-005  0.4411574E+03  0.7818608E-02  0.1013203E+00
         21   -1    0    0  501  502  0.00000000000E+00  0.00000000000E+00  0.20638553981E+03  0.20638553981E+03  0.00000000000E+00 0.  1.
          4   -1    0    0  502    0 -0.00000000000E+00 -0.00000000000E+00 -0.14154452837E+04  0.14154452837E+04  0.00000000000E+00 0.  1.
        -13    1    1    2    0    0  0.48279401071E+03 -0.76335264724E+02 -0.78882710463E+03  0.92798994692E+03  0.10566000000E+00 0.  1.
         13    1    1    2    0    0 -0.61104906952E+02  0.48577504151E+02 -0.20547153006E+03  0.21980023747E+03  0.10566000000E+00 0. -1.
          4    1    1    2  501    0 -0.42168910376E+03  0.27757760573E+02 -0.21476110918E+03  0.47404063910E+03  0.00000000000E+00 0.  1.
</event>
<event>
 5    1  0.2540860E-005  0.4140839E+03  0.7818608E-02  0.9992959E-01
         21   -1    0    0  501  502  0.00000000000E+00  0.00000000000E+00  0.15154509877E+03  0.15154509877E+03  0.00000000000E+00 0. -1.
         -4   -1    0    0    0  501 -0.00000000000E+00 -0.00000000000E+00 -0.21971310987E+04  0.21971310987E+04  0.00000000000E+00 0. -1.
        -13    1    1    2    0    0 -0.35617402602E+02 -0.14372252132E+03 -0.27747537956E+03  0.31451130334E+03  0.10566000000E+00 0.  1.
         13    1    1    2    0    0 -0.40582603655E+03  0.48225306802E+02 -0.32538408094E+03  0.52239378198E+03  0.10566000000E+00 0. -1.
         -4    1    1    2    0  502  0.44144343915E+03  0.95497214515E+02 -0.14427265394E+04  0.15117711121E+04  0.00000000000E+00 0. -1.
</event>
<event>
 5    1  0.2540860E-005  0.2940159E+03  0.7818608E-02  0.1009807E+00
         -4   -1    0    0    0  501 -0.00000000000E+00  0.00000000000E+00  0.11473016519E+04  0.11473016519E+04  0.00000000000E+00 0. -1.
         21   -1    0    0  501  502  0.00000000000E+00 -0.00000000000E+00 -0.54027006993E+03  0.54027006993E+03  0.00000000000E+00 0. -1.
        -13    1    1    2    0    0 -0.55742537998E+02 -0.32817887708E+03  0.53758834326E+03  0.63230518255E+03  0.10566000000E+00 0.  1.
         13    1    1    2    0    0 -0.17900122606E+03  0.24775820799E+03  0.48381590876E+03  0.57227913931E+03  0.10566000000E+00 0. -1.
         -4    1    1    2    0  502  0.23474376406E+03  0.80420669085E+02 -0.41437267009E+03  0.48298739994E+03  0.00000000000E+00 0. -1.
</event>
<event>
 5    1  0.2540860E-005  0.5274055E+03  0.7818608E-02  0.9419846E-01
          4   -1    0    0  502    0 -0.00000000000E+00  0.00000000000E+00  0.26842462524E+03  0.26842462524E+03  0.00000000000E+00 0.  1.
         21   -1    0    0  501  502  0.00000000000E+00 -0.00000000000E+00 -0.13020485025E+04  0.13020485025E+04  0.00000000000E+00 0. -1.
        -13    1    1    2    0    0 -0.44663638323E+03  0.29795387336E+03 -0.19996166642E+03  0.57292691391E+03  0.10566000000E+00 0.  1.
         13    1    1    2    0    0  0.43158576045E+03 -0.26434225115E+03 -0.80500829310E+03  0.95088456580E+03  0.10566000000E+00 0. -1.
          4    1    1    2  501    0  0.15050622783E+02 -0.33611622217E+02 -0.28653917747E+02  0.46661648025E+02  0.00000000000E+00 0.  1.
</event>
<event>
 5    1  0.2540860E-005  0.4997769E+03  0.7818608E-02  0.9586608E-01
         21   -1    0    0  501  502  0.00000000000E+00  0.00000000000E+00  0.31076784467E+03  0.31076784467E+03  0.00000000000E+00 0.  1.
          4   -1    0    0  502    0 -0.00000000000E+00 -0.00000000000E+00 -0.16833925269E+04  0.16833925269E+04  0.00000000000E+00 0.  1.
        -13    1    1    2    0    0 -0.21418726659E+02  0.34959758663E+03 -0.62432598292E+03  0.71586324011E+03  0.10566000000E+00 0.  1.
         13    1    1    2    0    0  0.10889324877E+03  0.32028776971E+03 -0.12973248652E+03  0.36231550377E+03  0.10566000000E+00 0. -1.
          4    1    1    2  501    0 -0.87474522113E+02 -0.66988535634E+03 -0.61856621280E+03  0.91598162769E+03  0.00000000000E+00 0.  1.
</event>
<event>
 5    1  0.2540860E-005  0.4697956E+03  0.7818608E-02  0.9546750E-01
         -4   -1    0    0    0  501 -0.00000000000E+00  0.00000000000E+00  0.29402748913E+04  0.29402748913E+04  0.00000000000E+00 0. -1.
         21   -1    0    0  501  502  0.00000000000E+00 -0.00000000000E+00 -0.22253789940E+03  0.22253789940E+03  0.00000000000E+00 0.  1.
        -13    1    1    2    0    0  0.12796303620E+03 -0.46513747591E+03  0.56342446887E+03  0.74173752326E+03  0.10566000000E+00 0.  1.
         13    1    1    2    0    0 -0.39594306622E+03  0.31832362815E+03  0.41746606804E+03  0.65755514830E+03  0.10566000000E+00 0. -1.
         -4    1    1    2    0  502  0.26798003002E+03  0.14681384776E+03  0.17368464550E+04  0.17635201192E+04  0.00000000000E+00 0. -1.
</event>
<event>
 5    1  0.2540860E-005  0.4587964E+03  0.7818608E-02  0.9575492E-01
          4   -1    0    0  502    0 -0.00000000000E+00  0.00000000000E+00  0.29880913073E+04  0.29880913073E+04  0.00000000000E+00 0.  1.
         21   -1    0    0  501  502  0.00000000000E+00 -0.00000000000E+00 -0.23614661959E+03  0.23614661959E+03  0.00000000000E+00 0.  1.
        -13    1    1    2    0    0 -0.32976265717E+03  0.33695379870E+03  0.10356303322E+04  0.11378978288E+04  0.10566000000E+00 0.  1.
         13    1    1    2    0    0  0.42893631612E+03  0.16813026526E+03  0.14189965216E+04  0.14919132981E+04  0.10566000000E+00 0. -1.
          4    1    1    2  501    0 -0.99173658948E+02 -0.50508406396E+03  0.29731783384E+03  0.59442680004E+03  0.00000000000E+00 0.  1.
</event>
<event>
 5    1  0.2540860E-005  0.4777761E+03  0.7818608E-02  0.9986229E-01
         -4   -1    0    0    0  501 -0.00000000000E+00  0.00000000000E+00  0.19570816354E+04  0.19570816354E+04  0.00000000000E+00 0. -1.
         21   -1    0    0  501  502  0.00000000000E+00 -0.00000000000E+00 -0.16247062634E+03  0.16247062634E+03  0.00000000000E+00 0.  1.
        -13    1    1    2    0    0 -0.10167720783E+02 -0.98024436319E+02  0.34938345618E+03  0.36301650552E+03  0.10566000000E+00 0.  1.
         13    1    1    2    0    0 -0.16811468587E+03 -0.41021904469E+03  0.49683453708E+03  0.66587294632E+03  0.10566000000E+00 0. -1.
         -4    1    1    2    0  502  0.17828240666E+03  0.50824348101E+03  0.94839301580E+03  0.10906628099E+04  0.00000000000E+00 0. -1.
</event>
<event>
 5    1  0.2540860E-005  0.4008420E+03  0.7818608E-02  0.9880135E-01
         -4   -1    0    0    0  501 -0.00000000000E+00  0.00000000000E+00  0.67746656702E+03  0.67746656702E+03  0.00000000000E+00 0. -1.
         21   -1    0    0  501  502  0.00000000000E+00 -0.00000000000E+00 -0.75208975403E+03  0.75208975403E+03  0.00000000000E+00 0.  1.
        -13    1    1    2    0    0 -0.28997108197E+02 -0.23564074885E+03  0.27111348874E+03  0.36037470741E+03  0.10566000000E+00 0.  1.
         13    1    1    2    0    0  0.33380529654E+03  0.43907144545E+03  0.19361454488E+02  0.55189182571E+03  0.10566000000E+00 0. -1.
         -4    1    1    2    0  502 -0.30480818834E+03 -0.20343069660E+03 -0.36509813023E+03  0.51728978793E+03  0.00000000000E+00 0. -1.
</event>
<event>
 5    1  0.2540860E-005  0.5856266E+02  0.7818608E-02  0.1260383E+00
         -4   -1    0    0    0  501 -0.00000000000E+00  0.00000000000E+00  0.47978915259E+02  0.47978915259E+02  0.00000000000E+00 0. -1.
         21   -1    0    0  501  502  0.00000000000E+00 -0.00000000000E+00 -0.50952415144E+03  0.50952415144E+03  0.00000000000E+00 0.  1.
        -13    1    1    2    0    0  0.51635287224E+02  0.55762193935E+02 -0.32017325896E+03  0.32906922079E+03  0.10566000000E+00 0.  1.
         13    1    1    2    0    0 -0.53257500839E+02 -0.22638505731E+02  0.21864855504E+02  0.61862318156E+02  0.10566000000E+00 0. -1.
         -4    1    1    2    0  502  0.16222136159E+01 -0.33123688204E+02 -0.16323683272E+03  0.16657152774E+03  0.00000000000E+00 0. -1.
</event>
<event>
 5    1  0.2540860E-005  0.3537947E+03  0.7818608E-02  0.9872893E-01
          4   -1    0    0  502    0 -0.00000000000E+00  0.00000000000E+00  0.12647671962E+04  0.12647671962E+04  0.00000000000E+00 0.  1.
         21   -1    0    0  501  502  0.00000000000E+00 -0.00000000000E+00 -0.13070926555E+03  0.13070926555E+03  0.00000000000E+00 0. -1.
        -13    1    1    2    0    0  0.81292659815E+02 -0.34074977393E+03  0.85146041918E+03  0.92070829342E+03  0.10566000000E+00 0.  1.
         13    1    1    2    0    0 -0.88772732210E+02  0.35164532202E+03  0.28509536731E+03  0.46131812246E+03  0.10566000000E+00 0. -1.
          4    1    1    2  501    0  0.74800723945E+01 -0.10895548085E+02 -0.24978558195E+01  0.13450045903E+02  0.00000000000E+00 0.  1.
</event>
<event>
 5    1  0.2540860E-005  0.1272530E+03  0.7818608E-02  0.1125994E+00
          4   -1    0    0  502    0 -0.00000000000E+00  0.00000000000E+00  0.69471307118E+03  0.69471307118E+03  0.00000000000E+00 0.  1.
         21   -1    0    0  501  502  0.00000000000E+00 -0.00000000000E+00 -0.92431743320E+02  0.92431743320E+02  0.00000000000E+00 0.  1.
        -13    1    1    2    0    0 -0.18853187299E+02  0.12678243980E+03  0.55797695522E+03  0.57250984571E+03  0.10566000000E+00 0.  1.
         13    1    1    2    0    0  0.18844125714E+01 -0.12428975268E+03  0.97985663843E+02  0.15828043188E+03  0.10566000000E+00 0. -1.
          4    1    1    2  501    0  0.16968774727E+02 -0.24926871184E+01 -0.53681291207E+02  0.56354536911E+02  0.00000000000E+00 0.  1.
</event>
<event>
 5    1  0.2540860E-005  0.6784291E+02  0.7818608E-02  0.1232504E+00
          4   -1    0    0  502    0 -0.00000000000E+00  0.00000000000E+00  0.41035759413E+03  0.41035759413E+03  0.00000000000E+00 0.  1.
         21   -1    0    0  501  502  0.00000000000E+00 -0.00000000000E+00 -0.59191374217E+02  0.59191374217E+02  0.00000000000E+00 0.  1.
        -13    1    1    2    0    0 -0.94729001953E+02 -0.27969747613E+02  0.84462896272E+02  0.12996108111E+03  0.10566000000E+00 0.  1.
         13    1    1    2    0    0  0.61380592570E+02 -0.22010661470E+02  0.27158668158E+03  0.27930517922E+03  0.10566000000E+00 0. -1.
          4    1    1    2  501    0  0.33348409383E+02  0.49980409083E+02 -0.48833579463E+01  0.60282708012E+02  0.00000000000E+00 0.  1.
</event>
<event>
 5    1  0.2540860E-005  0.3197738E+03  0.7818608E-02  0.9994615E-01
         21   -1    0    0  501  502  0.00000000000E+00  0.00000000000E+00  0.83626922028E+03  0.83626922028E+03  0.00000000000E+00 0. -1.
         -4   -1    0    0    0  501 -0.00000000000E+00 -0.00000000000E+00 -0.54506753634E+03  0.54506753634E+03  0.00000000000E+00 0. -1.
        -13    1    1    2    0    0 -0.26054750888E+03  0.11619965960E+03 -0.61341818846E+02  0.29180506366E+03  0.10566000000E+00 0.  1.
         13    1    1    2    0    0  0.46299516209E+03 -0.23794152822E+03  0.56753469512E+03  0.77011449298E+03  0.10566000000E+00 0. -1.
         -4    1    1    2    0  502 -0.20244765320E+03  0.12174186862E+03 -0.21499119233E+03  0.31941719998E+03  0.00000000000E+00 0. -1.
</event>
<event>
 5    1  0.2540860E-005  0.4937968E+03  0.7818608E-02  0.9729787E-01
         -4   -1    0    0    0  501 -0.00000000000E+00  0.00000000000E+00  0.88522421121E+03  0.88522421121E+03  0.00000000000E+00 0. -1.
         21   -1    0    0  501  502  0.00000000000E+00 -0.00000000000E+00 -0.79247928156E+03  0.79247928156E+03  0.00000000000E+00 0. -1.
        -13    1    1    2    0    0 -0.33436754422E+02  0.20941834666E+03  0.53224510277E+03  0.57293884582E+03  0.10566000000E+00 0.  1.
         13    1    1    2    0    0 -0.44425996266E+03  0.84802951983E+02 -0.18365337603E+03  0.48814652389E+03  0.10566000000E+00 0. -1.
         -4    1    1    2    0  502  0.47769671709E+03 -0.29422129864E+03 -0.25584679710E+03  0.61661812305E+03  0.00000000000E+00 0. -1.
</event>
<event>
 5    1  0.2540860E-005  0.2413872E+03  0.7818608E-02  0.1034955E+00
         21   -1    0    0  501  502  0.00000000000E+00  0.00000000000E+00  0.58515159028E+03  0.58515159028E+03  0.00000000000E+00 0.  1.
         -4   -1    0    0    0  501 -0.00000000000E+00 -0.00000000000E+00 -0.21602200988E+03  0.21602200988E+03  0.00000000000E+00 0. -1.
        -13    1    1    2    0    0 -0.11821287722E+02 -0.24912356317E+03 -0.17455668423E+02  0.25001400779E+03  0.10566000000E+00 0.  1.
         13    1    1    2    0    0  0.40559008910E+02  0.22761957503E+03  0.83292788007E+02  0.24575069448E+03  0.10566000000E+00 0. -1.
         -4    1    1    2    0  502 -0.28737721189E+02  0.21503988141E+02  0.30329246081E+03  0.30540889789E+03  0.00000000000E+00 0. -1.
</event>
<event>
 5    1  0.2540860E-005  0.4930940E+03  0.7818608E-02  0.9710397E-01
         -4   -1    0    0    0  501 -0.00000000000E+00  0.00000000000E+00  0.22671639421E+04  0.22671639421E+04  0.00000000000E+00 0. -1.
         21   -1    0    0  501  502  0.00000000000E+00 -0.00000000000E+00 -0.19689764710E+03  0.19689764710E+03  0.00000000000E+00 0.  1.
        -13    1    1    2    0    0  0.17644997491E+02 -0.22711181209E+03  0.10194999875E+03  0.24956949841E+03  0.10566000000E+00 0.  1.
         13    1    1    2    0    0 -0.23376752325E+03 -0.33322744697E+03  0.92634021828E+03  0.10118270591E+04  0.10566000000E+00 0. -1.
         -4    1    1    2    0  502  0.21612252576E+03  0.56033925906E+03  0.10419760780E+04  0.12026650317E+04  0.00000000000E+00 0. -1.
</event>
<event>
 5    1  0.2540860E-005  0.4734111E+03  0.7818608E-02  0.9539473E-01
         21   -1    0    0  501  502  0.00000000000E+00  0.00000000000E+00  0.84447833994E+03  0.84447833994E+03  0.00000000000E+00 0. -1.
         -4   -1    0    0    0  501 -0.00000000000E+00 -0.00000000000E+00 -0.84220452518E+03  0.84220452518E+03  0.00000000000E+00 0. -1.
        -13    1    1    2    0    0 -0.32832480857E+03 -0.34252507534E+03 -0.26891990228E+03  0.54537925535E+03  0.10566000000E+00 0.  1.
         13    1    1    2    0    0  0.58615599715E+03 -0.68680820856E+02  0.10258512836E+02  0.59025516211E+03  0.10566000000E+00 0. -1.
         -4    1    1    2    0  502 -0.25783118858E+03  0.41120589620E+03  0.26093520421E+03  0.55104844766E+03  0.00000000000E+00 0. -1.
</event>
<event>
 5    1  0.2540860E-005  0.3428030E+03  0.7818608E-02  0.1005762E+00
         -4   -1    0    0    0  501 -0.00000000000E+00  0.00000000000E+00  0.24315010195E+04  0.24315010195E+04  0.00000000000E+00 0. -1.
         21   -1    0    0  501  502  0.00000000000E+00 -0.00000000000E+00 -0.16161050038E+03  0.16161050038E+03  0.00000000000E+00 0. -1.
        -13    1    1    2    0    0  0.14193051949E+03 -0.15663075855E+03  0.13277669210E+03  0.24961395797E+03  0.10566000000E+00 0.  1.
         13    1    1    2    0    0 -0.45656527320E+03  0.19369865716E+03  0.18520865797E+04  0.19173407961E+04  0.10566000000E+00 0. -1.
         -4    1    1    2    0  502  0.31463475370E+03 -0.37067898618E+02  0.28502724732E+03  0.42615676583E+03  0.00000000000E+00 0. -1.
</event>
<event>
 5    1  0.2540860E-005  0.4942898E+03  0.7818608E-02  0.9987846E-01
         21   -1    0    0  501  502  0.00000000000E+00  0.00000000000E+00  0.23264590509E+03  0.23264590509E+03  0.00000000000E+00 0.  1.
          4   -1    0    0  502    0 -0.00000000000E+00 -0.00000000000E+00 -0.14819313865E+04  0.14819313865E+04  0.00000000000E+00 0.  1.
        -13    1    1    2    0    0 -0.47958636341E+03  0.90454164555E+02 -0.49141175521E+03  0.69258252951E+03  0.10566000000E+00 0.  1.
         13    1    1    2    0    0 -0.23443179431E+02 -0.85367081110E+02 -0.38702317015E+03  0.39701897511E+03  0.10566000000E+00 0. -1.
          4    1    1    2  501    0  0.50302954284E+03 -0.50870834455E+01 -0.37085055606E+03  0.62497578699E+03  0.00000000000E+00 0.  1.
</event>
<event>
 5    1  0.2540860E-005  0.2808484E+03  0.7818608E-02  0.1050332E+00
          4   -1    0    0  502    0 -0.00000000000E+00  0.00000000000E+00  0.12211357554E+04  0.12211357554E+04  0.00000000000E+00 0.  1.
         21   -1    0    0  501  502  0.00000000000E+00 -0.00000000000E+00 -0.31294018580E+03  0.31294018580E+03  0.00000000000E+00 0.  1.
        -13    1    1    2    0    0  0.22458920385E+03 -0.15527466365E+03 -0.19274196560E+03  0.33421551149E+03  0.10566000000E+00 0.  1.
         13    1    1    2    0    0  0.66988214186E+02 -0.69324819516E+02  0.35801369658E+03  0.37076565313E+03  0.10566000000E+00 0. -1.
          4    1    1    2  501    0 -0.29157741803E+03  0.22459948317E+03  0.74292383864E+03  0.82909477659E+03  0.00000000000E+00 0.  1.
</event>
<event>
 5    1  0.2540860E-005  0.2400712E+02  0.7818608E-02  0.1460712E+00
          4   -1    0    0  502    0 -0.00000000000E+00  0.00000000000E+00  0.85068850423E+01  0.85068850423E+01  0.00000000000E+00 0.  1.
         21   -1    0    0  501  502  0.00000000000E+00 -0.00000000000E+00 -0.39572062995E+03  0.39572062995E+03  0.00000000000E+00 0.  1.
        -13    1    1    2    0    0  0.20206887859E+02  0.11982996594E+02 -0.13289831470E+02  0.26991504382E+02  0.10566000000E+00 0.  1.
         13    1    1    2    0    0 -0.18428873997E+02 -0.22257137650E+02 -0.13375374446E+03  0.13683961011E+03  0.10566000000E+00 0. -1.
          4    1    1    2  501    0 -0.17780138615E+01  0.10274141056E+02 -0.24017016898E+03  0.24039640050E+03  0.00000000000E+00 0.  1.
</event>
<event>
 5    1  0.2540860E-005  0.5033232E+03  0.7818608E-02  0.9470718E-01
         21   -1    0    0  501  502  0.00000000000E+00  0.00000000000E+00  0.22735272543E+03  0.22735272543E+03  0.00000000000E+00 0. -1.
         -4   -1    0    0    0  501 -0.00000000000E+00 -0.00000000000E+00 -0.29574060648E+04  0.29574060648E+04  0.00000000000E+00 0. -1.
        -13    1    1    2    0    0 -0.28407422677E+03 -0.41995587104E+03 -0.91854191088E+03  0.10491808010E+04  0.10566000000E+00 0.  1.
         13    1    1    2    0    0 -0.17084877291E+03  0.58263620375E+03 -0.12836017111E+04  0.14199604266E+04  0.10566000000E+00 0. -1.
         -4    1    1    2    0  502  0.45492299968E+03 -0.16268033271E+03 -0.52790971738E+03  0.71561756267E+03  0.00000000000E+00 0. -1.
</event>
<event>
 5    1  0.2540860E-005  0.3310463E+03  0.7818608E-02  0.1028179E+00
         -4   -1    0    0    0  501 -0.00000000000E+00  0.00000000000E+00  0.20825892446E+04  0.20825892446E+04  0.00000000000E+00 0. -1.
         21   -1    0    0  501  502  0.00000000000E+00 -0.00000000000E+00 -0.16712212400E+03  0.16712212400E+03  0.00000000000E+00 0. -1.
        -13    1    1    2    0    0  0.64463567006E+02  0.95599854395E+02  0.50956725310E+03  0.52244969158E+03  0.10566000000E+00 0.  1.
         13    1    1    2    0    0 -0.19073367336E+03 -0.38606485539E+03  0.13349583986E+04  0.14026900384E+04  0.10566000000E+00 0. -1.
         -4    1    1    2    0  502  0.12627010635E+03  0.29046500100E+03  0.70941468866E+02  0.32457163858E+03  0.00000000000E+00 0. -1.
</event>
<event>
 5    1  0.2540860E-005  0.6643932E+03  0.7818608E-02  0.9176295E-01
         21   -1    0    0  501  502  0.00000000000E+00  0.00000000000E+00  0.10109058890E+04  0.10109058890E+04  0.00000000000E+00 0. -1.
         -4   -1    0    0    0  501 -0.00000000000E+00 -0.00000000000E+00 -0.71591791875E+03  0.71591791875E+03  0.00000000000E+00 0. -1.
        -13    1    1    2    0    0 -0.56994714572E+03  0.22568636448E+03  0.43881994399E+03  0.75388131588E+03  0.10566000000E+00 0.  1.
         13    1    1    2    0    0  0.68586578872E+03 -0.80233396838E+02 -0.27716987592E+03  0.74409168077E+03  0.10566000000E+00 0. -1.
         -4    1    1    2    0  502 -0.11591864300E+03 -0.14545296764E+03  0.13333790224E+03  0.22885081115E+03  0.00000000000E+00 0. -1.
</event>
<event>
 5    1  0.2540860E-005  0.2634561E+03  0.7818608E-02  0.1038856E+00
          4   -1    0    0  502    0 -0.00000000000E+00  0.00000000000E+00  0.11637590632E+03  0.11637590632E+03  0.00000000000E+00 0.  1.
         21   -1    0    0  501  502  0.00000000000E+00 -0.00000000000E+00 -0.13339711051E+04  0.13339711051E+04  0.00000000000E+00 0.  1.
        -13    1    1    2    0    0  0.88181281176E+01 -0.17260163215E+03 -0.14267812912E+03  0.22411189727E+03  0.10566000000E+00 0.  1.
         13    1    1    2    0    0  0.95296474080E+02 -0.13451503138E+03 -0.86882919839E+02  0.18634474654E+03  0.10566000000E+00 0. -1.
          4    1    1    2  501    0 -0.10411460220E+03  0.30711666354E+03 -0.98803414981E+03  0.10398903676E+04  0.00000000000E+00 0.  1.
</event>
<event>
 5    1  0.2540860E-005  0.3106642E+02  0.7818608E-02  0.1396544E+00
         -4   -1    0    0    0  501 -0.00000000000E+00  0.00000000000E+00  0.23483544303E+03  0.23483544303E+03  0.00000000000E+00 0. -1.
         21   -1    0    0  501  502  0.00000000000E+00 -0.00000000000E+00 -0.73737209468E+01  0.73737209468E+01  0.00000000000E+00 0. -1.
        -13    1    1    2    0    0 -0.10671045801E+02  0.28143674052E+02  0.96272502643E+02  0.10086795099E+03  0.10566000000E+00 0.  1.
         13    1    1    2    0    0  0.25509517032E+02 -0.22706793662E+02  0.10806297905E+03  0.11333116316E+03  0.10566000000E+00 0. -1.
         -4    1    1    2    0  502 -0.14838471232E+02 -0.54368803896E+01  0.23126240390E+02  0.28010049830E+02  0.00000000000E+00 0. -1.
</event>
<event>
 5    1  0.2575198E-005  0.2080835E+03  0.7818608E-02  0.1066521E+00
          4   -1    0    0  502    0 -0.00000000000E+00  0.00000000000E+00  0.61222732117E+03  0.61222732117E+03  0.00000000000E+00 0.  1.
         21   -1    0    0  501  502  0.00000000000E+00 -0.00000000000E+00 -0.73787293298E+03  0.73787293298E+03  0.00000000000E+00 0.  1.
        -13    1    1    2    0    0  0.61531247601E+02 -0.43405055447E+02  0.33219177966E+03  0.34061926385E+03  0.10566000000E+00 0.  1.
         13    1    1    2    0    0  0.55052799289E+02 -0.13691385219E+03  0.23868131958E+03  0.28061539001E+03  0.10566000000E+00 0. -1.
          4    1    1    2  501    0 -0.11658404689E+03  0.18031890764E+03 -0.69651871105E+03  0.72886560029E+03  0.00000000000E+00 0.  1.
</event>
<event>
 5    1  0.2540860E-005  0.6360113E+03  0.7818608E-02  0.9221360E-01
         -4   -1    0    0    0  501 -0.00000000000E+00  0.00000000000E+00  0.54628586879E+03  0.54628586879E+03  0.00000000000E+00 0. -1.
         21   -1    0    0  501  502  0.00000000000E+00 -0.00000000000E+00 -0.98077084537E+03  0.98077084537E+03  0.00000000000E+00 0.  1.
        -13    1    1    2    0    0 -0.55593114053E+03 -0.28936083174E+03  0.79062201061E+02  0.63169610317E+03  0.10566000000E+00 0.  1.
         13    1    1    2    0    0  0.57115120574E+03  0.32140016407E+03 -0.38083253824E+03  0.75798759794E+03  0.10566000000E+00 0. -1.
         -4    1    1    2    0  502 -0.15220065214E+02 -0.32039332324E+02 -0.13271463941E+03  0.13737301305E+03  0.00000000000E+00 0. -1.
</event>
<event>
 5    1  0.2540860E-005  0.1124195E+03  0.7818608E-02  0.1176673E+00
         21   -1    0    0  501  502  0.00000000000E+00  0.00000000000E+00  0.15551280613E+04  0.15551280613E+04  0.00000000000E+00 0. -1.
         -4   -1    0    0    0  501 -0.00000000000E+00 -0.00000000000E+00 -0.24323603045E+02  0.24323603045E+02  0.00000000000E+00 0. -1.
        -13    1    1    2    0    0 -0.40086345424E+02  0.34161530192E+02  0.29367903475E+02  0.60302654611E+02  0.10566000000E+00 0.  1.
         13    1    1    2    0    0 -0.89093719125E+02 -0.47432220988E+02  0.60693714465E+03  0.61527247224E+03  0.10566000000E+00 0. -1.
         -4    1    1    2    0  502  0.12918006455E+03  0.13270690796E+02  0.89449941011E+03  0.90387653747E+03  0.00000000000E+00 0. -1.
</event>
<event>
 5    1  0.2540860E-005  0.2799022E+03  0.7818608E-02  0.1017791E+00
         21   -1    0    0  501  502  0.00000000000E+00  0.00000000000E+00  0.39655525936E+03  0.39655525936E+03  0.00000000000E+00 0.  1.
          4   -1    0    0  502    0 -0.00000000000E+00 -0.00000000000E+00 -0.10741867545E+04  0.10741867545E+04  0.00000000000E+00 0.  1.
        -13    1    1    2    0    0 -0.18286880208E+03  0.37564487935E+02 -0.78756818272E+03  0.80939220600E+03  0.10566000000E+00 0.  1.
         13    1    1    2    0    0 -0.94756519361E+01 -0.26397656346E+03 -0.11561973284E+03  0.28834241419E+03  0.10566000000E+00 0. -1.
          4    1    1    2  501    0  0.19234445401E+03  0.22641207553E+03  0.22555642043E+03  0.37300739367E+03  0.00000000000E+00 0.  1.
</event>
<event>
 5    1  0.2540860E-005  0.1050501E+03  0.7818608E-02  0.1156460E+00
         -4   -1    0    0    0  501 -0.00000000000E+00  0.00000000000E+00  0.62608048361E+02  0.62608048361E+02  0.00000000000E+00 0. -1.
         21   -1    0    0  501  502  0.00000000000E+00 -0.00000000000E+00 -0.34759503652E+03  0.34759503652E+03  0.00000000000E+00 0.  1.
        -13    1    1    2    0    0 -0.54224820330E+02 -0.59172817813E+02 -0.98172141727E+02  0.12680510275E+03  0.10566000000E+00 0.  1.
         13    1    1    2    0    0  0.67089519892E+02  0.10567880359E+03 -0.44052060634E+02  0.13270119976E+03  0.10566000000E+00 0. -1.
         -4    1    1    2    0  502 -0.12864699562E+02 -0.46505985779E+02 -0.14276278580E+03  0.15069678237E+03  0.00000000000E+00 0. -1.
</event>
<event>
 5    1  0.2540860E-005  0.1394003E+03  0.7818608E-02  0.1112063E+00
         -4   -1    0    0    0  501 -0.00000000000E+00  0.00000000000E+00  0.69559067321E+03  0.69559067321E+03  0.00000000000E+00 0. -1.
         21   -1    0    0  501  502  0.00000000000E+00 -0.00000000000E+00 -0.37398091963E+02  0.37398091963E+02  0.00000000000E+00 0.  1.
        -13    1    1    2    0    0 -0.38614567340E+02  0.12937119058E+03  0.43379566930E+03  0.45432002337E+03  0.10566000000E+00 0.  1.
         13    1    1    2    0    0  0.45659477606E+02 -0.14248200247E+03  0.21086183382E+03  0.25855102601E+03  0.10566000000E+00 0. -1.
         -4    1    1    2    0  502 -0.70449102661E+01  0.13110811890E+02  0.13535078128E+02  0.20117715799E+02  0.00000000000E+00 0. -1.
</event>
<event>
 5    1  0.2540860E-005  0.2097716E+03  0.7818608E-02  0.1053636E+00
         -4   -1    0    0    0  501 -0.00000000000E+00  0.00000000000E+00  0.40999967936E+03  0.40999967936E+03  0.00000000000E+00 0. -1.
         21   -1    0    0  501  502  0.00000000000E+00 -0.00000000000E+00 -0.14735965728E+03  0.14735965728E+03  0.00000000000E+00 0.  1.
        -13    1    1    2    0    0  0.11860421573E+03 -0.17113781661E+03  0.75977907355E+02  0.22164784193E+03  0.10566000000E+00 0.  1.
         13    1    1    2    0    0 -0.11043743416E+03  0.17955223337E+03  0.21739746267E+03  0.30281528910E+03  0.10566000000E+00 0. -1.
         -4    1    1    2    0  502 -0.81667815735E+01 -0.84144167580E+01 -0.30735347945E+02  0.32896205616E+02  0.00000000000E+00 0. -1.
</event>
<event>
 5    1  0.2540860E-005  0.4356694E+03  0.7818608E-02  0.9780889E-01
         -4   -1    0    0    0  501 -0.00000000000E+00  0.00000000000E+00  0.30857606162E+04  0.30857606162E+04  0.00000000000E+00 0. -1.
         21   -1    0    0  501  502  0.00000000000E+00 -0.00000000000E+00 -0.79249062322E+03  0.79249062322E+03  0.00000000000E+00 0. -1.
        -13    1    1    2    0    0  0.43597393361E+03  0.35954668101E+03  0.26629988015E+04  0.27222986086E+04  0.10566000000E+00 0.  1.
         13    1    1    2    0    0 -0.24842062973E+03  0.22762607581E+03 -0.41890536542E+03  0.53759478793E+03  0.10566000000E+00 0. -1.
         -4    1    1    2    0  502 -0.18755330388E+03 -0.58717275682E+03  0.49176556960E+02  0.61835784292E+03  0.00000000000E+00 0. -1.
</event>
<event>
 5    1  0.2540860E-005  0.4064490E+03  0.7818608E-02  0.1002914E+00
         -4   -1    0    0    0  501 -0.00000000000E+00  0.00000000000E+00  0.20962428748E+04  0.20962428748E+04  0.00000000000E+00 0. -1.
         21   -1    0    0  501  502  0.00000000000E+00 -0.00000000000E+00 -0.16974784713E+03  0.16974784713E+03  0.00000000000E+00 0. -1.
        -13    1    1    2    0    0 -0.86474837602E+02  0.10895638176E+03  0.45258783038E+03  0.47348193845E+03  0.10566000000E+00 0.  1.
         13    1    1    2    0    0  0.43399238340E+02  0.38351535686E+03  0.21905916652E+03  0.44379550746E+03  0.10566000000E+00 0. -1.
         -4    1    1    2    0  502  0.43075599261E+02 -0.49247173863E+03  0.12548480308E+04  0.13487132761E+04  0.00000000000E+00 0. -1.
</event>
<event>
 5    1  0.2540860E-005  0.2841024E+03  0.7818608E-02  0.1014092E+00
         21   -1    0    0  501  502  0.00000000000E+00  0.00000000000E+00  0.33292943789E+03  0.33292943789E+03  0.00000000000E+00 0. -1.
          4   -1    0    0  502    0 -0.00000000000E+00 -0.00000000000E+00 -0.51155452214E+03  0.51155452214E+03  0.00000000000E+00 0.  1.
        -13    1    1    2    0    0 -0.15672359789E+03  0.23538442035E+03 -0.37572443929E+03  0.47025203553E+03  0.10566000000E+00 0.  1.
         13    1    1    2    0    0  0.17181797867E+03 -0.23498246203E+03  0.15560894233E+03  0.33007927737E+03  0.10566000000E+00 0. -1.
          4    1    1    2  501    0 -0.15094380777E+02 -0.40195831644E+00  0.41490412711E+02  0.44152647128E+02  0.00000000000E+00 0.  1.
</event>
<event>
 5    1  0.2540860E-005  0.4599568E+03  0.7818608E-02  0.9680179E-01
          4   -1    0    0  502    0 -0.00000000000E+00  0.00000000000E+00  0.11017368458E+04  0.11017368458E+04  0.00000000000E+00 0.  1.
         21   -1    0    0  501  502  0.00000000000E+00 -0.00000000000E+00 -0.50692498114E+03  0.50692498114E+03  0.00000000000E+00 0.  1.
        -13    1    1    2    0    0 -0.55864823182E+02 -0.28066096974E+03  0.39738214751E+03  0.48969790762E+03  0.10566000000E+00 0.  1.
         13    1    1    2    0    0  0.19972734421E+03 -0.23948587139E+03  0.43011316602E+03  0.53126437992E+03  0.10566000000E+00 0. -1.
          4    1    1    2  501    0 -0.14386252103E+03  0.52014684114E+03 -0.23268344882E+03  0.58769953944E+03  0.00000000000E+00 0.  1.
</event>
<event>
 5    1  0.2540860E-005  0.3316346E+03  0.7818608E-02  0.1019648E+00
          4   -1    0    0  502    0 -0.00000000000E+00  0.00000000000E+00  0.69267717791E+03  0.69267717791E+03  0.00000000000E+00 0.  1.
         21   -1    0    0  501  502  0.00000000000E+00 -0.00000000000E+00 -0.25081452989E+03  0.25081452989E+03  0.00000000000E+00 0.  1.
        -13    1    1    2    0    0  0.18921107399E+03  0.34666594448E+03  0.12074224542E+03  0.41298524014E+03  0.10566000000E+00 0.  1.
         13    1    1    2    0    0 -0.83739916252E+00 -0.14976142543E+03  0.11601278223E+03  0.18944171290E+03  0.10566000000E+00 0. -1.
          4    1    1    2  501    0 -0.18837367483E+03 -0.19690451905E+03  0.20510762037E+03  0.34106475474E+03  0.00000000000E+00 0.  1.
</event>
<event>
 5    1  0.2540860E-005  0.4535035E+03  0.7818608E-02  0.1019452E+00
         21   -1    0    0  501  502  0.00000000000E+00  0.00000000000E+00  0.24889594489E+03  0.24889594489E+03  0.00000000000E+00 0. -1.
         -4   -1    0    0    0  501 -0.00000000000E+00 -0.00000000000E+00 -0.11758876667E+04  0.11758876667E+04  0.00000000000E+00 0. -1.
        -13    1    1    2    0    0  0.58821956105E+02  0.35421695014E+01 -0.60428508118E+02  0.84404888734E+02  0.10566000000E+00 0.  1.
         13    1    1    2    0    0 -0.31928483979E+03  0.35697448545E+03 -0.73373079936E+03  0.87620459328E+03  0.10566000000E+00 0. -1.
         -4    1    1    2    0  502  0.26046288369E+03 -0.36051665495E+03 -0.13283241433E+03  0.46417412958E+03  0.00000000000E+00 0. -1.
</event>
<event>
 5    1  0.2540860E-005  0.2022883E+03  0.7818608E-02  0.1058578E+00
         21   -1    0    0  501  502  0.00000000000E+00  0.00000000000E+00  0.13472605252E+03  0.13472605252E+03  0.00000000000E+00 0. -1.
         -4   -1    0    0    0  501 -0.00000000000E+00 -0.00000000000E+00 -0.78157814224E+03  0.78157814224E+03  0.00000000000E+00 0. -1.
        -13    1    1    2    0    0  0.14662098261E+03 -0.11675124270E+03 -0.29084860191E+03  0.34600792709E+03  0.10566000000E+00 0.  1.
         13    1    1    2    0    0 -0.15378496038E+03  0.15257799123E+03 -0.43350200277E+03  0.48461722526E+03  0.10566000000E+00 0. -1.
         -4    1    1    2    0  502  0.71639777757E+01 -0.35826748526E+02  0.77498514961E+02  0.85679042412E+02  0.00000000000E+00 0. -1.
</event>
<event>
 5    1  0.2540860E-005  0.4857988E+03  0.7818608E-02  0.9724156E-01
         21   -1    0    0  501  502  0.00000000000E+00  0.00000000000E+00  0.54375067645E+03  0.54375067645E+03  0.00000000000E+00 0.  1.
          4   -1    0    0  502    0 -0.00000000000E+00 -0.00000000000E+00 -0.11669819230E+04  0.11669819230E+04  0.00000000000E+00 0.  1.
        -13    1    1    2    0    0  0.22266656835E+03 -0.27595991837E+03 -0.20147084594E+03  0.40782936399E+03  0.10566000000E+00 0.  1.
         13    1    1    2    0    0  0.63969092692E+02 -0.21791023027E+03 -0.64956100947E+03  0.68811803454E+03  0.10566000000E+00 0. -1.
          4    1    1    2  501    0 -0.28663566104E+03  0.49387014864E+03  0.22780060884E+03  0.61478520093E+03  0.00000000000E+00 0.  1.
</event>
<event>
 5    1  0.2540860E-005  0.4874001E+03  0.7818608E-02  0.9584990E-01
         21   -1    0    0  501  502  0.00000000000E+00  0.00000000000E+00  0.37607690712E+03  0.37607690712E+03  0.00000000000E+00 0. -1.
         -4   -1    0    0    0  501 -0.00000000000E+00 -0.00000000000E+00 -0.13994372458E+04  0.13994372458E+04  0.00000000000E+00 0. -1.
        -13    1    1    2    0    0  0.21460325454E+03 -0.29751180306E+03 -0.38247751642E+03  0.52995933009E+03  0.10566000000E+00 0.  1.
         13    1    1    2    0    0  0.17800798150E+03  0.52594618295E+03 -0.14664924295E+03  0.57429281770E+03  0.10566000000E+00 0. -1.
         -4    1    1    2    0  502 -0.39261123604E+03 -0.22843437989E+03 -0.49423357927E+03  0.67126200508E+03  0.00000000000E+00 0. -1.
</event>
<event>
 5    1  0.2540860E-005  0.4552712E+03  0.7818608E-02  0.9666485E-01
          4   -1    0    0  502    0 -0.00000000000E+00  0.00000000000E+00  0.11549810146E+04  0.11549810146E+04  0.00000000000E+00 0.  1.
         21   -1    0    0  501  502  0.00000000000E+00 -0.00000000000E+00 -0.83200334103E+03  0.83200334103E+03  0.00000000000E+00 0.  1.
        -13    1    1    2    0    0 -0.44292294745E+03 -0.21158673553E+03 -0.27518707557E+02  0.49163703528E+03  0.10566000000E+00 0.  1.
         13    1    1    2    0    0 -0.17351352478E+02  0.33691850874E+03  0.78227705800E+03  0.85192285895E+03  0.10566000000E+00 0. -1.
          4    1    1    2  501    0  0.46027429993E+03 -0.12533177321E+03 -0.43178067690E+03  0.64342446137E+03  0.00000000000E+00 0.  1.
</event>
<event>
 5    1  0.2540860E-005  0.3654634E+02  0.7818608E-02  0.1358927E+00
         21   -1    0    0  501  502  0.00000000000E+00  0.00000000000E+00  0.16614191059E+02  0.16614191059E+02  0.00000000000E+00 0.  1.
          4   -1    0    0  502    0 -0.00000000000E+00 -0.00000000000E+00 -0.15828543418E+03  0.15828543418E+03  0.00000000000E+00 0.  1.
        -13    1    1    2    0    0  0.41548289063E+02  0.99928259233E+01 -0.11375693099E+03  0.12151858873E+03  0.10566000000E+00 0.  1.
         13    1    1    2    0    0 -0.26554078868E+02 -0.62643511448E+01 -0.26215990546E+02  0.37837157982E+02  0.10566000000E+00 0. -1.
          4    1    1    2  501    0 -0.14994210195E+02 -0.37284747785E+01 -0.16983215839E+01  0.15543878530E+02  0.00000000000E+00 0.  1.
</event>
<event>
 5    1  0.2540860E-005  0.1404690E+03  0.7818608E-02  0.1110911E+00
         21   -1    0    0  501  502  0.00000000000E+00  0.00000000000E+00  0.47610849750E+02  0.47610849750E+02  0.00000000000E+00 0.  1.
          4   -1    0    0  502    0 -0.00000000000E+00 -0.00000000000E+00 -0.73660351472E+03  0.73660351472E+03  0.00000000000E+00 0.  1.
        -13    1    1    2    0    0 -0.22700137821E+02 -0.14538145893E+03 -0.49059148763E+03  0.51218266640E+03  0.10566000000E+00 0.  1.
         13    1    1    2    0    0 -0.22164159450E+02  0.12978942003E+03 -0.17522849921E+03  0.21918389908E+03  0.10566000000E+00 0. -1.
          4    1    1    2  501    0  0.44864297271E+02  0.15592038902E+02 -0.23172678125E+02  0.52847798991E+02  0.00000000000E+00 0.  1.
</event>
<event>
 5    1  0.2540860E-005  0.2365865E+03  0.7818608E-02  0.1058723E+00
          4   -1    0    0  502    0 -0.00000000000E+00  0.00000000000E+00  0.14434724161E+04  0.14434724161E+04  0.00000000000E+00 0.  1.
         21   -1    0    0  501  502  0.00000000000E+00 -0.00000000000E+00 -0.31343589586E+03  0.31343589586E+03  0.00000000000E+00 0.  1.
        -13    1    1    2    0    0 -0.13592570171E+03 -0.37180638202E+02  0.79282634818E+03  0.80525264717E+03  0.10566000000E+00 0.  1.
         13    1    1    2    0    0 -0.55115747213E+02 -0.11321140826E+03  0.58860456285E+03  0.60192184801E+03  0.10566000000E+00 0. -1.
          4    1    1    2  501    0  0.19104144892E+03  0.15039204646E+03 -0.25139439081E+03  0.34973381675E+03  0.00000000000E+00 0.  1.
</event>
<event>
 5    1  0.2540860E-005  0.3837549E+03  0.7818608E-02  0.9777170E-01
         -4   -1    0    0    0  501 -0.00000000000E+00  0.00000000000E+00  0.12022800250E+04  0.12022800250E+04  0.00000000000E+00 0. -1.
         21   -1    0    0  501  502  0.00000000000E+00 -0.00000000000E+00 -0.19873725331E+03  0.19873725331E+03  0.00000000000E+00 0.  1.
        -13    1    1    2    0    0 -0.42680228211E+02  0.30973795774E+03  0.18951555200E+03  0.36561641095E+03  0.10566000000E+00 0.  1.
         13    1    1    2    0    0  0.87286283997E+02 -0.41740034563E+03  0.81392175619E+03  0.91886374412E+03  0.10566000000E+00 0. -1.
         -4    1    1    2    0  502 -0.44606055786E+02  0.10766238789E+03  0.10546354507E+00  0.11653712328E+03  0.00000000000E+00 0. -1.
</event>
<event>
 5    1  0.2540860E-005  0.5260870E+03  0.7818608E-02  0.9441994E-01
         21   -1    0    0  501  502  0.00000000000E+00  0.00000000000E+00  0.34299945223E+03  0.34299945223E+03  0.00000000000E+00 0. -1.
          4   -1    0    0  502    0 -0.00000000000E+00 -0.00000000000E+00 -0.24198690161E+04  0.24198690161E+04  0.00000000000E+00 0.  1.
        -13    1    1    2    0    0 -0.12227624540E+02 -0.33431426397E+03 -0.37637019770E+03  0.50355742352E+03  0.10566000000E+00 0.  1.
         13    1    1    2    0    0 -0.21159603595E+03 -0.50253724409E+03 -0.10242360184E+04  0.11603344331E+04  0.10566000000E+00 0. -1.
          4    1    1    2  501    0  0.22382366049E+03  0.83685150806E+03 -0.67626334779E+03  0.10989766117E+04  0.00000000000E+00 0.  1.
</event>
<event>
 5    1  0.2540860E-005  0.2495188E+03  0.7818608E-02  0.1030642E+00
         -4   -1    0    0    0  501 -0.00000000000E+00  0.00000000000E+00  0.23223349585E+03  0.23223349585E+03  0.00000000000E+00 0. -1.
         21   -1    0    0  501  502  0.00000000000E+00 -0.00000000000E+00 -0.59395890964E+03  0.59395890964E+03  0.00000000000E+00 0.  1.
        -13    1    1    2    0    0  0.10357292269E+03  0.21791015319E+03 -0.31423101062E+03  0.39617335142E+03  0.10566000000E+00 0.  1.
         13    1    1    2    0    0 -0.94120207700E+02 -0.23325371774E+03  0.10782018624E+03  0.27366240893E+03  0.10566000000E+00 0. -1.
         -4    1    1    2    0  502 -0.94527149872E+01  0.15343564553E+02 -0.15531458942E+03  0.15635664514E+03  0.00000000000E+00 0. -1.
</event>
<event>
 5    1  0.2540860E-005  0.4321891E+02  0.7818608E-02  0.1322164E+00
         21   -1    0    0  501  502  0.00000000000E+00  0.00000000000E+00  0.10062500916E+03  0.10062500916E+03  0.00000000000E+00 0. -1.
         -4   -1    0    0    0  501 -0.00000000000E+00 -0.00000000000E+00 -0.78504008222E+02  0.78504008222E+02  0.00000000000E+00 0. -1.
        -13    1    1    2    0    0  0.36511797539E+02 -0.24407202630E+02 -0.22905573802E+02  0.49532811095E+02  0.10566000000E+00 0.  1.
         13    1    1    2    0    0 -0.42051813686E+02  0.11672879426E+02 -0.30216944846E+02  0.53081880790E+02  0.10566000000E+00 0. -1.
         -4    1    1    2    0  502  0.55400161471E+01  0.12734323204E+02  0.75243519590E+02  0.76514325500E+02  0.00000000000E+00 0. -1.
</event>
<event>
 5    1  0.2540860E-005  0.9899950E+02  0.7818608E-02  0.1166222E+00
         21   -1    0    0  501  502  0.00000000000E+00  0.00000000000E+00  0.15896421745E+03  0.15896421745E+03  0.00000000000E+00 0.  1.
         -4   -1    0    0    0  501 -0.00000000000E+00 -0.00000000000E+00 -0.14750357523E+03  0.14750357523E+03  0.00000000000E+00 0. -1.
        -13    1    1    2    0    0  0.16267183676E+02 -0.10464838284E+03  0.54321367889E+02  0.11902406256E+03  0.10566000000E+00 0.  1.
         13    1    1    2    0    0 -0.40431306257E+01  0.97386025122E+02 -0.93367533478E+02  0.13497367249E+03  0.10566000000E+00 0. -1.
         -4    1    1    2    0  502 -0.12224053051E+02  0.72623577163E+01  0.50506807805E+02  0.52470057626E+02  0.00000000000E+00 0. -1.
</event>
<event>
 5    1  0.2540860E-005  0.3975277E+03  0.7818608E-02  0.9951414E-01
         21   -1    0    0  501  502  0.00000000000E+00  0.00000000000E+00  0.13311144371E+04  0.13311144371E+04  0.00000000000E+00 0.  1.
         -4   -1    0    0    0  501 -0.00000000000E+00 -0.00000000000E+00 -0.54908113713E+03  0.54908113713E+03  0.00000000000E+00 0. -1.
        -13    1    1    2    0    0  0.53814929309E+02  0.18421241647E+03  0.84640568439E+03  0.86788988629E+03  0.10566000000E+00 0.  1.
         13    1    1    2    0    0 -0.19374342210E+03  0.22066034370E+03 -0.37998264606E+03  0.48022320160E+03  0.10566000000E+00 0. -1.
         -4    1    1    2    0  502  0.13992849279E+03 -0.40487276017E+03  0.31561026167E+03  0.53208248636E+03  0.00000000000E+00 0. -1.
</event>
<event>
 5    1  0.2540860E-005  0.6109252E+02  0.7818608E-02  0.1252240E+00
         21   -1    0    0  501  502  0.00000000000E+00  0.00000000000E+00  0.16378321353E+03  0.16378321353E+03  0.00000000000E+00 0. -1.
          4   -1    0    0  502    0 -0.00000000000E+00 -0.00000000000E+00 -0.59533279631E+02  0.59533279631E+02  0.00000000000E+00 0.  1.
        -13    1    1    2    0    0  0.31004533341E+02  0.42312807673E+02 -0.14816840396E+01  0.52477245855E+02  0.10566000000E+00 0.  1.
         13    1    1    2    0    0 -0.54199641648E+02 -0.57097074828E+02  0.20602414684E+02  0.81376579945E+02  0.10566000000E+00 0. -1.
          4    1    1    2  501    0  0.23195108307E+02  0.14784267155E+02  0.85129203254E+02  0.89462667361E+02  0.00000000000E+00 0.  1.
</event>
<event>
 5    1  0.2540860E-005  0.1715105E+03  0.7818608E-02  0.1081640E+00
         -4   -1    0    0    0  501 -0.00000000000E+00  0.00000000000E+00  0.10734795186E+04  0.10734795186E+04  0.00000000000E+00 0. -1.
         21   -1    0    0  501  502  0.00000000000E+00 -0.00000000000E+00 -0.28301073038E+03  0.28301073038E+03  0.00000000000E+00 0. -1.
        -13    1    1    2    0    0 -0.87238199780E+02  0.14006412174E+03  0.59461799678E+03  0.61708916289E+03  0.10566000000E+00 0.  1.
         13    1    1    2    0    0  0.10222454150E+03 -0.15037230393E+03  0.44961280847E+03  0.48498801570E+03  0.10566000000E+00 0. -1.
         -4    1    1    2    0  502 -0.14986341716E+02  0.10308182189E+02 -0.25376201706E+03  0.25441307035E+03  0.00000000000E+00 0. -1.
</event>
<event>
 5    1  0.3224203E-005  0.1985209E+03  0.7818608E-02  0.1097133E+00
         21   -1    0    0  501  502  0.00000000000E+00  0.00000000000E+00  0.64628597680E+03  0.64628597680E+03  0.00000000000E+00 0.  1.
          4   -1    0    0  502    0 -0.00000000000E+00 -0.00000000000E+00 -0.74386351024E+03  0.74386351024E+03  0.00000000000E+00 0.  1.
        -13    1    1    2    0    0 -0.36920689419E+02  0.12424438729E+03 -0.35169081354E+03  0.37481494710E+03  0.10566000000E+00 0.  1.
         13    1    1    2    0    0 -0.25490018179E+02  0.67426461935E+02 -0.36095245566E+03  0.36807982178E+03  0.10566000000E+00 0. -1.
          4    1    1    2  501    0  0.62410707598E+02 -0.19167084923E+03  0.61506573576E+03  0.64725471815E+03  0.00000000000E+00 0.  1.
</event>
<event>
 5    1  0.2540860E-005  0.1902704E+03  0.7818608E-02  0.1067019E+00
          4   -1    0    0  502    0 -0.00000000000E+00  0.00000000000E+00  0.11388575063E+04  0.11388575063E+04  0.00000000000E+00 0.  1.
         21   -1    0    0  501  502  0.00000000000E+00 -0.00000000000E+00 -0.66501578510E+03  0.66501578510E+03  0.00000000000E+00 0.  1.
        -13    1    1    2    0    0  0.35355813919E+03  0.34562145742E+02 -0.58176961329E+03  0.68165518689E+03  0.10566000000E+00 0.  1.
         13    1    1    2    0    0 -0.18077823251E+03 -0.48836008431E+02  0.72638529757E+03  0.75013421249E+03  0.10566000000E+00 0. -1.
          4    1    1    2  501    0 -0.17277990668E+03  0.14273862689E+02  0.32922603687E+03  0.37208389197E+03  0.00000000000E+00 0.  1.
</event>
<event>
 5    1  0.2540860E-005  0.5949277E+02  0.7818608E-02  0.1257501E+00
         -4   -1    0    0    0  501 -0.00000000000E+00  0.00000000000E+00  0.27322443323E+02  0.27322443323E+02  0.00000000000E+00 0. -1.
         21   -1    0    0  501  502  0.00000000000E+00 -0.00000000000E+00 -0.91352106034E+03  0.91352106034E+03  0.00000000000E+00 0. -1.
        -13    1    1    2    0    0  0.75764048336E+02 -0.61933719902E+01 -0.16203770070E+03  0.17898261504E+03  0.10566000000E+00 0.  1.
         13    1    1    2    0    0 -0.34843370698E+02  0.49377719188E+02 -0.34398704641E+02  0.69537771598E+02  0.10566000000E+00 0. -1.
         -4    1    1    2    0  502 -0.40920677637E+02 -0.43184347198E+02 -0.68976221168E+03  0.69232311702E+03  0.00000000000E+00 0. -1.
</event>
<event>
 5    1  0.2540860E-005  0.7929831E+03  0.7818608E-02  0.8998023E-01
         21   -1    0    0  501  502  0.00000000000E+00  0.00000000000E+00  0.50072201240E+03  0.50072201240E+03  0.00000000000E+00 0. -1.
         -4   -1    0    0    0  501 -0.00000000000E+00 -0.00000000000E+00 -0.26462061473E+04  0.26462061473E+04  0.00000000000E+00 0. -1.
        -13    1    1    2    0    0  0.22381923253E+03 -0.75381860566E+03 -0.15116045186E+04  0.17039030990E+04  0.10566000000E+00 0.  1.
         13    1    1    2    0    0  0.16926955854E+03  0.86961654449E+03 -0.41253713401E+03  0.97727786018E+03  0.10566000000E+00 0. -1.
         -4    1    1    2    0  502 -0.39308879107E+03 -0.11579793883E+03 -0.22134248231E+03  0.46574720050E+03  0.00000000000E+00 0. -1.
</event>
<event>
 5    1  0.2540860E-005  0.6470372E+03  0.7818608E-02  0.9203566E-01
         -4   -1    0    0    0  501 -0.00000000000E+00  0.00000000000E+00  0.20609352115E+04  0.20609352115E+04  0.00000000000E+00 0. -1.
         21   -1    0    0  501  502  0.00000000000E+00 -0.00000000000E+00 -0.28948165848E+03  0.28948165848E+03  0.00000000000E+00 0.  1.
        -13    1    1    2    0    0  0.52200777815E+03  0.36215442576E+03  0.13118590774E+04  0.14576083831E+04  0.10566000000E+00 0.  1.
         13    1    1    2    0    0 -0.59475086260E+03 -0.33291558687E+03  0.37688963156E+03  0.77884990986E+03  0.10566000000E+00 0. -1.
         -4    1    1    2    0  502  0.72743084449E+02 -0.29238838888E+02  0.82704844138E+02  0.11395857703E+03  0.00000000000E+00 0. -1.
</event>
<event>
 5    1  0.2540860E-005  0.1693707E+03  0.7818608E-02  0.1083435E+00
         -4   -1    0    0    0  501 -0.00000000000E+00  0.00000000000E+00  0.10134194076E+03  0.10134194076E+03  0.00000000000E+00 0. -1.
         21   -1    0    0  501  502  0.00000000000E+00 -0.00000000000E+00 -0.67129781966E+03  0.67129781966E+03  0.00000000000E+00 0.  1.
        -13    1    1    2    0    0  0.26899365866E+02  0.19933411819E+03 -0.41827580676E+03  0.46412533678E+03  0.10566000000E+00 0.  1.
         13    1    1    2    0    0 -0.24113026594E+01 -0.16319366456E+03 -0.13691398904E+02  0.16378477371E+03  0.10566000000E+00 0. -1.
         -4    1    1    2    0  502 -0.24488063207E+02 -0.36140453630E+02 -0.13798867323E+03  0.14472964993E+03  0.00000000000E+00 0. -1.
</event>
<event>
 5    1  0.2540860E-005  0.4970462E+03  0.7818608E-02  0.9520462E-01
         -4   -1    0    0    0  501 -0.00000000000E+00  0.00000000000E+00  0.49591014495E+04  0.49591014495E+04  0.00000000000E+00 0. -1.
         21   -1    0    0  501  502  0.00000000000E+00 -0.00000000000E+00 -0.12063238383E+03  0.12063238383E+03  0.00000000000E+00 0. -1.
        -13    1    1    2    0    0 -0.39605768302E+03  0.18265610799E+03  0.18043745929E+04  0.18563384995E+04  0.10566000000E+00 0.  1.
         13    1    1    2    0    0 -0.39849630564E+02  0.36036127443E+03  0.14190030042E+04  0.14645879210E+04  0.10566000000E+00 0. -1.
         -4    1    1    2    0  502  0.43590731358E+03 -0.54301738242E+03  0.16150914686E+04  0.17588074128E+04  0.00000000000E+00 0. -1.
</event>
<event>
 5    1  0.2540860E-005  0.3861830E+03  0.7818608E-02  0.1010322E+00
         21   -1    0    0  501  502  0.00000000000E+00  0.00000000000E+00  0.18448261790E+03  0.18448261790E+03  0.00000000000E+00 0. -1.
         -4   -1    0    0    0  501 -0.00000000000E+00 -0.00000000000E+00 -0.18034293750E+04  0.18034293750E+04  0.00000000000E+00 0. -1.
        -13    1    1    2    0    0  0.12755681055E+03  0.39878275022E+01 -0.99857249494E+02  0.16204358712E+03  0.10566000000E+00 0.  1.
         13    1    1    2    0    0  0.16591067862E+03  0.27235993479E+03 -0.13526837745E+04  0.13897696544E+04  0.10566000000E+00 0. -1.
         -4    1    1    2    0  502 -0.29346748917E+03 -0.27634776230E+03 -0.16640573309E+03  0.43609875135E+03  0.00000000000E+00 0. -1.
</event>
<event>
 5    1  0.2540860E-005  0.2510703E+03  0.7818608E-02  0.1029840E+00
         -4   -1    0    0    0  501 -0.00000000000E+00  0.00000000000E+00  0.49186687170E+03  0.49186687170E+03  0.00000000000E+00 0. -1.
         21   -1    0    0  501  502  0.00000000000E+00 -0.00000000000E+00 -0.19640728638E+03  0.19640728638E+03  0.00000000000E+00 0.  1.
        -13    1    1    2    0    0  0.21494078643E+03 -0.10426245541E+03  0.23874052978E+03  0.33773843874E+03  0.10566000000E+00 0.  1.
         13    1    1    2    0    0 -0.27197626742E+03  0.81824191419E+02  0.38640580552E+02  0.28663460009E+03  0.10566000000E+00 0. -1.
         -4    1    1    2    0  502  0.57035480988E+02  0.22438263996E+02  0.18078474988E+02  0.63901119244E+02  0.00000000000E+00 0. -1.
</event>
<event>
 5    1  0.2540860E-005  0.4670873E+03  0.7818608E-02  0.9865507E-01
         -4   -1    0    0    0  501 -0.00000000000E+00  0.00000000000E+00  0.14899477458E+04  0.14899477458E+04  0.00000000000E+00 0. -1.
         21   -1    0    0  501  502  0.00000000000E+00 -0.00000000000E+00 -0.26374846005E+03  0.26374846005E+03  0.00000000000E+00 0. -1.
        -13    1    1    2    0    0 -0.31493169668E+00 -0.15761910180E+03  0.42670295147E+03  0.45488383175E+03  0.10566000000E+00 0.  1.
         13    1    1    2    0    0 -0.12765607010E+03 -0.34023388119E+03  0.68009053317E+03  0.77108904195E+03  0.10566000000E+00 0. -1.
         -4    1    1    2    0  502  0.12797100179E+03  0.49785298299E+03  0.11940580114E+03  0.52772333217E+03  0.00000000000E+00 0. -1.
</event>
<event>
 5    1  0.2540860E-005  0.4180304E+03  0.7818608E-02  0.1007918E+00
         21   -1    0    0  501  502  0.00000000000E+00  0.00000000000E+00  0.11681592053E+03  0.11681592053E+03  0.00000000000E+00 0.  1.
          4   -1    0    0  502    0 -0.00000000000E+00 -0.00000000000E+00 -0.28834992540E+04  0.28834992540E+04  0.00000000000E+00 0.  1.
        -13    1    1    2    0    0  0.26842900702E+03  0.32681353127E+03 -0.42206877863E+03  0.59749751555E+03  0.10566000000E+00 0.  1.
         13    1    1    2    0    0  0.66228680697E+02 -0.86210676606E+02 -0.63357310350E+03  0.64283233238E+03  0.10566000000E+00 0. -1.
          4    1    1    2  501    0 -0.33465768771E+03 -0.24060285467E+03 -0.17110414514E+04  0.17599853266E+04  0.00000000000E+00 0.  1.
</event>
<event>
 5    1  0.2540860E-005  0.1165468E+03  0.7818608E-02  0.1139754E+00
         21   -1    0    0  501  502  0.00000000000E+00  0.00000000000E+00  0.30095284066E+03  0.30095284066E+03  0.00000000000E+00 0.  1.
          4   -1    0    0  502    0 -0.00000000000E+00 -0.00000000000E+00 -0.11840458044E+03  0.11840458044E+03  0.00000000000E+00 0.  1.
        -13    1    1    2    0    0  0.11023927926E+03 -0.50482639952E+02 -0.31624796947E+02  0.12530496628E+03  0.10566000000E+00 0.  1.
         13    1    1    2    0    0 -0.10200337783E+03  0.38864117124E+02  0.35458255311E+02  0.11477111014E+03  0.10566000000E+00 0. -1.
          4    1    1    2  501    0 -0.82359014343E+01  0.11618522828E+02  0.17871480186E+03  0.17928134467E+03  0.00000000000E+00 0.  1.
</event>
<event>
 5    1  0.2540860E-005  0.1404114E+03  0.7818608E-02  0.1110973E+00
         21   -1    0    0  501  502  0.00000000000E+00  0.00000000000E+00  0.54681154839E+03  0.54681154839E+03  0.00000000000E+00 0.  1.
          4   -1    0    0  502    0 -0.00000000000E+00 -0.00000000000E+00 -0.87568991223E+02  0.87568991223E+02  0.00000000000E+00 0.  1.
        -13    1    1    2    0    0 -0.41548866017E+02  0.12943107531E+03  0.75596247981E+01  0.13614650423E+03  0.10566000000E+00 0.  1.
         13    1    1    2    0    0  0.54732224351E+02 -0.14780546649E+03  0.25169916255E+03  0.29697567560E+03  0.10566000000E+00 0. -1.
          4    1    1    2  501    0 -0.13183358333E+02  0.18374391178E+02  0.19998376983E+03  0.20125835978E+03  0.00000000000E+00 0.  1.
</event>
<event>
 5    1  0.2540860E-005  0.1886890E+02  0.7818608E-02  0.1526222E+00
         -4   -1    0    0    0  501 -0.00000000000E+00  0.00000000000E+00  0.38508273326E+01  0.38508273326E+01  0.00000000000E+00 0. -1.
         21   -1    0    0  501  502  0.00000000000E+00 -0.00000000000E+00 -0.24062851636E+03  0.24062851636E+03  0.00000000000E+00 0. -1.
        -13    1    1    2    0    0  0.10079587768E+02 -0.14097329490E+02 -0.90924485159E+02  0.92561363180E+02  0.10566000000E+00 0.  1.
         13    1    1    2    0    0  0.13627100892E+01  0.20844645770E+02 -0.38998914852E+02  0.44241188499E+02  0.10566000000E+00 0. -1.
         -4    1    1    2    0  502 -0.11442297857E+02 -0.67473162803E+01 -0.10685428902E+03  0.10767679202E+03  0.00000000000E+00 0. -1.
</event>
<event>
 5    1  0.2540860E-005  0.5630656E+03  0.7818608E-02  0.9349516E-01
         -4   -1    0    0    0  501 -0.00000000000E+00  0.00000000000E+00  0.26480915453E+04  0.26480915453E+04  0.00000000000E+00 0. -1.
         21   -1    0    0  501  502  0.00000000000E+00 -0.00000000000E+00 -0.22419808175E+03  0.22419808175E+03  0.00000000000E+00 0.  1.
        -13    1    1    2    0    0 -0.20424394339E+03 -0.52578380701E+03  0.21283566679E+04  0.22018324907E+04  0.10566000000E+00 0.  1.
         13    1    1    2    0    0  0.19189167811E+03  0.52478329683E+03  0.31936817523E+03  0.64359612124E+03  0.10566000000E+00 0. -1.
         -4    1    1    2    0  502  0.12352265275E+02  0.10005101777E+01 -0.23831379607E+02  0.26861015097E+02  0.00000000000E+00 0. -1.
</event>
<event>
 5    1  0.2540860E-005  0.1649773E+03  0.7818608E-02  0.1087212E+00
         21   -1    0    0  501  502  0.00000000000E+00  0.00000000000E+00  0.57694139352E+03  0.57694139352E+03  0.00000000000E+00 0. -1.
          4   -1    0    0  502    0 -0.00000000000E+00 -0.00000000000E+00 -0.70998115929E+02  0.70998115929E+02  0.00000000000E+00 0.  1.
        -13    1    1    2    0    0  0.75888436943E+02 -0.17321032020E+03  0.21278844219E+03  0.28467490613E+03  0.10566000000E+00 0.  1.
         13    1    1    2    0    0 -0.39353343193E+02  0.14334671854E+03  0.14453647792E+03  0.20733492699E+03  0.10566000000E+00 0. -1.
          4    1    1    2  501    0 -0.36535093750E+02  0.29863601661E+02  0.14861835748E+03  0.15592967632E+03  0.00000000000E+00 0.  1.
</event>
<event>
 5    1  0.2540860E-005  0.3935569E+03  0.7818608E-02  0.9874827E-01
          4   -1    0    0  502    0 -0.00000000000E+00  0.00000000000E+00  0.10646421126E+04  0.10646421126E+04  0.00000000000E+00 0.  1.
         21   -1    0    0  501  502  0.00000000000E+00 -0.00000000000E+00 -0.70627546766E+03  0.70627546766E+03  0.00000000000E+00 0.  1.
        -13    1    1    2    0    0  0.15237078595E+03  0.31272711031E+03 -0.30986916457E+03  0.46586909347E+03  0.10566000000E+00 0.  1.
         13    1    1    2    0    0  0.23056062544E+03  0.10978165612E+03  0.68864164534E+03  0.73446411818E+03  0.10566000000E+00 0. -1.
          4    1    1    2  501    0 -0.38293141139E+03 -0.42250876643E+03 -0.20405835872E+02  0.57058436858E+03  0.00000000000E+00 0.  1.
</event>
<event>
 5    1  0.2540860E-005  0.4454256E+03  0.7818608E-02  0.9784705E-01
         -4   -1    0    0    0  501 -0.00000000000E+00  0.00000000000E+00  0.16773477572E+04  0.16773477572E+04  0.00000000000E+00 0. -1.
         21   -1    0    0  501  502  0.00000000000E+00 -0.00000000000E+00 -0.63118056954E+03  0.63118056954E+03  0.00000000000E+00 0. -1.
        -13    1    1    2    0    0 -0.10667609469E+03  0.21404300347E+03  0.12437758839E+04  0.12665593777E+04  0.10566000000E+00 0.  1.
         13    1    1    2    0    0  0.20606542904E+03 -0.58097162572E+03 -0.64642256211E+01  0.61646799456E+03  0.10566000000E+00 0. -1.
         -4    1    1    2    0  502 -0.99389334349E+02  0.36692862225E+03 -0.19114447068E+03  0.42550095450E+03  0.00000000000E+00 0. -1.
</event>
<event>
 5    1  0.2540860E-005  0.4453891E+03  0.7818608E-02  0.9963512E-01
         21   -1    0    0  501  502  0.00000000000E+00  0.00000000000E+00  0.32676257074E+03  0.32676257074E+03  0.00000000000E+00 0. -1.
         -4   -1    0    0    0  501 -0.00000000000E+00 -0.00000000000E+00 -0.10413500004E+04  0.10413500004E+04  0.00000000000E+00 0. -1.
        -13    1    1    2    0    0 -0.64487808273E+02 -0.11414670177E+03 -0.26904034788E+03  0.29928392354E+03  0.10566000000E+00 0.  1.
         13    1    1    2    0    0  0.48962638663E+03  0.64353133546E+02 -0.40536473075E+03  0.63890210548E+03  0.10566000000E+00 0. -1.
         -4    1    1    2    0  502 -0.42513857836E+03  0.49793568220E+02 -0.40182350972E+02  0.42992654207E+03  0.00000000000E+00 0. -1.
</event>
<event>
 5    1  0.2540860E-005  0.4878013E+03  0.7818608E-02  0.9911891E-01
          4   -1    0    0  502    0 -0.00000000000E+00  0.00000000000E+00  0.12078476778E+04  0.12078476778E+04  0.00000000000E+00 0.  1.
         21   -1    0    0  501  502  0.00000000000E+00 -0.00000000000E+00 -0.29667454886E+03  0.29667454886E+03  0.00000000000E+00 0.  1.
        -13    1    1    2    0    0  0.37029056650E+03 -0.41927464562E+03  0.39724559065E+03  0.68608337872E+03  0.10566000000E+00 0.  1.
         13    1    1    2    0    0 -0.66215675291E+02  0.98211342777E+02  0.30926326059E+03  0.33117028704E+03  0.10566000000E+00 0. -1.
          4    1    1    2  501    0 -0.30407489121E+03  0.32106330284E+03  0.20466427772E+03  0.48726856093E+03  0.00000000000E+00 0.  1.
</event>
<event>
 5    1  0.2540860E-005  0.4794805E+03  0.7818608E-02  0.9800445E-01
         -4   -1    0    0    0  501 -0.00000000000E+00  0.00000000000E+00  0.90263711738E+03  0.90263711738E+03  0.00000000000E+00 0. -1.
         21   -1    0    0  501  502  0.00000000000E+00 -0.00000000000E+00 -0.37784407536E+03  0.37784407536E+03  0.00000000000E+00 0. -1.
        -13    1    1    2    0    0 -0.17269747932E+03 -0.56433210103E+02  0.23967855279E+02  0.18325827626E+03  0.10566000000E+00 0.  1.
         13    1    1    2    0    0  0.32516630185E+03  0.44571876296E+03  0.22208904424E+03  0.59474523475E+03  0.10566000000E+00 0. -1.
         -4    1    1    2    0  502 -0.15246882253E+03 -0.38928555286E+03  0.27873614250E+03  0.50247768174E+03  0.00000000000E+00 0. -1.
</event>
<event>
 5    1  0.2540860E-005  0.3924242E+03  0.7818608E-02  0.9751183E-01
          4   -1    0    0  502    0 -0.00000000000E+00  0.00000000000E+00  0.75247072613E+03  0.75247072613E+03  0.00000000000E+00 0.  1.
         21   -1    0    0  501  502  0.00000000000E+00 -0.00000000000E+00 -0.27371283563E+03  0.27371283563E+03  0.00000000000E+00 0. -1.
        -13    1    1    2    0    0  0.38168009505E+03 -0.95798944910E+02  0.17291257415E+03  0.42983241183E+03  0.10566000000E+00 0.  1.
         13    1    1    2    0    0 -0.37471348538E+03  0.11479454187E+03  0.36394408477E+03  0.53483015152E+03  0.10566000000E+00 0. -1.
          4    1    1    2  501    0 -0.69666096694E+01 -0.18995596961E+02 -0.58098768417E+02  0.61520998413E+02  0.00000000000E+00 0.  1.
</event>
<event>
 5    1  0.2540860E-005  0.4699231E+03  0.7818608E-02  0.1009101E+00
         21   -1    0    0  501  502  0.00000000000E+00  0.00000000000E+00  0.95936102242E+03  0.95936102242E+03  0.00000000000E+00 0.  1.
          4   -1    0    0  502    0 -0.00000000000E+00 -0.00000000000E+00 -0.41716662607E+03  0.41716662607E+03  0.00000000000E+00 0.  1.
        -13    1    1    2    0    0  0.23427077343E+03 -0.38262069324E+03  0.44504437568E+03  0.63193820716E+03  0.10566000000E+00 0.  1.
         13    1    1    2    0    0 -0.11939282967E+02 -0.72689970439E+02 -0.16017194779E+03  0.17629929751E+03  0.10566000000E+00 0. -1.
          4    1    1    2  501    0 -0.22233149046E+03  0.45531066368E+03  0.25732196846E+03  0.56829014382E+03  0.00000000000E+00 0.  1.
</event>
<event>
 5    1  0.2540860E-005  0.8138879E+02  0.7818608E-02  0.1199661E+00
          4   -1    0    0  502    0 -0.00000000000E+00  0.00000000000E+00  0.33446183510E+03  0.33446183510E+03  0.00000000000E+00 0.  1.
         21   -1    0    0  501  502  0.00000000000E+00 -0.00000000000E+00 -0.27760870347E+02  0.27760870347E+02  0.00000000000E+00 0. -1.
        -13    1    1    2    0    0  0.78377250263E+02 -0.29707461084E+01  0.16712612705E+03  0.18461574201E+03  0.10566000000E+00 0.  1.
         13    1    1    2    0    0 -0.84328236586E+02  0.22070263067E+02  0.12679595924E+03  0.15386869220E+03  0.10566000000E+00 0. -1.
          4    1    1    2  501    0  0.59509863229E+01 -0.19099516958E+02  0.12778878463E+02  0.23738271231E+02  0.00000000000E+00 0.  1.
</event>
<event>
 5    1  0.2540860E-005  0.4849564E+03  0.7818608E-02  0.9511568E-01
          4   -1    0    0  502    0 -0.00000000000E+00  0.00000000000E+00  0.45314193706E+04  0.45314193706E+04  0.00000000000E+00 0.  1.
         21   -1    0    0  501  502  0.00000000000E+00 -0.00000000000E+00 -0.20498941025E+03  0.20498941025E+03  0.00000000000E+00 0.  1.
        -13    1    1    2    0    0  0.45557753795E+03 -0.42244098904E+03  0.90483278256E+03  0.10976017756E+04  0.10566000000E+00 0.  1.
         13    1    1    2    0    0 -0.49022629348E+03 -0.55395326705E+02  0.28527282731E+04  0.28950732412E+04  0.10566000000E+00 0. -1.
          4    1    1    2  501    0  0.34648755535E+02  0.47783631575E+03  0.56886890472E+03  0.74373376397E+03  0.00000000000E+00 0.  1.
</event>
<event>
 5    1  0.2540860E-005  0.2395017E+03  0.7818608E-02  0.1047895E+00
         -4   -1    0    0    0  501 -0.00000000000E+00  0.00000000000E+00  0.15334214183E+04  0.15334214183E+04  0.00000000000E+00 0. -1.
         21   -1    0    0  501  502  0.00000000000E+00 -0.00000000000E+00 -0.30468447051E+03  0.30468447051E+03  0.00000000000E+00 0. -1.
        -13    1    1    2    0    0 -0.13732998972E+03  0.95284858417E+02  0.68904873438E+03  0.70903236867E+03  0.10566000000E+00 0.  1.
         13    1    1    2    0    0  0.12666981755E+03 -0.32866785650E+03  0.74114246913E+03  0.82058514079E+03  0.10566000000E+00 0. -1.
         -4    1    1    2    0  502  0.10660172168E+02  0.23338299808E+03 -0.20145425570E+03  0.30848837937E+03  0.00000000000E+00 0. -1.
</event>
<event>
 5    1  0.2540860E-005  0.2047249E+03  0.7818608E-02  0.1056944E+00
          4   -1    0    0  502    0 -0.00000000000E+00  0.00000000000E+00  0.14131998548E+03  0.14131998548E+03  0.00000000000E+00 0.  1.
         21   -1    0    0  501  502  0.00000000000E+00 -0.00000000000E+00 -0.39335458880E+03  0.39335458880E+03  0.00000000000E+00 0.  1.
        -13    1    1    2    0    0 -0.21074605806E+03 -0.39037635840E+02 -0.26691157201E+02  0.21598672885E+03  0.10566000000E+00 0.  1.
         13    1    1    2    0    0  0.18730301729E+03  0.23912483469E+02 -0.15948303755E+03  0.24716204721E+03  0.10566000000E+00 0. -1.
          4    1    1    2  501    0  0.23443040774E+02  0.15125152371E+02 -0.65860408574E+02  0.71525798230E+02  0.00000000000E+00 0.  1.
</event>
<event>
 5    1  0.2540860E-005  0.2088281E+03  0.7818608E-02  0.1054247E+00
         21   -1    0    0  501  502  0.00000000000E+00  0.00000000000E+00  0.39829062627E+02  0.39829062627E+02  0.00000000000E+00 0.  1.
         -4   -1    0    0    0  501 -0.00000000000E+00 -0.00000000000E+00 -0.17691643584E+04  0.17691643584E+04  0.00000000000E+00 0. -1.
        -13    1    1    2    0    0  0.94151123897E+02  0.15652745907E+03 -0.35953425825E+03  0.40327431556E+03  0.10566000000E+00 0.  1.
         13    1    1    2    0    0 -0.17915553890E+03 -0.14124861872E+03 -0.10466735240E+04  0.10712485036E+04  0.10566000000E+00 0. -1.
         -4    1    1    2    0  502  0.85004415000E+02 -0.15278840349E+02 -0.32312751351E+03  0.33447060187E+03  0.00000000000E+00 0. -1.
</event>
<event>
 5    1  0.2540860E-005  0.4338740E+03  0.7818608E-02  0.9636028E-01
         21   -1    0    0  501  502  0.00000000000E+00  0.00000000000E+00  0.13516399251E+04  0.13516399251E+04  0.00000000000E+00 0.  1.
          4   -1    0    0  502    0 -0.00000000000E+00 -0.00000000000E+00 -0.57248465952E+03  0.57248465952E+03  0.00000000000E+00 0.  1.
        -13    1    1    2    0    0  0.21289084731E+03  0.72976273987E+02  0.99217882402E+03  0.10173823664E+04  0.10566000000E+00 0.  1.
         13    1    1    2    0    0 -0.16755165063E+03 -0.46090410516E+03 -0.10532387895E+03  0.50159673088E+03  0.10566000000E+00 0. -1.
          4    1    1    2  501    0 -0.45339196685E+02  0.38792783117E+03 -0.10769967949E+03  0.40514548735E+03  0.00000000000E+00 0.  1.
</event>
<event>
 5    1  0.2540860E-005  0.1406238E+03  0.7818608E-02  0.1110745E+00
          4   -1    0    0  502    0 -0.00000000000E+00  0.00000000000E+00  0.67848527056E+03  0.67848527056E+03  0.00000000000E+00 0.  1.
         21   -1    0    0  501  502  0.00000000000E+00 -0.00000000000E+00 -0.14683779309E+03  0.14683779309E+03  0.00000000000E+00 0.  1.
        -13    1    1    2    0    0 -0.86878205437E+02  0.11993683842E+03  0.53484025696E+03  0.55496556597E+03  0.10566000000E+00 0.  1.
         13    1    1    2    0    0  0.35436271191E+01 -0.13159730580E+03  0.78338956801E+02  0.15319076834E+03  0.10566000000E+00 0. -1.
          4    1    1    2  501    0  0.83334578318E+02  0.11660467384E+02 -0.81531736284E+02  0.11716672934E+03  0.00000000000E+00 0.  1.
</event>
<event>
 5    1  0.2540860E-005  0.1748474E+03  0.7818608E-02  0.1078896E+00
          4   -1    0    0  502    0 -0.00000000000E+00  0.00000000000E+00  0.34442680739E+03  0.34442680739E+03  0.00000000000E+00 0.  1.
         21   -1    0    0  501  502  0.00000000000E+00 -0.00000000000E+00 -0.23216443024E+03  0.23216443024E+03  0.00000000000E+00 0.  1.
        -13    1    1    2    0    0 -0.16051474178E+03  0.14349614409E+03 -0.85757813589E+02  0.23175534395E+03  0.10566000000E+00 0.  1.
         13    1    1    2    0    0  0.64589857489E+02 -0.15707405509E+03  0.17777540953E+03  0.24586218878E+03  0.10566000000E+00 0. -1.
          4    1    1    2  501    0  0.95924884288E+02  0.13577911007E+02  0.20244781211E+02  0.98973704888E+02  0.00000000000E+00 0.  1.
</event>
<event>
 5    1  0.2540860E-005  0.4077721E+02  0.7818608E-02  0.1334684E+00
         21   -1    0    0  501  502  0.00000000000E+00  0.00000000000E+00  0.45155484451E+02  0.45155484451E+02  0.00000000000E+00 0. -1.
          4   -1    0    0  502    0 -0.00000000000E+00 -0.00000000000E+00 -0.11734164225E+03  0.11734164225E+03  0.00000000000E+00 0.  1.
        -13    1    1    2    0    0  0.15758406301E+02 -0.39115378867E+02 -0.10151634865E+03  0.10992688680E+03  0.10566000000E+00 0.  1.
         13    1    1    2    0    0 -0.71217857963E+01  0.30008011413E+02  0.23251653754E+02  0.38624488971E+02  0.10566000000E+00 0. -1.
          4    1    1    2  501    0 -0.86366205050E+01  0.91073674541E+01  0.60785371024E+01  0.13945750930E+02  0.00000000000E+00 0.  1.
</event>
<event>
 5    1  0.2540860E-005  0.1552948E+03  0.7818608E-02  0.1096004E+00
          4   -1    0    0  502    0 -0.00000000000E+00  0.00000000000E+00  0.32048116486E+03  0.32048116486E+03  0.00000000000E+00 0.  1.
         21   -1    0    0  501  502  0.00000000000E+00 -0.00000000000E+00 -0.22245315218E+03  0.22245315218E+03  0.00000000000E+00 0. -1.
        -13    1    1    2    0    0 -0.76784737194E+02 -0.14049445369E+03  0.26467903220E+03  0.30933733793E+03  0.10566000000E+00 0.  1.
         13    1    1    2    0    0  0.69730489180E+02  0.10375039997E+03 -0.11529614513E+03  0.17005792796E+03  0.10566000000E+00 0. -1.
          4    1    1    2  501    0  0.70542480142E+01  0.36744053724E+02 -0.51354874387E+02  0.63539051161E+02  0.00000000000E+00 0.  1.
</event>
<event>
 5    1  0.2540860E-005  0.1343846E+03  0.7818608E-02  0.1117622E+00
          4   -1    0    0  502    0 -0.00000000000E+00  0.00000000000E+00  0.41011056267E+03  0.41011056267E+03  0.00000000000E+00 0.  1.
         21   -1    0    0  501  502  0.00000000000E+00 -0.00000000000E+00 -0.38251528918E+03  0.38251528918E+03  0.00000000000E+00 0. -1.
        -13    1    1    2    0    0 -0.12765747567E+03 -0.44995716789E+02  0.38167093907E+03  0.40496143337E+03  0.10566000000E+00 0.  1.
         13    1    1    2    0    0  0.10399837007E+03  0.23672144400E+02 -0.33251572616E+03  0.34920302219E+03  0.10566000000E+00 0. -1.
          4    1    1    2  501    0  0.23659105603E+02  0.21323572389E+02 -0.21559939414E+02  0.38461396294E+02  0.00000000000E+00 0.  1.
</event>
<event>
 5    1  0.2540860E-005  0.3317986E+03  0.7818608E-02  0.1004746E+00
         21   -1    0    0  501  502  0.00000000000E+00  0.00000000000E+00  0.48285439746E+03  0.48285439746E+03  0.00000000000E+00 0. -1.
         -4   -1    0    0    0  501 -0.00000000000E+00 -0.00000000000E+00 -0.11726279388E+04  0.11726279388E+04  0.00000000000E+00 0. -1.
        -13    1    1    2    0    0 -0.33780091562E+03 -0.19368070084E+03 -0.30797069800E+03  0.49645506792E+03  0.10566000000E+00 0.  1.
         13    1    1    2    0    0 -0.25062323403E+03  0.63185951453E+02  0.19577491555E+03  0.32424111186E+03  0.10566000000E+00 0. -1.
         -4    1    1    2    0  502  0.58842414965E+03  0.13049474939E+03 -0.57757775893E+03  0.83478615653E+03  0.00000000000E+00 0. -1.
</event>
<event>
 5    1  0.2540860E-005  0.9161503E+02  0.7818608E-02  0.1179227E+00
         21   -1    0    0  501  502  0.00000000000E+00  0.00000000000E+00  0.19937195724E+03  0.19937195724E+03  0.00000000000E+00 0.  1.
          4   -1    0    0  502    0 -0.00000000000E+00 -0.00000000000E+00 -0.20724022914E+03  0.20724022914E+03  0.00000000000E+00 0.  1.
        -13    1    1    2    0    0 -0.92735220721E+02  0.30200130434E+02 -0.12235415589E+03  0.15646859004E+03  0.10566000000E+00 0.  1.
         13    1    1    2    0    0  0.74034705184E+02 -0.38295051003E+02 -0.41305060929E+02  0.93025629400E+02  0.10566000000E+00 0. -1.
          4    1    1    2  501    0  0.18700515537E+02  0.80949205687E+01  0.15579094491E+03  0.15711796694E+03  0.00000000000E+00 0.  1.
</event>
<event>
 5    1  0.2540860E-005  0.4201761E+03  0.7818608E-02  0.9672520E-01
         21   -1    0    0  501  502  0.00000000000E+00  0.00000000000E+00  0.74227890246E+03  0.74227890246E+03  0.00000000000E+00 0.  1.
          4   -1    0    0  502    0 -0.00000000000E+00 -0.00000000000E+00 -0.80151469379E+03  0.80151469379E+03  0.00000000000E+00 0.  1.
        -13    1    1    2    0    0 -0.19299218563E+03  0.52153480565E+03 -0.18043514376E+03  0.58463782762E+03  0.10566000000E+00 0.  1.
         13    1    1    2    0    0  0.35570017837E+03 -0.16855944965E+03 -0.21211814899E+03  0.44713423628E+03  0.10566000000E+00 0. -1.
          4    1    1    2  501    0 -0.16270799274E+03 -0.35297535600E+03  0.33331750142E+03  0.51202153236E+03  0.00000000000E+00 0.  1.
</event>
<event>
 5    1  0.2540860E-005  0.1314707E+03  0.7818608E-02  0.1120973E+00
         -4   -1    0    0    0  501 -0.00000000000E+00  0.00000000000E+00  0.84814579667E+03  0.84814579667E+03  0.00000000000E+00 0. -1.
         21   -1    0    0  501  502  0.00000000000E+00 -0.00000000000E+00 -0.10871950474E+03  0.10871950474E+03  0.00000000000E+00 0. -1.
        -13    1    1    2    0    0 -0.11088627049E+03  0.34537203982E+02  0.16938540897E+02  0.11736911337E+03  0.10566000000E+00 0.  1.
         13    1    1    2    0    0  0.13259025869E+03 -0.14993135530E+02  0.77122195903E+03  0.78268019782E+03  0.10566000000E+00 0. -1.
         -4    1    1    2    0  502 -0.21703988207E+02 -0.19544068451E+02 -0.48734207992E+02  0.56815990217E+02  0.00000000000E+00 0. -1.
</event>
<event>
 5    1  0.2540860E-005  0.6932193E+02  0.7818608E-02  0.1255464E+00
          4   -1    0    0  502    0 -0.00000000000E+00  0.00000000000E+00  0.43841538618E+03  0.43841538618E+03  0.00000000000E+00 0.  1.
         21   -1    0    0  501  502  0.00000000000E+00 -0.00000000000E+00 -0.79791046887E+02  0.79791046887E+02  0.00000000000E+00 0. -1.
        -13    1    1    2    0    0  0.44033142678E+02  0.10900608787E+02  0.21495588801E+03  0.21969020433E+03  0.10566000000E+00 0.  1.
         13    1    1    2    0    0 -0.12549989661E+03  0.32503007035E+02  0.15877725510E+03  0.20498023665E+03  0.10566000000E+00 0. -1.
          4    1    1    2  501    0  0.81466753930E+02 -0.43403615822E+02 -0.15108803820E+02  0.93535992084E+02  0.00000000000E+00 0.  1.
</event>
<event>
 5    1  0.2540860E-005  0.4756415E+03  0.7818608E-02  0.9685119E-01
          4   -1    0    0  502    0 -0.00000000000E+00  0.00000000000E+00  0.36694208936E+04  0.36694208936E+04  0.00000000000E+00 0.  1.
         21   -1    0    0  501  502  0.00000000000E+00 -0.00000000000E+00 -0.12347018715E+03  0.12347018715E+03  0.00000000000E+00 0. -1.
        -13    1    1    2    0    0 -0.48681741426E+03  0.11545033278E+03  0.20419947447E+04  0.21023944736E+04  0.10566000000E+00 0.  1.
         13    1    1    2    0    0  0.14536627313E+03  0.23599126334E+03  0.45572826070E+03  0.53339618343E+03  0.10566000000E+00 0. -1.
          4    1    1    2  501    0  0.34145114114E+03 -0.35144159612E+03  0.10482277011E+04  0.11571004237E+04  0.00000000000E+00 0.  1.
</event>
<event>
 5    1  0.2540860E-005  0.6834596E+03  0.7818608E-02  0.9164390E-01
         21   -1    0    0  501  502  0.00000000000E+00  0.00000000000E+00  0.86758865780E+03  0.86758865780E+03  0.00000000000E+00 0.  1.
          4   -1    0    0  502    0 -0.00000000000E+00 -0.00000000000E+00 -0.20753415899E+04  0.20753415899E+04  0.00000000000E+00 0.  1.
        -13    1    1    2    0    0 -0.37620475274E+03  0.38371825965E+03 -0.65842655656E+03  0.84987955636E+03  0.10566000000E+00 0.  1.
         13    1    1    2    0    0  0.32822262775E+03 -0.10887437820E+04 -0.74542737463E+03  0.13596893389E+04  0.10566000000E+00 0. -1.
          4    1    1    2  501    0  0.47982124983E+02  0.70502552237E+03  0.19610099906E+03  0.73336135250E+03  0.00000000000E+00 0.  1.
</event>
<event>
 5    1  0.2540860E-005  0.2984400E+03  0.7818608E-02  0.1007952E+00
          4   -1    0    0  502    0 -0.00000000000E+00  0.00000000000E+00  0.27086946347E+04  0.27086946347E+04  0.00000000000E+00 0.  1.
         21   -1    0    0  501  502  0.00000000000E+00 -0.00000000000E+00 -0.51003302117E+02  0.51003302117E+02  0.00000000000E+00 0. -1.
        -13    1    1    2    0    0  0.32638463140E+03 -0.34997442300E+02  0.18703212431E+04  0.18989084528E+04  0.10566000000E+00 0.  1.
         13    1    1    2    0    0 -0.25159435375E+03 -0.10529119201E+02  0.65834592962E+03  0.70486165692E+03  0.10566000000E+00 0. -1.
          4    1    1    2  501    0 -0.74790277656E+02  0.45526561500E+02  0.12902415989E+03  0.15592782712E+03  0.00000000000E+00 0.  1.
</event>
<event>
 5    1  0.2540860E-005  0.4867701E+03  0.7818608E-02  0.1013373E+00
          4   -1    0    0  502    0 -0.00000000000E+00  0.00000000000E+00  0.11231353558E+03  0.11231353558E+03  0.00000000000E+00 0.  1.
         21   -1    0    0  501  502  0.00000000000E+00 -0.00000000000E+00 -0.23890870145E+04  0.23890870145E+04  0.00000000000E+00 0.  1.
        -13    1    1    2    0    0  0.42232487548E+03  0.25478295765E+03 -0.10319799978E+04  0.11437899208E+04  0.10566000000E+00 0.  1.
         13    1    1    2    0    0  0.17133870602E+02 -0.55197008940E+02 -0.10545061031E+03  0.12025024614E+03  0.10566000000E+00 0. -1.
          4    1    1    2  501    0 -0.43945874609E+03 -0.19958594871E+03 -0.11393428708E+04  0.12373603831E+04  0.00000000000E+00 0.  1.
</event>
<event>
 5    1  0.2540860E-005  0.1309250E+03  0.7818608E-02  0.1121611E+00
          4   -1    0    0  502    0 -0.00000000000E+00  0.00000000000E+00  0.14172320289E+03  0.14172320289E+03  0.00000000000E+00 0.  1.
         21   -1    0    0  501  502  0.00000000000E+00 -0.00000000000E+00 -0.84813353235E+03  0.84813353235E+03  0.00000000000E+00 0.  1.
        -13    1    1    2    0    0  0.47434804621E+02 -0.12249904699E+03  0.67979050892E+02  0.14790956605E+03  0.10566000000E+00 0.  1.
         13    1    1    2    0    0 -0.56302403462E+02  0.11702523631E+03 -0.91226014761E+02  0.15870432729E+03  0.10566000000E+00 0. -1.
          4    1    1    2  501    0  0.88675988408E+01  0.54738106877E+01 -0.68316336560E+03  0.68324284190E+03  0.00000000000E+00 0.  1.
</event>
<event>
 5    1  0.2540860E-005  0.6676768E+03  0.7818608E-02  0.9171234E-01
         21   -1    0    0  501  502  0.00000000000E+00  0.00000000000E+00  0.30756645601E+03  0.30756645601E+03  0.00000000000E+00 0. -1.
         -4   -1    0    0    0  501 -0.00000000000E+00 -0.00000000000E+00 -0.31397448245E+04  0.31397448245E+04  0.00000000000E+00 0. -1.
        -13    1    1    2    0    0 -0.83256089185E+02  0.50989654489E+03 -0.15134364102E+03  0.53835951902E+03  0.10566000000E+00 0.  1.
         13    1    1    2    0    0 -0.24968750864E+03 -0.69656301256E+03 -0.19220913917E+04  0.20596065672E+04  0.10566000000E+00 0. -1.
         -4    1    1    2    0  502  0.33294359782E+03  0.18666646767E+03 -0.75874333579E+03  0.84934519431E+03  0.00000000000E+00 0. -1.
</event>
<event>
 5    1  0.2540860E-005  0.3755658E+03  0.7818608E-02  0.9802392E-01
         21   -1    0    0  501  502  0.00000000000E+00  0.00000000000E+00  0.17389206455E+04  0.17389206455E+04  0.00000000000E+00 0. -1.
         -4   -1    0    0    0  501 -0.00000000000E+00 -0.00000000000E+00 -0.22207557634E+03  0.22207557634E+03  0.00000000000E+00 0. -1.
        -13    1    1    2    0    0 -0.19348026237E+02 -0.40567327733E+03  0.32394246508E+03  0.51950349942E+03  0.10566000000E+00 0.  1.
         13    1    1    2    0    0  0.98233253666E+01  0.35679817278E+03  0.13374948185E+03  0.38116973762E+03  0.10566000000E+00 0. -1.
         -4    1    1    2    0  502  0.95247008702E+01  0.48875104554E+02  0.10591531222E+04  0.10603229848E+04  0.00000000000E+00 0. -1.
</event>
<event>
 5    1  0.2540860E-005  0.1279544E+03  0.7818608E-02  0.1125145E+00
          4   -1    0    0  502    0 -0.00000000000E+00  0.00000000000E+00  0.11544210278E+03  0.11544210278E+03  0.00000000000E+00 0.  1.
         21   -1    0    0  501  502  0.00000000000E+00 -0.00000000000E+00 -0.32843433671E+03  0.32843433671E+03  0.00000000000E+00 0. -1.
        -13    1    1    2    0    0  0.19217607563E-01 -0.12945043259E+03  0.57657506115E+02  0.14171031734E+03  0.10566000000E+00 0.  1.
         13    1    1    2    0    0 -0.32614559000E+01  0.11958750468E+03 -0.21960589419E+03  0.25007712470E+03  0.10566000000E+00 0. -1.
          4    1    1    2  501    0  0.32422382924E+01  0.98629279020E+01 -0.51043845844E+02  0.52088997442E+02  0.00000000000E+00 0.  1.
</event>
<event>
 5    1  0.2540860E-005  0.1957236E+03  0.7818608E-02  0.1063108E+00
         21   -1    0    0  501  502  0.00000000000E+00  0.00000000000E+00  0.10619036336E+04  0.10619036336E+04  0.00000000000E+00 0. -1.
          4   -1    0    0  502    0 -0.00000000000E+00 -0.00000000000E+00 -0.11938116807E+03  0.11938116807E+03  0.00000000000E+00 0.  1.
        -13    1    1    2    0    0  0.40268409768E+01  0.19549514785E+03 -0.11021284387E+02  0.19584700191E+03  0.10566000000E+00 0.  1.
         13    1    1    2    0    0 -0.50519723975E+02 -0.19571773250E+03  0.76707610137E+03  0.79326126200E+03  0.10566000000E+00 0. -1.
          4    1    1    2  501    0  0.46492882998E+02  0.22258465161E+00  0.18646764854E+03  0.19217653776E+03  0.00000000000E+00 0.  1.
</event>
<event>
 5    1  0.2540860E-005  0.4455919E+03  0.7818608E-02  0.1011121E+00
         21   -1    0    0  501  502  0.00000000000E+00  0.00000000000E+00  0.35184572040E+03  0.35184572040E+03  0.00000000000E+00 0. -1.
         -4   -1    0    0    0  501 -0.00000000000E+00 -0.00000000000E+00 -0.88767754619E+03  0.88767754619E+03  0.00000000000E+00 0. -1.
        -13    1    1    2    0    0 -0.50582883122E+01  0.80816280786E+02 -0.85492994178E+02  0.11775364427E+03  0.10566000000E+00 0.  1.
         13    1    1    2    0    0 -0.41804210325E+03  0.13023398287E+03  0.41133432566E+02  0.43978638090E+03  0.10566000000E+00 0. -1.
         -4    1    1    2    0  502  0.42310039156E+03 -0.21105026366E+03 -0.49147226418E+03  0.68198324142E+03  0.00000000000E+00 0. -1.
</event>
<event>
 5    1  0.2540860E-005  0.2056492E+03  0.7818608E-02  0.1056331E+00
         -4   -1    0    0    0  501 -0.00000000000E+00  0.00000000000E+00  0.73376895376E+03  0.73376895376E+03  0.00000000000E+00 0. -1.
         21   -1    0    0  501  502  0.00000000000E+00 -0.00000000000E+00 -0.19411881666E+03  0.19411881666E+03  0.00000000000E+00 0. -1.
        -13    1    1    2    0    0 -0.13520902659E+03 -0.21627112099E+03  0.29856377929E+03  0.39267673743E+03  0.10566000000E+00 0.  1.
         13    1    1    2    0    0  0.84980317725E+02  0.16165941864E+03  0.35502252415E+03  0.39924481944E+03  0.10566000000E+00 0. -1.
         -4    1    1    2    0  502  0.50228708862E+02  0.54611702359E+02 -0.11393616634E+03  0.13596621356E+03  0.00000000000E+00 0. -1.
</event>
<event>
 5    1  0.2540860E-005  0.2860393E+03  0.7818608E-02  0.1054636E+00
          4   -1    0    0  502    0 -0.00000000000E+00  0.00000000000E+00  0.52383226846E+03  0.52383226846E+03  0.00000000000E+00 0.  1.
         21   -1    0    0  501  502  0.00000000000E+00 -0.00000000000E+00 -0.54609003601E+03  0.54609003601E+03  0.00000000000E+00 0.  1.
        -13    1    1    2    0    0 -0.28892681262E+03 -0.58900310241E+02  0.27996892723E+03  0.40660860908E+03  0.10566000000E+00 0.  1.
         13    1    1    2    0    0  0.34684360632E+02 -0.72457942398E+02  0.12530592081E+03  0.14884469504E+03  0.10566000000E+00 0. -1.
          4    1    1    2  501    0  0.25424245199E+03  0.13135825264E+03 -0.42753261558E+03  0.51446900035E+03  0.00000000000E+00 0.  1.
</event>
<event>
 5    1  0.2540860E-005  0.3193597E+02  0.7818608E-02  0.1410503E+00
         21   -1    0    0  501  502  0.00000000000E+00  0.00000000000E+00  0.12466512314E+02  0.12466512314E+02  0.00000000000E+00 0.  1.
          4   -1    0    0  502    0 -0.00000000000E+00 -0.00000000000E+00 -0.16828749969E+03  0.16828749969E+03  0.00000000000E+00 0.  1.
        -13    1    1    2    0    0  0.21622469409E+02 -0.29134891144E+02 -0.59115360050E+02  0.69361444788E+02  0.10566000000E+00 0.  1.
         13    1    1    2    0    0 -0.22597274644E+02 -0.18183207247E+01 -0.27978613046E+02  0.36010513237E+02  0.10566000000E+00 0. -1.
          4    1    1    2  501    0  0.97480523473E+00  0.30953211868E+02 -0.68727014277E+02  0.75382053976E+02  0.00000000000E+00 0.  1.
</event>
<event>
 5    1  0.2540860E-005  0.4579873E+03  0.7818608E-02  0.9575138E-01
         21   -1    0    0  501  502  0.00000000000E+00  0.00000000000E+00  0.56444159905E+03  0.56444159905E+03  0.00000000000E+00 0.  1.
          4   -1    0    0  502    0 -0.00000000000E+00 -0.00000000000E+00 -0.86107962768E+03  0.86107962768E+03  0.00000000000E+00 0.  1.
        -13    1    1    2    0    0 -0.30443940630E+03 -0.35580414753E+03 -0.45475912422E+03  0.65275249194E+03  0.10566000000E+00 0.  1.
         13    1    1    2    0    0  0.18403648369E+03  0.41277636451E+03 -0.11722160286E+03  0.46689899311E+03  0.10566000000E+00 0. -1.
          4    1    1    2  501    0  0.12040292261E+03 -0.56972216981E+02  0.27534269845E+03  0.30586974167E+03  0.00000000000E+00 0.  1.
</event>
<event>
 5    1  0.2540860E-005  0.2595018E+03  0.7818608E-02  0.1037564E+00
         -4   -1    0    0    0  501 -0.00000000000E+00  0.00000000000E+00  0.11402075522E+04  0.11402075522E+04  0.00000000000E+00 0. -1.
         21   -1    0    0  501  502  0.00000000000E+00 -0.00000000000E+00 -0.26378843646E+03  0.26378843646E+03  0.00000000000E+00 0. -1.
        -13    1    1    2    0    0  0.17424416679E+03  0.42761506762E+02  0.12858131787E+03  0.22073228715E+03  0.10566000000E+00 0.  1.
         13    1    1    2    0    0 -0.30941030738E+03 -0.24978571676E+03  0.83195421309E+03  0.92210382628E+03  0.10566000000E+00 0. -1.
         -4    1    1    2    0  502  0.13516614058E+03  0.20702421000E+03 -0.84116415271E+02  0.26115987518E+03  0.00000000000E+00 0. -1.
</event>
<event>
 5    1  0.2540860E-005  0.4455811E+03  0.7818608E-02  0.9605955E-01
         21   -1    0    0  501  502  0.00000000000E+00  0.00000000000E+00  0.61506043196E+03  0.61506043196E+03  0.00000000000E+00 0. -1.
         -4   -1    0    0    0  501 -0.00000000000E+00 -0.00000000000E+00 -0.17202497675E+04  0.17202497675E+04  0.00000000000E+00 0. -1.
        -13    1    1    2    0    0 -0.26474077256E+03 -0.37524476894E+03 -0.11537863405E+04  0.12418209388E+04  0.10566000000E+00 0.  1.
         13    1    1    2    0    0  0.19832035416E+03  0.19552484119E+03  0.51709669531E+03  0.58732438214E+03  0.10566000000E+00 0. -1.
         -4    1    1    2    0  502  0.66420418402E+02  0.17971992776E+03 -0.46849969034E+03  0.50616487854E+03  0.00000000000E+00 0. -1.
</event>
<event>
 5    1  0.2540860E-005  0.1511581E+03  0.7818608E-02  0.1105108E+00
         21   -1    0    0  501  502  0.00000000000E+00  0.00000000000E+00  0.38983086234E+03  0.38983086234E+03  0.00000000000E+00 0.  1.
          4   -1    0    0  502    0 -0.00000000000E+00 -0.00000000000E+00 -0.14619005332E+03  0.14619005332E+03  0.00000000000E+00 0.  1.
        -13    1    1    2    0    0  0.32735503809E+02  0.17660848639E+03  0.18151541777E+03  0.25536254371E+03  0.10566000000E+00 0.  1.
         13    1    1    2    0    0 -0.11568655139E+03 -0.62767910829E+02  0.16780665575E+02  0.13268304603E+03  0.10566000000E+00 0. -1.
          4    1    1    2  501    0  0.82951047579E+02 -0.11384057556E+03  0.45344725665E+02  0.14797532593E+03  0.00000000000E+00 0.  1.
</event>
<event>
 5    1  0.2540860E-005  0.5635988E+03  0.7818608E-02  0.9348506E-01
         21   -1    0    0  501  502  0.00000000000E+00  0.00000000000E+00  0.40423533288E+03  0.40423533288E+03  0.00000000000E+00 0.  1.
         -4   -1    0    0    0  501 -0.00000000000E+00 -0.00000000000E+00 -0.15437257749E+04  0.15437257749E+04  0.00000000000E+00 0. -1.
        -13    1    1    2    0    0 -0.20905406846E+03  0.40847658663E+03 -0.19177033498E+03  0.49732544466E+03  0.10566000000E+00 0.  1.
         13    1    1    2    0    0 -0.11569509024E+02 -0.66723939811E+03 -0.87915050580E+03  0.11037426742E+04  0.10566000000E+00 0. -1.
         -4    1    1    2    0  502  0.22062357748E+03  0.25876281148E+03 -0.68569601269E+02  0.34689298892E+03  0.00000000000E+00 0. -1.
</event>
<event>
 5    1  0.2540860E-005  0.5798379E+03  0.7818608E-02  0.9318304E-01
          4   -1    0    0  502    0 -0.00000000000E+00  0.00000000000E+00  0.12258795942E+04  0.12258795942E+04  0.00000000000E+00 0.  1.
         21   -1    0    0  501  502  0.00000000000E+00 -0.00000000000E+00 -0.76734027206E+03  0.76734027206E+03  0.00000000000E+00 0.  1.
        -13    1    1    2    0    0 -0.72294740200E+03 -0.11960144136E+03 -0.50686095773E+02  0.73452470503E+03  0.10566000000E+00 0.  1.
         13    1    1    2    0    0  0.51076696641E+03 -0.23861619212E+03  0.60970732823E+03  0.83039967388E+03  0.10566000000E+00 0. -1.
          4    1    1    2  501    0  0.21218043559E+03  0.35821763348E+03 -0.10048191031E+03  0.42829548735E+03  0.00000000000E+00 0.  1.
</event>
<event>
 5    1  0.2540860E-005  0.7936822E+02  0.7818608E-02  0.1204092E+00
         21   -1    0    0  501  502  0.00000000000E+00  0.00000000000E+00  0.19354680762E+03  0.19354680762E+03  0.00000000000E+00 0.  1.
          4   -1    0    0  502    0 -0.00000000000E+00 -0.00000000000E+00 -0.14741569092E+03  0.14741569092E+03  0.00000000000E+00 0.  1.
        -13    1    1    2    0    0  0.35165282332E+02  0.73267416817E+02 -0.10715612007E+03  0.13448850018E+03  0.10566000000E+00 0.  1.
         13    1    1    2    0    0 -0.25735149665E+02 -0.67910443745E+02  0.23640109657E+02  0.76374028613E+02  0.10566000000E+00 0. -1.
          4    1    1    2  501    0 -0.94301326664E+01 -0.53569730725E+01  0.12964712711E+03  0.13009996975E+03  0.00000000000E+00 0.  1.
</event>
<event>
 5    1  0.2540860E-005  0.3802650E+03  0.7818608E-02  0.9787837E-01
         -4   -1    0    0    0  501 -0.00000000000E+00  0.00000000000E+00  0.17158663484E+04  0.17158663484E+04  0.00000000000E+00 0. -1.
         21   -1    0    0  501  502  0.00000000000E+00 -0.00000000000E+00 -0.60547797640E+03  0.60547797640E+03  0.00000000000E+00 0. -1.
        -13    1    1    2    0    0  0.31397357144E+02  0.35025269556E+03  0.11607808540E+04  0.12128787850E+04  0.10566000000E+00 0.  1.
         13    1    1    2    0    0 -0.25607662887E+02 -0.70149453134E+03  0.12947936784E+03  0.71380336772E+03  0.10566000000E+00 0. -1.
         -4    1    1    2    0  502 -0.57896942567E+01  0.35124183578E+03 -0.17987184983E+03  0.39466217215E+03  0.00000000000E+00 0. -1.
</event>
<event>
 5    1  0.2540860E-005  0.5173571E+03  0.7818608E-02  0.9533278E-01
          4   -1    0    0  502    0 -0.00000000000E+00  0.00000000000E+00  0.19762432698E+04  0.19762432698E+04  0.00000000000E+00 0.  1.
         21   -1    0    0  501  502  0.00000000000E+00 -0.00000000000E+00 -0.34121173878E+03  0.34121173878E+03  0.00000000000E+00 0.  1.
        -13    1    1    2    0    0  0.30623078659E+03 -0.39501232376E+03  0.38106749939E+03  0.62850973010E+03  0.10566000000E+00 0.  1.
         13    1    1    2    0    0 -0.31207091517E+03 -0.19741341657E+03  0.95794465140E+03  0.10266539239E+04  0.10566000000E+00 0. -1.
          4    1    1    2  501    0  0.58401285739E+01  0.59242574032E+03  0.29601938024E+03  0.66229135460E+03  0.00000000000E+00 0.  1.
</event>
<event>
 5    1  0.2540860E-005  0.4940071E+03  0.7818608E-02  0.9927510E-01
          4   -1    0    0  502    0 -0.00000000000E+00  0.00000000000E+00  0.53188121239E+03  0.53188121239E+03  0.00000000000E+00 0.  1.
         21   -1    0    0  501  502  0.00000000000E+00 -0.00000000000E+00 -0.61953578807E+03  0.61953578807E+03  0.00000000000E+00 0.  1.
        -13    1    1    2    0    0  0.86910144842E+02  0.42934557569E+03  0.12995658870E+03  0.45692419804E+03  0.10566000000E+00 0.  1.
         13    1    1    2    0    0  0.69314546420E+02  0.83156937411E+02 -0.96874502493E+02  0.14527306351E+03  0.10566000000E+00 0. -1.
          4    1    1    2  501    0 -0.15622469126E+03 -0.51250251310E+03 -0.12073666188E+03  0.54921973892E+03  0.00000000000E+00 0.  1.
</event>
<event>
 5    1  0.2540860E-005  0.4312458E+03  0.7818608E-02  0.1036074E+00
          4   -1    0    0  502    0 -0.00000000000E+00  0.00000000000E+00  0.11610425751E+04  0.11610425751E+04  0.00000000000E+00 0.  1.
         21   -1    0    0  501  502  0.00000000000E+00 -0.00000000000E+00 -0.23188518055E+03  0.23188518055E+03  0.00000000000E+00 0.  1.
        -13    1    1    2    0    0 -0.38430568449E+03  0.21286112316E+03  0.11720308673E+03  0.45468372698E+03  0.10566000000E+00 0.  1.
         13    1    1    2    0    0  0.15817529798E+02 -0.37728408016E+02  0.16209768569E+02  0.44004485924E+02  0.10566000000E+00 0. -1.
          4    1    1    2  501    0  0.36848815469E+03 -0.17513271514E+03  0.79574453926E+03  0.89423954275E+03  0.00000000000E+00 0.  1.
</event>
<event>
 5    1  0.2540860E-005  0.5390557E+03  0.7818608E-02  0.9456653E-01
         -4   -1    0    0    0  501 -0.00000000000E+00  0.00000000000E+00  0.39607204319E+04  0.39607204319E+04  0.00000000000E+00 0. -1.
         21   -1    0    0  501  502  0.00000000000E+00 -0.00000000000E+00 -0.35431938073E+03  0.35431938073E+03  0.00000000000E+00 0. -1.
        -13    1    1    2    0    0  0.56370697269E+03 -0.21297056402E+03  0.28873722222E+04  0.29495830846E+04  0.10566000000E+00 0.  1.
         13    1    1    2    0    0 -0.20177826232E+02 -0.22216295687E+03  0.62409272381E+03  0.66276335381E+03  0.10566000000E+00 0. -1.
         -4    1    1    2    0  502 -0.54352914646E+03  0.43513352089E+03  0.94936105100E+02  0.70269337417E+03  0.00000000000E+00 0. -1.
</event>
<event>
 5    1  0.2540860E-005  0.6649556E+03  0.7818608E-02  0.9175426E-01
          4   -1    0    0  502    0 -0.00000000000E+00  0.00000000000E+00  0.63003383660E+03  0.63003383660E+03  0.00000000000E+00 0.  1.
         21   -1    0    0  501  502  0.00000000000E+00 -0.00000000000E+00 -0.85668386276E+03  0.85668386276E+03  0.00000000000E+00 0. -1.
        -13    1    1    2    0    0 -0.34541548075E+02  0.65727782715E+03 -0.10695210127E+03  0.66681783399E+03  0.10566000000E+00 0.  1.
         13    1    1    2    0    0  0.53751131745E+02 -0.66854932758E+03  0.27263294842E+02  0.67126052020E+03  0.10566000000E+00 0. -1.
          4    1    1    2  501    0 -0.19209583671E+02  0.11271500430E+02 -0.14696121973E+03  0.14863934517E+03  0.00000000000E+00 0.  1.
</event>
<event>
 5    1  0.2540860E-005  0.4259132E+02  0.7818608E-02  0.1325291E+00
          4   -1    0    0  502    0 -0.00000000000E+00  0.00000000000E+00  0.49232482909E+03  0.49232482909E+03  0.00000000000E+00 0.  1.
         21   -1    0    0  501  502  0.00000000000E+00 -0.00000000000E+00 -0.54358673136E+01  0.54358673136E+01  0.00000000000E+00 0. -1.
        -13    1    1    2    0    0 -0.18352433103E+02 -0.45110192416E+02  0.21603290492E+03  0.22145421295E+03  0.10566000000E+00 0.  1.
         13    1    1    2    0    0  0.22250955000E+02  0.32322480419E+02  0.22986605375E+03  0.23319146976E+03  0.10566000000E+00 0. -1.
          4    1    1    2  501    0 -0.38985218972E+01  0.12787711996E+02  0.40990003100E+02  0.43115013687E+02  0.00000000000E+00 0.  1.
</event>
<event>
 5    1  0.2540860E-005  0.5929111E+03  0.7818608E-02  0.9294738E-01
         21   -1    0    0  501  502  0.00000000000E+00  0.00000000000E+00  0.32830288641E+03  0.32830288641E+03  0.00000000000E+00 0. -1.
         -4   -1    0    0    0  501 -0.00000000000E+00 -0.00000000000E+00 -0.39978316155E+04  0.39978316155E+04  0.00000000000E+00 0. -1.
        -13    1    1    2    0    0 -0.36522298819E+03 -0.41790272575E+03 -0.27460134017E+04  0.28015388865E+04  0.10566000000E+00 0.  1.
         13    1    1    2    0    0  0.55592915671E+03  0.68565274216E+03 -0.70744893364E+03  0.11312209841E+04  0.10566000000E+00 0. -1.
         -4    1    1    2    0  502 -0.19070616852E+03 -0.26775001641E+03 -0.21606639381E+03  0.39337463128E+03  0.00000000000E+00 0. -1.
</event>
<event>
 5    1  0.2540860E-005  0.4318960E+03  0.7818608E-02  0.9730578E-01
         21   -1    0    0  501  502  0.00000000000E+00  0.00000000000E+00  0.38494252515E+03  0.38494252515E+03  0.00000000000E+00 0.  1.
          4   -1    0    0  502    0 -0.00000000000E+00 -0.00000000000E+00 -0.12427122304E+04  0.12427122304E+04  0.00000000000E+00 0.  1.
        -13    1    1    2    0    0  0.18791539148E+03 -0.29803687810E+03 -0.59027981496E+03  0.68743613970E+03  0.10566000000E+00 0.  1.
         13    1    1    2    0    0  0.27348056137E+03  0.15847965091E+03 -0.32667479668E+03  0.45455896334E+03  0.10566000000E+00 0. -1.
          4    1    1    2  501    0 -0.46139595285E+03  0.13955722719E+03  0.59184906348E+02  0.48565965254E+03  0.00000000000E+00 0.  1.
</event>
<event>
 5    1  0.2540860E-005  0.3748068E+03  0.7818608E-02  0.1021485E+00
         -4   -1    0    0    0  501 -0.00000000000E+00  0.00000000000E+00  0.12174056931E+04  0.12174056931E+04  0.00000000000E+00 0. -1.
         21   -1    0    0  501  502  0.00000000000E+00 -0.00000000000E+00 -0.27822745674E+03  0.27822745674E+03  0.00000000000E+00 0. -1.
        -13    1    1    2    0    0  0.42418519102E+02 -0.88247119789E+02  0.30184891964E+03  0.31733210736E+03  0.10566000000E+00 0.  1.
         13    1    1    2    0    0 -0.33301571466E+02 -0.35846107676E+03 -0.44889688795E+02  0.36279254890E+03  0.10566000000E+00 0. -1.
         -4    1    1    2    0  502 -0.91169476360E+01  0.44670819655E+03  0.68221900550E+03  0.81550849355E+03  0.00000000000E+00 0. -1.
</event>
<event>
 5    1  0.2540860E-005  0.1634901E+03  0.7818608E-02  0.1088520E+00
          4   -1    0    0  502    0 -0.00000000000E+00  0.00000000000E+00  0.37871454786E+03  0.37871454786E+03  0.00000000000E+00 0.  1.
         21   -1    0    0  501  502  0.00000000000E+00 -0.00000000000E+00 -0.15831426362E+03  0.15831426362E+03  0.00000000000E+00 0.  1.
        -13    1    1    2    0    0  0.76347017706E+02 -0.21242924873E+03  0.39816604842E+02  0.22921698457E+03  0.10566000000E+00 0.  1.
         13    1    1    2    0    0 -0.84875295751E+02  0.11849437937E+03  0.14876440661E+03  0.20826808111E+03  0.10566000000E+00 0. -1.
          4    1    1    2  501    0  0.85282780455E+01  0.93934869362E+02  0.31819272788E+02  0.99543745806E+02  0.00000000000E+00 0.  1.
</event>
<event>
 5    1  0.2540860E-005  0.1103901E+03  0.7818608E-02  0.1148423E+00
         21   -1    0    0  501  502  0.00000000000E+00  0.00000000000E+00  0.33607504084E+03  0.33607504084E+03  0.00000000000E+00 0. -1.
          4   -1    0    0  502    0 -0.00000000000E+00 -0.00000000000E+00 -0.12658557452E+03  0.12658557452E+03  0.00000000000E+00 0.  1.
        -13    1    1    2    0    0 -0.62293883628E+02  0.96722643477E+02 -0.73102450190E+02  0.13630765601E+03  0.10566000000E+00 0.  1.
         13    1    1    2    0    0  0.56102006150E+02 -0.76604118646E+02  0.84378846222E+02  0.12702530040E+03  0.10566000000E+00 0. -1.
          4    1    1    2  501    0  0.61918774782E+01 -0.20118524830E+02  0.19821307029E+03  0.19932765895E+03  0.00000000000E+00 0.  1.
</event>
<event>
 5    1  0.2540860E-005  0.4191217E+03  0.7818608E-02  0.9718373E-01
         -4   -1    0    0    0  501 -0.00000000000E+00  0.00000000000E+00  0.33048681737E+04  0.33048681737E+04  0.00000000000E+00 0. -1.
         21   -1    0    0  501  502  0.00000000000E+00 -0.00000000000E+00 -0.15066961175E+03  0.15066961175E+03  0.00000000000E+00 0.  1.
        -13    1    1    2    0    0 -0.21733616392E+03 -0.28801730320E+03  0.87038882245E+03  0.94221318633E+03  0.10566000000E+00 0.  1.
         13    1    1    2    0    0 -0.14754381611E+03 -0.30049168662E+03  0.51972577367E+03  0.61820653699E+03  0.10566000000E+00 0. -1.
         -4    1    1    2    0  502  0.36487998002E+03  0.58850898982E+03  0.17640839658E+04  0.18951180621E+04  0.00000000000E+00 0. -1.
</event>
<event>
 5    1  0.2540860E-005  0.4888996E+03  0.7818608E-02  0.9688362E-01
          4   -1    0    0  502    0 -0.00000000000E+00  0.00000000000E+00  0.20935275182E+04  0.20935275182E+04  0.00000000000E+00 0.  1.
         21   -1    0    0  501  502  0.00000000000E+00 -0.00000000000E+00 -0.25668618694E+03  0.25668618694E+03  0.00000000000E+00 0.  1.
        -13    1    1    2    0    0 -0.53232532318E+03  0.20543542042E+03  0.23262960956E+03  0.61619031806E+03  0.10566000000E+00 0.  1.
         13    1    1    2    0    0  0.16404611314E+03 -0.19175659707E+03  0.95214729770E+03  0.98502091726E+03  0.10566000000E+00 0. -1.
          4    1    1    2  501    0  0.36827921004E+03 -0.13678823353E+02  0.65206442397E+03  0.74900246980E+03  0.00000000000E+00 0.  1.
</event>
<event>
 5    1  0.2540860E-005  0.1644749E+03  0.7818608E-02  0.1087652E+00
         21   -1    0    0  501  502  0.00000000000E+00  0.00000000000E+00  0.46390634880E+02  0.46390634880E+02  0.00000000000E+00 0.  1.
         -4   -1    0    0    0  501 -0.00000000000E+00 -0.00000000000E+00 -0.12859935135E+04  0.12859935135E+04  0.00000000000E+00 0. -1.
        -13    1    1    2    0    0 -0.46467805121E+02 -0.16756642206E+03 -0.63659121248E+03  0.65991374109E+03  0.10566000000E+00 0.  1.
         13    1    1    2    0    0  0.52692467289E+02  0.14771581099E+03 -0.62370897460E+03  0.64312467927E+03  0.10566000000E+00 0. -1.
         -4    1    1    2    0  502 -0.62246621676E+01  0.19850611069E+02  0.20697308424E+02  0.29345728052E+02  0.00000000000E+00 0. -1.
</event>
<event>
 5    1  0.2540860E-005  0.1640862E+03  0.7818608E-02  0.1087994E+00
         -4   -1    0    0    0  501 -0.00000000000E+00  0.00000000000E+00  0.90555427847E+03  0.90555427847E+03  0.00000000000E+00 0. -1.
         21   -1    0    0  501  502  0.00000000000E+00 -0.00000000000E+00 -0.52008781126E+02  0.52008781126E+02  0.00000000000E+00 0. -1.
        -13    1    1    2    0    0  0.12478506302E+03  0.55630274419E+02  0.20051446859E+03  0.24263574070E+03  0.10566000000E+00 0.  1.
         13    1    1    2    0    0 -0.18962522525E+03 -0.48393042670E+01  0.55699749560E+03  0.58841088211E+03  0.10566000000E+00 0. -1.
         -4    1    1    2    0  502  0.64840162230E+02 -0.50790970152E+02  0.96033533152E+02  0.12651643678E+03  0.00000000000E+00 0. -1.
</event>
<event>
 5    1  0.2540860E-005  0.4166528E+03  0.7818608E-02  0.9910064E-01
         21   -1    0    0  501  502  0.00000000000E+00  0.00000000000E+00  0.37910431303E+03  0.37910431303E+03  0.00000000000E+00 0. -1.
         -4   -1    0    0    0  501 -0.00000000000E+00 -0.00000000000E+00 -0.98048369765E+03  0.98048369765E+03  0.00000000000E+00 0. -1.
        -13    1    1    2    0    0 -0.17291882522E+03  0.81684787651E+02 -0.56791654954E+02  0.19949593451E+03  0.10566000000E+00 0.  1.
         13    1    1    2    0    0 -0.33335764163E+03 -0.20689261330E+03  0.18258772643E+02  0.39276617041E+03  0.10566000000E+00 0. -1.
         -4    1    1    2    0  502  0.50627646685E+03  0.12520782564E+03 -0.56284650231E+03  0.76732590576E+03  0.00000000000E+00 0. -1.
</event>
<event>
 5    1  0.2540860E-005  0.5253474E+03  0.7818608E-02  0.9424081E-01
          4   -1    0    0  502    0 -0.00000000000E+00  0.00000000000E+00  0.83543377610E+03  0.83543377610E+03  0.00000000000E+00 0.  1.
         21   -1    0    0  501  502  0.00000000000E+00 -0.00000000000E+00 -0.84844664871E+03  0.84844664871E+03  0.00000000000E+00 0. -1.
        -13    1    1    2    0    0 -0.33837950863E+03 -0.52231643099E+03 -0.50498506195E+03  0.80145185127E+03  0.10566000000E+00 0.  1.
         13    1    1    2    0    0  0.21223905211E+03  0.45250978484E+03  0.16709884434E+03  0.52700337339E+03  0.10566000000E+00 0. -1.
          4    1    1    2  501    0  0.12614045652E+03  0.69806646145E+02  0.32487334500E+03  0.35542520016E+03  0.00000000000E+00 0.  1.
</event>
<event>
 5    1  0.2540860E-005  0.3773685E+03  0.7818608E-02  0.9796782E-01
         21   -1    0    0  501  502  0.00000000000E+00  0.00000000000E+00  0.12202775344E+03  0.12202775344E+03  0.00000000000E+00 0. -1.
          4   -1    0    0  502    0 -0.00000000000E+00 -0.00000000000E+00 -0.16907172303E+04  0.16907172303E+04  0.00000000000E+00 0.  1.
        -13    1    1    2    0    0  0.94751269011E+02 -0.40921034306E+03 -0.86530864201E+03  0.96186795609E+03  0.10566000000E+00 0.  1.
         13    1    1    2    0    0 -0.12733084732E+03  0.29734481357E+03 -0.34004263835E+03  0.46931448933E+03  0.10566000000E+00 0. -1.
          4    1    1    2  501    0  0.32579578310E+02  0.11186552949E+03 -0.36333819649E+03  0.38156253831E+03  0.00000000000E+00 0.  1.
</event>
<event>
 5    1  0.2540860E-005  0.4670001E+03  0.7818608E-02  0.9810052E-01
         21   -1    0    0  501  502  0.00000000000E+00  0.00000000000E+00  0.25322887864E+03  0.25322887864E+03  0.00000000000E+00 0.  1.
          4   -1    0    0  502    0 -0.00000000000E+00 -0.00000000000E+00 -0.18713463623E+04  0.18713463623E+04  0.00000000000E+00 0.  1.
        -13    1    1    2    0    0  0.14674670590E+03 -0.49065723002E+03 -0.14916985960E+03  0.53341425857E+03  0.10566000000E+00 0.  1.
         13    1    1    2    0    0  0.72365607983E+02  0.17600899392E+03 -0.77820691028E+03  0.80113791168E+03  0.10566000000E+00 0. -1.
          4    1    1    2  501    0 -0.21911231389E+03  0.31464823610E+03 -0.69074071380E+03  0.79002307073E+03  0.00000000000E+00 0.  1.
</event>
<event>
 5    1  0.2540860E-005  0.4832749E+03  0.7818608E-02  0.9579743E-01
         21   -1    0    0  501  502  0.00000000000E+00  0.00000000000E+00  0.30285839964E+03  0.30285839964E+03  0.00000000000E+00 0.  1.
         -4   -1    0    0    0  501 -0.00000000000E+00 -0.00000000000E+00 -0.17207163253E+04  0.17207163253E+04  0.00000000000E+00 0. -1.
        -13    1    1    2    0    0 -0.24241103288E+03  0.29707386819E+03 -0.50630496902E+03  0.63510686096E+03  0.10566000000E+00 0.  1.
         13    1    1    2    0    0 -0.30595404654E+03 -0.38273243495E+03 -0.38135112253E+03  0.62090312060E+03  0.10566000000E+00 0. -1.
         -4    1    1    2    0  502  0.54836507942E+03  0.85658566763E+02 -0.53020183415E+03  0.76756474341E+03  0.00000000000E+00 0. -1.
</event>
<event>
 5    1  0.2540860E-005  0.5053156E+03  0.7818608E-02  0.9708756E-01
         21   -1    0    0  501  502  0.00000000000E+00  0.00000000000E+00  0.33364240140E+03  0.33364240140E+03  0.00000000000E+00 0. -1.
         -4   -1    0    0    0  501 -0.00000000000E+00 -0.00000000000E+00 -0.12271944231E+04  0.12271944231E+04  0.00000000000E+00 0. -1.
        -13    1    1    2    0    0  0.21184376192E+03  0.20928165736E+02 -0.28141816334E+03  0.35286252480E+03  0.10566000000E+00 0.  1.
         13    1    1    2    0    0  0.32292162271E+03 -0.29742730182E+03 -0.27362403028E+03  0.51731179708E+03  0.10566000000E+00 0. -1.
         -4    1    1    2    0  502 -0.53476538463E+03  0.27649913609E+03 -0.33850982811E+03  0.69066250266E+03  0.00000000000E+00 0. -1.
</event>
<event>
 5    1  0.2540860E-005  0.1173558E+03  0.7818608E-02  0.1138658E+00
         -4   -1    0    0    0  501 -0.00000000000E+00  0.00000000000E+00  0.13283862908E+03  0.13283862908E+03  0.00000000000E+00 0. -1.
         21   -1    0    0  501  502  0.00000000000E+00 -0.00000000000E+00 -0.22534192685E+03  0.22534192685E+03  0.00000000000E+00 0. -1.
        -13    1    1    2    0    0 -0.10901524380E+03  0.17526910360E+02  0.62910102708E+01  0.11059432148E+03  0.10566000000E+00 0.  1.
         13    1    1    2    0    0  0.12117838187E+03 -0.28522630543E+02  0.21367910695E+02  0.12631048831E+03  0.10566000000E+00 0. -1.
         -4    1    1    2    0  502 -0.12163138070E+02  0.10995720183E+02 -0.12016221874E+03  0.12127574614E+03  0.00000000000E+00 0. -1.
</event>
<event>
 5    1  0.2540860E-005  0.3343684E+03  0.7818608E-02  0.1033830E+00
         21   -1    0    0  501  502  0.00000000000E+00  0.00000000000E+00  0.41091153017E+03  0.41091153017E+03  0.00000000000E+00 0.  1.
          4   -1    0    0  502    0 -0.00000000000E+00 -0.00000000000E+00 -0.78616091650E+03  0.78616091650E+03  0.00000000000E+00 0.  1.
        -13    1    1    2    0    0  0.31572779866E+03 -0.71136254890E+02  0.23858341042E+03  0.40207768466E+03  0.10566000000E+00 0.  1.
         13    1    1    2    0    0  0.92115572411E+02  0.18742873539E+02 -0.11363883964E+03  0.14748006993E+03  0.10566000000E+00 0. -1.
          4    1    1    2  501    0 -0.40784337108E+03  0.52393381351E+02 -0.50019395711E+03  0.64751469208E+03  0.00000000000E+00 0.  1.
</event>
<event>
 5    1  0.5135590E-005  0.4746605E+03  0.7818608E-02  0.1026833E+00
         -4   -1    0    0    0  501 -0.00000000000E+00  0.00000000000E+00  0.95552712670E+03  0.95552712670E+03  0.00000000000E+00 0. -1.
         21   -1    0    0  501  502  0.00000000000E+00 -0.00000000000E+00 -0.33269025065E+03  0.33269025065E+03  0.00000000000E+00 0. -1.
        -13    1    1    2    0    0 -0.21201938356E+02  0.34842467738E+02  0.21350036050E+03  0.21736130025E+03  0.10566000000E+00 0.  1.
         13    1    1    2    0    0 -0.17529290525E+03  0.41318381068E+03  0.36705922163E+03  0.57981113079E+03  0.10566000000E+00 0. -1.
         -4    1    1    2    0  502  0.19649484360E+03 -0.44802627842E+03  0.42277293924E+02  0.49104494631E+03  0.00000000000E+00 0. -1.
</event>
<event>
 5    1  0.2540860E-005  0.3710443E+03  0.7818608E-02  0.9816610E-01
         21   -1    0    0  501  502  0.00000000000E+00  0.00000000000E+00  0.11348193814E+04  0.11348193814E+04  0.00000000000E+00 0. -1.
          4   -1    0    0  502    0 -0.00000000000E+00 -0.00000000000E+00 -0.18038110676E+03  0.18038110676E+03  0.00000000000E+00 0.  1.
        -13    1    1    2    0    0 -0.33308010506E+03  0.16308776830E+03  0.18222796909E+03  0.41321546491E+03  0.10566000000E+00 0.  1.
         13    1    1    2    0    0  0.32820611743E+03 -0.17402878618E+03  0.46790862037E+03  0.59744770660E+03  0.10566000000E+00 0. -1.
          4    1    1    2  501    0  0.48739876356E+01  0.10941017876E+02  0.30430168520E+03  0.30453731667E+03  0.00000000000E+00 0.  1.
</event>
<event>
 5    1  0.2540860E-005  0.2097560E+03  0.7818608E-02  0.1053646E+00
         21   -1    0    0  501  502  0.00000000000E+00  0.00000000000E+00  0.22730068189E+03  0.22730068189E+03  0.00000000000E+00 0. -1.
          4   -1    0    0  502    0 -0.00000000000E+00 -0.00000000000E+00 -0.45710870220E+03  0.45710870220E+03  0.00000000000E+00 0.  1.
        -13    1    1    2    0    0 -0.19097699439E+03 -0.76236488625E+02 -0.32011182913E+03  0.38046788156E+03  0.10566000000E+00 0.  1.
         13    1    1    2    0    0  0.19750193662E+03  0.12947843094E+03  0.79831615352E+02  0.24928854170E+03  0.10566000000E+00 0. -1.
          4    1    1    2  501    0 -0.65249422272E+01 -0.53241942317E+02  0.10472193468E+02  0.54652960842E+02  0.00000000000E+00 0.  1.
</event>
<event>
 5    1  0.2540860E-005  0.7344267E+02  0.7818608E-02  0.1217974E+00
         -4   -1    0    0    0  501 -0.00000000000E+00  0.00000000000E+00  0.14987355230E+03  0.14987355230E+03  0.00000000000E+00 0. -1.
         21   -1    0    0  501  502  0.00000000000E+00 -0.00000000000E+00 -0.65430778038E+02  0.65430778038E+02  0.00000000000E+00 0.  1.
        -13    1    1    2    0    0 -0.17698159031E+02 -0.80513233690E+02  0.56384619326E+01  0.82628137153E+02  0.10566000000E+00 0.  1.
         13    1    1    2    0    0  0.20176675285E+02  0.67716983974E+02  0.90737638086E+02  0.11500442719E+03  0.10566000000E+00 0. -1.
         -4    1    1    2    0  502 -0.24785162544E+01  0.12796249717E+02 -0.11933325758E+02  0.17671765992E+02  0.00000000000E+00 0. -1.
</event>
<event>
 5    1  0.2540860E-005  0.4840160E+03  0.7818608E-02  0.9626933E-01
         -4   -1    0    0    0  501 -0.00000000000E+00  0.00000000000E+00  0.13938963329E+04  0.13938963329E+04  0.00000000000E+00 0. -1.
         21   -1    0    0  501  502  0.00000000000E+00 -0.00000000000E+00 -0.55491877004E+03  0.55491877004E+03  0.00000000000E+00 0. -1.
        -13    1    1    2    0    0 -0.22691526027E+03  0.22947909398E+03  0.84165698541E+03  0.90140872093E+03  0.10566000000E+00 0.  1.
         13    1    1    2    0    0  0.34717030255E+03 -0.57955125108E+03 -0.30031911798E+02  0.67624610793E+03  0.10566000000E+00 0. -1.
         -4    1    1    2    0  502 -0.12025504229E+03  0.35007215710E+03  0.27352489219E+02  0.37116027406E+03  0.00000000000E+00 0. -1.
</event>
<event>
 5    1  0.2540860E-005  0.9566693E+03  0.7818608E-02  0.8816404E-01
         -4   -1    0    0    0  501 -0.00000000000E+00  0.00000000000E+00  0.37995589212E+04  0.37995589212E+04  0.00000000000E+00 0. -1.
         21   -1    0    0  501  502  0.00000000000E+00 -0.00000000000E+00 -0.37037064714E+03  0.37037064714E+03  0.00000000000E+00 0.  1.
        -13    1    1    2    0    0  0.84541690649E+03 -0.48443843024E+03  0.94490565459E+03  0.13572976997E+04  0.10566000000E+00 0.  1.
         13    1    1    2    0    0 -0.83866668208E+03  0.44517261922E+03  0.25581659054E+04  0.27286907621E+04  0.10566000000E+00 0. -1.
         -4    1    1    2    0  502 -0.67502244019E+01  0.39265811017E+02 -0.73883285846E+02  0.83941106567E+02  0.00000000000E+00 0. -1.
</event>
<event>
 5    1  0.2540860E-005  0.2112646E+03  0.7818608E-02  0.1052676E+00
         -4   -1    0    0    0  501 -0.00000000000E+00  0.00000000000E+00  0.87588293990E+02  0.87588293990E+02  0.00000000000E+00 0. -1.
         21   -1    0    0  501  502  0.00000000000E+00 -0.00000000000E+00 -0.64321597621E+03  0.64321597621E+03  0.00000000000E+00 0.  1.
        -13    1    1    2    0    0 -0.12476286142E+03  0.16595916575E+03 -0.38139050115E+03  0.43424295252E+03  0.10566000000E+00 0.  1.
         13    1    1    2    0    0  0.11421439442E+03 -0.18000297284E+03 -0.13180181920E+03  0.25063465210E+03  0.10566000000E+00 0. -1.
         -4    1    1    2    0  502  0.10548467003E+02  0.14043807096E+02 -0.42435361873E+02  0.45926665579E+02  0.00000000000E+00 0. -1.
</event>
<event>
 5    1  0.2540860E-005  0.3971782E+03  0.7818608E-02  0.9927817E-01
         -4   -1    0    0    0  501 -0.00000000000E+00  0.00000000000E+00  0.82393060303E+03  0.82393060303E+03  0.00000000000E+00 0. -1.
         21   -1    0    0  501  502  0.00000000000E+00 -0.00000000000E+00 -0.45689189623E+03  0.45689189623E+03  0.00000000000E+00 0. -1.
        -13    1    1    2    0    0  0.58603128147E+02  0.19966954657E+03  0.37740592943E+02  0.21148668510E+03  0.10566000000E+00 0.  1.
         13    1    1    2    0    0 -0.39177425638E+03 -0.35718332321E+03  0.43518593665E+03  0.68589635148E+03  0.10566000000E+00 0. -1.
         -4    1    1    2    0  502  0.33317112824E+03  0.15751377664E+03 -0.10588782280E+03  0.38343946268E+03  0.00000000000E+00 0. -1.
</event>
<event>
 5    1  0.2540860E-005  0.2294335E+03  0.7818608E-02  0.1083559E+00
         21   -1    0    0  501  502  0.00000000000E+00  0.00000000000E+00  0.76218701655E+03  0.76218701655E+03  0.00000000000E+00 0.  1.
          4   -1    0    0  502    0 -0.00000000000E+00 -0.00000000000E+00 -0.39970519873E+03  0.39970519873E+03  0.00000000000E+00 0.  1.
        -13    1    1    2    0    0 -0.15589287922E+03 -0.92378931335E+02 -0.32624581175E+03  0.37319270838E+03  0.10566000000E+00 0.  1.
         13    1    1    2    0    0 -0.64874204254E+02  0.20048995635E+02  0.67467570888E+01  0.68236020537E+02  0.10566000000E+00 0. -1.
          4    1    1    2  501    0  0.22076708347E+03  0.72329935699E+02  0.68198087248E+03  0.72046348636E+03  0.00000000000E+00 0.  1.
</event>
<event>
 5    1  0.2540860E-005  0.2208993E+02  0.7818608E-02  0.1493941E+00
          4   -1    0    0  502    0 -0.00000000000E+00  0.00000000000E+00  0.76645982835E+02  0.76645982835E+02  0.00000000000E+00 0.  1.
         21   -1    0    0  501  502  0.00000000000E+00 -0.00000000000E+00 -0.15879732323E+02  0.15879732323E+02  0.00000000000E+00 0.  1.
        -13    1    1    2    0    0  0.20637528191E+02  0.15371368402E+02  0.22133293927E+02  0.33942309887E+02  0.10566000000E+00 0.  1.
         13    1    1    2    0    0  0.17746842834E+01 -0.18620789584E+02  0.27729447045E+02  0.33448717561E+02  0.10566000000E+00 0. -1.
          4    1    1    2  501    0 -0.22412212474E+02  0.32494211811E+01  0.10903509539E+02  0.25134687710E+02  0.00000000000E+00 0.  1.
</event>
<event>
 5    1  0.2540860E-005  0.1147308E+03  0.7818608E-02  0.1142248E+00
          4   -1    0    0  502    0 -0.00000000000E+00  0.00000000000E+00  0.13546123525E+03  0.13546123525E+03  0.00000000000E+00 0.  1.
         21   -1    0    0  501  502  0.00000000000E+00 -0.00000000000E+00 -0.13366043576E+03  0.13366043576E+03  0.00000000000E+00 0. -1.
        -13    1    1    2    0    0  0.81321003617E+02 -0.85701012528E+02  0.62540125564E+02  0.13367515718E+03  0.10566000000E+00 0.  1.
         13    1    1    2    0    0 -0.79170451816E+02  0.71447772840E+02 -0.53952525220E+02  0.11951414488E+03  0.10566000000E+00 0. -1.
          4    1    1    2  501    0 -0.21505518007E+01  0.14253239689E+02 -0.67868008582E+01  0.15932368956E+02  0.00000000000E+00 0.  1.
</event>
<event>
 5    1  0.2540860E-005  0.3303586E+02  0.7818608E-02  0.1382070E+00
          4   -1    0    0  502    0 -0.00000000000E+00  0.00000000000E+00  0.65419593454E+02  0.65419593454E+02  0.00000000000E+00 0.  1.
         21   -1    0    0  501  502  0.00000000000E+00 -0.00000000000E+00 -0.30702980559E+02  0.30702980559E+02  0.00000000000E+00 0.  1.
        -13    1    1    2    0    0 -0.97333034065E+01  0.39961890760E+02  0.31227885134E+02  0.51641861724E+02  0.10566000000E+00 0.  1.
         13    1    1    2    0    0 -0.15812320560E+01 -0.23434834464E+02 -0.23824843583E+01  0.23608878773E+02  0.10566000000E+00 0. -1.
          4    1    1    2  501    0  0.11314535462E+02 -0.16527056296E+02  0.58712121198E+01  0.20871833515E+02  0.00000000000E+00 0.  1.
</event>
<event>
 5    1  0.2540860E-005  0.6823026E+03  0.7818608E-02  0.9149053E-01
         21   -1    0    0  501  502  0.00000000000E+00  0.00000000000E+00  0.40175601615E+03  0.40175601615E+03  0.00000000000E+00 0. -1.
          4   -1    0    0  502    0 -0.00000000000E+00 -0.00000000000E+00 -0.14850835621E+04  0.14850835621E+04  0.00000000000E+00 0.  1.
        -13    1    1    2    0    0  0.33932267181E+03  0.64036303368E+03 -0.77920906903E+03  0.10641294446E+04  0.10566000000E+00 0.  1.
         13    1    1    2    0    0 -0.35189327053E+03 -0.50689945627E+03 -0.18722307166E+03  0.64484759621E+03  0.10566000000E+00 0. -1.
          4    1    1    2  501    0  0.12570598724E+02 -0.13346357740E+03 -0.11689540528E+03  0.17786253743E+03  0.00000000000E+00 0.  1.
</event>
<event>
 5    1  0.2540860E-005  0.6165035E+03  0.7818608E-02  0.9342027E-01
         21   -1    0    0  501  502  0.00000000000E+00  0.00000000000E+00  0.33045828929E+03  0.33045828929E+03  0.00000000000E+00 0.  1.
          4   -1    0    0  502    0 -0.00000000000E+00 -0.00000000000E+00 -0.27323784017E+04  0.27323784017E+04  0.00000000000E+00 0.  1.
        -13    1    1    2    0    0 -0.18917361139E+03 -0.47701087798E+03 -0.45517855016E+03  0.68593990746E+03  0.10566000000E+00 0.  1.
         13    1    1    2    0    0 -0.35750082023E+03 -0.25854850359E+03 -0.53042401256E+03  0.68993029318E+03  0.10566000000E+00 0. -1.
          4    1    1    2  501    0  0.54667443162E+03  0.73555938157E+03 -0.14163175497E+04  0.16869664903E+04  0.00000000000E+00 0.  1.
</event>
<event>
 5    1  0.2540860E-005  0.4255190E+03  0.7818608E-02  0.9740470E-01
         21   -1    0    0  501  502  0.00000000000E+00  0.00000000000E+00  0.60366300122E+03  0.60366300122E+03  0.00000000000E+00 0. -1.
         -4   -1    0    0    0  501 -0.00000000000E+00 -0.00000000000E+00 -0.20547362527E+04  0.20547362527E+04  0.00000000000E+00 0. -1.
        -13    1    1    2    0    0 -0.31832816472E+03 -0.26035078064E+02 -0.15638030478E+04  0.15960860344E+04  0.10566000000E+00 0.  1.
         13    1    1    2    0    0  0.95598041074E+02  0.41869381072E+03 -0.23767344383E+03  0.49084841821E+03  0.10566000000E+00 0. -1.
         -4    1    1    2    0  502  0.22273012365E+03 -0.39265873265E+03  0.35040324022E+03  0.57146480125E+03  0.00000000000E+00 0. -1.
</event>
<event>
 5    1  0.2540860E-005  0.2654195E+03  0.7818608E-02  0.1022698E+00
         -4   -1    0    0    0  501 -0.00000000000E+00  0.00000000000E+00  0.84521123673E+03  0.84521123673E+03  0.00000000000E+00 0. -1.
         21   -1    0    0  501  502  0.00000000000E+00 -0.00000000000E+00 -0.22559433416E+03  0.22559433416E+03  0.00000000000E+00 0.  1.
        -13    1    1    2    0    0 -0.22603882226E+03  0.39861018720E+02  0.29401649229E+03  0.37299887250E+03  0.10566000000E+00 0.  1.
         13    1    1    2    0    0  0.40038648985E+03  0.64402487436E+02  0.16090995342E+03  0.43629009377E+03  0.10566000000E+00 0. -1.
         -4    1    1    2    0  502 -0.17434766760E+03 -0.10426350616E+03  0.16469045686E+03  0.26151660462E+03  0.00000000000E+00 0. -1.
</event>
<event>
 5    1  0.2540860E-005  0.7938227E+02  0.7818608E-02  0.1204060E+00
          4   -1    0    0  502    0 -0.00000000000E+00  0.00000000000E+00  0.21416003867E+03  0.21416003867E+03  0.00000000000E+00 0.  1.
         21   -1    0    0  501  502  0.00000000000E+00 -0.00000000000E+00 -0.30661685257E+03  0.30661685257E+03  0.00000000000E+00 0. -1.
        -13    1    1    2    0    0  0.78734125953E+02  0.59695247548E+01  0.19637261666E+03  0.21165281371E+03  0.10566000000E+00 0.  1.
         13    1    1    2    0    0 -0.91619682930E+02 -0.18008991711E+01 -0.20976016589E+03  0.22890335929E+03  0.10566000000E+00 0. -1.
          4    1    1    2  501    0  0.12885556977E+02 -0.41686255838E+01 -0.79069264674E+02  0.80220718234E+02  0.00000000000E+00 0.  1.
</event>
<event>
 5    1  0.2540860E-005  0.1316628E+03  0.7818608E-02  0.1120749E+00
         21   -1    0    0  501  502  0.00000000000E+00  0.00000000000E+00  0.12316588496E+03  0.12316588496E+03  0.00000000000E+00 0.  1.
         -4   -1    0    0    0  501 -0.00000000000E+00 -0.00000000000E+00 -0.12181747939E+04  0.12181747939E+04  0.00000000000E+00 0. -1.
        -13    1    1    2    0    0 -0.39681777163E+02  0.14472880963E+03 -0.36742087197E+03  0.39688686057E+03  0.10566000000E+00 0.  1.
         13    1    1    2    0    0  0.11833502216E+03 -0.68423657229E+02 -0.80098186480E+03  0.81256195656E+03  0.10566000000E+00 0. -1.
         -4    1    1    2    0  502 -0.78653244993E+02 -0.76305152404E+02  0.73393827813E+02  0.13189186174E+03  0.00000000000E+00 0. -1.
</event>
<event>
 5    1  0.2540860E-005  0.4161573E+02  0.7818608E-02  0.1330276E+00
          4   -1    0    0  502    0 -0.00000000000E+00  0.00000000000E+00  0.18232745613E+02  0.18232745613E+02  0.00000000000E+00 0.  1.
         21   -1    0    0  501  502  0.00000000000E+00 -0.00000000000E+00 -0.20765717305E+03  0.20765717305E+03  0.00000000000E+00 0. -1.
        -13    1    1    2    0    0  0.41275368516E+02  0.39526765475E+01 -0.18950756131E+02  0.45589713972E+02  0.10566000000E+00 0.  1.
         13    1    1    2    0    0 -0.42818645214E+02  0.99215025767E+01 -0.11546219188E+03  0.12354513956E+03  0.10566000000E+00 0. -1.
          4    1    1    2  501    0  0.15432766976E+01 -0.13874179124E+02 -0.55011479421E+02  0.56755065126E+02  0.00000000000E+00 0.  1.
</event>
<event>
 5    1  0.2540860E-005  0.4647199E+03  0.7818608E-02  0.1002332E+00
         -4   -1    0    0    0  501 -0.00000000000E+00  0.00000000000E+00  0.13566171017E+04  0.13566171017E+04  0.00000000000E+00 0. -1.
         21   -1    0    0  501  502  0.00000000000E+00 -0.00000000000E+00 -0.24288757449E+03  0.24288757449E+03  0.00000000000E+00 0. -1.
        -13    1    1    2    0    0 -0.50708269964E+01 -0.94708905771E+02  0.29356197655E+03  0.30850305567E+03  0.10566000000E+00 0.  1.
         13    1    1    2    0    0  0.35316271226E+03 -0.27322795914E+03  0.19723679628E+03  0.48813910308E+03  0.10566000000E+00 0. -1.
         -4    1    1    2    0  502 -0.34809188526E+03  0.36793686491E+03  0.62293075438E+03  0.80286251743E+03  0.00000000000E+00 0. -1.
</event>
<event>
 5    1  0.2540860E-005  0.3543745E+03  0.7818608E-02  0.9925891E-01
          4   -1    0    0  502    0 -0.00000000000E+00  0.00000000000E+00  0.29404153980E+04  0.29404153980E+04  0.00000000000E+00 0.  1.
         21   -1    0    0  501  502  0.00000000000E+00 -0.00000000000E+00 -0.16979653239E+03  0.16979653239E+03  0.00000000000E+00 0.  1.
        -13    1    1    2    0    0  0.44999042571E+03 -0.10158842839E+03  0.14336914580E+04  0.15060819366E+04  0.10566000000E+00 0.  1.
         13    1    1    2    0    0 -0.23613369145E+03 -0.17657878830E+03  0.11861228467E+04  0.12222219959E+04  0.10566000000E+00 0. -1.
          4    1    1    2  501    0 -0.21385673426E+03  0.27816721669E+03  0.15080456099E+03  0.38190799788E+03  0.00000000000E+00 0.  1.
</event>
<event>
 5    1  0.2540860E-005  0.2271600E+03  0.7818608E-02  0.1042959E+00
         21   -1    0    0  501  502  0.00000000000E+00  0.00000000000E+00  0.14424341985E+03  0.14424341985E+03  0.00000000000E+00 0.  1.
          4   -1    0    0  502    0 -0.00000000000E+00 -0.00000000000E+00 -0.71645749936E+03  0.71645749936E+03  0.00000000000E+00 0.  1.
        -13    1    1    2    0    0  0.16379324645E+03 -0.16626764586E+03 -0.37424963384E+03  0.44106230539E+03  0.10566000000E+00 0.  1.
         13    1    1    2    0    0 -0.17151687659E+03  0.13861814061E+03 -0.26615790534E+03  0.34564876624E+03  0.10566000000E+00 0. -1.
          4    1    1    2  501    0  0.77236301453E+01  0.27649505248E+02  0.68193459677E+02  0.73989847586E+02  0.00000000000E+00 0.  1.
</event>
<event>
 5    1  0.2540860E-005  0.4944910E+03  0.7818608E-02  0.9825184E-01
         21   -1    0    0  501  502  0.00000000000E+00  0.00000000000E+00  0.35167973678E+03  0.35167973678E+03  0.00000000000E+00 0. -1.
         -4   -1    0    0    0  501 -0.00000000000E+00 -0.00000000000E+00 -0.16174558565E+04  0.16174558565E+04  0.00000000000E+00 0. -1.
        -13    1    1    2    0    0 -0.90694539229E+02  0.12229394939E+03 -0.86615507768E+03  0.87943501139E+03  0.10566000000E+00 0.  1.
         13    1    1    2    0    0  0.67459080753E+02 -0.56534623867E+03 -0.24552860627E+03  0.62004145411E+03  0.10566000000E+00 0. -1.
         -4    1    1    2    0  502  0.23235458476E+02  0.44305228927E+03 -0.15409243579E+03  0.46965912780E+03  0.00000000000E+00 0. -1.
</event>
<event>
 5    1  0.2540860E-005  0.4783864E+03  0.7818608E-02  0.9803124E-01
          4   -1    0    0  502    0 -0.00000000000E+00  0.00000000000E+00  0.15134575730E+04  0.15134575730E+04  0.00000000000E+00 0.  1.
         21   -1    0    0  501  502  0.00000000000E+00 -0.00000000000E+00 -0.34536369123E+03  0.34536369123E+03  0.00000000000E+00 0.  1.
        -13    1    1    2    0    0 -0.32872162569E+03 -0.45481685305E+03  0.37082040657E+03  0.67262475579E+03  0.10566000000E+00 0.  1.
         13    1    1    2    0    0 -0.18454043077E+02  0.18032646264E+03  0.71297996289E+03  0.73566203074E+03  0.10566000000E+00 0. -1.
          4    1    1    2  501    0  0.34717566876E+03  0.27449039041E+03  0.84293512347E+02  0.45053447774E+03  0.00000000000E+00 0.  1.
</event>
<event>
 5    1  0.2540860E-005  0.1795186E+02  0.7818608E-02  0.1540515E+00
         -4   -1    0    0    0  501 -0.00000000000E+00  0.00000000000E+00  0.78625241484E+02  0.78625241484E+02  0.00000000000E+00 0. -1.
         21   -1    0    0  501  502  0.00000000000E+00 -0.00000000000E+00 -0.23336535226E+03  0.23336535226E+03  0.00000000000E+00 0. -1.
        -13    1    1    2    0    0 -0.15524959339E+02 -0.13715679246E+01  0.43859655472E+02  0.46546601414E+02  0.10566000000E+00 0.  1.
         13    1    1    2    0    0  0.29987787242E+02 -0.31594663530E+00  0.26411669303E+02  0.39961914937E+02  0.10566000000E+00 0. -1.
         -4    1    1    2    0  502 -0.14462827904E+02  0.16875145599E+01 -0.22501143555E+03  0.22548207739E+03  0.00000000000E+00 0. -1.
</event>
<event>
 5    1  0.2540860E-005  0.4454497E+03  0.7818608E-02  0.1015007E+00
         21   -1    0    0  501  502  0.00000000000E+00  0.00000000000E+00  0.63537550127E+03  0.63537550127E+03  0.00000000000E+00 0. -1.
         -4   -1    0    0    0  501 -0.00000000000E+00 -0.00000000000E+00 -0.41625663677E+03  0.41625663677E+03  0.00000000000E+00 0. -1.
        -13    1    1    2    0    0  0.67614471517E+02  0.23521505731E+02 -0.81235207317E+02  0.10827810518E+03  0.10566000000E+00 0.  1.
         13    1    1    2    0    0 -0.39415767408E+03  0.24894075548E+03  0.19421359733E+03  0.50502544919E+03  0.10566000000E+00 0. -1.
         -4    1    1    2    0  502  0.32654320257E+03 -0.27246226121E+03  0.10614047448E+03  0.43832858366E+03  0.00000000000E+00 0. -1.
</event>
<event>
 5    1  0.2540860E-005  0.3801960E+03  0.7818608E-02  0.9843668E-01
          4   -1    0    0  502    0 -0.00000000000E+00  0.00000000000E+00  0.16703294732E+04  0.16703294732E+04  0.00000000000E+00 0.  1.
         21   -1    0    0  501  502  0.00000000000E+00 -0.00000000000E+00 -0.30415561268E+03  0.30415561268E+03  0.00000000000E+00 0.  1.
        -13    1    1    2    0    0 -0.69302332971E+02 -0.41757842253E+03  0.79679823812E+03  0.90225384220E+03  0.10566000000E+00 0.  1.
         13    1    1    2    0    0  0.29885913309E+03  0.98377573789E+02  0.60038916823E+03  0.67783633198E+03  0.10566000000E+00 0. -1.
          4    1    1    2  501    0 -0.22955680012E+03  0.31920084874E+03 -0.31013545884E+02  0.39439491166E+03  0.00000000000E+00 0.  1.
</event>
<event>
 5    1  0.2540860E-005  0.3290251E+03  0.7818608E-02  0.1031804E+00
          4   -1    0    0  502    0 -0.00000000000E+00  0.00000000000E+00  0.23885354113E+04  0.23885354113E+04  0.00000000000E+00 0.  1.
         21   -1    0    0  501  502  0.00000000000E+00 -0.00000000000E+00 -0.13898911069E+03  0.13898911069E+03  0.00000000000E+00 0.  1.
        -13    1    1    2    0    0 -0.30224552524E+03  0.28156997516E+03  0.16583224012E+04  0.17089959643E+04  0.10566000000E+00 0.  1.
         13    1    1    2    0    0  0.97685283165E+02 -0.38493517970E+02  0.46494866233E+03  0.47665651704E+03  0.10566000000E+00 0. -1.
          4    1    1    2  501    0  0.20456024207E+03 -0.24307645719E+03  0.12627523704E+03  0.34187204063E+03  0.00000000000E+00 0.  1.
</event>
<event>
 5    1  0.2540860E-005  0.2997688E+03  0.7818608E-02  0.1007401E+00
         -4   -1    0    0    0  501 -0.00000000000E+00  0.00000000000E+00  0.82034628983E+03  0.82034628983E+03  0.00000000000E+00 0. -1.
         21   -1    0    0  501  502  0.00000000000E+00 -0.00000000000E+00 -0.80585221514E+03  0.80585221514E+03  0.00000000000E+00 0. -1.
        -13    1    1    2    0    0 -0.31693948816E+03 -0.13483289673E+02  0.38581164395E+03  0.49948280653E+03  0.10566000000E+00 0.  1.
         13    1    1    2    0    0  0.24381027730E+03 -0.23080429287E+03  0.27367712336E+03  0.43314345422E+03  0.10566000000E+00 0. -1.
         -4    1    1    2    0  502  0.73129210861E+02  0.24428758254E+03 -0.64499469261E+03  0.69357224422E+03  0.00000000000E+00 0. -1.
</event>
<event>
 5    1  0.2540860E-005  0.4104312E+03  0.7818608E-02  0.1015523E+00
         21   -1    0    0  501  502  0.00000000000E+00  0.00000000000E+00  0.13435011236E+03  0.13435011236E+03  0.00000000000E+00 0. -1.
         -4   -1    0    0    0  501 -0.00000000000E+00 -0.00000000000E+00 -0.22269725759E+04  0.22269725759E+04  0.00000000000E+00 0. -1.
        -13    1    1    2    0    0  0.89648070630E+02  0.82949100781E+01 -0.22894936571E+03  0.24601505101E+03  0.10566000000E+00 0.  1.
         13    1    1    2    0    0 -0.33171347137E+03  0.26450926640E+03 -0.32620167673E+03  0.53516962186E+03  0.10566000000E+00 0. -1.
         -4    1    1    2    0  502  0.24206540074E+03 -0.27280417647E+03 -0.15374714211E+04  0.15801380154E+04  0.00000000000E+00 0. -1.
</event>
<event>
 5    1  0.2540860E-005  0.4797590E+03  0.7818608E-02  0.9706717E-01
          4   -1    0    0  502    0 -0.00000000000E+00  0.00000000000E+00  0.26128379503E+04  0.26128379503E+04  0.00000000000E+00 0.  1.
         21   -1    0    0  501  502  0.00000000000E+00 -0.00000000000E+00 -0.17247089986E+03  0.17247089986E+03  0.00000000000E+00 0. -1.
        -13    1    1    2    0    0 -0.49865661522E+03 -0.83062743148E+02  0.99992584719E+03  0.11204506014E+04  0.10566000000E+00 0.  1.
         13    1    1    2    0    0  0.38828473684E+02  0.24748115544E+03  0.91002533296E+03  0.94387535748E+03  0.10566000000E+00 0. -1.
          4    1    1    2  501    0  0.45982814153E+03 -0.16441841229E+03  0.53041587034E+03  0.72098289130E+03  0.00000000000E+00 0.  1.
</event>
<event>
 5    1  0.2540860E-005  0.5157245E+03  0.7818608E-02  0.9444158E-01
         21   -1    0    0  501  502  0.00000000000E+00  0.00000000000E+00  0.27851546175E+04  0.27851546175E+04  0.00000000000E+00 0.  1.
         -4   -1    0    0    0  501 -0.00000000000E+00 -0.00000000000E+00 -0.23155188728E+03  0.23155188728E+03  0.00000000000E+00 0. -1.
        -13    1    1    2    0    0 -0.47180510064E+03  0.99527123261E+02  0.60164491127E+03  0.77102679050E+03  0.10566000000E+00 0.  1.
         13    1    1    2    0    0  0.52417806430E+03 -0.37525440304E+03  0.18289750271E+04  0.19392596966E+04  0.10566000000E+00 0. -1.
         -4    1    1    2    0  502 -0.52372963667E+02  0.27572727978E+03  0.12298279190E+03  0.30642001770E+03  0.00000000000E+00 0. -1.
</event>
<event>
 5    1  0.2540860E-005  0.4428099E+03  0.7818608E-02  0.9612984E-01
         21   -1    0    0  501  502  0.00000000000E+00  0.00000000000E+00  0.24628454914E+03  0.24628454914E+03  0.00000000000E+00 0. -1.
          4   -1    0    0  502    0 -0.00000000000E+00 -0.00000000000E+00 -0.23273116828E+04  0.23273116828E+04  0.00000000000E+00 0.  1.
        -13    1    1    2    0    0  0.23336842477E+03  0.25113428344E+03  0.11791534671E+02  0.34302813508E+03  0.10566000000E+00 0.  1.
         13    1    1    2    0    0 -0.54111266958E+02 -0.47872695058E+03 -0.12803828502E+04  0.13680233100E+04  0.10566000000E+00 0. -1.
          4    1    1    2  501    0 -0.17925715782E+03  0.22759266714E+03 -0.81243581813E+03  0.86254478687E+03  0.00000000000E+00 0.  1.
</event>
<event>
 5    1  0.2540860E-005  0.3381349E+03  0.7818608E-02  0.1007568E+00
         21   -1    0    0  501  502  0.00000000000E+00  0.00000000000E+00  0.18877384817E+04  0.18877384817E+04  0.00000000000E+00 0.  1.
         -4   -1    0    0    0  501 -0.00000000000E+00 -0.00000000000E+00 -0.28274101180E+03  0.28274101180E+03  0.00000000000E+00 0. -1.
        -13    1    1    2    0    0 -0.20014007105E+03  0.55696018680E+02  0.90445257356E+03  0.92800461396E+03  0.10566000000E+00 0.  1.
         13    1    1    2    0    0  0.51221649720E+03 -0.46279574660E+02  0.44867410666E+02  0.51625636533E+03  0.10566000000E+00 0. -1.
         -4    1    1    2    0  502 -0.31207642615E+03 -0.94164440194E+01  0.65567748571E+03  0.72621851426E+03  0.00000000000E+00 0. -1.
</event>
<event>
 5    1  0.2540860E-005  0.4278856E+03  0.7818608E-02  0.9792564E-01
         21   -1    0    0  501  502  0.00000000000E+00  0.00000000000E+00  0.20523992491E+03  0.20523992491E+03  0.00000000000E+00 0. -1.
         -4   -1    0    0    0  501 -0.00000000000E+00 -0.00000000000E+00 -0.23073946676E+04  0.23073946676E+04  0.00000000000E+00 0. -1.
        -13    1    1    2    0    0 -0.20091183420E+03 -0.16913675416E+03 -0.87495712805E+03  0.91352219120E+03  0.10566000000E+00 0.  1.
         13    1    1    2    0    0  0.56417136608E+03  0.15528652981E+02 -0.98801852082E+03  0.11378537156E+04  0.10566000000E+00 0. -1.
         -4    1    1    2    0  502 -0.36325953188E+03  0.15360810118E+03 -0.23917909380E+03  0.46125868573E+03  0.00000000000E+00 0. -1.
</event>
<event>
 5    1  0.2540860E-005  0.3952832E+03  0.7818608E-02  0.9957498E-01
         21   -1    0    0  501  502  0.00000000000E+00  0.00000000000E+00  0.52734466379E+03  0.52734466379E+03  0.00000000000E+00 0. -1.
         -4   -1    0    0    0  501 -0.00000000000E+00 -0.00000000000E+00 -0.11673799439E+04  0.11673799439E+04  0.00000000000E+00 0. -1.
        -13    1    1    2    0    0 -0.16222291968E+03 -0.10140672086E+03 -0.64296841696E+03  0.67082635240E+03  0.10566000000E+00 0.  1.
         13    1    1    2    0    0  0.19942539268E+03  0.47141369017E+03 -0.25447499958E+03  0.57162828053E+03  0.10566000000E+00 0. -1.
         -4    1    1    2    0  502 -0.37202473000E+02 -0.37000696932E+03  0.25740813645E+03  0.45226997474E+03  0.00000000000E+00 0. -1.
</event>
<event>
 5    1  0.2540860E-005  0.4954929E+03  0.7818608E-02  0.1006886E+00
         21   -1    0    0  501  502  0.00000000000E+00  0.00000000000E+00  0.28260798039E+03  0.28260798039E+03  0.00000000000E+00 0. -1.
         -4   -1    0    0    0  501 -0.00000000000E+00 -0.00000000000E+00 -0.11251950292E+04  0.11251950292E+04  0.00000000000E+00 0. -1.
        -13    1    1    2    0    0 -0.52102126530E+02  0.42905054659E+02 -0.19518654658E+03  0.20652669182E+03  0.10566000000E+00 0.  1.
         13    1    1    2    0    0 -0.45920027356E+03 -0.13923838785E+03 -0.21970205101E+03  0.52775109878E+03  0.10566000000E+00 0. -1.
         -4    1    1    2    0  502  0.51130240009E+03  0.96333333193E+02 -0.42769845121E+03  0.67352521897E+03  0.00000000000E+00 0. -1.
</event>
<event>
 5    1  0.2540860E-005  0.4420569E+03  0.7818608E-02  0.9951786E-01
         21   -1    0    0  501  502  0.00000000000E+00  0.00000000000E+00  0.77889476168E+03  0.77889476168E+03  0.00000000000E+00 0.  1.
         -4   -1    0    0    0  501 -0.00000000000E+00 -0.00000000000E+00 -0.57986396565E+03  0.57986396565E+03  0.00000000000E+00 0. -1.
        -13    1    1    2    0    0 -0.13431699556E+03  0.37267026992E+02 -0.19977342954E+03  0.24359663567E+03  0.10566000000E+00 0.  1.
         13    1    1    2    0    0  0.19760929763E+03  0.40104904007E+03  0.48967070807E+03  0.66307403852E+03  0.10566000000E+00 0. -1.
         -4    1    1    2    0  502 -0.63292302076E+02 -0.43831606707E+03 -0.90866482499E+02  0.45208805314E+03  0.00000000000E+00 0. -1.
</event>
<event>
 5    1  0.2540860E-005  0.5017318E+03  0.7818608E-02  0.9903759E-01
         21   -1    0    0  501  502  0.00000000000E+00  0.00000000000E+00  0.26345682012E+03  0.26345682012E+03  0.00000000000E+00 0.  1.
          4   -1    0    0  502    0 -0.00000000000E+00 -0.00000000000E+00 -0.16873808915E+04  0.16873808915E+04  0.00000000000E+00 0.  1.
        -13    1    1    2    0    0 -0.40375111486E+03  0.26086131919E+03 -0.61228424207E+03  0.77843149657E+03  0.10566000000E+00 0.  1.
         13    1    1    2    0    0  0.38262467993E+02  0.10510235803E+03 -0.60530619949E+03  0.61555351386E+03  0.10566000000E+00 0. -1.
          4    1    1    2  501    0  0.36548864687E+03 -0.36596367722E+03 -0.20633362983E+03  0.55685270120E+03  0.00000000000E+00 0.  1.
</event>
<event>
 5    1  0.2540860E-005  0.4815699E+03  0.7818608E-02  0.1008424E+00
         21   -1    0    0  501  502  0.00000000000E+00  0.00000000000E+00  0.13475086482E+03  0.13475086482E+03  0.00000000000E+00 0. -1.
         -4   -1    0    0    0  501 -0.00000000000E+00 -0.00000000000E+00 -0.21892738881E+04  0.21892738881E+04  0.00000000000E+00 0. -1.
        -13    1    1    2    0    0 -0.13019932780E+02  0.68734090544E+02 -0.33428272300E+03  0.34152429476E+03  0.10566000000E+00 0.  1.
         13    1    1    2    0    0 -0.11495301634E+03 -0.50689118110E+03 -0.10497733540E+04  0.11713995780E+04  0.10566000000E+00 0. -1.
         -4    1    1    2    0  502  0.12797294912E+03  0.43815709055E+03 -0.67046694631E+03  0.81110088016E+03  0.00000000000E+00 0. -1.
</event>
<event>
 5    1  0.2540860E-005  0.3792534E+02  0.7818608E-02  0.1350630E+00
         21   -1    0    0  501  502  0.00000000000E+00  0.00000000000E+00  0.31082752674E+03  0.31082752674E+03  0.00000000000E+00 0. -1.
          4   -1    0    0  502    0 -0.00000000000E+00 -0.00000000000E+00 -0.21492171809E+02  0.21492171809E+02  0.00000000000E+00 0.  1.
        -13    1    1    2    0    0  0.30581761162E+02 -0.21400667667E+02 -0.28711140085E+00  0.37327286123E+02  0.10566000000E+00 0.  1.
         13    1    1    2    0    0 -0.33544980293E+02  0.31057412045E+02  0.22656213840E+03  0.23112819444E+03  0.10566000000E+00 0. -1.
          4    1    1    2  501    0  0.29632191313E+01 -0.96567443783E+01  0.63060327939E+02  0.63864217989E+02  0.00000000000E+00 0.  1.
</event>
<event>
 5    1  0.2540860E-005  0.5550305E+03  0.7818608E-02  0.9427975E-01
         21   -1    0    0  501  502  0.00000000000E+00  0.00000000000E+00  0.12405047377E+04  0.12405047377E+04  0.00000000000E+00 0.  1.
         -4   -1    0    0    0  501 -0.00000000000E+00 -0.00000000000E+00 -0.66220801380E+03  0.66220801380E+03  0.00000000000E+00 0. -1.
        -13    1    1    2    0    0 -0.91550367592E+02 -0.61723659547E+03  0.93557004081E+02  0.63096387280E+03  0.10566000000E+00 0.  1.
         13    1    1    2    0    0 -0.24919851984E+03 -0.40942639536E+02 -0.15189952759E+03  0.29470269709E+03  0.10566000000E+00 0. -1.
         -4    1    1    2    0  502  0.34074888744E+03  0.65817923501E+03  0.63663924741E+03  0.97704618162E+03  0.00000000000E+00 0. -1.
</event>
<event>
 5    1  0.2540860E-005  0.3928160E+03  0.7818608E-02  0.9854094E-01
         -4   -1    0    0    0  501 -0.00000000000E+00  0.00000000000E+00  0.13560215636E+04  0.13560215636E+04  0.00000000000E+00 0. -1.
         21   -1    0    0  501  502  0.00000000000E+00 -0.00000000000E+00 -0.99872076224E+03  0.99872076224E+03  0.00000000000E+00 0. -1.
        -13    1    1    2    0    0 -0.18553195569E+03 -0.20351855701E+03  0.10651467888E+04  0.11001725331E+04  0.10566000000E+00 0.  1.
         13    1    1    2    0    0  0.38680735501E+03 -0.13681460721E+03 -0.75207040749E+03  0.85670769555E+03  0.10566000000E+00 0. -1.
         -4    1    1    2    0  502 -0.20127539932E+03  0.34033316422E+03  0.44224419984E+02  0.39786209717E+03  0.00000000000E+00 0. -1.
</event>
<event>
 5    1  0.2540860E-005  0.3569649E+03  0.7818608E-02  0.9988314E-01
         21   -1    0    0  501  502  0.00000000000E+00  0.00000000000E+00  0.72472239333E+03  0.72472239333E+03  0.00000000000E+00 0. -1.
         -4   -1    0    0    0  501 -0.00000000000E+00 -0.00000000000E+00 -0.58335527272E+03  0.58335527272E+03  0.00000000000E+00 0. -1.
        -13    1    1    2    0    0  0.23451595734E+03  0.88362405756E+01 -0.11533190660E+03  0.26149048403E+03  0.10566000000E+00 0.  1.
         13    1    1    2    0    0 -0.49900007755E+03 -0.19972843064E+03 -0.11750293792E+03  0.55018131101E+03  0.10566000000E+00 0. -1.
         -4    1    1    2    0  502  0.26448412022E+03  0.19089219006E+03  0.37420196512E+03  0.49640587101E+03  0.00000000000E+00 0. -1.
</event>
<event>
 5    1  0.2540860E-005  0.3956794E+03  0.7818608E-02  0.1036326E+00
         -4   -1    0    0    0  501 -0.00000000000E+00  0.00000000000E+00  0.84533735109E+03  0.84533735109E+03  0.00000000000E+00 0. -1.
         21   -1    0    0  501  502  0.00000000000E+00 -0.00000000000E+00 -0.36100002161E+03  0.36100002161E+03  0.00000000000E+00 0. -1.
        -13    1    1    2    0    0 -0.50554150528E+02  0.14373662287E+02 -0.66298428871E+02  0.84603883705E+02  0.10566000000E+00 0.  1.
         13    1    1    2    0    0 -0.22824801909E+03  0.27941476911E+03  0.61363572783E+03  0.71184168819E+03  0.10566000000E+00 0. -1.
         -4    1    1    2    0  502  0.27880216961E+03 -0.29378843140E+03 -0.62999969481E+02  0.40989180080E+03  0.00000000000E+00 0. -1.
</event>
<event>
 5    1  0.2540860E-005  0.2021967E+03  0.7818608E-02  0.1058640E+00
         -4   -1    0    0    0  501 -0.00000000000E+00  0.00000000000E+00  0.13589859769E+04  0.13589859769E+04  0.00000000000E+00 0. -1.
         21   -1    0    0  501  502  0.00000000000E+00 -0.00000000000E+00 -0.24247105006E+03  0.24247105006E+03  0.00000000000E+00 0.  1.
        -13    1    1    2    0    0  0.16793310452E+03 -0.20170898410E+03  0.61264773489E+02  0.26952073296E+03  0.10566000000E+00 0.  1.
         13    1    1    2    0    0 -0.81068402633E+02  0.18073068393E+03  0.11699134217E+04  0.11865635640E+04  0.10566000000E+00 0. -1.
         -4    1    1    2    0  502 -0.86864701885E+02  0.20978300176E+02 -0.11466326835E+03  0.14537272998E+03  0.00000000000E+00 0. -1.
</event>
<event>
 5    1  0.2540860E-005  0.3078725E+03  0.7818608E-02  0.1004108E+00
         21   -1    0    0  501  502  0.00000000000E+00  0.00000000000E+00  0.39962106392E+03  0.39962106392E+03  0.00000000000E+00 0. -1.
          4   -1    0    0  502    0 -0.00000000000E+00 -0.00000000000E+00 -0.37300538602E+03  0.37300538602E+03  0.00000000000E+00 0.  1.
        -13    1    1    2    0    0 -0.49160414734E+02  0.28985286613E+03  0.77789517641E+02  0.30410960294E+03  0.10566000000E+00 0.  1.
         13    1    1    2    0    0  0.74076431131E+02 -0.30628147690E+03 -0.16159693840E+03  0.35413167383E+03  0.10566000000E+00 0. -1.
          4    1    1    2  501    0 -0.24916016397E+02  0.16428610772E+02  0.11042309866E+03  0.11438517318E+03  0.00000000000E+00 0.  1.
</event>
<event>
 5    1  0.2540860E-005  0.3093475E+03  0.7818608E-02  0.1003520E+00
          4   -1    0    0  502    0 -0.00000000000E+00  0.00000000000E+00  0.98077679057E+03  0.98077679057E+03  0.00000000000E+00 0.  1.
         21   -1    0    0  501  502  0.00000000000E+00 -0.00000000000E+00 -0.22362808135E+03  0.22362808135E+03  0.00000000000E+00 0.  1.
        -13    1    1    2    0    0 -0.95381771978E+02  0.40207229410E+03  0.56232634744E+03  0.69783289138E+03  0.10566000000E+00 0.  1.
         13    1    1    2    0    0  0.11870431374E+03 -0.19975955146E+03  0.19433266031E+03  0.30291877876E+03  0.10566000000E+00 0. -1.
          4    1    1    2  501    0 -0.23322541760E+02 -0.20231274263E+03  0.48970147624E+00  0.20365320177E+03  0.00000000000E+00 0.  1.
</event>
<event>
 5    1  0.2540860E-005  0.3508267E+03  0.7818608E-02  0.9882921E-01
         21   -1    0    0  501  502  0.00000000000E+00  0.00000000000E+00  0.11840172803E+03  0.11840172803E+03  0.00000000000E+00 0. -1.
          4   -1    0    0  502    0 -0.00000000000E+00 -0.00000000000E+00 -0.22237600535E+04  0.22237600535E+04  0.00000000000E+00 0.  1.
        -13    1    1    2    0    0 -0.36116784459E+03  0.65681239861E+02 -0.18511411941E+04  0.18871883767E+04  0.10566000000E+00 0.  1.
         13    1    1    2    0    0  0.26924767573E+03 -0.57429076178E+02 -0.14228123841E+03  0.30989735662E+03  0.10566000000E+00 0. -1.
          4    1    1    2  501    0  0.91920168868E+02 -0.82521636827E+01 -0.11193589294E+03  0.14507604826E+03  0.00000000000E+00 0.  1.
</event>
<event>
 5    1  0.2540860E-005  0.6314556E+03  0.7818608E-02  0.9292417E-01
         21   -1    0    0  501  502  0.00000000000E+00  0.00000000000E+00  0.12923099838E+04  0.12923099838E+04  0.00000000000E+00 0. -1.
         -4   -1    0    0    0  501 -0.00000000000E+00 -0.00000000000E+00 -0.95258639751E+03  0.95258639751E+03  0.00000000000E+00 0. -1.
        -13    1    1    2    0    0 -0.48130735970E+03 -0.11635128112E+03 -0.59501488791E+02  0.49873322874E+03  0.10566000000E+00 0.  1.
         13    1    1    2    0    0 -0.22287240817E+02 -0.38149847582E+03 -0.48235608986E+03  0.61539029628E+03  0.10566000000E+00 0. -1.
         -4    1    1    2    0  502  0.50359460052E+03  0.49784975694E+03  0.88158116494E+03  0.11307728563E+04  0.00000000000E+00 0. -1.
</event>
<event>
 5    1  0.2540860E-005  0.3810519E+03  0.7818608E-02  0.9846112E-01
          4   -1    0    0  502    0 -0.00000000000E+00  0.00000000000E+00  0.18056429001E+04  0.18056429001E+04  0.00000000000E+00 0.  1.
         21   -1    0    0  501  502  0.00000000000E+00 -0.00000000000E+00 -0.69809090498E+03  0.69809090498E+03  0.00000000000E+00 0. -1.
        -13    1    1    2    0    0 -0.23089520596E+03  0.10427077301E+03  0.41994555200E+03  0.49044802788E+03  0.10566000000E+00 0.  1.
         13    1    1    2    0    0  0.55300442831E+03  0.16914739781E+03  0.12101944811E+04  0.13412663543E+04  0.10566000000E+00 0. -1.
          4    1    1    2  501    0 -0.32210922235E+03 -0.27341817082E+03 -0.52258803801E+03  0.67201942288E+03  0.00000000000E+00 0.  1.
</event>
<event>
 5    1  0.2540860E-005  0.5739463E+03  0.7818608E-02  0.9346374E-01
         21   -1    0    0  501  502  0.00000000000E+00  0.00000000000E+00  0.97739412909E+03  0.97739412909E+03  0.00000000000E+00 0. -1.
         -4   -1    0    0    0  501 -0.00000000000E+00 -0.00000000000E+00 -0.16649908276E+04  0.16649908276E+04  0.00000000000E+00 0. -1.
        -13    1    1    2    0    0  0.53764949673E+03 -0.17853347515E+02 -0.64913719997E+03  0.84306870355E+03  0.10566000000E+00 0.  1.
         13    1    1    2    0    0  0.78150552255E+02 -0.15869273359E+03 -0.79128731954E+03  0.81081842957E+03  0.10566000000E+00 0. -1.
         -4    1    1    2    0  502 -0.61580004898E+03  0.17654608110E+03  0.75282782102E+03  0.98849782356E+03  0.00000000000E+00 0. -1.
</event>
<event>
 5    1  0.2540860E-005  0.4992013E+03  0.7818608E-02  0.9719227E-01
         21   -1    0    0  501  502  0.00000000000E+00  0.00000000000E+00  0.28196110831E+03  0.28196110831E+03  0.00000000000E+00 0. -1.
         -4   -1    0    0    0  501 -0.00000000000E+00 -0.00000000000E+00 -0.14208560457E+04  0.14208560457E+04  0.00000000000E+00 0. -1.
        -13    1    1    2    0    0  0.28329264897E+02 -0.21101539675E+03 -0.35199734193E+03  0.41137839614E+03  0.10566000000E+00 0.  1.
         13    1    1    2    0    0  0.48565417794E+03  0.11980785107E+03 -0.34695796835E+03  0.60876411252E+03  0.10566000000E+00 0. -1.
         -4    1    1    2    0  502 -0.51398344283E+03  0.91207545685E+02 -0.43993962710E+03  0.68267464534E+03  0.00000000000E+00 0. -1.
</event>
<event>
 5    1  0.2540860E-005  0.2687415E+03  0.7818608E-02  0.1027533E+00
          4   -1    0    0  502    0 -0.00000000000E+00  0.00000000000E+00  0.11502137051E+04  0.11502137051E+04  0.00000000000E+00 0.  1.
         21   -1    0    0  501  502  0.00000000000E+00 -0.00000000000E+00 -0.23027736049E+03  0.23027736049E+03  0.00000000000E+00 0.  1.
        -13    1    1    2    0    0  0.30571444524E+03 -0.26643055067E+03  0.78686119691E+03  0.88521020934E+03  0.10566000000E+00 0.  1.
         13    1    1    2    0    0 -0.21625858427E+03  0.39800984120E+02  0.48282934631E+01  0.21994366822E+03  0.10566000000E+00 0. -1.
          4    1    1    2  501    0 -0.89455860977E+02  0.22662956655E+03  0.12824685425E+03  0.27533718804E+03  0.00000000000E+00 0.  1.
</event>
<event>
 5    1  0.2540860E-005  0.4978183E+02  0.7818608E-02  0.1329081E+00
         -4   -1    0    0    0  501 -0.00000000000E+00  0.00000000000E+00  0.42393192829E+03  0.42393192829E+03  0.00000000000E+00 0. -1.
         21   -1    0    0  501  502  0.00000000000E+00 -0.00000000000E+00 -0.10349255266E+02  0.10349255266E+02  0.00000000000E+00 0. -1.
        -13    1    1    2    0    0  0.19449668477E+02  0.15476691258E+02  0.42162159627E+02  0.48943604736E+02  0.10566000000E+00 0.  1.
         13    1    1    2    0    0  0.40031560158E+02 -0.40700673392E+01  0.18500426602E+03  0.18932955624E+03  0.10566000000E+00 0. -1.
         -4    1    1    2    0  502 -0.59481228635E+02 -0.11406623919E+02  0.18641624738E+03  0.19600802258E+03  0.00000000000E+00 0. -1.
</event>
<event>
 5    1  0.2540860E-005  0.4695006E+03  0.7818608E-02  0.9547448E-01
         -4   -1    0    0    0  501 -0.00000000000E+00  0.00000000000E+00  0.18301708050E+04  0.18301708050E+04  0.00000000000E+00 0. -1.
         21   -1    0    0  501  502  0.00000000000E+00 -0.00000000000E+00 -0.39020162201E+03  0.39020162201E+03  0.00000000000E+00 0. -1.
        -13    1    1    2    0    0  0.26247676983E+02  0.45009150081E+03  0.88168712773E+03  0.99027445793E+03  0.10566000000E+00 0.  1.
         13    1    1    2    0    0 -0.34857693537E+03 -0.44631396623E+03  0.68053587653E+03  0.88534237825E+03  0.10566000000E+00 0. -1.
         -4    1    1    2    0  502  0.32232925838E+03 -0.37775345895E+01 -0.12225382129E+03  0.34475559081E+03  0.00000000000E+00 0. -1.
</event>
<event>
 5    1  0.2540860E-005  0.2092225E+03  0.7818608E-02  0.1053991E+00
         21   -1    0    0  501  502  0.00000000000E+00  0.00000000000E+00  0.70396340681E+03  0.70396340681E+03  0.00000000000E+00 0. -1.
         -4   -1    0    0    0  501 -0.00000000000E+00 -0.00000000000E+00 -0.98246883946E+03  0.98246883946E+03  0.00000000000E+00 0. -1.
        -13    1    1    2    0    0 -0.14849552632E+03  0.15416833098E+03 -0.58503079431E+03  0.62296054215E+03  0.10566000000E+00 0.  1.
         13    1    1    2    0    0 -0.48814554685E+02 -0.10399221017E+03  0.65223161857E+03  0.66227134616E+03  0.10566000000E+00 0. -1.
         -4    1    1    2    0  502  0.19731008101E+03 -0.50176120809E+02 -0.34570625691E+03  0.40120035796E+03  0.00000000000E+00 0. -1.
</event>
<event>
 5    1  0.2540860E-005  0.4001074E+03  0.7818608E-02  0.9735070E-01
         -4   -1    0    0    0  501 -0.00000000000E+00  0.00000000000E+00  0.23867488791E+04  0.23867488791E+04  0.00000000000E+00 0. -1.
         21   -1    0    0  501  502  0.00000000000E+00 -0.00000000000E+00 -0.24050956053E+03  0.24050956053E+03  0.00000000000E+00 0.  1.
        -13    1    1    2    0    0  0.40260786849E+03 -0.39253554552E+02  0.91914780161E+03  0.10042243921E+04  0.10566000000E+00 0.  1.
         13    1    1    2    0    0 -0.33108266085E+02 -0.24079726263E+03  0.11214849904E+04  0.11475225810E+04  0.10566000000E+00 0. -1.
         -4    1    1    2    0  502 -0.36949960241E+03  0.28005081718E+03  0.10560652655E+03  0.47551146656E+03  0.00000000000E+00 0. -1.
</event>
<event>
 5    1  0.2540860E-005  0.1141688E+03  0.7818608E-02  0.1143030E+00
         21   -1    0    0  501  502  0.00000000000E+00  0.00000000000E+00  0.65583849685E+02  0.65583849685E+02  0.00000000000E+00 0. -1.
         -4   -1    0    0    0  501 -0.00000000000E+00 -0.00000000000E+00 -0.45293070647E+03  0.45293070647E+03  0.00000000000E+00 0. -1.
        -13    1    1    2    0    0  0.10677524194E+03  0.64855752527E+01 -0.22553108704E+03  0.24961429720E+03  0.10566000000E+00 0.  1.
         13    1    1    2    0    0 -0.12124792256E+03 -0.54431880856E+02 -0.17242862761E+03  0.21770514731E+03  0.10566000000E+00 0. -1.
         -4    1    1    2    0  502  0.14472680625E+02  0.47946305603E+02  0.10612857870E+02  0.51195111657E+02  0.00000000000E+00 0. -1.
</event>
<event>
 5    1  0.2540860E-005  0.5278705E+03  0.7818608E-02  0.9462629E-01
         -4   -1    0    0    0  501 -0.00000000000E+00  0.00000000000E+00  0.17738837179E+04  0.17738837179E+04  0.00000000000E+00 0. -1.
         21   -1    0    0  501  502  0.00000000000E+00 -0.00000000000E+00 -0.49915087863E+03  0.49915087863E+03  0.00000000000E+00 0. -1.
        -13    1    1    2    0    0 -0.11211322151E+03 -0.56099345358E+03  0.89238411655E+03  0.10600153075E+04  0.10566000000E+00 0.  1.
         13    1    1    2    0    0 -0.33462905148E+03  0.69247083682E+02  0.42728910417E+03  0.54712681382E+03  0.10566000000E+00 0. -1.
         -4    1    1    2    0  502  0.44674227299E+03  0.49174636990E+03 -0.44940381407E+02  0.66589247530E+03  0.00000000000E+00 0. -1.
</event>
<event>
 5    1  0.2540860E-005  0.2645966E+03  0.7818608E-02  0.1023094E+00
          4   -1    0    0  502    0 -0.00000000000E+00  0.00000000000E+00  0.17279879905E+04  0.17279879905E+04  0.00000000000E+00 0.  1.
         21   -1    0    0  501  502  0.00000000000E+00 -0.00000000000E+00 -0.19827107294E+03  0.19827107294E+03  0.00000000000E+00 0. -1.
        -13    1    1    2    0    0 -0.20255085840E+03 -0.11219813454E+03  0.94492393616E+03  0.97288053116E+03  0.10566000000E+00 0.  1.
         13    1    1    2    0    0  0.35391224533E+03  0.16435394418E+03  0.66749382173E+03  0.77318439558E+03  0.10566000000E+00 0. -1.
          4    1    1    2  501    0 -0.15136138693E+03 -0.52155809646E+02 -0.82700840283E+02  0.18019413674E+03  0.00000000000E+00 0.  1.
</event>
<event>
 5    1  0.2540860E-005  0.4155363E+03  0.7818608E-02  0.9844976E-01
         21   -1    0    0  501  502  0.00000000000E+00  0.00000000000E+00  0.10532471175E+04  0.10532471175E+04  0.00000000000E+00 0. -1.
         -4   -1    0    0    0  501 -0.00000000000E+00 -0.00000000000E+00 -0.44315463246E+03  0.44315463246E+03  0.00000000000E+00 0. -1.
        -13    1    1    2    0    0 -0.47576342069E+02  0.23516330807E+03 -0.11085775126E+03  0.26430047667E+03  0.10566000000E+00 0.  1.
         13    1    1    2    0    0 -0.31515075753E+03 -0.40029891668E+03  0.14138096159E+03  0.52872281030E+03  0.10566000000E+00 0. -1.
         -4    1    1    2    0  502  0.36272709960E+03  0.16513560861E+03  0.57956927469E+03  0.70337846298E+03  0.00000000000E+00 0. -1.
</event>
<event>
 5    1  0.2540860E-005  0.5079301E+03  0.7818608E-02  0.9507844E-01
         21   -1    0    0  501  502  0.00000000000E+00  0.00000000000E+00  0.13294090618E+04  0.13294090618E+04  0.00000000000E+00 0.  1.
          4   -1    0    0  502    0 -0.00000000000E+00 -0.00000000000E+00 -0.62128331706E+03  0.62128331706E+03  0.00000000000E+00 0.  1.
        -13    1    1    2    0    0  0.19785632397E+03  0.48149477050E+03  0.48210475282E+03  0.70951345499E+03  0.10566000000E+00 0.  1.
         13    1    1    2    0    0 -0.42372956483E+03  0.59034853841E+02 -0.24184934859E+03  0.49144987197E+03  0.10566000000E+00 0. -1.
          4    1    1    2  501    0  0.22587324086E+03 -0.54052962435E+03  0.46787034050E+03  0.74972905189E+03  0.00000000000E+00 0.  1.
</event>
<event>
 5    1  0.2540860E-005  0.4470306E+03  0.7818608E-02  0.9602300E-01
         -4   -1    0    0    0  501 -0.00000000000E+00  0.00000000000E+00  0.25546410269E+04  0.25546410269E+04  0.00000000000E+00 0. -1.
         21   -1    0    0  501  502  0.00000000000E+00 -0.00000000000E+00 -0.10637108766E+03  0.10637108766E+03  0.00000000000E+00 0.  1.
        -13    1    1    2    0    0 -0.42832839000E+03  0.86720495733E+01  0.73986963574E+03  0.85495467902E+03  0.10566000000E+00 0.  1.
         13    1    1    2    0    0  0.45416702807E+03 -0.57053635201E+02  0.16856220386E+04  0.17466666754E+04  0.10566000000E+00 0. -1.
         -4    1    1    2    0  502 -0.25838638070E+02  0.48381585628E+02  0.22778264956E+02  0.59390760220E+02  0.00000000000E+00 0. -1.
</event>
<event>
 5    1  0.2540860E-005  0.4923766E+03  0.7818608E-02  0.1023616E+00
         21   -1    0    0  501  502  0.00000000000E+00  0.00000000000E+00  0.17781301753E+04  0.17781301753E+04  0.00000000000E+00 0.  1.
          4   -1    0    0  502    0 -0.00000000000E+00 -0.00000000000E+00 -0.15573059602E+03  0.15573059602E+03  0.00000000000E+00 0.  1.
        -13    1    1    2    0    0 -0.44689284516E+03 -0.19346776837E+03  0.95696313508E+03  0.10737417965E+04  0.10566000000E+00 0.  1.
         13    1    1    2    0    0 -0.26990601095E+02  0.30056898914E+02  0.27791866098E+02  0.49033750673E+02  0.10566000000E+00 0. -1.
          4    1    1    2  501    0  0.47388344626E+03  0.16341086946E+03  0.63764457812E+03  0.81108522419E+03  0.00000000000E+00 0.  1.
</event>
<event>
 5    1  0.2540860E-005  0.3998167E+03  0.7818608E-02  0.9729576E-01
         21   -1    0    0  501  502  0.00000000000E+00  0.00000000000E+00  0.56134828108E+03  0.56134828108E+03  0.00000000000E+00 0.  1.
         -4   -1    0    0    0  501 -0.00000000000E+00 -0.00000000000E+00 -0.52304240775E+03  0.52304240775E+03  0.00000000000E+00 0. -1.
        -13    1    1    2    0    0 -0.34606189605E+03  0.20858457849E+03  0.36724701562E+03  0.54601899594E+03  0.10566000000E+00 0.  1.
         13    1    1    2    0    0  0.33624775145E+03 -0.21476290693E+03 -0.33858924475E+03  0.52328610184E+03  0.10566000000E+00 0. -1.
         -4    1    1    2    0  502  0.98141445944E+01  0.61783284364E+01  0.96481024577E+01  0.15085591053E+02  0.00000000000E+00 0. -1.
</event>
<event>
 5    1  0.2540860E-005  0.8674500E+02  0.7818608E-02  0.1188570E+00
         21   -1    0    0  501  502  0.00000000000E+00  0.00000000000E+00  0.46845125506E+03  0.46845125506E+03  0.00000000000E+00 0. -1.
          4   -1    0    0  502    0 -0.00000000000E+00 -0.00000000000E+00 -0.93283491528E+02  0.93283491528E+02  0.00000000000E+00 0.  1.
        -13    1    1    2    0    0  0.87635250055E+01 -0.88196502029E+02 -0.62799379775E+02  0.10862410232E+03  0.10566000000E+00 0.  1.
         13    1    1    2    0    0  0.24627183392E+02  0.69772690824E+02  0.22791643742E+03  0.23962604231E+03  0.10566000000E+00 0. -1.
          4    1    1    2  501    0 -0.33390708397E+02  0.18423811204E+02  0.21005070589E+03  0.21348460196E+03  0.00000000000E+00 0.  1.
</event>
<event>
 5    1  0.2540860E-005  0.4290191E+03  0.7818608E-02  0.9648795E-01
         21   -1    0    0  501  502  0.00000000000E+00  0.00000000000E+00  0.11134430603E+04  0.11134430603E+04  0.00000000000E+00 0. -1.
          4   -1    0    0  502    0 -0.00000000000E+00 -0.00000000000E+00 -0.33865061440E+03  0.33865061440E+03  0.00000000000E+00 0.  1.
        -13    1    1    2    0    0  0.39820670790E+03 -0.19568972555E+03  0.45973969364E+03  0.63892382016E+03  0.10566000000E+00 0.  1.
         13    1    1    2    0    0 -0.23465591635E+03  0.37615706722E+03  0.39036306750E+02  0.44506334684E+03  0.10566000000E+00 0. -1.
          4    1    1    2  501    0 -0.16355079155E+03 -0.18046734166E+03  0.27601644555E+03  0.36810650774E+03  0.00000000000E+00 0.  1.
</event>
<event>
 5    1  0.2540860E-005  0.4141322E+03  0.7818608E-02  0.9821454E-01
          4   -1    0    0  502    0 -0.00000000000E+00  0.00000000000E+00  0.15110062098E+04  0.15110062098E+04  0.00000000000E+00 0.  1.
         21   -1    0    0  501  502  0.00000000000E+00 -0.00000000000E+00 -0.31583549858E+03  0.31583549858E+03  0.00000000000E+00 0.  1.
        -13    1    1    2    0    0 -0.16277335095E+03  0.29961583755E+03  0.77429670554E+03  0.84604976997E+03  0.10566000000E+00 0.  1.
         13    1    1    2    0    0  0.22017744384E+03  0.14292937660E+03  0.46333034980E+03  0.53252411934E+03  0.10566000000E+00 0. -1.
          4    1    1    2  501    0 -0.57404092886E+02 -0.44254521415E+03 -0.42456344143E+02  0.44826781906E+03  0.00000000000E+00 0.  1.
</event>
<event>
 5    1  0.2540860E-005  0.6515801E+03  0.7818608E-02  0.9196342E-01
         21   -1    0    0  501  502  0.00000000000E+00  0.00000000000E+00  0.25440719048E+03  0.25440719048E+03  0.00000000000E+00 0. -1.
          4   -1    0    0  502    0 -0.00000000000E+00 -0.00000000000E+00 -0.30117874682E+04  0.30117874682E+04  0.00000000000E+00 0.  1.
        -13    1    1    2    0    0 -0.71789875144E+03 -0.32039873700E+03 -0.87106375105E+03  0.11733652618E+04  0.10566000000E+00 0.  1.
         13    1    1    2    0    0  0.45767574947E+03  0.36085831473E+03 -0.90216365826E+03  0.10740507867E+04  0.10566000000E+00 0. -1.
          4    1    1    2  501    0  0.26022300197E+03 -0.40459577731E+02 -0.98415286837E+03  0.10187786102E+04  0.00000000000E+00 0.  1.
</event>
<event>
 5    1  0.2540860E-005  0.4553338E+03  0.7818608E-02  0.9709192E-01
         -4   -1    0    0    0  501 -0.00000000000E+00  0.00000000000E+00  0.11668354727E+04  0.11668354727E+04  0.00000000000E+00 0. -1.
         21   -1    0    0  501  502  0.00000000000E+00 -0.00000000000E+00 -0.37751208417E+03  0.37751208417E+03  0.00000000000E+00 0. -1.
        -13    1    1    2    0    0  0.28550750539E+03 -0.53695581425E+02  0.19880603688E+03  0.35202500275E+03  0.10566000000E+00 0.  1.
         13    1    1    2    0    0 -0.32721251014E+03  0.47483731531E+03  0.49147762631E+03  0.75768645964E+03  0.10566000000E+00 0. -1.
         -4    1    1    2    0  502  0.41705004753E+02 -0.42114173388E+03  0.99039725370E+02  0.43463609450E+03  0.00000000000E+00 0. -1.
</event>
<event>
 5    1  0.2540860E-005  0.1390729E+03  0.7818608E-02  0.1112418E+00
         -4   -1    0    0    0  501 -0.00000000000E+00  0.00000000000E+00  0.36536812472E+03  0.36536812472E+03  0.00000000000E+00 0. -1.
         21   -1    0    0  501  502  0.00000000000E+00 -0.00000000000E+00 -0.88094889019E+02  0.88094889019E+02  0.00000000000E+00 0. -1.
        -13    1    1    2    0    0  0.34419493560E+02  0.11585093280E+03  0.99546595545E+02  0.15657482561E+03  0.10566000000E+00 0.  1.
         13    1    1    2    0    0 -0.97332855348E+02 -0.13580243834E+03  0.15255499619E+03  0.22624991716E+03  0.10566000000E+00 0. -1.
         -4    1    1    2    0  502  0.62913361788E+02  0.19951505546E+02  0.25171643965E+02  0.70638270965E+02  0.00000000000E+00 0. -1.
</event>
<event>
 5    1  0.2540860E-005  0.4121161E+03  0.7818608E-02  0.9694691E-01
         -4   -1    0    0    0  501 -0.00000000000E+00  0.00000000000E+00  0.38997516814E+04  0.38997516814E+04  0.00000000000E+00 0. -1.
         21   -1    0    0  501  502  0.00000000000E+00 -0.00000000000E+00 -0.13196886139E+03  0.13196886139E+03  0.00000000000E+00 0. -1.
        -13    1    1    2    0    0 -0.34909121379E+03 -0.29852954294E+02  0.16980834142E+04  0.17338521181E+04  0.10566000000E+00 0.  1.
         13    1    1    2    0    0  0.67072176075E+03  0.67921339832E+02  0.14215941434E+04  0.15733438622E+04  0.10566000000E+00 0. -1.
         -4    1    1    2    0  502 -0.32163054696E+03 -0.38068385538E+02  0.64810526230E+03  0.72452456255E+03  0.00000000000E+00 0. -1.
</event>
<event>
 5    1  0.2540860E-005  0.4943249E+03  0.7818608E-02  0.9841858E-01
         21   -1    0    0  501  502  0.00000000000E+00  0.00000000000E+00  0.30371929197E+03  0.30371929197E+03  0.00000000000E+00 0. -1.
         -4   -1    0    0    0  501 -0.00000000000E+00 -0.00000000000E+00 -0.14548924485E+04  0.14548924485E+04  0.00000000000E+00 0. -1.
        -13    1    1    2    0    0 -0.11417996853E+03 -0.87792173460E+02 -0.56728979483E+03  0.58528817980E+03  0.10566000000E+00 0.  1.
         13    1    1    2    0    0 -0.27528482480E+03  0.41103675896E+03 -0.18228820916E+03  0.52722097297E+03  0.10566000000E+00 0. -1.
         -4    1    1    2    0  502  0.38946479332E+03 -0.32324458550E+03 -0.40159515259E+03  0.64610258773E+03  0.00000000000E+00 0. -1.
</event>
<event>
 5    1  0.2540860E-005  0.4016087E+03  0.7818608E-02  0.9956108E-01
         21   -1    0    0  501  502  0.00000000000E+00  0.00000000000E+00  0.18372668427E+03  0.18372668427E+03  0.00000000000E+00 0. -1.
         -4   -1    0    0    0  501 -0.00000000000E+00 -0.00000000000E+00 -0.19430878486E+04  0.19430878486E+04  0.00000000000E+00 0. -1.
        -13    1    1    2    0    0 -0.66111150277E+02 -0.17091209533E+03 -0.28884222374E+03  0.34206939340E+03  0.10566000000E+00 0.  1.
         13    1    1    2    0    0  0.79615560424E+02  0.53655411464E+03 -0.12369549629E+04  0.13506615219E+04  0.10566000000E+00 0. -1.
         -4    1    1    2    0  502 -0.13504410147E+02 -0.36564201931E+03 -0.23356397775E+03  0.43408361762E+03  0.00000000000E+00 0. -1.
</event>
<event>
 5    1  0.2540860E-005  0.3881464E+03  0.7818608E-02  0.9773000E-01
         21   -1    0    0  501  502  0.00000000000E+00  0.00000000000E+00  0.66046411440E+03  0.66046411440E+03  0.00000000000E+00 0.  1.
          4   -1    0    0  502    0 -0.00000000000E+00 -0.00000000000E+00 -0.22391708815E+04  0.22391708815E+04  0.00000000000E+00 0.  1.
        -13    1    1    2    0    0 -0.23170194721E+03  0.38833578242E+03 -0.18037064972E+03  0.48685116277E+03  0.10566000000E+00 0.  1.
         13    1    1    2    0    0  0.38714371999E+03 -0.32673790221E+02 -0.18075117517E+04  0.18487959812E+04  0.10566000000E+00 0. -1.
          4    1    1    2  501    0 -0.15544177278E+03 -0.35566199220E+03  0.40917563430E+03  0.56398785193E+03  0.00000000000E+00 0.  1.
</event>
<event>
 5    1  0.2540860E-005  0.5214284E+03  0.7818608E-02  0.9432203E-01
         21   -1    0    0  501  502  0.00000000000E+00  0.00000000000E+00  0.34640400386E+03  0.34640400386E+03  0.00000000000E+00 0. -1.
          4   -1    0    0  502    0 -0.00000000000E+00 -0.00000000000E+00 -0.16505277863E+04  0.16505277863E+04  0.00000000000E+00 0.  1.
        -13    1    1    2    0    0  0.20563746696E+03 -0.66465561223E+03 -0.64803396375E+03  0.95079013459E+03  0.10566000000E+00 0.  1.
         13    1    1    2    0    0 -0.27663184148E+03  0.28959219768E+03 -0.18880044969E+03  0.44275776407E+03  0.10566000000E+00 0. -1.
          4    1    1    2  501    0  0.70994374526E+02  0.37506341455E+03 -0.46728936900E+03  0.60338389151E+03  0.00000000000E+00 0.  1.
</event>
<event>
 5    1  0.2540860E-005  0.1947145E+03  0.7818608E-02  0.1063821E+00
          4   -1    0    0  502    0 -0.00000000000E+00  0.00000000000E+00  0.90292120875E+03  0.90292120875E+03  0.00000000000E+00 0.  1.
         21   -1    0    0  501  502  0.00000000000E+00 -0.00000000000E+00 -0.21362207540E+03  0.21362207540E+03  0.00000000000E+00 0.  1.
        -13    1    1    2    0    0 -0.11763996813E+03 -0.15572091544E+03  0.54852761766E+03  0.58221192371E+03  0.10566000000E+00 0.  1.
         13    1    1    2    0    0  0.71873598914E+02  0.18529516685E+03  0.30346517781E+03  0.36275506666E+03  0.10566000000E+00 0. -1.
          4    1    1    2  501    0  0.45766369216E+02 -0.29574251413E+02 -0.16269366211E+03  0.17157629379E+03  0.00000000000E+00 0.  1.
</event>
<event>
 5    1  0.2540860E-005  0.8499352E+02  0.7818608E-02  0.1192098E+00
          4   -1    0    0  502    0 -0.00000000000E+00  0.00000000000E+00  0.35964578210E+02  0.35964578210E+02  0.00000000000E+00 0.  1.
         21   -1    0    0  501  502  0.00000000000E+00 -0.00000000000E+00 -0.31954015999E+03  0.31954015999E+03  0.00000000000E+00 0. -1.
        -13    1    1    2    0    0  0.53995075848E+02 -0.64445904937E+02 -0.41622486683E+02  0.93814633404E+02  0.10566000000E+00 0.  1.
         13    1    1    2    0    0 -0.48564484703E+02  0.74034111412E+02 -0.21928144609E+03  0.23648239383E+03  0.10566000000E+00 0. -1.
          4    1    1    2  501    0 -0.54305911449E+01 -0.95882064745E+01 -0.22671648999E+02  0.25207710961E+02  0.00000000000E+00 0.  1.
</event>
<event>
 5    1  0.2540860E-005  0.5445449E+03  0.7818608E-02  0.9435622E-01
         21   -1    0    0  501  502  0.00000000000E+00  0.00000000000E+00  0.50818258565E+03  0.50818258565E+03  0.00000000000E+00 0.  1.
          4   -1    0    0  502    0 -0.00000000000E+00 -0.00000000000E+00 -0.21202761758E+04  0.21202761758E+04  0.00000000000E+00 0.  1.
        -13    1    1    2    0    0  0.15097484415E+03 -0.13508284075E+03 -0.50342629466E+03  0.54265902991E+03  0.10566000000E+00 0.  1.
         13    1    1    2    0    0  0.53426189978E+03  0.26785989215E+03 -0.12391313193E+04  0.13757293110E+04  0.10566000000E+00 0. -1.
          4    1    1    2  501    0 -0.68523674393E+03 -0.13277705140E+03  0.13046402385E+03  0.71007042054E+03  0.00000000000E+00 0.  1.
</event>
<event>
 5    1  0.2540860E-005  0.2094963E+03  0.7818608E-02  0.1053814E+00
          4   -1    0    0  502    0 -0.00000000000E+00  0.00000000000E+00  0.66381047064E+02  0.66381047064E+02  0.00000000000E+00 0.  1.
         21   -1    0    0  501  502  0.00000000000E+00 -0.00000000000E+00 -0.75081228927E+03  0.75081228927E+03  0.00000000000E+00 0. -1.
        -13    1    1    2    0    0  0.21515537864E+03 -0.50743188682E+01 -0.28821116879E+03  0.35969886663E+03  0.10566000000E+00 0.  1.
         13    1    1    2    0    0 -0.20332133477E+03  0.74228768543E+01 -0.31240639340E+03  0.37281688545E+03  0.10566000000E+00 0. -1.
          4    1    1    2  501    0 -0.11834043875E+02 -0.23485579860E+01 -0.83813680012E+02  0.84677584260E+02  0.00000000000E+00 0.  1.
</event>
<event>
 5    1  0.2540860E-005  0.1134700E+04  0.7818608E-02  0.8657426E-01
          4   -1    0    0  502    0 -0.00000000000E+00  0.00000000000E+00  0.29865440772E+04  0.29865440772E+04  0.00000000000E+00 0.  1.
         21   -1    0    0  501  502  0.00000000000E+00 -0.00000000000E+00 -0.70966694537E+03  0.70966694537E+03  0.00000000000E+00 0. -1.
        -13    1    1    2    0    0  0.92122415688E+03 -0.65524552953E+03  0.22254088193E+03  0.11521827574E+04  0.10566000000E+00 0.  1.
         13    1    1    2    0    0 -0.70485503353E+03  0.90782243681E+03  0.17471326587E+04  0.20912758625E+04  0.10566000000E+00 0. -1.
          4    1    1    2  501    0 -0.21636912335E+03 -0.25257690727E+03  0.30720359127E+03  0.45275240266E+03  0.00000000000E+00 0.  1.
</event>
<event>
 5    1  0.2540860E-005  0.7100367E+02  0.7818608E-02  0.1290417E+00
         21   -1    0    0  501  502  0.00000000000E+00  0.00000000000E+00  0.60588228760E+02  0.60588228760E+02  0.00000000000E+00 0.  1.
          4   -1    0    0  502    0 -0.00000000000E+00 -0.00000000000E+00 -0.17855109350E+03  0.17855109350E+03  0.00000000000E+00 0.  1.
        -13    1    1    2    0    0 -0.75667123808E+02 -0.33027667671E+02 -0.11743221429E+03  0.14355025801E+03  0.10566000000E+00 0.  1.
         13    1    1    2    0    0  0.11185841448E+02  0.14021738526E+02  0.18454748353E+02  0.25735599877E+02  0.10566000000E+00 0. -1.
          4    1    1    2  501    0  0.64481282359E+02  0.19005929144E+02 -0.18985398803E+02  0.69853464374E+02  0.00000000000E+00 0.  1.
</event>
<event>
 5    1  0.2540860E-005  0.4857368E+03  0.7818608E-02  0.9584074E-01
          4   -1    0    0  502    0 -0.00000000000E+00  0.00000000000E+00  0.16540192201E+04  0.16540192201E+04  0.00000000000E+00 0.  1.
         21   -1    0    0  501  502  0.00000000000E+00 -0.00000000000E+00 -0.35360387751E+03  0.35360387751E+03  0.00000000000E+00 0. -1.
        -13    1    1    2    0    0 -0.25980659323E+03 -0.60956500000E+03  0.75982287156E+03  0.10081665351E+04  0.10566000000E+00 0.  1.
         13    1    1    2    0    0 -0.62755766542E+02  0.36649622020E+03  0.68361662419E+02  0.37806228813E+03  0.10566000000E+00 0. -1.
          4    1    1    2  501    0  0.32256235977E+03  0.24306877981E+03  0.47223080861E+03  0.62139427440E+03  0.00000000000E+00 0.  1.
</event>
<event>
 5    1  0.2540860E-005  0.1196855E+03  0.7818608E-02  0.1135557E+00
         21   -1    0    0  501  502  0.00000000000E+00  0.00000000000E+00  0.22390072009E+03  0.22390072009E+03  0.00000000000E+00 0. -1.
          4   -1    0    0  502    0 -0.00000000000E+00 -0.00000000000E+00 -0.10521504331E+03  0.10521504331E+03  0.00000000000E+00 0.  1.
        -13    1    1    2    0    0  0.13482916000E+02  0.11983475867E+03 -0.30032931627E+02  0.12427448071E+03  0.10566000000E+00 0.  1.
         13    1    1    2    0    0  0.26866236995E+01 -0.11793582010E+03  0.10404731411E+03  0.15729567809E+03  0.10566000000E+00 0. -1.
          4    1    1    2  501    0 -0.16169539700E+02 -0.18989385764E+01  0.44671294305E+02  0.47545604599E+02  0.00000000000E+00 0.  1.
</event>
<event>
 5    1  0.2540860E-005  0.4514185E+03  0.7818608E-02  0.9939304E-01
         21   -1    0    0  501  502  0.00000000000E+00  0.00000000000E+00  0.36379087312E+03  0.36379087312E+03  0.00000000000E+00 0.  1.
          4   -1    0    0  502    0 -0.00000000000E+00 -0.00000000000E+00 -0.12553712093E+04  0.12553712093E+04  0.00000000000E+00 0.  1.
        -13    1    1    2    0    0 -0.37090187497E+02  0.42258886122E+03  0.48003976969E+02  0.42692085989E+03  0.10566000000E+00 0.  1.
         13    1    1    2    0    0 -0.75525637837E+02  0.11361353289E+03 -0.40254242612E+03  0.42503243737E+03  0.10566000000E+00 0. -1.
          4    1    1    2  501    0  0.11261582533E+03 -0.53620239412E+03 -0.53704188699E+03  0.76720878511E+03  0.00000000000E+00 0.  1.
</event>
<event>
 5    1  0.2540860E-005  0.4130750E+03  0.7818608E-02  0.9700695E-01
          4   -1    0    0  502    0 -0.00000000000E+00  0.00000000000E+00  0.45683772609E+03  0.45683772609E+03  0.00000000000E+00 0.  1.
         21   -1    0    0  501  502  0.00000000000E+00 -0.00000000000E+00 -0.12284539683E+04  0.12284539683E+04  0.00000000000E+00 0.  1.
        -13    1    1    2    0    0  0.57193596580E+02  0.55275756981E+03 -0.21076773063E+03  0.59433583596E+03  0.10566000000E+00 0.  1.
         13    1    1    2    0    0 -0.31865110686E+03 -0.24307739146E+03 -0.22149290474E+01  0.40078680519E+03  0.10566000000E+00 0. -1.
          4    1    1    2  501    0  0.26145751028E+03 -0.30968017835E+03 -0.55863358257E+03  0.69016905329E+03  0.00000000000E+00 0.  1.
</event>
<event>
 5    1  0.2540860E-005  0.5030992E+03  0.7818608E-02  0.9535992E-01
         21   -1    0    0  501  502  0.00000000000E+00  0.00000000000E+00  0.24724625610E+03  0.24724625610E+03  0.00000000000E+00 0. -1.
         -4   -1    0    0    0  501 -0.00000000000E+00 -0.00000000000E+00 -0.30082211485E+04  0.30082211485E+04  0.00000000000E+00 0. -1.
        -13    1    1    2    0    0  0.36458397125E+03  0.15876358692E+03 -0.16084150183E+04  0.16568422468E+04  0.10566000000E+00 0.  1.
         13    1    1    2    0    0 -0.54791733038E+03  0.23381732386E+03 -0.36190966358E+03  0.69703841904E+03  0.10566000000E+00 0. -1.
         -4    1    1    2    0  502  0.18333335912E+03 -0.39258091078E+03 -0.79065021060E+03  0.90158673881E+03  0.00000000000E+00 0. -1.
</event>
<event>
 5    1  0.2540860E-005  0.4165050E+03  0.7818608E-02  0.9682552E-01
         21   -1    0    0  501  502  0.00000000000E+00  0.00000000000E+00  0.12424856084E+03  0.12424856084E+03  0.00000000000E+00 0.  1.
         -4   -1    0    0    0  501 -0.00000000000E+00 -0.00000000000E+00 -0.27793787348E+04  0.27793787348E+04  0.00000000000E+00 0. -1.
        -13    1    1    2    0    0 -0.13648639071E+02  0.40297912420E+03 -0.82879845568E+03  0.92167529596E+03  0.10566000000E+00 0.  1.
         13    1    1    2    0    0  0.15053031588E+02 -0.42297707275E+03 -0.18787482695E+04  0.19258326171E+04  0.10566000000E+00 0. -1.
         -4    1    1    2    0  502 -0.14043925172E+01  0.19997948554E+02  0.52416551188E+02  0.56119382597E+02  0.00000000000E+00 0. -1.
</event>
<event>
 5    1  0.2540860E-005  0.4308757E+03  0.7818608E-02  0.9793475E-01
          4   -1    0    0  502    0 -0.00000000000E+00  0.00000000000E+00  0.18749371973E+04  0.18749371973E+04  0.00000000000E+00 0.  1.
         21   -1    0    0  501  502  0.00000000000E+00 -0.00000000000E+00 -0.33177114608E+03  0.33177114608E+03  0.00000000000E+00 0.  1.
        -13    1    1    2    0    0 -0.37101501943E+03  0.11488657638E+02  0.42327431210E+02  0.37359838931E+03  0.10566000000E+00 0.  1.
         13    1    1    2    0    0 -0.24204866675E+03 -0.84569576180E+02  0.10166731035E+04  0.10485054987E+04  0.10566000000E+00 0. -1.
          4    1    1    2  501    0  0.61306368619E+03  0.73080918542E+02  0.48416551651E+03  0.78460445535E+03  0.00000000000E+00 0.  1.
</event>
<event>
 5    1  0.2540860E-005  0.5333159E+03  0.7818608E-02  0.9723262E-01
         -4   -1    0    0    0  501 -0.00000000000E+00  0.00000000000E+00  0.10993564608E+04  0.10993564608E+04  0.00000000000E+00 0. -1.
         21   -1    0    0  501  502  0.00000000000E+00 -0.00000000000E+00 -0.39168149219E+03  0.39168149219E+03  0.00000000000E+00 0. -1.
        -13    1    1    2    0    0  0.16889622168E+03  0.33480566909E+02  0.28065315212E+03  0.32926142351E+03  0.10566000000E+00 0.  1.
         13    1    1    2    0    0  0.25181024692E+03  0.39679580059E+03  0.26079867291E+03  0.53746745648E+03  0.10566000000E+00 0. -1.
         -4    1    1    2    0  502 -0.42070646860E+03 -0.43027636750E+03  0.16622314357E+03  0.62430907298E+03  0.00000000000E+00 0. -1.
</event>
<event>
 5    1  0.2540860E-005  0.4578725E+03  0.7818608E-02  0.9575418E-01
         21   -1    0    0  501  502  0.00000000000E+00  0.00000000000E+00  0.39521508147E+03  0.39521508147E+03  0.00000000000E+00 0. -1.
         -4   -1    0    0    0  501 -0.00000000000E+00 -0.00000000000E+00 -0.14963859229E+04  0.14963859229E+04  0.00000000000E+00 0. -1.
        -13    1    1    2    0    0 -0.37744246027E+03 -0.20231713674E+02 -0.57033388914E+03  0.68421698994E+03  0.10566000000E+00 0.  1.
         13    1    1    2    0    0  0.66038996127E+03  0.11317559101E+03 -0.60248897143E+03  0.90106414156E+03  0.10566000000E+00 0. -1.
         -4    1    1    2    0  502 -0.28294750100E+03 -0.92943877332E+02  0.71652019161E+02  0.30631987285E+03  0.00000000000E+00 0. -1.
</event>
<event>
 5    1  0.2540860E-005  0.7383103E+03  0.7818608E-02  0.9069182E-01
         21   -1    0    0  501  502  0.00000000000E+00  0.00000000000E+00  0.13903629350E+04  0.13903629350E+04  0.00000000000E+00 0.  1.
          4   -1    0    0  502    0 -0.00000000000E+00 -0.00000000000E+00 -0.95085788487E+03  0.95085788487E+03  0.00000000000E+00 0.  1.
        -13    1    1    2    0    0 -0.23460445657E+03  0.89035377445E+03  0.84103522155E+03  0.12470402358E+04  0.10566000000E+00 0.  1.
         13    1    1    2    0    0  0.51201480151E+02 -0.70445307603E+03 -0.43710698224E+03  0.83062521812E+03  0.10566000000E+00 0. -1.
          4    1    1    2  501    0  0.18340297642E+03 -0.18590069843E+03  0.35576810819E+02  0.26355536592E+03  0.00000000000E+00 0.  1.
</event>
<event>
 5    1  0.2540860E-005  0.4817444E+03  0.7818608E-02  0.9667181E-01
         -4   -1    0    0    0  501 -0.00000000000E+00  0.00000000000E+00  0.17018319400E+04  0.17018319400E+04  0.00000000000E+00 0. -1.
         21   -1    0    0  501  502  0.00000000000E+00 -0.00000000000E+00 -0.25526651573E+03  0.25526651573E+03  0.00000000000E+00 0. -1.
        -13    1    1    2    0    0 -0.14765626495E+03 -0.24266089898E+03  0.26217616405E+03  0.38655276048E+03  0.10566000000E+00 0.  1.
         13    1    1    2    0    0  0.30015222363E+03  0.50819666987E+03  0.36052527330E+03  0.69161672657E+03  0.10566000000E+00 0. -1.
         -4    1    1    2    0  502 -0.15249595868E+03 -0.26553577089E+03  0.82386398689E+03  0.87892896864E+03  0.00000000000E+00 0. -1.
</event>
<event>
 5    1  0.3411213E-005  0.4715120E+03  0.7818608E-02  0.9636810E-01
         21   -1    0    0  501  502  0.00000000000E+00  0.00000000000E+00  0.34132436932E+03  0.34132436932E+03  0.00000000000E+00 0. -1.
         -4   -1    0    0    0  501 -0.00000000000E+00 -0.00000000000E+00 -0.19963029482E+04  0.19963029482E+04  0.00000000000E+00 0. -1.
        -13    1    1    2    0    0 -0.31287591577E+03  0.12551701088E+03 -0.10895777780E+04  0.11405374190E+04  0.10566000000E+00 0.  1.
         13    1    1    2    0    0 -0.25982071280E+03 -0.28220845065E+02 -0.55796483685E+03  0.61613958583E+03  0.10566000000E+00 0. -1.
         -4    1    1    2    0  502  0.57269662858E+03 -0.97296165810E+02 -0.74359640557E+01  0.58095031270E+03  0.00000000000E+00 0. -1.
</event>
<event>
 5    1  0.2540860E-005  0.1643471E+03  0.7818608E-02  0.1087764E+00
         21   -1    0    0  501  502  0.00000000000E+00  0.00000000000E+00  0.12748784809E+03  0.12748784809E+03  0.00000000000E+00 0. -1.
          4   -1    0    0  502    0 -0.00000000000E+00 -0.00000000000E+00 -0.48922115357E+03  0.48922115357E+03  0.00000000000E+00 0.  1.
        -13    1    1    2    0    0  0.15796719684E+03 -0.65149075726E+02 -0.40293736810E+03  0.43767176185E+03  0.10566000000E+00 0.  1.
         13    1    1    2    0    0 -0.12115006466E+03  0.59571862727E+02  0.20863869497E+02  0.13660694423E+03  0.10566000000E+00 0. -1.
          4    1    1    2  501    0 -0.36817132177E+02  0.55772129995E+01  0.20340193122E+02  0.42430295578E+02  0.00000000000E+00 0.  1.
</event>
<event>
 5    1  0.2540860E-005  0.4284661E+02  0.7818608E-02  0.1324012E+00
         -4   -1    0    0    0  501 -0.00000000000E+00  0.00000000000E+00  0.22486011265E+03  0.22486011265E+03  0.00000000000E+00 0. -1.
         21   -1    0    0  501  502  0.00000000000E+00 -0.00000000000E+00 -0.12978931437E+02  0.12978931437E+02  0.00000000000E+00 0.  1.
        -13    1    1    2    0    0  0.37647024164E+02  0.28241003413E+02  0.78040163753E+02  0.91132491598E+02  0.10566000000E+00 0.  1.
         13    1    1    2    0    0 -0.36952582930E+02 -0.17905284027E+02  0.12879808638E+03  0.13518524624E+03  0.10566000000E+00 0. -1.
         -4    1    1    2    0  502 -0.69444123438E+00 -0.10335719386E+02  0.50429310797E+01  0.11521306251E+02  0.00000000000E+00 0. -1.
</event>
<event>
 5    1  0.2540860E-005  0.3336500E+03  0.7818608E-02  0.1011426E+00
         21   -1    0    0  501  502  0.00000000000E+00  0.00000000000E+00  0.73669751315E+03  0.73669751315E+03  0.00000000000E+00 0.  1.
          4   -1    0    0  502    0 -0.00000000000E+00 -0.00000000000E+00 -0.50822673804E+03  0.50822673804E+03  0.00000000000E+00 0.  1.
        -13    1    1    2    0    0 -0.39518785881E+03  0.22509105051E+03  0.43252933523E+02  0.45684817193E+03  0.10566000000E+00 0.  1.
         13    1    1    2    0    0  0.19094335989E+03  0.45839943297E+01 -0.21231486309E+03  0.28558359887E+03  0.10566000000E+00 0. -1.
          4    1    1    2  501    0  0.20424449892E+03 -0.22967504484E+03  0.39753270468E+03  0.50249248039E+03  0.00000000000E+00 0.  1.
</event>
<event>
 5    1  0.2540860E-005  0.3513204E+03  0.7818608E-02  0.9881245E-01
          4   -1    0    0  502    0 -0.00000000000E+00  0.00000000000E+00  0.28970527054E+04  0.28970527054E+04  0.00000000000E+00 0.  1.
         21   -1    0    0  501  502  0.00000000000E+00 -0.00000000000E+00 -0.27583297660E+03  0.27583297660E+03  0.00000000000E+00 0.  1.
        -13    1    1    2    0    0 -0.51810027491E+03  0.28529591886E+02  0.91863949348E+03  0.10550546728E+04  0.10566000000E+00 0.  1.
         13    1    1    2    0    0  0.30761905183E+03  0.93829102869E+02  0.18195311449E+04  0.18477356358E+04  0.10566000000E+00 0. -1.
          4    1    1    2  501    0  0.21048122309E+03 -0.12235869475E+03 -0.11695090957E+03  0.27009537334E+03  0.00000000000E+00 0.  1.
</event>
<event>
 5    1  0.2540860E-005  0.4874298E+03  0.7818608E-02  0.9735939E-01
         21   -1    0    0  501  502  0.00000000000E+00  0.00000000000E+00  0.54964279856E+03  0.54964279856E+03  0.00000000000E+00 0. -1.
         -4   -1    0    0    0  501 -0.00000000000E+00 -0.00000000000E+00 -0.72418458442E+03  0.72418458442E+03  0.00000000000E+00 0. -1.
        -13    1    1    2    0    0  0.20442927343E+03  0.69269528720E+02 -0.15645494966E+03  0.26658536697E+03  0.10566000000E+00 0.  1.
         13    1    1    2    0    0 -0.23263436357E+03 -0.49565786049E+03  0.11538610206E+03  0.55956181562E+03  0.10566000000E+00 0. -1.
         -4    1    1    2    0  502  0.28205090139E+02  0.42638833177E+03 -0.13347293827E+03  0.44768020040E+03  0.00000000000E+00 0. -1.
</event>
<event>
 5    1  0.2540860E-005  0.4139848E+03  0.7818608E-02  0.9975562E-01
         -4   -1    0    0    0  501 -0.00000000000E+00  0.00000000000E+00  0.17752180969E+04  0.17752180969E+04  0.00000000000E+00 0. -1.
         21   -1    0    0  501  502  0.00000000000E+00 -0.00000000000E+00 -0.21005956492E+03  0.21005956492E+03  0.00000000000E+00 0. -1.
        -13    1    1    2    0    0  0.91266425802E+02 -0.12762362132E+03  0.48773496437E+03  0.51235022770E+03  0.10566000000E+00 0.  1.
         13    1    1    2    0    0  0.31734920810E+03 -0.45087479461E+02  0.96278088562E+03  0.10147366385E+04  0.10566000000E+00 0. -1.
         -4    1    1    2    0  502 -0.40861563390E+03  0.17271110078E+03  0.11464268196E+03  0.45819079555E+03  0.00000000000E+00 0. -1.
</event>
<event>
 5    1  0.2540860E-005  0.5708294E+03  0.7818608E-02  0.9425749E-01
          4   -1    0    0  502    0 -0.00000000000E+00  0.00000000000E+00  0.26346825149E+04  0.26346825149E+04  0.00000000000E+00 0.  1.
         21   -1    0    0  501  502  0.00000000000E+00 -0.00000000000E+00 -0.49635004473E+03  0.49635004473E+03  0.00000000000E+00 0.  1.
        -13    1    1    2    0    0 -0.38899830917E+03 -0.20794786847E+03  0.13636795465E+03  0.46169062234E+03  0.10566000000E+00 0.  1.
         13    1    1    2    0    0  0.36915860825E+03 -0.56633033916E+03  0.17148774361E+04  0.18433156982E+04  0.10566000000E+00 0. -1.
          4    1    1    2  501    0  0.19839700912E+02  0.77427820764E+03  0.28708707941E+03  0.82602623912E+03  0.00000000000E+00 0.  1.
</event>
<event>
 5    1  0.2540860E-005  0.1210331E+03  0.7818608E-02  0.1133799E+00
         21   -1    0    0  501  502  0.00000000000E+00  0.00000000000E+00  0.16710446035E+03  0.16710446035E+03  0.00000000000E+00 0.  1.
         -4   -1    0    0    0  501 -0.00000000000E+00 -0.00000000000E+00 -0.26529943214E+03  0.26529943214E+03  0.00000000000E+00 0. -1.
        -13    1    1    2    0    0 -0.15848997089E+02 -0.12840568554E+03  0.62861715540E+02  0.14384302984E+03  0.10566000000E+00 0.  1.
         13    1    1    2    0    0  0.85843105236E+01  0.11945511057E+03 -0.20811306617E+03  0.24011304276E+03  0.10566000000E+00 0. -1.
         -4    1    1    2    0  502  0.72646865656E+01  0.89505749752E+01  0.47056378842E+02  0.48447819899E+02  0.00000000000E+00 0. -1.
</event>
<event>
 5    1  0.2540860E-005  0.1888523E+03  0.7818608E-02  0.1085285E+00
         21   -1    0    0  501  502  0.00000000000E+00  0.00000000000E+00  0.55138718319E+03  0.55138718319E+03  0.00000000000E+00 0. -1.
         -4   -1    0    0    0  501 -0.00000000000E+00 -0.00000000000E+00 -0.11987805275E+03  0.11987805275E+03  0.00000000000E+00 0. -1.
        -13    1    1    2    0    0 -0.84863491470E+02  0.79131813284E+02  0.12570979437E+03  0.17107489477E+03  0.10566000000E+00 0.  1.
         13    1    1    2    0    0  0.20735384928E+03  0.54559869164E+02  0.17104402618E+03  0.27427808551E+03  0.10566000000E+00 0. -1.
         -4    1    1    2    0  502 -0.12249035781E+03 -0.13369168245E+03  0.13475530989E+03  0.22591225566E+03  0.00000000000E+00 0. -1.
</event>
<event>
 5    1  0.2540860E-005  0.2406450E+02  0.7818608E-02  0.1460091E+00
          4   -1    0    0  502    0 -0.00000000000E+00  0.00000000000E+00  0.65355873619E+02  0.65355873619E+02  0.00000000000E+00 0.  1.
         21   -1    0    0  501  502  0.00000000000E+00 -0.00000000000E+00 -0.28847625843E+02  0.28847625843E+02  0.00000000000E+00 0. -1.
        -13    1    1    2    0    0  0.20818405872E+02  0.66271186875E+01  0.33601229628E+02  0.40079652215E+02  0.10566000000E+00 0.  1.
         13    1    1    2    0    0 -0.36568226358E+02 -0.86391955186E+01 -0.16305266373E+01  0.37610379676E+02  0.10566000000E+00 0. -1.
          4    1    1    2  501    0  0.15749820486E+02  0.20120768311E+01  0.45375447858E+01  0.16513467571E+02  0.00000000000E+00 0.  1.
</event>
<event>
 5    1  0.2540860E-005  0.2437655E+03  0.7818608E-02  0.1033675E+00
         21   -1    0    0  501  502  0.00000000000E+00  0.00000000000E+00  0.16183966577E+03  0.16183966577E+03  0.00000000000E+00 0. -1.
         -4   -1    0    0    0  501 -0.00000000000E+00 -0.00000000000E+00 -0.16765988837E+04  0.16765988837E+04  0.00000000000E+00 0. -1.
        -13    1    1    2    0    0  0.33028580528E+00 -0.20666237429E+03 -0.12929529922E+03  0.24377598651E+03  0.10566000000E+00 0.  1.
         13    1    1    2    0    0 -0.19661106218E+03  0.17782976507E+03 -0.13702872993E+04  0.13956957509E+04  0.10566000000E+00 0. -1.
         -4    1    1    2    0  502  0.19628077638E+03  0.28832609215E+02 -0.15176619350E+02  0.19896681207E+03  0.00000000000E+00 0. -1.
</event>
<event>
 5    1  0.2540860E-005  0.3577906E+03  0.7818608E-02  0.9859557E-01
         -4   -1    0    0    0  501 -0.00000000000E+00  0.00000000000E+00  0.41795343065E+03  0.41795343065E+03  0.00000000000E+00 0. -1.
         21   -1    0    0  501  502  0.00000000000E+00 -0.00000000000E+00 -0.11302217841E+04  0.11302217841E+04  0.00000000000E+00 0. -1.
        -13    1    1    2    0    0 -0.27786936534E+03  0.15093932648E+03 -0.18577814082E+03  0.36675276855E+03  0.10566000000E+00 0.  1.
         13    1    1    2    0    0  0.39751685188E+03 -0.27576655478E+03 -0.75387410033E+03  0.89576392569E+03  0.10566000000E+00 0. -1.
         -4    1    1    2    0  502 -0.11964748654E+03  0.12482722830E+03  0.22738388769E+03  0.28565852052E+03  0.00000000000E+00 0. -1.
</event>
<event>
 5    1  0.2540860E-005  0.2973670E+03  0.7818608E-02  0.1021143E+00
         21   -1    0    0  501  502  0.00000000000E+00  0.00000000000E+00  0.22350291652E+03  0.22350291652E+03  0.00000000000E+00 0.  1.
          4   -1    0    0  502    0 -0.00000000000E+00 -0.00000000000E+00 -0.23463669625E+04  0.23463669625E+04  0.00000000000E+00 0.  1.
        -13    1    1    2    0    0  0.19696974994E+03 -0.19810125883E+03  0.47530587484E+02  0.28337317984E+03  0.10566000000E+00 0.  1.
         13    1    1    2    0    0  0.16606727694E+03 -0.10815614516E+03 -0.10665308742E+04  0.10847876331E+04  0.10566000000E+00 0. -1.
          4    1    1    2  501    0 -0.36303702688E+03  0.30625740399E+03 -0.11038637592E+04  0.12017090660E+04  0.00000000000E+00 0.  1.
</event>
<event>
 5    1  0.2540860E-005  0.4099346E+03  0.7818608E-02  0.9700784E-01
         21   -1    0    0  501  502  0.00000000000E+00  0.00000000000E+00  0.19539324255E+03  0.19539324255E+03  0.00000000000E+00 0. -1.
         -4   -1    0    0    0  501 -0.00000000000E+00 -0.00000000000E+00 -0.35633520401E+04  0.35633520401E+04  0.00000000000E+00 0. -1.
        -13    1    1    2    0    0  0.31520761101E+03  0.20504081262E+03 -0.19970025786E+04  0.20320966717E+04  0.10566000000E+00 0.  1.
         13    1    1    2    0    0 -0.29592155150E+03 -0.57091873679E+03 -0.10875662032E+04  0.12634547978E+04  0.10566000000E+00 0. -1.
         -4    1    1    2    0  502 -0.19286059511E+02  0.36587792417E+03 -0.28339001565E+03  0.46319381306E+03  0.00000000000E+00 0. -1.
</event>
<event>
 5    1  0.2540860E-005  0.3383944E+03  0.7818608E-02  0.9926100E-01
         21   -1    0    0  501  502  0.00000000000E+00  0.00000000000E+00  0.52133115533E+03  0.52133115533E+03  0.00000000000E+00 0. -1.
         -4   -1    0    0    0  501 -0.00000000000E+00 -0.00000000000E+00 -0.11362979086E+04  0.11362979086E+04  0.00000000000E+00 0. -1.
        -13    1    1    2    0    0 -0.37197637224E+03 -0.78298314960E+02 -0.41595615860E+03  0.56348609980E+03  0.10566000000E+00 0.  1.
         13    1    1    2    0    0  0.31411515678E+03  0.40628118534E+02 -0.60469588019E+03  0.68262441680E+03  0.10566000000E+00 0. -1.
         -4    1    1    2    0  502  0.57861215457E+02  0.37670196426E+02  0.40568528548E+03  0.41151854735E+03  0.00000000000E+00 0. -1.
</event>
<event>
 5    1  0.2540860E-005  0.2086143E+03  0.7818608E-02  0.1054386E+00
         21   -1    0    0  501  502  0.00000000000E+00  0.00000000000E+00  0.37533358484E+03  0.37533358484E+03  0.00000000000E+00 0. -1.
          4   -1    0    0  502    0 -0.00000000000E+00 -0.00000000000E+00 -0.15200430907E+03  0.15200430907E+03  0.00000000000E+00 0.  1.
        -13    1    1    2    0    0 -0.21642583808E+03 -0.47476818168E+02  0.17039474795E+03  0.27951488860E+03  0.10566000000E+00 0.  1.
         13    1    1    2    0    0  0.20102241461E+03  0.24826300586E+02  0.17882477412E+02  0.20333752860E+03  0.10566000000E+00 0. -1.
          4    1    1    2  501    0  0.15403423473E+02  0.22650517582E+02  0.35052050396E+02  0.44485476712E+02  0.00000000000E+00 0.  1.
</event>
<event>
 5    1  0.2540860E-005  0.3134345E+03  0.7818608E-02  0.1031568E+00
          4   -1    0    0  502    0 -0.00000000000E+00  0.00000000000E+00  0.14782076545E+04  0.14782076545E+04  0.00000000000E+00 0.  1.
         21   -1    0    0  501  502  0.00000000000E+00 -0.00000000000E+00 -0.21580198723E+03  0.21580198723E+03  0.00000000000E+00 0.  1.
        -13    1    1    2    0    0 -0.14884093249E+03  0.34220733893E+03  0.11255295467E+04  0.11857808641E+04  0.10566000000E+00 0.  1.
         13    1    1    2    0    0 -0.53407038948E+02 -0.11006963241E+03  0.15775839507E+03  0.19963806793E+03  0.10566000000E+00 0. -1.
          4    1    1    2  501    0  0.20224797144E+03 -0.23213770652E+03 -0.20882274477E+02  0.30859070972E+03  0.00000000000E+00 0.  1.
</event>
<event>
 5    1  0.2540860E-005  0.6835958E+03  0.7818608E-02  0.9147120E-01
         -4   -1    0    0    0  501 -0.00000000000E+00  0.00000000000E+00  0.21037602393E+04  0.21037602393E+04  0.00000000000E+00 0. -1.
         21   -1    0    0  501  502  0.00000000000E+00 -0.00000000000E+00 -0.42994024344E+03  0.42994024344E+03  0.00000000000E+00 0. -1.
        -13    1    1    2    0    0  0.60952969242E+03 -0.23567044712E+03  0.91277453177E+03  0.11225971506E+04  0.10566000000E+00 0.  1.
         13    1    1    2    0    0 -0.73950282410E+03  0.23485609574E+03  0.15494153871E+03  0.79121975717E+03  0.10566000000E+00 0. -1.
         -4    1    1    2    0  502  0.12997313168E+03  0.81435137872E+00  0.60610392540E+03  0.61988357497E+03  0.00000000000E+00 0. -1.
</event>
<event>
 5    1  0.2540860E-005  0.4871863E+03  0.7818608E-02  0.9618803E-01
         21   -1    0    0  501  502  0.00000000000E+00  0.00000000000E+00  0.80261714239E+03  0.80261714239E+03  0.00000000000E+00 0.  1.
          4   -1    0    0  502    0 -0.00000000000E+00 -0.00000000000E+00 -0.57635627537E+03  0.57635627537E+03  0.00000000000E+00 0.  1.
        -13    1    1    2    0    0  0.61446868878E+03 -0.49945562046E+02  0.28799350429E+03  0.68044588201E+03  0.10566000000E+00 0.  1.
         13    1    1    2    0    0 -0.29647907402E+03 -0.13484842309E+03 -0.66138029298E+00  0.32570598265E+03  0.10566000000E+00 0. -1.
          4    1    1    2  501    0 -0.31798961476E+03  0.18479398513E+03 -0.61071256977E+02  0.37282155311E+03  0.00000000000E+00 0.  1.
</event>
<event>
 5    1  0.2540860E-005  0.4800420E+03  0.7818608E-02  0.1005846E+00
         -4   -1    0    0    0  501 -0.00000000000E+00  0.00000000000E+00  0.24224813696E+03  0.24224813696E+03  0.00000000000E+00 0. -1.
         21   -1    0    0  501  502  0.00000000000E+00 -0.00000000000E+00 -0.12400392282E+04  0.12400392282E+04  0.00000000000E+00 0. -1.
        -13    1    1    2    0    0  0.70538893676E+01 -0.76439142045E+02 -0.27270146543E+02  0.81463929738E+02  0.10566000000E+00 0.  1.
         13    1    1    2    0    0  0.47376809589E+03  0.96421210202E+01 -0.26059009874E+03  0.54079237227E+03  0.10566000000E+00 0. -1.
         -4    1    1    2    0  502 -0.48082198526E+03  0.66797021025E+02 -0.70993084595E+03  0.86003106313E+03  0.00000000000E+00 0. -1.
</event>
<event>
 5    1  0.2540860E-005  0.8712076E+03  0.7818608E-02  0.8906038E-01
          4   -1    0    0  502    0 -0.00000000000E+00  0.00000000000E+00  0.12868166305E+04  0.12868166305E+04  0.00000000000E+00 0.  1.
         21   -1    0    0  501  502  0.00000000000E+00 -0.00000000000E+00 -0.12604408659E+04  0.12604408659E+04  0.00000000000E+00 0. -1.
        -13    1    1    2    0    0  0.86491419599E+03 -0.34721131310E+03 -0.10819086161E+03  0.93826304205E+03  0.10566000000E+00 0.  1.
         13    1    1    2    0    0 -0.79408398957E+03  0.29546354108E+03  0.66143180759E+03  0.10748767994E+04  0.10566000000E+00 0. -1.
          4    1    1    2  501    0 -0.70830206422E+02  0.51747772024E+02 -0.52686518133E+03  0.53411765497E+03  0.00000000000E+00 0.  1.
</event>
<event>
 5    1  0.2540860E-005  0.4797364E+03  0.7818608E-02  0.9844956E-01
         21   -1    0    0  501  502  0.00000000000E+00  0.00000000000E+00  0.20048702186E+03  0.20048702186E+03  0.00000000000E+00 0.  1.
          4   -1    0    0  502    0 -0.00000000000E+00 -0.00000000000E+00 -0.19466640878E+04  0.19466640878E+04  0.00000000000E+00 0.  1.
        -13    1    1    2    0    0  0.32692279849E+03  0.27479964961E+03 -0.40805867188E+03  0.59068202483E+03  0.10566000000E+00 0.  1.
         13    1    1    2    0    0  0.54357116741E+02  0.14614819741E+03 -0.62849073996E+03  0.64754506648E+03  0.10566000000E+00 0. -1.
          4    1    1    2  501    0 -0.38127991523E+03 -0.42094784702E+03 -0.70962765413E+03  0.90892401837E+03  0.00000000000E+00 0.  1.
</event>
<event>
 5    1  0.2540860E-005  0.3881131E+03  0.7818608E-02  0.9930528E-01
         -4   -1    0    0    0  501 -0.00000000000E+00  0.00000000000E+00  0.62658929140E+03  0.62658929140E+03  0.00000000000E+00 0. -1.
         21   -1    0    0  501  502  0.00000000000E+00 -0.00000000000E+00 -0.71029558307E+03  0.71029558307E+03  0.00000000000E+00 0. -1.
        -13    1    1    2    0    0 -0.27043687659E+02  0.21935413555E+03  0.15934112908E+03  0.27246505171E+03  0.10566000000E+00 0.  1.
         13    1    1    2    0    0 -0.37018783859E+03  0.60666987269E+02 -0.40509583556E+03  0.55210702435E+03  0.10566000000E+00 0. -1.
         -4    1    1    2    0  502  0.39723152624E+03 -0.28002112282E+03  0.16204841481E+03  0.51231279841E+03  0.00000000000E+00 0. -1.
</event>
<event>
 5    1  0.2540860E-005  0.4111955E+03  0.7818608E-02  0.1009178E+00
         21   -1    0    0  501  502  0.00000000000E+00  0.00000000000E+00  0.14447773309E+04  0.14447773309E+04  0.00000000000E+00 0. -1.
         -4   -1    0    0    0  501 -0.00000000000E+00 -0.00000000000E+00 -0.27104319156E+03  0.27104319156E+03  0.00000000000E+00 0. -1.
        -13    1    1    2    0    0  0.10559998979E+02  0.10916882298E+03  0.41187576630E+03  0.42622881591E+03  0.10566000000E+00 0.  1.
         13    1    1    2    0    0 -0.41861548378E+03 -0.11727253608E+03  0.10873702109E+02  0.43486781847E+03  0.10566000000E+00 0. -1.
         -4    1    1    2    0  502  0.40805548480E+03  0.81037130960E+01  0.75098467089E+03  0.85472388802E+03  0.00000000000E+00 0. -1.
</event>
<event>
 5    1  0.2540860E-005  0.4318615E+03  0.7818608E-02  0.9837165E-01
         -4   -1    0    0    0  501 -0.00000000000E+00  0.00000000000E+00  0.78667296775E+03  0.78667296775E+03  0.00000000000E+00 0. -1.
         21   -1    0    0  501  502  0.00000000000E+00 -0.00000000000E+00 -0.68111468963E+03  0.68111468963E+03  0.00000000000E+00 0. -1.
        -13    1    1    2    0    0  0.70207417022E+02  0.20792864226E+03  0.34471290603E+03  0.40864458937E+03  0.10566000000E+00 0.  1.
         13    1    1    2    0    0  0.26364010859E+03  0.13585777965E+03  0.23996136064E+03  0.38150348480E+03  0.10566000000E+00 0. -1.
         -4    1    1    2    0  502 -0.33384752561E+03 -0.34378642191E+03 -0.47911598855E+03  0.67763958321E+03  0.00000000000E+00 0. -1.
</event>
<event>
 5    1  0.2540860E-005  0.6112994E+02  0.7818608E-02  0.1252123E+00
          4   -1    0    0  502    0 -0.00000000000E+00  0.00000000000E+00  0.16014363309E+02  0.16014363309E+02  0.00000000000E+00 0.  1.
         21   -1    0    0  501  502  0.00000000000E+00 -0.00000000000E+00 -0.63658108955E+03  0.63658108955E+03  0.00000000000E+00 0.  1.
        -13    1    1    2    0    0  0.65254528961E+02 -0.18098020642E+02 -0.14375760429E+03  0.15890862738E+03  0.10566000000E+00 0.  1.
         13    1    1    2    0    0 -0.58051946016E+02 -0.11858675130E+02 -0.10468760148E+03  0.12029198511E+03  0.10566000000E+00 0. -1.
          4    1    1    2  501    0 -0.72025829451E+01  0.29956695772E+02 -0.37212152047E+03  0.37339484037E+03  0.00000000000E+00 0.  1.
</event>
<event>
 5    1  0.3688910E-005  0.6698978E+03  0.7818608E-02  0.9212468E-01
          4   -1    0    0  502    0 -0.00000000000E+00  0.00000000000E+00  0.22397563238E+04  0.22397563238E+04  0.00000000000E+00 0.  1.
         21   -1    0    0  501  502  0.00000000000E+00 -0.00000000000E+00 -0.48361596835E+03  0.48361596835E+03  0.00000000000E+00 0. -1.
        -13    1    1    2    0    0 -0.38310538791E+03 -0.58006212499E+02 -0.92804336044E+02  0.39843081569E+03  0.10566000000E+00 0.  1.
         13    1    1    2    0    0  0.38855530702E+03 -0.61186904452E+03  0.11280554352E+04  0.13408460129E+04  0.10566000000E+00 0. -1.
          4    1    1    2  501    0 -0.54499191051E+01  0.66987525702E+03  0.72088925631E+03  0.98409546359E+03  0.00000000000E+00 0.  1.
</event>
<event>
 5    1  0.2540860E-005  0.4757438E+03  0.7818608E-02  0.9886789E-01
         21   -1    0    0  501  502  0.00000000000E+00  0.00000000000E+00  0.13409901662E+03  0.13409901662E+03  0.00000000000E+00 0. -1.
         -4   -1    0    0    0  501 -0.00000000000E+00 -0.00000000000E+00 -0.24883436481E+04  0.24883436481E+04  0.00000000000E+00 0. -1.
        -13    1    1    2    0    0  0.10836549325E+03 -0.86845907990E+02 -0.44238530409E+03  0.46367020640E+03  0.10566000000E+00 0.  1.
         13    1    1    2    0    0  0.50210540799E+02  0.51622347765E+03 -0.12570260101E+04  0.13598243190E+04  0.10566000000E+00 0. -1.
         -4    1    1    2    0  502 -0.15857603405E+03 -0.42937756966E+03 -0.65483331727E+03  0.79894813931E+03  0.00000000000E+00 0. -1.
</event>
<event>
 5    1  0.2540860E-005  0.4503193E+03  0.7818608E-02  0.9847483E-01
          4   -1    0    0  502    0 -0.00000000000E+00  0.00000000000E+00  0.14347287948E+04  0.14347287948E+04  0.00000000000E+00 0.  1.
         21   -1    0    0  501  502  0.00000000000E+00 -0.00000000000E+00 -0.42253049662E+03  0.42253049662E+03  0.00000000000E+00 0.  1.
        -13    1    1    2    0    0  0.20468322206E+03  0.43185482144E+03 -0.14015651689E+03  0.49803380265E+03  0.10566000000E+00 0.  1.
         13    1    1    2    0    0 -0.18495789626E+03 -0.27032059924E+02  0.80196500588E+03  0.82346101151E+03  0.10566000000E+00 0. -1.
          4    1    1    2  501    0 -0.19725325801E+02 -0.40482276151E+03  0.35038980918E+03  0.53576447726E+03  0.00000000000E+00 0.  1.
</event>
<event>
 5    1  0.2540860E-005  0.1319714E+03  0.7818608E-02  0.1120391E+00
         -4   -1    0    0    0  501 -0.00000000000E+00  0.00000000000E+00  0.36566314761E+03  0.36566314761E+03  0.00000000000E+00 0. -1.
         21   -1    0    0  501  502  0.00000000000E+00 -0.00000000000E+00 -0.59720769684E+03  0.59720769684E+03  0.00000000000E+00 0. -1.
        -13    1    1    2    0    0  0.50943031537E+02  0.10463386865E+03 -0.15354601181E+03  0.19266506647E+03  0.10566000000E+00 0.  1.
         13    1    1    2    0    0 -0.62503675345E+02 -0.11754570924E+03  0.33311197238E+03  0.35873012210E+03  0.10566000000E+00 0. -1.
         -4    1    1    2    0  502  0.11560643808E+02  0.12911840589E+02 -0.41111050981E+03  0.41147565589E+03  0.00000000000E+00 0. -1.
</event>
<event>
 5    1  0.2540860E-005  0.4052027E+03  0.7818608E-02  0.9714140E-01
         21   -1    0    0  501  502  0.00000000000E+00  0.00000000000E+00  0.16102329459E+03  0.16102329459E+03  0.00000000000E+00 0.  1.
          4   -1    0    0  502    0 -0.00000000000E+00 -0.00000000000E+00 -0.19316217772E+04  0.19316217772E+04  0.00000000000E+00 0.  1.
        -13    1    1    2    0    0  0.41410450612E+03 -0.16638116580E+02 -0.13229466667E+04  0.13863431260E+04  0.10566000000E+00 0.  1.
         13    1    1    2    0    0 -0.37130720547E+03  0.13876777789E+03 -0.41275240200E+03  0.57226750173E+03  0.10566000000E+00 0. -1.
          4    1    1    2  501    0 -0.42797300643E+02 -0.12212966131E+03 -0.34899413955E+02  0.13403444411E+03  0.00000000000E+00 0.  1.
</event>
<event>
 5    1  0.2540860E-005  0.1618559E+03  0.7818608E-02  0.1107786E+00
          4   -1    0    0  502    0 -0.00000000000E+00  0.00000000000E+00  0.90361375615E+03  0.90361375615E+03  0.00000000000E+00 0.  1.
         21   -1    0    0  501  502  0.00000000000E+00 -0.00000000000E+00 -0.99357958750E+02  0.99357958750E+02  0.00000000000E+00 0.  1.
        -13    1    1    2    0    0  0.16715528476E+03 -0.14213406496E+03  0.68366756375E+03  0.71801415761E+03  0.10566000000E+00 0.  1.
         13    1    1    2    0    0 -0.99675849723E+02  0.47417813818E+01  0.19934855992E+02  0.10176035159E+03  0.10566000000E+00 0. -1.
          4    1    1    2  501    0 -0.67479435038E+02  0.13739228358E+03  0.10065337766E+03  0.18319720570E+03  0.00000000000E+00 0.  1.
</event>
<event>
 5    1  0.2540860E-005  0.6116606E+03  0.7818608E-02  0.9262036E-01
         -4   -1    0    0    0  501 -0.00000000000E+00  0.00000000000E+00  0.17852665442E+04  0.17852665442E+04  0.00000000000E+00 0. -1.
         21   -1    0    0  501  502  0.00000000000E+00 -0.00000000000E+00 -0.50881648356E+03  0.50881648356E+03  0.00000000000E+00 0.  1.
        -13    1    1    2    0    0  0.57251370517E+03 -0.23622680883E+03  0.70853999080E+03  0.94106534180E+03  0.10566000000E+00 0.  1.
         13    1    1    2    0    0 -0.66930611006E+03 -0.24254630369E+03  0.47495306128E+03  0.85579191395E+03  0.10566000000E+00 0. -1.
         -4    1    1    2    0  502  0.96792404882E+02  0.47877311253E+03  0.92957008587E+02  0.49722577203E+03  0.00000000000E+00 0. -1.
</event>
<event>
 5    1  0.3263597E-005  0.3227636E+03  0.7818608E-02  0.1001186E+00
         21   -1    0    0  501  502  0.00000000000E+00  0.00000000000E+00  0.11774715972E+04  0.11774715972E+04  0.00000000000E+00 0. -1.
         -4   -1    0    0    0  501 -0.00000000000E+00 -0.00000000000E+00 -0.39680100672E+03  0.39680100672E+03  0.00000000000E+00 0. -1.
        -13    1    1    2    0    0  0.27513237133E+03  0.10332444330E+03  0.31438009255E+03  0.43035870630E+03  0.10566000000E+00 0.  1.
         13    1    1    2    0    0  0.29031697187E+03 -0.32824280809E+01  0.48959708223E+03  0.56921000745E+03  0.10566000000E+00 0. -1.
         -4    1    1    2    0  502 -0.56544934320E+03 -0.10004201522E+03 -0.23306584280E+02  0.57470389019E+03  0.00000000000E+00 0. -1.
</event>
<event>
 5    1  0.2540860E-005  0.2220633E+03  0.7818608E-02  0.1045980E+00
         21   -1    0    0  501  502  0.00000000000E+00  0.00000000000E+00  0.30491078595E+03  0.30491078595E+03  0.00000000000E+00 0. -1.
          4   -1    0    0  502    0 -0.00000000000E+00 -0.00000000000E+00 -0.25471851025E+03  0.25471851025E+03  0.00000000000E+00 0.  1.
        -13    1    1    2    0    0 -0.19998813510E+03  0.59549414800E+01  0.39923563290E+01  0.20011662995E+03  0.10566000000E+00 0.  1.
         13    1    1    2    0    0  0.24578531272E+03  0.75482058520E+02  0.43870913818E+01  0.25715213171E+03  0.10566000000E+00 0. -1.
          4    1    1    2  501    0 -0.45797177612E+02 -0.81437000000E+02  0.41812827986E+02  0.10236053454E+03  0.00000000000E+00 0.  1.
</event>
<event>
 5    1  0.2540860E-005  0.3975899E+02  0.7818608E-02  0.1350284E+00
         -4   -1    0    0    0  501 -0.00000000000E+00  0.00000000000E+00  0.28673008860E+02  0.28673008860E+02  0.00000000000E+00 0. -1.
         21   -1    0    0  501  502  0.00000000000E+00 -0.00000000000E+00 -0.12892790666E+03  0.12892790666E+03  0.00000000000E+00 0. -1.
        -13    1    1    2    0    0 -0.27209084799E+02  0.18887125249E+02 -0.16422756331E+02  0.36969932179E+02  0.10566000000E+00 0.  1.
         13    1    1    2    0    0  0.36510287517E+02  0.22963883377E+02 -0.49886857478E+02  0.65947333133E+02  0.10566000000E+00 0. -1.
         -4    1    1    2    0  502 -0.93012027183E+01 -0.41851008626E+02 -0.33945283994E+02  0.54683650211E+02  0.00000000000E+00 0. -1.
</event>
<event>
 5    1  0.2540860E-005  0.2795734E+03  0.7818608E-02  0.1016112E+00
          4   -1    0    0  502    0 -0.00000000000E+00  0.00000000000E+00  0.67889111223E+02  0.67889111223E+02  0.00000000000E+00 0.  1.
         21   -1    0    0  501  502  0.00000000000E+00 -0.00000000000E+00 -0.16857185254E+04  0.16857185254E+04  0.00000000000E+00 0. -1.
        -13    1    1    2    0    0  0.16539841731E+03 -0.22070427653E+03 -0.10340669738E+04  0.10702156472E+04  0.10566000000E+00 0.  1.
         13    1    1    2    0    0 -0.15102595895E+03  0.23724092858E+03 -0.35178845989E+03  0.45038564603E+03  0.10566000000E+00 0. -1.
          4    1    1    2  501    0 -0.14372458354E+02 -0.16536652053E+02 -0.23197398049E+03  0.23300634336E+03  0.00000000000E+00 0.  1.
</event>
<event>
 5    1  0.2540860E-005  0.4309479E+03  0.7818608E-02  0.9643701E-01
         21   -1    0    0  501  502  0.00000000000E+00  0.00000000000E+00  0.21289952706E+03  0.21289952706E+03  0.00000000000E+00 0.  1.
          4   -1    0    0  502    0 -0.00000000000E+00 -0.00000000000E+00 -0.17443604501E+04  0.17443604501E+04  0.00000000000E+00 0.  1.
        -13    1    1    2    0    0  0.18711487843E+03  0.36196895944E+03 -0.70152939574E+03  0.81128109160E+03  0.10566000000E+00 0.  1.
         13    1    1    2    0    0 -0.21474518611E+03 -0.39925034910E+03 -0.93058968054E+03  0.10351393630E+04  0.10566000000E+00 0. -1.
          4    1    1    2  501    0  0.27630307682E+02  0.37281389657E+02  0.10065815329E+03  0.11083952247E+03  0.00000000000E+00 0.  1.
</event>
<event>
 5    1  0.2540860E-005  0.1873746E+03  0.7818608E-02  0.1069154E+00
         21   -1    0    0  501  502  0.00000000000E+00  0.00000000000E+00  0.29659278367E+03  0.29659278367E+03  0.00000000000E+00 0. -1.
         -4   -1    0    0    0  501 -0.00000000000E+00 -0.00000000000E+00 -0.75843056026E+03  0.75843056026E+03  0.00000000000E+00 0. -1.
        -13    1    1    2    0    0  0.57254497324E+02 -0.18427459596E+03 -0.36305877680E+03  0.41115312324E+03  0.10566000000E+00 0.  1.
         13    1    1    2    0    0 -0.33019667756E+02  0.17977995432E+03 -0.34818568958E+03  0.39324854231E+03  0.10566000000E+00 0. -1.
         -4    1    1    2    0  502 -0.24234829569E+02  0.44946416441E+01  0.24940668978E+03  0.25062167838E+03  0.00000000000E+00 0. -1.
</event>
<event>
 5    1  0.2540860E-005  0.4022888E+03  0.7818608E-02  0.9722459E-01
         21   -1    0    0  501  502  0.00000000000E+00  0.00000000000E+00  0.77163648675E+03  0.77163648675E+03  0.00000000000E+00 0.  1.
         -4   -1    0    0    0  501 -0.00000000000E+00 -0.00000000000E+00 -0.96147082590E+03  0.96147082590E+03  0.00000000000E+00 0. -1.
        -13    1    1    2    0    0  0.16277769752E+03  0.54802983820E+03 -0.11360997234E+03  0.58287264419E+03  0.10566000000E+00 0.  1.
         13    1    1    2    0    0 -0.30023921886E+03 -0.22864278250E+03 -0.48438598819E+03  0.61404471111E+03  0.10566000000E+00 0. -1.
         -4    1    1    2    0  502  0.13746152133E+03 -0.31938705570E+03  0.40816162138E+03  0.53618995735E+03  0.00000000000E+00 0. -1.
</event>
<event>
 5    1  0.2540860E-005  0.3493437E+03  0.7818608E-02  0.9887971E-01
         -4   -1    0    0    0  501 -0.00000000000E+00  0.00000000000E+00  0.11126766266E+04  0.11126766266E+04  0.00000000000E+00 0. -1.
         21   -1    0    0  501  502  0.00000000000E+00 -0.00000000000E+00 -0.48908725185E+03  0.48908725185E+03  0.00000000000E+00 0. -1.
        -13    1    1    2    0    0  0.55395353173E+02 -0.39252016231E+03  0.92561266750E+02  0.40707287092E+03  0.10566000000E+00 0.  1.
         13    1    1    2    0    0 -0.16704072485E+02  0.33917052301E+03  0.82566688502E+03  0.89277179946E+03  0.10566000000E+00 0. -1.
         -4    1    1    2    0  502 -0.38691280687E+02  0.53349639304E+02 -0.29463877708E+03  0.30191920802E+03  0.00000000000E+00 0. -1.
</event>
<event>
 5    1  0.2540860E-005  0.4890928E+03  0.7818608E-02  0.9724270E-01
         21   -1    0    0  501  502  0.00000000000E+00  0.00000000000E+00  0.13731124446E+04  0.13731124446E+04  0.00000000000E+00 0. -1.
         -4   -1    0    0    0  501 -0.00000000000E+00 -0.00000000000E+00 -0.28192406573E+03  0.28192406573E+03  0.00000000000E+00 0. -1.
        -13    1    1    2    0    0  0.21558585217E+03  0.54872406721E+02  0.11179974192E+03  0.24897275781E+03  0.10566000000E+00 0.  1.
         13    1    1    2    0    0 -0.56127595336E+03  0.12649009489E+03  0.77557388678E+03  0.96568385352E+03  0.10566000000E+00 0. -1.
         -4    1    1    2    0  502  0.34569010120E+03 -0.18136250161E+03  0.20381475015E+03  0.44037989899E+03  0.00000000000E+00 0. -1.
</event>
<event>
 5    1  0.2540860E-005  0.1525330E+03  0.7818608E-02  0.1098640E+00
         21   -1    0    0  501  502  0.00000000000E+00  0.00000000000E+00  0.40371951430E+02  0.40371951430E+02  0.00000000000E+00 0.  1.
         -4   -1    0    0    0  501 -0.00000000000E+00 -0.00000000000E+00 -0.10830817797E+04  0.10830817797E+04  0.00000000000E+00 0. -1.
        -13    1    1    2    0    0 -0.13525381560E+03 -0.31258115423E+02 -0.15411443028E+03  0.20741729243E+03  0.10566000000E+00 0.  1.
         13    1    1    2    0    0  0.14231741466E+03  0.66032766568E+02 -0.84679070340E+03  0.86120211292E+03  0.10566000000E+00 0. -1.
         -4    1    1    2    0  502 -0.70635990638E+01 -0.34774651146E+02 -0.41804694595E+02  0.54834325784E+02  0.00000000000E+00 0. -1.
</event>
<event>
 5    1  0.2540860E-005  0.8821744E+02  0.7818608E-02  0.1185675E+00
          4   -1    0    0  502    0 -0.00000000000E+00  0.00000000000E+00  0.72514718532E+02  0.72514718532E+02  0.00000000000E+00 0.  1.
         21   -1    0    0  501  502  0.00000000000E+00 -0.00000000000E+00 -0.34034380154E+03  0.34034380154E+03  0.00000000000E+00 0.  1.
        -13    1    1    2    0    0  0.87231347939E+02 -0.70735027097E+02 -0.63342649876E+02  0.12893818123E+03  0.10566000000E+00 0.  1.
         13    1    1    2    0    0 -0.56218939330E+02  0.54480396859E+02 -0.18778241980E+01  0.78308493595E+02  0.10566000000E+00 0. -1.
          4    1    1    2  501    0 -0.31012408609E+02  0.16254630238E+02 -0.20260860893E+03  0.20561184524E+03  0.00000000000E+00 0.  1.
</event>
<event>
 5    1  0.2540860E-005  0.3935138E+03  0.7818608E-02  0.9893949E-01
         21   -1    0    0  501  502  0.00000000000E+00  0.00000000000E+00  0.57560410927E+03  0.57560410927E+03  0.00000000000E+00 0. -1.
         -4   -1    0    0    0  501 -0.00000000000E+00 -0.00000000000E+00 -0.11713953369E+04  0.11713953369E+04  0.00000000000E+00 0. -1.
        -13    1    1    2    0    0  0.21779087618E+03 -0.99800341114E+02 -0.68241027937E+03  0.72324046788E+03  0.10566000000E+00 0.  1.
         13    1    1    2    0    0 -0.23560744643E+03  0.46909236862E+03 -0.19396300147E+03  0.55962503180E+03  0.10566000000E+00 0. -1.
         -4    1    1    2    0  502  0.17816570248E+02 -0.36929202751E+03  0.28058205317E+03  0.46413394653E+03  0.00000000000E+00 0. -1.
</event>
<event>
 5    1  0.2540860E-005  0.1300469E+03  0.7818608E-02  0.1122645E+00
         21   -1    0    0  501  502  0.00000000000E+00  0.00000000000E+00  0.39634342306E+03  0.39634342306E+03  0.00000000000E+00 0.  1.
          4   -1    0    0  502    0 -0.00000000000E+00 -0.00000000000E+00 -0.43053057094E+03  0.43053057094E+03  0.00000000000E+00 0.  1.
        -13    1    1    2    0    0 -0.11499518293E+03  0.57594548391E+02 -0.30118688163E+03  0.32749743958E+03  0.10566000000E+00 0.  1.
         13    1    1    2    0    0  0.13800511766E+03 -0.21515887922E+02 -0.72378076862E+02  0.15731161148E+03  0.10566000000E+00 0. -1.
          4    1    1    2  501    0 -0.23009934730E+02 -0.36078660469E+02  0.33937781062E+03  0.34206494292E+03  0.00000000000E+00 0.  1.
</event>
<event>
 5    1  0.2540860E-005  0.1564203E+03  0.7818608E-02  0.1094947E+00
         -4   -1    0    0    0  501 -0.00000000000E+00  0.00000000000E+00  0.38688362431E+03  0.38688362431E+03  0.00000000000E+00 0. -1.
         21   -1    0    0  501  502  0.00000000000E+00 -0.00000000000E+00 -0.15723032243E+03  0.15723032243E+03  0.00000000000E+00 0. -1.
        -13    1    1    2    0    0 -0.12976640612E+03 -0.91638371373E+02  0.12162253264E+02  0.15932621515E+03  0.10566000000E+00 0.  1.
         13    1    1    2    0    0  0.14738864218E+03  0.53931251794E+02  0.27330524110E+03  0.31516306532E+03  0.10566000000E+00 0. -1.
         -4    1    1    2    0  502 -0.17622236058E+02  0.37707119578E+02 -0.55814192493E+02  0.69624666277E+02  0.00000000000E+00 0. -1.
</event>
<event>
 5    1  0.2540860E-005  0.4837363E+03  0.7818608E-02  0.9751240E-01
          4   -1    0    0  502    0 -0.00000000000E+00  0.00000000000E+00  0.23915136103E+04  0.23915136103E+04  0.00000000000E+00 0.  1.
         21   -1    0    0  501  502  0.00000000000E+00 -0.00000000000E+00 -0.18525857569E+03  0.18525857569E+03  0.00000000000E+00 0.  1.
        -13    1    1    2    0    0  0.36568368088E+03  0.78511495954E+02  0.93954404938E+03  0.10112525112E+04  0.10566000000E+00 0.  1.
         13    1    1    2    0    0  0.18484251728E+03 -0.98533772661E+02  0.84821774960E+03  0.87369847342E+03  0.10566000000E+00 0. -1.
          4    1    1    2  501    0 -0.55052619817E+03  0.20022276707E+02  0.41849323564E+03  0.69182120140E+03  0.00000000000E+00 0.  1.
</event>
<event>
 5    1  0.2540860E-005  0.1088221E+03  0.7818608E-02  0.1150730E+00
         21   -1    0    0  501  502  0.00000000000E+00  0.00000000000E+00  0.70905470951E+02  0.70905470951E+02  0.00000000000E+00 0. -1.
         -4   -1    0    0    0  501 -0.00000000000E+00 -0.00000000000E+00 -0.31758098630E+03  0.31758098630E+03  0.00000000000E+00 0. -1.
        -13    1    1    2    0    0  0.52566453166E+02  0.85239999030E+02 -0.84656463602E+02  0.13113282361E+03  0.10566000000E+00 0.  1.
         13    1    1    2    0    0 -0.78324379703E+02 -0.85207289821E+02 -0.18799952332E+03  0.22076870844E+03  0.10566000000E+00 0. -1.
         -4    1    1    2    0  502  0.25757926537E+02 -0.32709209662E-01  0.25980471570E+02  0.36584925206E+02  0.00000000000E+00 0. -1.
</event>
<event>
 5    1  0.2540860E-005  0.8970921E+02  0.7818608E-02  0.1182805E+00
         21   -1    0    0  501  502  0.00000000000E+00  0.00000000000E+00  0.21595359641E+03  0.21595359641E+03  0.00000000000E+00 0. -1.
          4   -1    0    0  502    0 -0.00000000000E+00 -0.00000000000E+00 -0.10467037116E+03  0.10467037116E+03  0.00000000000E+00 0.  1.
        -13    1    1    2    0    0 -0.69053046605E+02  0.62356153645E+02 -0.52824574763E+02  0.10699093422E+03  0.10566000000E+00 0.  1.
         13    1    1    2    0    0  0.57811734487E+02 -0.57352272438E+02  0.43356810892E+02  0.92256728822E+02  0.10566000000E+00 0. -1.
          4    1    1    2  501    0  0.11241312117E+02 -0.50038812075E+01  0.12075098912E+03  0.12137630452E+03  0.00000000000E+00 0.  1.
</event>
<event>
 5    1  0.2540860E-005  0.3649668E+03  0.7818608E-02  0.9836064E-01
          4   -1    0    0  502    0 -0.00000000000E+00  0.00000000000E+00  0.15025280118E+04  0.15025280118E+04  0.00000000000E+00 0.  1.
         21   -1    0    0  501  502  0.00000000000E+00 -0.00000000000E+00 -0.36894076484E+03  0.36894076484E+03  0.00000000000E+00 0.  1.
        -13    1    1    2    0    0  0.40627929803E+03 -0.15987489383E+03  0.45022379278E+03  0.62715574177E+03  0.10566000000E+00 0.  1.
         13    1    1    2    0    0 -0.15589100304E+03  0.33478572183E+03  0.82780784677E+03  0.90644874466E+03  0.10566000000E+00 0. -1.
          4    1    1    2  501    0 -0.25038829498E+03 -0.17491082799E+03 -0.14444439262E+03  0.33786429017E+03  0.00000000000E+00 0.  1.
</event>
<event>
 5    1  0.2540860E-005  0.6644982E+03  0.7818608E-02  0.9176133E-01
         -4   -1    0    0    0  501 -0.00000000000E+00  0.00000000000E+00  0.14004710106E+04  0.14004710106E+04  0.00000000000E+00 0. -1.
         21   -1    0    0  501  502  0.00000000000E+00 -0.00000000000E+00 -0.12271342304E+04  0.12271342304E+04  0.00000000000E+00 0. -1.
        -13    1    1    2    0    0 -0.75188136478E+02 -0.66158495269E+03  0.97585484995E+03  0.11813723396E+04  0.10566000000E+00 0.  1.
         13    1    1    2    0    0 -0.35124549252E+03  0.68135265045E+03 -0.42575733679E+03  0.87686039441E+03  0.10566000000E+00 0. -1.
         -4    1    1    2    0  502  0.42643362900E+03 -0.19767697770E+02 -0.37676073293E+03  0.56937250697E+03  0.00000000000E+00 0. -1.
</event>
<event>
 5    1  0.2540860E-005  0.8678683E+02  0.7818608E-02  0.1188487E+00
         21   -1    0    0  501  502  0.00000000000E+00  0.00000000000E+00  0.23604542352E+03  0.23604542352E+03  0.00000000000E+00 0.  1.
          4   -1    0    0  502    0 -0.00000000000E+00 -0.00000000000E+00 -0.12645344115E+03  0.12645344115E+03  0.00000000000E+00 0.  1.
        -13    1    1    2    0    0 -0.18550221886E+02 -0.10634633693E+03  0.67511426891E+01  0.10816303990E+03  0.10566000000E+00 0.  1.
         13    1    1    2    0    0  0.23506355789E+02  0.75650054656E+02 -0.53072023005E+02  0.95352662899E+02  0.10566000000E+00 0. -1.
          4    1    1    2  501    0 -0.49561339031E+01  0.30696282270E+02  0.15591286268E+03  0.15898316187E+03  0.00000000000E+00 0.  1.
</event>
<event>
 5    1  0.2540860E-005  0.3975571E+03  0.7818608E-02  0.9860259E-01
          4   -1    0    0  502    0 -0.00000000000E+00  0.00000000000E+00  0.12378852799E+04  0.12378852799E+04  0.00000000000E+00 0.  1.
         21   -1    0    0  501  502  0.00000000000E+00 -0.00000000000E+00 -0.27065163887E+03  0.27065163887E+03  0.00000000000E+00 0. -1.
        -13    1    1    2    0    0  0.22754183570E+03  0.31045686011E+03  0.30114971117E+03  0.48872273191E+03  0.10566000000E+00 0.  1.
         13    1    1    2    0    0 -0.22242529123E+03  0.13499966323E+03  0.46106991675E+03  0.52941798094E+03  0.10566000000E+00 0. -1.
          4    1    1    2  501    0 -0.51165444667E+01 -0.44545652334E+03  0.20501401312E+03  0.49039620593E+03  0.00000000000E+00 0.  1.
</event>
<event>
 5    1  0.2540860E-005  0.3239883E+03  0.7818608E-02  0.1053291E+00
         21   -1    0    0  501  502  0.00000000000E+00  0.00000000000E+00  0.21233400946E+03  0.21233400946E+03  0.00000000000E+00 0. -1.
         -4   -1    0    0    0  501 -0.00000000000E+00 -0.00000000000E+00 -0.15046546048E+04  0.15046546048E+04  0.00000000000E+00 0. -1.
        -13    1    1    2    0    0 -0.71134552798E+01 -0.57078407708E+02 -0.12824825341E+03  0.14055664886E+03  0.10566000000E+00 0.  1.
         13    1    1    2    0    0  0.24080545812E+03 -0.17248569203E+03 -0.12099237951E+04  0.12456541188E+04  0.10566000000E+00 0. -1.
         -4    1    1    2    0  502 -0.23369200285E+03  0.22956409974E+03  0.45851453108E+02  0.33077784665E+03  0.00000000000E+00 0. -1.
</event>
<event>
 5    1  0.2540860E-005  0.4291046E+03  0.7818608E-02  0.1000652E+00
         21   -1    0    0  501  502  0.00000000000E+00  0.00000000000E+00  0.25289126332E+04  0.25289126332E+04  0.00000000000E+00 0. -1.
         -4   -1    0    0    0  501 -0.00000000000E+00 -0.00000000000E+00 -0.14953351025E+03  0.14953351025E+03  0.00000000000E+00 0. -1.
        -13    1    1    2    0    0  0.12681156915E+03 -0.10837108354E+02  0.45810230075E+02  0.13526716279E+03  0.10566000000E+00 0.  1.
         13    1    1    2    0    0 -0.39267969419E+03 -0.30200927793E+03  0.69195586965E+03  0.85100521907E+03  0.10566000000E+00 0. -1.
         -4    1    1    2    0  502  0.26586812505E+03  0.31284638629E+03  0.16416130232E+04  0.16921737616E+04  0.00000000000E+00 0. -1.
</event>
<event>
 5    1  0.2540860E-005  0.4871145E+03  0.7818608E-02  0.9782469E-01
         21   -1    0    0  501  502  0.00000000000E+00  0.00000000000E+00  0.51690461645E+03  0.51690461645E+03  0.00000000000E+00 0.  1.
          4   -1    0    0  502    0 -0.00000000000E+00 -0.00000000000E+00 -0.74006594663E+03  0.74006594663E+03  0.00000000000E+00 0.  1.
        -13    1    1    2    0    0  0.46580406184E+03 -0.18524145885E+03  0.67735143974E+02  0.50584175688E+03  0.10566000000E+00 0.  1.
         13    1    1    2    0    0 -0.11025338943E+03 -0.14763617004E+03 -0.16672255316E+03  0.24849279563E+03  0.10566000000E+00 0. -1.
          4    1    1    2  501    0 -0.35555067242E+03  0.33287762889E+03 -0.12417392098E+03  0.50263601057E+03  0.00000000000E+00 0.  1.
</event>
<event>
 5    1  0.2540860E-005  0.6790411E+02  0.7818608E-02  0.1242978E+00
         -4   -1    0    0    0  501 -0.00000000000E+00  0.00000000000E+00  0.50017177846E+03  0.50017177846E+03  0.00000000000E+00 0. -1.
         21   -1    0    0  501  502  0.00000000000E+00 -0.00000000000E+00 -0.11294615956E+03  0.11294615956E+03  0.00000000000E+00 0. -1.
        -13    1    1    2    0    0  0.53744389339E+02 -0.59701505998E+01  0.28958284090E+03  0.29458841626E+03  0.10566000000E+00 0.  1.
         13    1    1    2    0    0 -0.20859286516E+02 -0.55304555216E+02  0.19223986949E+03  0.20112156087E+03  0.10566000000E+00 0. -1.
         -4    1    1    2    0  502 -0.32885102824E+02  0.61274705815E+02 -0.94597091491E+02  0.11740796088E+03  0.00000000000E+00 0. -1.
</event>
<event>
 5    1  0.2540860E-005  0.1145646E+03  0.7818608E-02  0.1142479E+00
         21   -1    0    0  501  502  0.00000000000E+00  0.00000000000E+00  0.91955185914E+02  0.91955185914E+02  0.00000000000E+00 0.  1.
         -4   -1    0    0    0  501 -0.00000000000E+00 -0.00000000000E+00 -0.36448718661E+03  0.36448718661E+03  0.00000000000E+00 0. -1.
        -13    1    1    2    0    0 -0.91476032727E+02  0.56727953460E+02 -0.20550650327E+01  0.10765760411E+03  0.10566000000E+00 0.  1.
         13    1    1    2    0    0  0.93443411487E+02 -0.68829530062E+02 -0.29737758641E+03  0.31922189058E+03  0.10566000000E+00 0. -1.
         -4    1    1    2    0  502 -0.19673787593E+01  0.12101576602E+02  0.26900650746E+02  0.29562877836E+02  0.00000000000E+00 0. -1.
</event>
<event>
 5    1  0.2540860E-005  0.3029681E+02  0.7818608E-02  0.1402541E+00
          4   -1    0    0  502    0 -0.00000000000E+00  0.00000000000E+00  0.77960583346E+02  0.77960583346E+02  0.00000000000E+00 0.  1.
         21   -1    0    0  501  502  0.00000000000E+00 -0.00000000000E+00 -0.48146097150E+02  0.48146097150E+02  0.00000000000E+00 0.  1.
        -13    1    1    2    0    0  0.24026197364E+02  0.29702627655E+02 -0.29549396979E+02  0.48297849593E+02  0.10566000000E+00 0.  1.
         13    1    1    2    0    0 -0.12346976101E+02 -0.25992134468E+02  0.16377888527E+02  0.33110198878E+02  0.10566000000E+00 0. -1.
          4    1    1    2  501    0 -0.11679221263E+02 -0.37104931872E+01  0.42985994649E+02  0.44698632025E+02  0.00000000000E+00 0.  1.
</event>
<event>
 5    1  0.2540860E-005  0.4784693E+03  0.7818608E-02  0.9665167E-01
         -4   -1    0    0    0  501 -0.00000000000E+00  0.00000000000E+00  0.18978595097E+04  0.18978595097E+04  0.00000000000E+00 0. -1.
         21   -1    0    0  501  502  0.00000000000E+00 -0.00000000000E+00 -0.23681493076E+03  0.23681493076E+03  0.00000000000E+00 0. -1.
        -13    1    1    2    0    0  0.28337319693E+03  0.70381368922E+02  0.29683539905E+03  0.41637143409E+03  0.10566000000E+00 0.  1.
         13    1    1    2    0    0 -0.64040568200E+03  0.98449310605E+02  0.89698474561E+03  0.11065230903E+04  0.10566000000E+00 0. -1.
         -4    1    1    2    0  502  0.35703248507E+03 -0.16883067953E+03  0.46722443427E+03  0.61177991608E+03  0.00000000000E+00 0. -1.
</event>
<event>
 5    1  0.2540860E-005  0.4555609E+03  0.7818608E-02  0.9588128E-01
         21   -1    0    0  501  502  0.00000000000E+00  0.00000000000E+00  0.57343521444E+03  0.57343521444E+03  0.00000000000E+00 0. -1.
          4   -1    0    0  502    0 -0.00000000000E+00 -0.00000000000E+00 -0.14949450802E+04  0.14949450802E+04  0.00000000000E+00 0.  1.
        -13    1    1    2    0    0 -0.51069557779E+03 -0.15049511251E+03 -0.27448696299E+03  0.59900071459E+03  0.10566000000E+00 0.  1.
         13    1    1    2    0    0  0.34945276039E+03 -0.30116909120E+03 -0.83524973787E+03  0.95418142353E+03  0.10566000000E+00 0. -1.
          4    1    1    2  501    0  0.16124281740E+03  0.45166420371E+03  0.18822683506E+03  0.51519815655E+03  0.00000000000E+00 0.  1.
</event>
<event>
 5    1  0.2540860E-005  0.4189468E+03  0.7818608E-02  0.9675867E-01
         21   -1    0    0  501  502  0.00000000000E+00  0.00000000000E+00  0.66554008915E+03  0.66554008915E+03  0.00000000000E+00 0.  1.
          4   -1    0    0  502    0 -0.00000000000E+00 -0.00000000000E+00 -0.78277990490E+03  0.78277990490E+03  0.00000000000E+00 0.  1.
        -13    1    1    2    0    0 -0.32725191067E+03 -0.45820565240E+03 -0.23614276097E+03  0.61058140133E+03  0.10566000000E+00 0.  1.
         13    1    1    2    0    0  0.35145998658E+03  0.98721039214E+02 -0.14324962047E+03  0.39216123046E+03  0.10566000000E+00 0. -1.
          4    1    1    2  501    0 -0.24208075910E+02  0.35948461319E+03  0.26215256569E+03  0.44557736226E+03  0.00000000000E+00 0.  1.
</event>
<event>
 5    1  0.2540860E-005  0.3644609E+03  0.7818608E-02  0.9908271E-01
         -4   -1    0    0    0  501 -0.00000000000E+00  0.00000000000E+00  0.12484329938E+04  0.12484329938E+04  0.00000000000E+00 0. -1.
         21   -1    0    0  501  502  0.00000000000E+00 -0.00000000000E+00 -0.40128346074E+03  0.40128346074E+03  0.00000000000E+00 0. -1.
        -13    1    1    2    0    0  0.27186216987E+03  0.93352451194E+02  0.47857471824E+03  0.55826292341E+03  0.10566000000E+00 0.  1.
         13    1    1    2    0    0 -0.14747157686E+03  0.33433823457E+03 -0.16113389293E+03  0.39936707888E+03  0.10566000000E+00 0. -1.
         -4    1    1    2    0  502 -0.12439059301E+03 -0.42769068577E+03  0.52970870773E+03  0.69208645223E+03  0.00000000000E+00 0. -1.
</event>
<event>
 5    1  0.2540860E-005  0.2868923E+03  0.7818608E-02  0.1012867E+00
         21   -1    0    0  501  502  0.00000000000E+00  0.00000000000E+00  0.23601148886E+03  0.23601148886E+03  0.00000000000E+00 0.  1.
         -4   -1    0    0    0  501 -0.00000000000E+00 -0.00000000000E+00 -0.51724753923E+03  0.51724753923E+03  0.00000000000E+00 0. -1.
        -13    1    1    2    0    0  0.16215949950E+03 -0.23328128070E+03 -0.26295481321E+03  0.38711897933E+03  0.10566000000E+00 0.  1.
         13    1    1    2    0    0 -0.15898933676E+03  0.24489452478E+03 -0.80416483092E+02  0.30284940051E+03  0.10566000000E+00 0. -1.
         -4    1    1    2    0  502 -0.31701627431E+01 -0.11613244076E+02  0.62135245930E+02  0.63290648255E+02  0.00000000000E+00 0. -1.
</event>
<event>
 5    1  0.2540860E-005  0.3679638E+03  0.7818608E-02  0.9826421E-01
         21   -1    0    0  501  502  0.00000000000E+00  0.00000000000E+00  0.80511253146E+02  0.80511253146E+02  0.00000000000E+00 0.  1.
         -4   -1    0    0    0  501 -0.00000000000E+00 -0.00000000000E+00 -0.28048990635E+04  0.28048990635E+04  0.00000000000E+00 0. -1.
        -13    1    1    2    0    0  0.36015546672E+03  0.19236599919E+03 -0.85475704954E+03  0.94727306663E+03  0.10566000000E+00 0.  1.
         13    1    1    2    0    0 -0.32598627529E+03 -0.13703590714E+03 -0.18257665525E+04  0.18596960523E+04  0.10566000000E+00 0. -1.
         -4    1    1    2    0  502 -0.34169191430E+02 -0.55330092043E+02 -0.43864208287E+02  0.78441197703E+02  0.00000000000E+00 0. -1.
</event>
<event>
 5    1  0.2540860E-005  0.2262253E+03  0.7818608E-02  0.1043506E+00
          4   -1    0    0  502    0 -0.00000000000E+00  0.00000000000E+00  0.94532281744E+03  0.94532281744E+03  0.00000000000E+00 0.  1.
         21   -1    0    0  501  502  0.00000000000E+00 -0.00000000000E+00 -0.96402026718E+02  0.96402026718E+02  0.00000000000E+00 0. -1.
        -13    1    1    2    0    0 -0.10522974840E+03 -0.20219073923E+03  0.69905271222E+03  0.73527484698E+03  0.10566000000E+00 0.  1.
         13    1    1    2    0    0  0.12929452167E+03  0.18106057740E+03  0.15863219021E+03  0.27324748665E+03  0.10566000000E+00 0. -1.
          4    1    1    2  501    0 -0.24064773274E+02  0.21130161826E+02 -0.87641117080E+01  0.33202510531E+02  0.00000000000E+00 0.  1.
</event>
<event>
 5    1  0.2540860E-005  0.4998090E+03  0.7818608E-02  0.9522838E-01
         -4   -1    0    0    0  501 -0.00000000000E+00  0.00000000000E+00  0.93299978238E+03  0.93299978238E+03  0.00000000000E+00 0. -1.
         21   -1    0    0  501  502  0.00000000000E+00 -0.00000000000E+00 -0.68058209270E+03  0.68058209270E+03  0.00000000000E+00 0. -1.
        -13    1    1    2    0    0 -0.27824768108E+03 -0.32162848271E+03  0.30746641345E+03  0.52478782330E+03  0.10566000000E+00 0.  1.
         13    1    1    2    0    0 -0.32991641960E+03 -0.36889376983E+02  0.13392067924E+03  0.35796707886E+03  0.10566000000E+00 0. -1.
         -4    1    1    2    0  502  0.60816410068E+03  0.35851785969E+03 -0.18896940301E+03  0.73082697292E+03  0.00000000000E+00 0. -1.
</event>
<event>
 5    1  0.2540860E-005  0.4469801E+03  0.7818608E-02  0.1020247E+00
         -4   -1    0    0    0  501 -0.00000000000E+00  0.00000000000E+00  0.45276234331E+03  0.45276234331E+03  0.00000000000E+00 0. -1.
         21   -1    0    0  501  502  0.00000000000E+00 -0.00000000000E+00 -0.12282937961E+04  0.12282937961E+04  0.00000000000E+00 0. -1.
        -13    1    1    2    0    0 -0.59865882111E+02 -0.43501306347E+01  0.23359192963E+03  0.24118053037E+03  0.10566000000E+00 0.  1.
         13    1    1    2    0    0  0.95360145590E+00 -0.44160456290E+03 -0.14347537982E+03  0.46432821916E+03  0.10566000000E+00 0. -1.
         -4    1    1    2    0  502  0.58912280655E+02  0.44595469353E+03 -0.86564800261E+03  0.97554738989E+03  0.00000000000E+00 0. -1.
</event>
<event>
 5    1  0.2540860E-005  0.1015588E+03  0.7818608E-02  0.1162002E+00
         -4   -1    0    0    0  501 -0.00000000000E+00  0.00000000000E+00  0.35434786348E+03  0.35434786348E+03  0.00000000000E+00 0. -1.
         21   -1    0    0  501  502  0.00000000000E+00 -0.00000000000E+00 -0.68455339859E+02  0.68455339859E+02  0.00000000000E+00 0.  1.
        -13    1    1    2    0    0  0.69161451102E+02 -0.78488264066E+02  0.18806727144E+03  0.21520460884E+03  0.10566000000E+00 0.  1.
         13    1    1    2    0    0 -0.77904682032E+02  0.60843175452E+02  0.13393864844E+03  0.16646502393E+03  0.10566000000E+00 0. -1.
         -4    1    1    2    0  502  0.87432309302E+01  0.17645088615E+02 -0.36113396253E+02  0.41133570575E+02  0.00000000000E+00 0. -1.
</event>
<event>
 5    1  0.2540860E-005  0.4905979E+03  0.7818608E-02  0.9637952E-01
         21   -1    0    0  501  502  0.00000000000E+00  0.00000000000E+00  0.16864117240E+03  0.16864117240E+03  0.00000000000E+00 0.  1.
          4   -1    0    0  502    0 -0.00000000000E+00 -0.00000000000E+00 -0.28384853483E+04  0.28384853483E+04  0.00000000000E+00 0.  1.
        -13    1    1    2    0    0  0.52658272052E+03 -0.59982666176E+02 -0.78104331122E+03  0.94388343929E+03  0.10566000000E+00 0.  1.
         13    1    1    2    0    0 -0.14911927423E+03 -0.25809476195E+03 -0.10345437610E+04  0.10766291230E+04  0.10566000000E+00 0. -1.
          4    1    1    2  501    0 -0.37746344629E+03  0.31807742813E+03 -0.85425710370E+03  0.98661395834E+03  0.00000000000E+00 0.  1.
</event>
<event>
 5    1  0.2540860E-005  0.5224562E+03  0.7818608E-02  0.9665986E-01
          4   -1    0    0  502    0 -0.00000000000E+00  0.00000000000E+00  0.31465875449E+04  0.31465875449E+04  0.00000000000E+00 0.  1.
         21   -1    0    0  501  502  0.00000000000E+00 -0.00000000000E+00 -0.53612002602E+03  0.53612002602E+03  0.00000000000E+00 0.  1.
        -13    1    1    2    0    0  0.23653692014E+03  0.87562693661E+01  0.26893569814E+01  0.23671423837E+03  0.10566000000E+00 0.  1.
         13    1    1    2    0    0  0.73802858011E+03  0.30501083223E+03  0.22061001398E+04  0.23461874671E+04  0.10566000000E+00 0. -1.
          4    1    1    2  501    0 -0.97456550025E+03 -0.31376710159E+03  0.40167802218E+03  0.10998058655E+04  0.00000000000E+00 0.  1.
</event>
<event>
 5    1  0.2540860E-005  0.3246946E+03  0.7818608E-02  0.1019542E+00
          4   -1    0    0  502    0 -0.00000000000E+00  0.00000000000E+00  0.58306167688E+03  0.58306167688E+03  0.00000000000E+00 0.  1.
         21   -1    0    0  501  502  0.00000000000E+00 -0.00000000000E+00 -0.87175260449E+03  0.87175260449E+03  0.00000000000E+00 0.  1.
        -13    1    1    2    0    0  0.32657078413E+03  0.23960894923E+03  0.26616673093E+02  0.40591795236E+03  0.10566000000E+00 0.  1.
         13    1    1    2    0    0 -0.22438219386E+02 -0.15852913229E+03  0.30996278426E+03  0.34887232373E+03  0.10566000000E+00 0. -1.
          4    1    1    2  501    0 -0.30413256474E+03 -0.81079816937E+02 -0.62527038497E+03  0.70002400528E+03  0.00000000000E+00 0.  1.
</event>
<event>
 5    1  0.2540860E-005  0.4615518E+02  0.7818608E-02  0.1308287E+00
         21   -1    0    0  501  502  0.00000000000E+00  0.00000000000E+00  0.12096792674E+03  0.12096792674E+03  0.00000000000E+00 0.  1.
         -4   -1    0    0    0  501 -0.00000000000E+00 -0.00000000000E+00 -0.13159245627E+03  0.13159245627E+03  0.00000000000E+00 0. -1.
        -13    1    1    2    0    0  0.76848858751E+01 -0.52420958642E+02  0.73742881947E+02  0.90802192582E+02  0.10566000000E+00 0.  1.
         13    1    1    2    0    0 -0.13142087682E+02  0.43901531845E+02 -0.11802676164E+03  0.12661116299E+03  0.10566000000E+00 0. -1.
         -4    1    1    2    0  502  0.54572018066E+01  0.85194267972E+01  0.33659350157E+02  0.35147027435E+02  0.00000000000E+00 0. -1.
</event>
<event>
 5    1  0.2540860E-005  0.5368579E+03  0.7818608E-02  0.9400650E-01
         21   -1    0    0  501  502  0.00000000000E+00  0.00000000000E+00  0.39276528771E+03  0.39276528771E+03  0.00000000000E+00 0. -1.
          4   -1    0    0  502    0 -0.00000000000E+00 -0.00000000000E+00 -0.18825443188E+04  0.18825443188E+04  0.00000000000E+00 0.  1.
        -13    1    1    2    0    0  0.49995378325E+03 -0.32586037491E+03 -0.72869796770E+03  0.94188083568E+03  0.10566000000E+00 0.  1.
         13    1    1    2    0    0 -0.55758705901E+03 -0.17986816064E+03 -0.40450802270E+03  0.71195690543E+03  0.10566000000E+00 0. -1.
          4    1    1    2  501    0  0.57633275758E+02  0.50572853555E+03 -0.35657304069E+03  0.62147186541E+03  0.00000000000E+00 0.  1.
</event>
<event>
 5    1  0.2540860E-005  0.1966393E+03  0.7818608E-02  0.1062464E+00
         21   -1    0    0  501  502  0.00000000000E+00  0.00000000000E+00  0.35385752537E+03  0.35385752537E+03  0.00000000000E+00 0. -1.
         -4   -1    0    0    0  501 -0.00000000000E+00 -0.00000000000E+00 -0.17766594276E+03  0.17766594276E+03  0.00000000000E+00 0. -1.
        -13    1    1    2    0    0 -0.14623595657E+03 -0.11743303421E+03  0.10960782507E+03  0.21723111885E+03  0.10566000000E+00 0.  1.
         13    1    1    2    0    0  0.16497681689E+03  0.11545105582E+03 -0.40643182431E+02  0.20542194586E+03  0.10566000000E+00 0. -1.
         -4    1    1    2    0  502 -0.18740860322E+02  0.19819783901E+01  0.10722693997E+03  0.10887040341E+03  0.00000000000E+00 0. -1.
</event>
<event>
 5    1  0.2540860E-005  0.4892042E+03  0.7818608E-02  0.9710575E-01
         21   -1    0    0  501  502  0.00000000000E+00  0.00000000000E+00  0.48598070740E+03  0.48598070740E+03  0.00000000000E+00 0. -1.
         -4   -1    0    0    0  501 -0.00000000000E+00 -0.00000000000E+00 -0.83758505387E+03  0.83758505387E+03  0.00000000000E+00 0. -1.
        -13    1    1    2    0    0 -0.23312557966E+03  0.12324921057E+01 -0.17014976869E+03  0.28861741091E+03  0.10566000000E+00 0.  1.
         13    1    1    2    0    0  0.52646687863E+03  0.23449789475E+03  0.72619054782E+02  0.58088740321E+03  0.10566000000E+00 0. -1.
         -4    1    1    2    0  502 -0.29334129896E+03 -0.23573038686E+03 -0.25407363256E+03  0.45406094715E+03  0.00000000000E+00 0. -1.
</event>
<event>
 5    1  0.2540860E-005  0.7009836E+03  0.7818608E-02  0.9121552E-01
         -4   -1    0    0    0  501 -0.00000000000E+00  0.00000000000E+00  0.11334604922E+04  0.11334604922E+04  0.00000000000E+00 0. -1.
         21   -1    0    0  501  502  0.00000000000E+00 -0.00000000000E+00 -0.11260627157E+04  0.11260627157E+04  0.00000000000E+00 0.  1.
        -13    1    1    2    0    0 -0.81078379702E+03  0.17834262044E+03  0.35689744131E+03  0.90363280737E+03  0.10566000000E+00 0.  1.
         13    1    1    2    0    0  0.29802051472E+03 -0.58239391716E+03 -0.22100433730E+03  0.69053734889E+03  0.10566000000E+00 0. -1.
         -4    1    1    2    0  502  0.51276328230E+03  0.40405129672E+03 -0.12849532750E+03  0.66535305158E+03  0.00000000000E+00 0. -1.
</event>
<event>
 5    1  0.2540860E-005  0.3859249E+03  0.7818608E-02  0.9770598E-01
         21   -1    0    0  501  502  0.00000000000E+00  0.00000000000E+00  0.86336378901E+02  0.86336378901E+02  0.00000000000E+00 0. -1.
          4   -1    0    0  502    0 -0.00000000000E+00 -0.00000000000E+00 -0.18695451220E+04  0.18695451220E+04  0.00000000000E+00 0.  1.
        -13    1    1    2    0    0  0.34117865669E+03 -0.19579527865E+03 -0.86421746770E+03  0.94953173173E+03  0.10566000000E+00 0.  1.
         13    1    1    2    0    0 -0.32715696257E+03  0.19203166454E+03 -0.91611225084E+03  0.99154904350E+03  0.10566000000E+00 0. -1.
          4    1    1    2  501    0 -0.14021694114E+02  0.37636141057E+01 -0.28790245037E+01  0.14800725626E+02  0.00000000000E+00 0.  1.
</event>
<event>
 5    1  0.2540860E-005  0.3385160E+02  0.7818608E-02  0.1414935E+00
         21   -1    0    0  501  502  0.00000000000E+00  0.00000000000E+00  0.16088353441E+03  0.16088353441E+03  0.00000000000E+00 0.  1.
          4   -1    0    0  502    0 -0.00000000000E+00 -0.00000000000E+00 -0.14035374268E+02  0.14035374268E+02  0.00000000000E+00 0.  1.
        -13    1    1    2    0    0 -0.33378173130E+02  0.29214637485E+02  0.90607807744E+02  0.10088301875E+03  0.10566000000E+00 0.  1.
         13    1    1    2    0    0  0.13589453542E+02 -0.11339032803E+02  0.91629496922E+01  0.19930321713E+02  0.10566000000E+00 0. -1.
          4    1    1    2  501    0  0.19788719588E+02 -0.17875604683E+02  0.47077402702E+02  0.54105568206E+02  0.00000000000E+00 0.  1.
</event>
<event>
 5    1  0.2540860E-005  0.3683736E+03  0.7818608E-02  0.9825110E-01
         21   -1    0    0  501  502  0.00000000000E+00  0.00000000000E+00  0.53583986099E+03  0.53583986099E+03  0.00000000000E+00 0. -1.
         -4   -1    0    0    0  501 -0.00000000000E+00 -0.00000000000E+00 -0.12214810401E+04  0.12214810401E+04  0.00000000000E+00 0. -1.
        -13    1    1    2    0    0  0.19136145071E+03  0.26517407294E+03 -0.60623562903E+03  0.68880922094E+03  0.10566000000E+00 0.  1.
         13    1    1    2    0    0 -0.36693393070E+03 -0.31351343234E+03 -0.44728714954E+03  0.65802506568E+03  0.10566000000E+00 0. -1.
         -4    1    1    2    0  502  0.17557247999E+03  0.48339359401E+02  0.36788159949E+03  0.41048661445E+03  0.00000000000E+00 0. -1.
</event>
<event>
 5    1  0.2540860E-005  0.1371634E+02  0.7818608E-02  0.1640045E+00
         -4   -1    0    0    0  501 -0.00000000000E+00  0.00000000000E+00  0.11966411523E+02  0.11966411523E+02  0.00000000000E+00 0. -1.
         21   -1    0    0  501  502  0.00000000000E+00 -0.00000000000E+00 -0.72044870649E+02  0.72044870649E+02  0.00000000000E+00 0. -1.
        -13    1    1    2    0    0  0.12559620305E+02 -0.10543469464E+02 -0.32807389740E+01  0.16723732323E+02  0.10566000000E+00 0.  1.
         13    1    1    2    0    0 -0.11524860221E+02 -0.46944009378E+01 -0.52184325726E+01  0.13494554673E+02  0.10566000000E+00 0. -1.
         -4    1    1    2    0  502 -0.10347600843E+01  0.15237870402E+02 -0.51579287579E+02  0.53792995176E+02  0.00000000000E+00 0. -1.
</event>
<event>
 5    1  0.2540860E-005  0.4564345E+03  0.7818608E-02  0.9686867E-01
         -4   -1    0    0    0  501 -0.00000000000E+00  0.00000000000E+00  0.22429216113E+04  0.22429216113E+04  0.00000000000E+00 0. -1.
         21   -1    0    0  501  502  0.00000000000E+00 -0.00000000000E+00 -0.21650197086E+03  0.21650197086E+03  0.00000000000E+00 0. -1.
        -13    1    1    2    0    0  0.91136225564E+02 -0.29812481637E+03  0.74137202791E+03  0.80424916081E+03  0.10566000000E+00 0.  1.
         13    1    1    2    0    0 -0.49653171937E+03  0.35354939959E+03  0.93797863390E+03  0.11186352646E+04  0.10566000000E+00 0. -1.
         -4    1    1    2    0  502  0.40539549381E+03 -0.55424583229E+02  0.34706897861E+03  0.53653915676E+03  0.00000000000E+00 0. -1.
</event>
<event>
 5    1  0.3502501E-005  0.4746309E+03  0.7818608E-02  0.1032863E+00
          4   -1    0    0  502    0 -0.00000000000E+00  0.00000000000E+00  0.15390228994E+04  0.15390228994E+04  0.00000000000E+00 0.  1.
         21   -1    0    0  501  502  0.00000000000E+00 -0.00000000000E+00 -0.17527318740E+03  0.17527318740E+03  0.00000000000E+00 0.  1.
        -13    1    1    2    0    0 -0.44913817521E+03  0.16695847225E+03  0.86505818777E+03  0.98890136580E+03  0.10566000000E+00 0.  1.
         13    1    1    2    0    0  0.18743440160E+02  0.28195517264E+02  0.10498606806E+03  0.11031042287E+03  0.10566000000E+00 0. -1.
          4    1    1    2  501    0  0.43039473505E+03 -0.19515398951E+03  0.39370545616E+03  0.61508429812E+03  0.00000000000E+00 0.  1.
</event>
<event>
 5    1  0.2540860E-005  0.4947380E+03  0.7818608E-02  0.9891654E-01
         -4   -1    0    0    0  501 -0.00000000000E+00  0.00000000000E+00  0.70879820590E+03  0.70879820590E+03  0.00000000000E+00 0. -1.
         21   -1    0    0  501  502  0.00000000000E+00 -0.00000000000E+00 -0.83242683561E+03  0.83242683561E+03  0.00000000000E+00 0. -1.
        -13    1    1    2    0    0  0.98059332632E+02 -0.71714408775E+02  0.39743320965E+03  0.41558603976E+03  0.10566000000E+00 0.  1.
         13    1    1    2    0    0  0.20557116717E+02 -0.45215614401E+03 -0.16767425266E+03  0.48268254555E+03  0.10566000000E+00 0. -1.
         -4    1    1    2    0  502 -0.11861644935E+03  0.52387055278E+03 -0.35338758671E+03  0.64295645620E+03  0.00000000000E+00 0. -1.
</event>
<event>
 5    1  0.2540860E-005  0.4713922E+03  0.7818608E-02  0.9621995E-01
          4   -1    0    0  502    0 -0.00000000000E+00  0.00000000000E+00  0.21073615258E+04  0.21073615258E+04  0.00000000000E+00 0.  1.
         21   -1    0    0  501  502  0.00000000000E+00 -0.00000000000E+00 -0.23771039759E+03  0.23771039759E+03  0.00000000000E+00 0. -1.
        -13    1    1    2    0    0  0.51331225158E+03 -0.11869556568E+02  0.40220242399E+03  0.65222477339E+03  0.10566000000E+00 0.  1.
         13    1    1    2    0    0 -0.14416329064E+03  0.32496895920E+03  0.70822000441E+03  0.79244145816E+03  0.10566000000E+00 0. -1.
          4    1    1    2  501    0 -0.36914896094E+03 -0.31309940263E+03  0.75922869982E+03  0.90040569186E+03  0.00000000000E+00 0.  1.
</event>
<event>
 5    1  0.2540860E-005  0.2949167E+03  0.7818608E-02  0.1016597E+00
         21   -1    0    0  501  502  0.00000000000E+00  0.00000000000E+00  0.46626461885E+03  0.46626461885E+03  0.00000000000E+00 0.  1.
          4   -1    0    0  502    0 -0.00000000000E+00 -0.00000000000E+00 -0.86710581431E+03  0.86710581431E+03  0.00000000000E+00 0.  1.
        -13    1    1    2    0    0  0.21005478967E+03 -0.25031431137E+03 -0.61397602258E+03  0.69551911304E+03  0.10566000000E+00 0.  1.
         13    1    1    2    0    0  0.88294984675E+02  0.21728015330E+03 -0.48688796344E+02  0.23953554932E+03  0.10566000000E+00 0. -1.
          4    1    1    2  501    0 -0.29834977435E+03  0.33034158073E+02  0.26182362347E+03  0.39831577079E+03  0.00000000000E+00 0.  1.
</event>
<event>
 5    1  0.2540860E-005  0.2315402E+03  0.7818608E-02  0.1040429E+00
         21   -1    0    0  501  502  0.00000000000E+00  0.00000000000E+00  0.49317190210E+03  0.49317190210E+03  0.00000000000E+00 0. -1.
         -4   -1    0    0    0  501 -0.00000000000E+00 -0.00000000000E+00 -0.24649315480E+03  0.24649315480E+03  0.00000000000E+00 0. -1.
        -13    1    1    2    0    0 -0.20680167055E+03  0.73369754813E+02  0.21211556906E+02  0.22045406137E+03  0.10566000000E+00 0.  1.
         13    1    1    2    0    0  0.24491414187E+03 -0.20117713998E+02 -0.37168779354E+02  0.24853407941E+03  0.10566000000E+00 0. -1.
         -4    1    1    2    0  502 -0.38112471325E+02 -0.53252040815E+02  0.26263596975E+03  0.27067691613E+03  0.00000000000E+00 0. -1.
</event>
<event>
 5    1  0.2540860E-005  0.4517835E+03  0.7818608E-02  0.9869076E-01
         -4   -1    0    0    0  501 -0.00000000000E+00  0.00000000000E+00  0.41736199556E+03  0.41736199556E+03  0.00000000000E+00 0. -1.
         21   -1    0    0  501  502  0.00000000000E+00 -0.00000000000E+00 -0.10588933202E+04  0.10588933202E+04  0.00000000000E+00 0. -1.
        -13    1    1    2    0    0  0.16476232908E+03 -0.49733631855E+02  0.10697012081E+03  0.20263927835E+03  0.10566000000E+00 0.  1.
         13    1    1    2    0    0 -0.49590897158E+03  0.28690896464E+03 -0.23765522287E+03  0.62026000855E+03  0.10566000000E+00 0. -1.
         -4    1    1    2    0  502  0.33114664250E+03 -0.23717533279E+03 -0.51084622256E+03  0.65335602884E+03  0.00000000000E+00 0. -1.
</event>
<event>
 5    1  0.2540860E-005  0.4746739E+03  0.7818608E-02  0.9680422E-01
         21   -1    0    0  501  502  0.00000000000E+00  0.00000000000E+00  0.33596308300E+03  0.33596308300E+03  0.00000000000E+00 0.  1.
          4   -1    0    0  502    0 -0.00000000000E+00 -0.00000000000E+00 -0.13888173008E+04  0.13888173008E+04  0.00000000000E+00 0.  1.
        -13    1    1    2    0    0  0.19647094469E+03 -0.24794765983E+03 -0.65936350696E+03  0.73132695806E+03  0.10566000000E+00 0.  1.
         13    1    1    2    0    0  0.19844025777E+03 -0.20244701052E+03 -0.12928404795E+02  0.28377893295E+03  0.10566000000E+00 0. -1.
          4    1    1    2  501    0 -0.39491120246E+03  0.45039467035E+03 -0.38056230603E+03  0.70967449276E+03  0.00000000000E+00 0.  1.
</event>
<event>
 5    1  0.2540860E-005  0.1594532E+03  0.7818608E-02  0.1092145E+00
         21   -1    0    0  501  502  0.00000000000E+00  0.00000000000E+00  0.29553337053E+03  0.29553337053E+03  0.00000000000E+00 0.  1.
         -4   -1    0    0    0  501 -0.00000000000E+00 -0.00000000000E+00 -0.31085323932E+03  0.31085323932E+03  0.00000000000E+00 0. -1.
        -13    1    1    2    0    0  0.12856781598E+03  0.92579518004E+02 -0.24921636333E+03  0.29531247412E+03  0.10566000000E+00 0.  1.
         13    1    1    2    0    0 -0.14520423271E+03 -0.91356036866E+02  0.23848089764E+03  0.29377430856E+03  0.10566000000E+00 0. -1.
         -4    1    1    2    0  502  0.16636416734E+02 -0.12234811384E+01 -0.45844031052E+01  0.17299827157E+02  0.00000000000E+00 0. -1.
</event>
<event>
 5    1  0.2540860E-005  0.2156110E+03  0.7818608E-02  0.1049930E+00
          4   -1    0    0  502    0 -0.00000000000E+00  0.00000000000E+00  0.12926557880E+04  0.12926557880E+04  0.00000000000E+00 0.  1.
         21   -1    0    0  501  502  0.00000000000E+00 -0.00000000000E+00 -0.12113652290E+03  0.12113652290E+03  0.00000000000E+00 0.  1.
        -13    1    1    2    0    0  0.78333150257E+02 -0.23196406043E+03  0.10246376071E+04  0.10534826267E+04  0.10566000000E+00 0.  1.
         13    1    1    2    0    0 -0.11182489319E+03  0.11785063777E+03  0.17428965996E+03  0.23826555835E+03  0.10566000000E+00 0. -1.
          4    1    1    2  501    0  0.33491742931E+02  0.11411342266E+03 -0.27408001973E+02  0.12204412583E+03  0.00000000000E+00 0.  1.
</event>
<event>
 5    1  0.2540860E-005  0.5057912E+03  0.7818608E-02  0.9651681E-01
         21   -1    0    0  501  502  0.00000000000E+00  0.00000000000E+00  0.12793813322E+04  0.12793813322E+04  0.00000000000E+00 0.  1.
          4   -1    0    0  502    0 -0.00000000000E+00 -0.00000000000E+00 -0.54021993294E+03  0.54021993294E+03  0.00000000000E+00 0.  1.
        -13    1    1    2    0    0 -0.20609975277E+03  0.37911040975E+03  0.41082700590E+03  0.59580252669E+03  0.10566000000E+00 0.  1.
         13    1    1    2    0    0  0.89948959577E+02  0.24305812732E+03 -0.25462331868E+03  0.36331957581E+03  0.10566000000E+00 0. -1.
          4    1    1    2  501    0  0.11615079320E+03 -0.62216853707E+03  0.58295771200E+03  0.86047916260E+03  0.00000000000E+00 0.  1.
</event>
<event>
 5    1  0.2540860E-005  0.6062269E+03  0.7818608E-02  0.9271385E-01
         21   -1    0    0  501  502  0.00000000000E+00  0.00000000000E+00  0.72089588412E+03  0.72089588412E+03  0.00000000000E+00 0. -1.
         -4   -1    0    0    0  501 -0.00000000000E+00 -0.00000000000E+00 -0.13057853099E+04  0.13057853099E+04  0.00000000000E+00 0. -1.
        -13    1    1    2    0    0 -0.32371491057E+02 -0.57283134331E+03 -0.67874234481E+03  0.88874903270E+03  0.10566000000E+00 0.  1.
         13    1    1    2    0    0 -0.25525483858E+03  0.74945348416E+03  0.11355241861E+03  0.79983105746E+03  0.10566000000E+00 0. -1.
         -4    1    1    2    0  502  0.28762632963E+03 -0.17662214085E+03 -0.19699499558E+02  0.33810110384E+03  0.00000000000E+00 0. -1.
</event>
<event>
 5    1  0.2540860E-005  0.4093645E+03  0.7818608E-02  0.9707403E-01
          4   -1    0    0  502    0 -0.00000000000E+00  0.00000000000E+00  0.73014943031E+03  0.73014943031E+03  0.00000000000E+00 0.  1.
         21   -1    0    0  501  502  0.00000000000E+00 -0.00000000000E+00 -0.86425108938E+03  0.86425108938E+03  0.00000000000E+00 0.  1.
        -13    1    1    2    0    0 -0.48883519383E+03  0.68249305832E+02  0.11299015618E+03  0.50634435025E+03  0.10566000000E+00 0.  1.
         13    1    1    2    0    0  0.17886742655E+03 -0.36032409847E+03  0.21789631673E+03  0.45749953905E+03  0.10566000000E+00 0. -1.
          4    1    1    2  501    0  0.30996776728E+03  0.29207479264E+03 -0.46498813198E+03  0.63055663039E+03  0.00000000000E+00 0.  1.
</event>
<event>
 5    1  0.2540860E-005  0.5040486E+03  0.7818608E-02  0.9810224E-01
          4   -1    0    0  502    0 -0.00000000000E+00  0.00000000000E+00  0.89147530494E+03  0.89147530494E+03  0.00000000000E+00 0.  1.
         21   -1    0    0  501  502  0.00000000000E+00 -0.00000000000E+00 -0.39856615862E+03  0.39856615862E+03  0.00000000000E+00 0.  1.
        -13    1    1    2    0    0  0.31094227959E+03 -0.49309236090E+03  0.29334645339E+03  0.65259277540E+03  0.10566000000E+00 0.  1.
         13    1    1    2    0    0 -0.17650768535E+02  0.15022804809E+03  0.23289812651E+02  0.15304392376E+03  0.10566000000E+00 0. -1.
          4    1    1    2  501    0 -0.29329151106E+03  0.34286431281E+03  0.17627288028E+03  0.48440476441E+03  0.00000000000E+00 0.  1.
</event>
<event>
 5    1  0.2540860E-005  0.4595885E+03  0.7818608E-02  0.9733048E-01
         -4   -1    0    0    0  501 -0.00000000000E+00  0.00000000000E+00  0.28117655845E+03  0.28117655845E+03  0.00000000000E+00 0. -1.
         21   -1    0    0  501  502  0.00000000000E+00 -0.00000000000E+00 -0.18188725336E+04  0.18188725336E+04  0.00000000000E+00 0. -1.
        -13    1    1    2    0    0 -0.88828857035E+02 -0.24444609920E+03  0.29766672227E+02  0.26178335928E+03  0.10566000000E+00 0.  1.
         13    1    1    2    0    0 -0.12672717681E+02 -0.34743061393E+03 -0.43924414187E+03  0.56018216377E+03  0.10566000000E+00 0. -1.
         -4    1    1    2    0  502  0.10150157472E+03  0.59187671313E+03 -0.11282185055E+04  0.12780835690E+04  0.00000000000E+00 0. -1.
</event>
<event>
 5    1  0.2540860E-005  0.3513048E+03  0.7818608E-02  0.9881298E-01
         21   -1    0    0  501  502  0.00000000000E+00  0.00000000000E+00  0.27125900773E+03  0.27125900773E+03  0.00000000000E+00 0.  1.
          4   -1    0    0  502    0 -0.00000000000E+00 -0.00000000000E+00 -0.23348567611E+04  0.23348567611E+04  0.00000000000E+00 0.  1.
        -13    1    1    2    0    0 -0.34005826367E+03 -0.59352288306E+02 -0.18449873512E+04  0.18770031044E+04  0.10566000000E+00 0.  1.
         13    1    1    2    0    0  0.37125191669E+03  0.86406376555E+02 -0.39442655385E+03  0.54851286685E+03  0.10566000000E+00 0. -1.
          4    1    1    2  501    0 -0.31193653026E+02 -0.27054088249E+02  0.17581615168E+03  0.18059979754E+03  0.00000000000E+00 0.  1.
</event>
<event>
 5    1  0.2540860E-005  0.4616360E+03  0.7818608E-02  0.9806784E-01
         21   -1    0    0  501  502  0.00000000000E+00  0.00000000000E+00  0.20387231473E+03  0.20387231473E+03  0.00000000000E+00 0. -1.
         -4   -1    0    0    0  501 -0.00000000000E+00 -0.00000000000E+00 -0.19529004948E+04  0.19529004948E+04  0.00000000000E+00 0. -1.
        -13    1    1    2    0    0  0.17268132521E+03  0.99352470313E+02 -0.47909875031E+03  0.51886932569E+03  0.10566000000E+00 0.  1.
         13    1    1    2    0    0 -0.23714552237E+03 -0.51741814676E+03 -0.95031365651E+03  0.11077254147E+04  0.10566000000E+00 0. -1.
         -4    1    1    2    0  502  0.64464197160E+02  0.41806567644E+03 -0.31961577330E+03  0.53017806922E+03  0.00000000000E+00 0. -1.
</event>
<event>
 5    1  0.2540860E-005  0.8066610E+03  0.7818608E-02  0.8981158E-01
          4   -1    0    0  502    0 -0.00000000000E+00  0.00000000000E+00  0.27964768682E+04  0.27964768682E+04  0.00000000000E+00 0.  1.
         21   -1    0    0  501  502  0.00000000000E+00 -0.00000000000E+00 -0.39029858823E+03  0.39029858823E+03  0.00000000000E+00 0. -1.
        -13    1    1    2    0    0  0.83571393154E+03 -0.39189742242E+03  0.70463517065E+03  0.11612545371E+04  0.10566000000E+00 0.  1.
         13    1    1    2    0    0 -0.76195112191E+03  0.10437279423E+03  0.14276994138E+04  0.16216623631E+04  0.10566000000E+00 0. -1.
          4    1    1    2  501    0 -0.73762809637E+02  0.28752462819E+03  0.27384369547E+03  0.40385855624E+03  0.00000000000E+00 0.  1.
</event>
<event>
 5    1  0.2540860E-005  0.3416502E+03  0.7818608E-02  0.9914604E-01
         21   -1    0    0  501  502  0.00000000000E+00  0.00000000000E+00  0.67359805955E+03  0.67359805955E+03  0.00000000000E+00 0. -1.
         -4   -1    0    0    0  501 -0.00000000000E+00 -0.00000000000E+00 -0.65641170666E+03  0.65641170666E+03  0.00000000000E+00 0. -1.
        -13    1    1    2    0    0 -0.28056406383E+03 -0.23988936079E+03 -0.19537726403E+03  0.41765462502E+03  0.10566000000E+00 0.  1.
         13    1    1    2    0    0  0.22330625114E+03  0.23444213499E+03 -0.27293304026E+03  0.42346340111E+03  0.10566000000E+00 0. -1.
         -4    1    1    2    0  502  0.57257812698E+02  0.54472257981E+01  0.48549665718E+03  0.48889174007E+03  0.00000000000E+00 0. -1.
</event>
<event>
 5    1  0.2540860E-005  0.3601443E+03  0.7818608E-02  0.9851787E-01
          4   -1    0    0  502    0 -0.00000000000E+00  0.00000000000E+00  0.75368260834E+03  0.75368260834E+03  0.00000000000E+00 0.  1.
         21   -1    0    0  501  502  0.00000000000E+00 -0.00000000000E+00 -0.20382602067E+03  0.20382602067E+03  0.00000000000E+00 0. -1.
        -13    1    1    2    0    0  0.24779154917E+03  0.25246765103E+03  0.33091694372E+03  0.48440334584E+03  0.10566000000E+00 0.  1.
         13    1    1    2    0    0 -0.24891419172E+03 -0.27174754680E+03  0.24362191737E+03  0.44176538323E+03  0.10566000000E+00 0. -1.
          4    1    1    2  501    0  0.11226425502E+01  0.19279895770E+02 -0.24682273419E+02  0.31339899942E+02  0.00000000000E+00 0.  1.
</event>
<event>
 5    1  0.2540860E-005  0.4706447E+03  0.7818608E-02  0.9830696E-01
         21   -1    0    0  501  502  0.00000000000E+00  0.00000000000E+00  0.17392116702E+03  0.17392116702E+03  0.00000000000E+00 0. -1.
         -4   -1    0    0    0  501 -0.00000000000E+00 -0.00000000000E+00 -0.25963414068E+04  0.25963414068E+04  0.00000000000E+00 0. -1.
        -13    1    1    2    0    0  0.51150357592E+02  0.16559601650E+03 -0.94305324470E+03  0.95884713759E+03  0.10566000000E+00 0.  1.
         13    1    1    2    0    0 -0.48576250846E+03 -0.54367661554E+02 -0.36470309403E+03  0.60986016037E+03  0.10566000000E+00 0. -1.
         -4    1    1    2    0  502  0.43461215087E+03 -0.11122835494E+03 -0.11146639011E+04  0.12015552759E+04  0.00000000000E+00 0. -1.
</event>
<event>
 5    1  0.2540860E-005  0.4613039E+03  0.7818608E-02  0.9892482E-01
         -4   -1    0    0    0  501 -0.00000000000E+00  0.00000000000E+00  0.54732737462E+03  0.54732737462E+03  0.00000000000E+00 0. -1.
         21   -1    0    0  501  502  0.00000000000E+00 -0.00000000000E+00 -0.75727530499E+03  0.75727530499E+03  0.00000000000E+00 0. -1.
        -13    1    1    2    0    0 -0.46357011733E+02 -0.14207351170E+03  0.15873912330E+03  0.21801829211E+03  0.10566000000E+00 0.  1.
         13    1    1    2    0    0  0.46171927589E+03 -0.67914787008E+02 -0.40747884339E+03  0.61954509682E+03  0.10566000000E+00 0. -1.
         -4    1    1    2    0  502 -0.41536226416E+03  0.20998829871E+03  0.38791789709E+02  0.46703929067E+03  0.00000000000E+00 0. -1.
</event>
<event>
 5    1  0.2540860E-005  0.5258625E+03  0.7818608E-02  0.9720776E-01
         21   -1    0    0  501  502  0.00000000000E+00  0.00000000000E+00  0.93063115075E+03  0.93063115075E+03  0.00000000000E+00 0. -1.
         -4   -1    0    0    0  501 -0.00000000000E+00 -0.00000000000E+00 -0.66710441443E+03  0.66710441443E+03  0.00000000000E+00 0. -1.
        -13    1    1    2    0    0  0.18100870574E+03  0.74743978659E+01 -0.32990538434E+03  0.37637427112E+03  0.10566000000E+00 0.  1.
         13    1    1    2    0    0  0.38882157196E+03 -0.21531071494E+03  0.14665183176E+03  0.46802530884E+03  0.10566000000E+00 0. -1.
         -4    1    1    2    0  502 -0.56983027771E+03  0.20783631708E+03  0.44678028889E+03  0.75333598522E+03  0.00000000000E+00 0. -1.
</event>
<event>
 5    1  0.2540860E-005  0.4873525E+03  0.7818608E-02  0.1004092E+00
         -4   -1    0    0    0  501 -0.00000000000E+00  0.00000000000E+00  0.12077205346E+04  0.12077205346E+04  0.00000000000E+00 0. -1.
         21   -1    0    0  501  502  0.00000000000E+00 -0.00000000000E+00 -0.24412799759E+03  0.24412799759E+03  0.00000000000E+00 0. -1.
        -13    1    1    2    0    0  0.77524707108E+02  0.45346452943E+01  0.21736577491E+02  0.80642006331E+02  0.10566000000E+00 0.  1.
         13    1    1    2    0    0 -0.45377329439E+03 -0.24470604258E+03  0.32374140552E+03  0.60876905210E+03  0.10566000000E+00 0. -1.
         -4    1    1    2    0  502  0.37624858729E+03  0.24017139729E+03  0.61811455398E+03  0.76243747374E+03  0.00000000000E+00 0. -1.
</event>
<event>
 5    1  0.2540860E-005  0.2176221E+03  0.7818608E-02  0.1048683E+00
          4   -1    0    0  502    0 -0.00000000000E+00  0.00000000000E+00  0.98145256674E+03  0.98145256674E+03  0.00000000000E+00 0.  1.
         21   -1    0    0  501  502  0.00000000000E+00 -0.00000000000E+00 -0.36712551368E+03  0.36712551368E+03  0.00000000000E+00 0.  1.
        -13    1    1    2    0    0 -0.10919361976E+03 -0.17820062002E+03  0.36645114845E+03  0.42185917430E+03  0.10566000000E+00 0.  1.
         13    1    1    2    0    0  0.12841126056E+03  0.18411278480E+03  0.56551926354E+03  0.60843982280E+03  0.10566000000E+00 0. -1.
          4    1    1    2  501    0 -0.19217640801E+02 -0.59121647723E+01 -0.31764335893E+03  0.31827908333E+03  0.00000000000E+00 0.  1.
</event>
<event>
 5    1  0.2540860E-005  0.1075754E+03  0.7818608E-02  0.1200830E+00
          4   -1    0    0  502    0 -0.00000000000E+00  0.00000000000E+00  0.35859653493E+03  0.35859653493E+03  0.00000000000E+00 0.  1.
         21   -1    0    0  501  502  0.00000000000E+00 -0.00000000000E+00 -0.63351089444E+02  0.63351089444E+02  0.00000000000E+00 0.  1.
        -13    1    1    2    0    0 -0.12393027273E+03 -0.14053125914E+02  0.71885430692E+02  0.14395738660E+03  0.10566000000E+00 0.  1.
         13    1    1    2    0    0  0.29721764088E+02  0.17163978380E+02  0.16182010694E+03  0.16541990082E+03  0.10566000000E+00 0. -1.
          4    1    1    2  501    0  0.94208508639E+02 -0.31108524654E+01  0.61539907856E+02  0.11257033695E+03  0.00000000000E+00 0.  1.
</event>
<event>
 5    1  0.2540860E-005  0.1381304E+03  0.7818608E-02  0.1113446E+00
         -4   -1    0    0    0  501 -0.00000000000E+00  0.00000000000E+00  0.65245274540E+02  0.65245274540E+02  0.00000000000E+00 0. -1.
         21   -1    0    0  501  502  0.00000000000E+00 -0.00000000000E+00 -0.63547210265E+03  0.63547210265E+03  0.00000000000E+00 0.  1.
        -13    1    1    2    0    0  0.61477900528E+02 -0.11924401286E+03 -0.27825890192E+03  0.30891211456E+03  0.10566000000E+00 0.  1.
         13    1    1    2    0    0 -0.83988283962E+02  0.11195047876E+03 -0.49899421936E+02  0.14858299031E+03  0.10566000000E+00 0. -1.
         -4    1    1    2    0  502  0.22510383433E+02  0.72935340978E+01 -0.24206850425E+03  0.24322227232E+03  0.00000000000E+00 0. -1.
</event>
<event>
 5    1  0.2540860E-005  0.1072372E+03  0.7818608E-02  0.1153107E+00
         21   -1    0    0  501  502  0.00000000000E+00  0.00000000000E+00  0.42602307004E+03  0.42602307004E+03  0.00000000000E+00 0. -1.
         -4   -1    0    0    0  501 -0.00000000000E+00 -0.00000000000E+00 -0.55859207230E+02  0.55859207230E+02  0.00000000000E+00 0. -1.
        -13    1    1    2    0    0 -0.80699658625E+02 -0.58429996143E+02  0.12710995036E+03  0.16150371511E+03  0.10566000000E+00 0.  1.
         13    1    1    2    0    0  0.92848839026E+02  0.61784304381E+02  0.42377317038E+02  0.11930656034E+03  0.10566000000E+00 0. -1.
         -4    1    1    2    0  502 -0.12149180401E+02 -0.33543082380E+01  0.20067659542E+03  0.20107200182E+03  0.00000000000E+00 0. -1.
</event>
<event>
 5    1  0.2540860E-005  0.4001769E+03  0.7818608E-02  0.9728535E-01
         21   -1    0    0  501  502  0.00000000000E+00  0.00000000000E+00  0.11589805529E+03  0.11589805529E+03  0.00000000000E+00 0.  1.
         -4   -1    0    0    0  501 -0.00000000000E+00 -0.00000000000E+00 -0.23437407562E+04  0.23437407562E+04  0.00000000000E+00 0. -1.
        -13    1    1    2    0    0 -0.15282281320E+03  0.32677244779E+03 -0.31679938022E+03  0.48010093037E+03  0.10566000000E+00 0.  1.
         13    1    1    2    0    0  0.10742958264E+03 -0.39893166921E+03 -0.17406570225E+04  0.17890149449E+04  0.10566000000E+00 0. -1.
         -4    1    1    2    0  502  0.45393230559E+02  0.72159221422E+02 -0.17038629817E+03  0.19052293621E+03  0.00000000000E+00 0. -1.
</event>
<event>
 5    1  0.2540860E-005  0.2007228E+03  0.7818608E-02  0.1059641E+00
          4   -1    0    0  502    0 -0.00000000000E+00  0.00000000000E+00  0.13310995510E+04  0.13310995510E+04  0.00000000000E+00 0.  1.
         21   -1    0    0  501  502  0.00000000000E+00 -0.00000000000E+00 -0.94547762544E+02  0.94547762544E+02  0.00000000000E+00 0.  1.
        -13    1    1    2    0    0 -0.84568041077E+02  0.18328076524E+03  0.86379696877E+03  0.88706753232E+03  0.10566000000E+00 0.  1.
         13    1    1    2    0    0  0.14774430782E+03 -0.14553548793E+03  0.40746994815E+03  0.45720972053E+03  0.10566000000E+00 0. -1.
          4    1    1    2  501    0 -0.63176266741E+02 -0.37745277310E+02 -0.34715128437E+02  0.81370060716E+02  0.00000000000E+00 0.  1.
</event>
<event>
 5    1  0.2540860E-005  0.4846676E+03  0.7818608E-02  0.9751926E-01
         21   -1    0    0  501  502  0.00000000000E+00  0.00000000000E+00  0.17336949135E+03  0.17336949135E+03  0.00000000000E+00 0. -1.
         -4   -1    0    0    0  501 -0.00000000000E+00 -0.00000000000E+00 -0.20927544157E+04  0.20927544157E+04  0.00000000000E+00 0. -1.
        -13    1    1    2    0    0 -0.17682740863E+02 -0.20701428964E+03 -0.28730982263E+03  0.35456246387E+03  0.10566000000E+00 0.  1.
         13    1    1    2    0    0 -0.24091245178E+03 -0.30209348726E+03 -0.92670283377E+03  0.10040305960E+04  0.10566000000E+00 0. -1.
         -4    1    1    2    0  502  0.25859519265E+03  0.50910777690E+03 -0.70537226799E+03  0.90753084719E+03  0.00000000000E+00 0. -1.
</event>
<event>
 5    1  0.2540860E-005  0.4479781E+03  0.7818608E-02  0.1001803E+00
         21   -1    0    0  501  502  0.00000000000E+00  0.00000000000E+00  0.17142221284E+03  0.17142221284E+03  0.00000000000E+00 0.  1.
          4   -1    0    0  502    0 -0.00000000000E+00 -0.00000000000E+00 -0.17883409726E+04  0.17883409726E+04  0.00000000000E+00 0.  1.
        -13    1    1    2    0    0 -0.17616044670E+03 -0.43545083929E+03 -0.32527374326E+03  0.57136061786E+03  0.10566000000E+00 0.  1.
         13    1    1    2    0    0 -0.42245774107E+02  0.99097806577E+02 -0.25003158365E+03  0.27225150997E+03  0.10566000000E+00 0. -1.
          4    1    1    2  501    0  0.21840622080E+03  0.33635303271E+03 -0.10416134328E+04  0.11161510576E+04  0.00000000000E+00 0.  1.
</event>
<event>
 5    1  0.2973885E-005  0.9187775E+03  0.7818608E-02  0.8854894E-01
         -4   -1    0    0    0  501 -0.00000000000E+00  0.00000000000E+00  0.19397097960E+04  0.19397097960E+04  0.00000000000E+00 0. -1.
         21   -1    0    0  501  502  0.00000000000E+00 -0.00000000000E+00 -0.10506661000E+04  0.10506661000E+04  0.00000000000E+00 0.  1.
        -13    1    1    2    0    0  0.44113988061E+03  0.85192007723E+03  0.12386672930E+04  0.15667382954E+04  0.10566000000E+00 0.  1.
         13    1    1    2    0    0 -0.69489540831E+03 -0.53160044585E+03  0.16342225708E+02  0.87506899273E+03  0.10566000000E+00 0. -1.
         -4    1    1    2    0  502  0.25375552771E+03 -0.32031963138E+03 -0.36596582272E+03  0.54856860782E+03  0.00000000000E+00 0. -1.
</event>
<event>
 5    1  0.2540860E-005  0.4144283E+03  0.7818608E-02  0.9784217E-01
         -4   -1    0    0    0  501 -0.00000000000E+00  0.00000000000E+00  0.23673114912E+04  0.23673114912E+04  0.00000000000E+00 0. -1.
         21   -1    0    0  501  502  0.00000000000E+00 -0.00000000000E+00 -0.22875166208E+03  0.22875166208E+03  0.00000000000E+00 0. -1.
        -13    1    1    2    0    0 -0.26976202537E+03  0.12526145721E+03  0.10829592832E+04  0.11230595725E+04  0.10566000000E+00 0.  1.
         13    1    1    2    0    0 -0.19680510919E+03 -0.51107420911E+01  0.96233958868E+03  0.98227077010E+03  0.10566000000E+00 0. -1.
         -4    1    1    2    0  502  0.46656713457E+03 -0.12015071512E+03  0.93260957234E+02  0.49073281075E+03  0.00000000000E+00 0. -1.
</event>
<event>
 5    1  0.2540860E-005  0.3564828E+03  0.7818608E-02  0.1002130E+00
         21   -1    0    0  501  502  0.00000000000E+00  0.00000000000E+00  0.32028461008E+03  0.32028461008E+03  0.00000000000E+00 0.  1.
          4   -1    0    0  502    0 -0.00000000000E+00 -0.00000000000E+00 -0.15224592403E+04  0.15224592403E+04  0.00000000000E+00 0.  1.
        -13    1    1    2    0    0 -0.14006488746E+03  0.49008659315E+03 -0.62459819262E+03  0.80617985268E+03  0.10566000000E+00 0.  1.
         13    1    1    2    0    0  0.14008758465E+03 -0.15846763031E+03 -0.66149893279E+03  0.69449072742E+03  0.10566000000E+00 0. -1.
          4    1    1    2  501    0 -0.22697192793E-01 -0.33161896284E+03  0.83922495202E+02  0.34207327027E+03  0.00000000000E+00 0.  1.
</event>
<event>
 5    1  0.2540860E-005  0.4771157E+03  0.7818608E-02  0.9766739E-01
          4   -1    0    0  502    0 -0.00000000000E+00  0.00000000000E+00  0.11228321698E+04  0.11228321698E+04  0.00000000000E+00 0.  1.
         21   -1    0    0  501  502  0.00000000000E+00 -0.00000000000E+00 -0.36833106088E+03  0.36833106088E+03  0.00000000000E+00 0.  1.
        -13    1    1    2    0    0  0.57524740330E+03  0.20790963994E+03  0.31589111220E+03  0.68842080104E+03  0.10566000000E+00 0.  1.
         13    1    1    2    0    0 -0.19459258556E+03 -0.70486978406E+02  0.31985918628E+03  0.38097847537E+03  0.10566000000E+00 0. -1.
          4    1    1    2  501    0 -0.38065481774E+03 -0.13742266154E+03  0.11875081048E+03  0.42176395432E+03  0.00000000000E+00 0.  1.
</event>
<event>
 5    1  0.2540860E-005  0.5691232E+03  0.7818608E-02  0.9338112E-01
         21   -1    0    0  501  502  0.00000000000E+00  0.00000000000E+00  0.27594921929E+03  0.27594921929E+03  0.00000000000E+00 0.  1.
          4   -1    0    0  502    0 -0.00000000000E+00 -0.00000000000E+00 -0.25609407294E+04  0.25609407294E+04  0.00000000000E+00 0.  1.
        -13    1    1    2    0    0 -0.59938346293E+03 -0.38214852325E+03 -0.11441883475E+04  0.13470207924E+04  0.10566000000E+00 0.  1.
         13    1    1    2    0    0  0.35035155858E+03  0.35789146641E+03 -0.11338799042E+04  0.12395628925E+04  0.10566000000E+00 0. -1.
          4    1    1    2  501    0  0.24903190435E+03  0.24257056843E+02 -0.69232585064E+01  0.25030626380E+03  0.00000000000E+00 0.  1.
</event>
<event>
 5    1  0.2540860E-005  0.5754493E+03  0.7818608E-02  0.9326362E-01
         21   -1    0    0  501  502  0.00000000000E+00  0.00000000000E+00  0.57342047625E+03  0.57342047625E+03  0.00000000000E+00 0. -1.
         -4   -1    0    0    0  501 -0.00000000000E+00 -0.00000000000E+00 -0.25852171171E+04  0.25852171171E+04  0.00000000000E+00 0. -1.
        -13    1    1    2    0    0  0.48569785816E+03  0.27756992820E+03 -0.19376146999E+04  0.20167543754E+04  0.10566000000E+00 0.  1.
         13    1    1    2    0    0 -0.72360994111E+03 -0.28879538761E+03  0.17357225028E+03  0.79821141310E+03  0.10566000000E+00 0. -1.
         -4    1    1    2    0  502  0.23791208295E+03  0.11225459413E+02 -0.24775419131E+03  0.34367180487E+03  0.00000000000E+00 0. -1.
</event>
<event>
 5    1  0.2540860E-005  0.1172192E+03  0.7818608E-02  0.1138843E+00
         -4   -1    0    0    0  501 -0.00000000000E+00  0.00000000000E+00  0.11734703249E+03  0.11734703249E+03  0.00000000000E+00 0. -1.
         21   -1    0    0  501  502  0.00000000000E+00 -0.00000000000E+00 -0.29962273457E+03  0.29962273457E+03  0.00000000000E+00 0. -1.
        -13    1    1    2    0    0  0.66754152848E+02  0.56670070585E+02 -0.16509986097E+03  0.18688389197E+03  0.10566000000E+00 0.  1.
         13    1    1    2    0    0 -0.10777542163E+03 -0.61073224861E+02  0.63699567072E+02  0.13929510513E+03  0.10566000000E+00 0. -1.
         -4    1    1    2    0  502  0.41021268787E+02  0.44031542763E+01 -0.80875408180E+02  0.90790769954E+02  0.00000000000E+00 0. -1.
</event>
<event>
 5    1  0.2540860E-005  0.5034842E+03  0.7818608E-02  0.9711254E-01
          4   -1    0    0  502    0 -0.00000000000E+00  0.00000000000E+00  0.28770801882E+04  0.28770801882E+04  0.00000000000E+00 0.  1.
         21   -1    0    0  501  502  0.00000000000E+00 -0.00000000000E+00 -0.13679232362E+03  0.13679232362E+03  0.00000000000E+00 0.  1.
        -13    1    1    2    0    0 -0.17059697011E+03 -0.39918769646E+03  0.10773955319E+04  0.11615658770E+04  0.10566000000E+00 0.  1.
         13    1    1    2    0    0  0.11330404117E+03 -0.18077266763E+03  0.64522215282E+03  0.67957942933E+03  0.10566000000E+00 0. -1.
          4    1    1    2  501    0  0.57292928936E+02  0.57996036409E+03  0.10176701799E+04  0.11727272055E+04  0.00000000000E+00 0.  1.
</event>
<event>
 5    1  0.2540860E-005  0.8067385E+03  0.7818608E-02  0.8981063E-01
         -4   -1    0    0    0  501 -0.00000000000E+00  0.00000000000E+00  0.15127889642E+04  0.15127889642E+04  0.00000000000E+00 0. -1.
         21   -1    0    0  501  502  0.00000000000E+00 -0.00000000000E+00 -0.16675456332E+04  0.16675456332E+04  0.00000000000E+00 0. -1.
        -13    1    1    2    0    0 -0.82832892202E+03  0.26196878454E+03  0.66002618600E+03  0.10910504225E+04  0.10566000000E+00 0.  1.
         13    1    1    2    0    0  0.67047107918E+03 -0.33099012934E+03  0.40978994460E+03  0.85265100926E+03  0.10566000000E+00 0. -1.
         -4    1    1    2    0  502  0.15785784284E+03  0.69021344799E+02 -0.12245727997E+04  0.12366331656E+04  0.00000000000E+00 0. -1.
</event>
<event>
 5    1  0.2540860E-005  0.4142839E+03  0.7818608E-02  0.1002895E+00
          4   -1    0    0  502    0 -0.00000000000E+00  0.00000000000E+00  0.10888712664E+04  0.10888712664E+04  0.00000000000E+00 0.  1.
         21   -1    0    0  501  502  0.00000000000E+00 -0.00000000000E+00 -0.30431945454E+03  0.30431945454E+03  0.00000000000E+00 0.  1.
        -13    1    1    2    0    0 -0.48572736864E+03  0.17473172766E+03  0.59896463700E+03  0.79070911266E+03  0.10566000000E+00 0.  1.
         13    1    1    2    0    0  0.12059660594E+03 -0.52281073219E+02  0.17285649498E+03  0.21715485489E+03  0.10566000000E+00 0. -1.
          4    1    1    2  501    0  0.36513076270E+03 -0.12245065444E+03  0.12730679834E+02  0.38532675335E+03  0.00000000000E+00 0.  1.
</event>
<event>
 5    1  0.2540860E-005  0.4592843E+03  0.7818608E-02  0.9571976E-01
         21   -1    0    0  501  502  0.00000000000E+00  0.00000000000E+00  0.51775463538E+03  0.51775463538E+03  0.00000000000E+00 0. -1.
          4   -1    0    0  502    0 -0.00000000000E+00 -0.00000000000E+00 -0.63881186138E+03  0.63881186138E+03  0.00000000000E+00 0.  1.
        -13    1    1    2    0    0  0.47174518023E+03 -0.12618568679E+03  0.30914139906E+01  0.48833995395E+03  0.10566000000E+00 0.  1.
         13    1    1    2    0    0 -0.43031809887E+03  0.11111479687E+03 -0.26717664477E+03  0.51855909496E+03  0.10566000000E+00 0. -1.
          4    1    1    2  501    0 -0.41427081360E+02  0.15070889914E+02  0.14302800478E+03  0.14966744785E+03  0.00000000000E+00 0.  1.
</event>
<event>
 5    1  0.2540860E-005  0.4543906E+03  0.7818608E-02  0.9852391E-01
         21   -1    0    0  501  502  0.00000000000E+00  0.00000000000E+00  0.25331552136E+03  0.25331552136E+03  0.00000000000E+00 0. -1.
         -4   -1    0    0    0  501 -0.00000000000E+00 -0.00000000000E+00 -0.17134855651E+04  0.17134855651E+04  0.00000000000E+00 0. -1.
        -13    1    1    2    0    0 -0.68064233983E+01  0.17882075986E+03 -0.65496011889E+03  0.67896683281E+03  0.10566000000E+00 0.  1.
         13    1    1    2    0    0 -0.18766614061E+03 -0.53632636133E+03 -0.61908627151E+03  0.84031682652E+03  0.10566000000E+00 0. -1.
         -4    1    1    2    0  502  0.19447256401E+03  0.35750560148E+03 -0.18612365330E+03  0.44751742710E+03  0.00000000000E+00 0. -1.
</event>
<event>
 5    1  0.2540860E-005  0.5329473E+03  0.7818608E-02  0.9473463E-01
          4   -1    0    0  502    0 -0.00000000000E+00  0.00000000000E+00  0.30586991193E+04  0.30586991193E+04  0.00000000000E+00 0.  1.
         21   -1    0    0  501  502  0.00000000000E+00 -0.00000000000E+00 -0.24579555194E+03  0.24579555194E+03  0.00000000000E+00 0. -1.
        -13    1    1    2    0    0 -0.35092494445E+03  0.17026592323E+03  0.11459657898E+04  0.12105273247E+04  0.10566000000E+00 0.  1.
         13    1    1    2    0    0  0.36233880065E+03  0.47890586758E+03  0.97503341710E+03  0.11451333600E+04  0.10566000000E+00 0. -1.
          4    1    1    2  501    0 -0.11413856197E+02 -0.64917179080E+03  0.69190436045E+03  0.94883398658E+03  0.00000000000E+00 0.  1.
</event>
<event>
 5    1  0.2540860E-005  0.4627440E+03  0.7818608E-02  0.9871235E-01
         -4   -1    0    0    0  501 -0.00000000000E+00  0.00000000000E+00  0.36062354523E+04  0.36062354523E+04  0.00000000000E+00 0. -1.
         21   -1    0    0  501  502  0.00000000000E+00 -0.00000000000E+00 -0.90458009115E+02  0.90458009115E+02  0.00000000000E+00 0. -1.
        -13    1    1    2    0    0 -0.14419017763E+03 -0.67016463637E+02  0.51228315562E+03  0.53639170055E+03  0.10566000000E+00 0.  1.
         13    1    1    2    0    0  0.26973857571E+03 -0.38440037864E+03  0.19757323304E+04  0.20307734495E+04  0.10566000000E+00 0. -1.
         -4    1    1    2    0  502 -0.12554839808E+03  0.45141684228E+03  0.10277619571E+04  0.11295283114E+04  0.00000000000E+00 0. -1.
</event>
<event>
 5    1  0.2540860E-005  0.3887069E+03  0.7818608E-02  0.1019192E+00
         -4   -1    0    0    0  501 -0.00000000000E+00  0.00000000000E+00  0.22876430845E+04  0.22876430845E+04  0.00000000000E+00 0. -1.
         21   -1    0    0  501  502  0.00000000000E+00 -0.00000000000E+00 -0.13250564744E+03  0.13250564744E+03  0.00000000000E+00 0. -1.
        -13    1    1    2    0    0 -0.46742203681E+02  0.81963160872E+02  0.24433566086E+03  0.26192120891E+03  0.10566000000E+00 0.  1.
         13    1    1    2    0    0  0.42645058848E+03 -0.82078764145E+02  0.16275916535E+04  0.16845330598E+04  0.10566000000E+00 0. -1.
         -4    1    1    2    0  502 -0.37970838480E+03  0.11560327332E+00  0.28321012264E+03  0.47369446315E+03  0.00000000000E+00 0. -1.
</event>
<event>
 5    1  0.2540860E-005  0.4727047E+03  0.7818608E-02  0.9579632E-01
          4   -1    0    0  502    0 -0.00000000000E+00  0.00000000000E+00  0.23001163052E+04  0.23001163052E+04  0.00000000000E+00 0.  1.
         21   -1    0    0  501  502  0.00000000000E+00 -0.00000000000E+00 -0.23488131221E+03  0.23488131221E+03  0.00000000000E+00 0.  1.
        -13    1    1    2    0    0 -0.38678604541E+03  0.32350775497E+03  0.49544036902E+03  0.70691009532E+03  0.10566000000E+00 0.  1.
         13    1    1    2    0    0  0.35647730990E+03  0.20232196035E+03  0.66669446263E+03  0.78261853146E+03  0.10566000000E+00 0. -1.
          4    1    1    2  501    0  0.30308735508E+02 -0.52582971532E+03  0.90310016131E+03  0.10454689906E+04  0.00000000000E+00 0.  1.
</event>
<event>
 5    1  0.2540860E-005  0.3860529E+03  0.7818608E-02  0.9770212E-01
         21   -1    0    0  501  502  0.00000000000E+00  0.00000000000E+00  0.32348756537E+03  0.32348756537E+03  0.00000000000E+00 0.  1.
          4   -1    0    0  502    0 -0.00000000000E+00 -0.00000000000E+00 -0.25322502798E+04  0.25322502798E+04  0.00000000000E+00 0.  1.
        -13    1    1    2    0    0 -0.35837741664E+03  0.15310445496E+03 -0.21145478476E+04  0.21501599843E+04  0.10566000000E+00 0.  1.
         13    1    1    2    0    0  0.30022776960E+03 -0.22771895692E+03 -0.29832323821E+03  0.48061356889E+03  0.10566000000E+00 0. -1.
          4    1    1    2  501    0  0.58149647035E+02  0.74614501968E+02  0.20410837146E+03  0.22496429196E+03  0.00000000000E+00 0.  1.
</event>
<event>
 5    1  0.2540860E-005  0.3642786E+03  0.7818608E-02  0.9838292E-01
         21   -1    0    0  501  502  0.00000000000E+00  0.00000000000E+00  0.15415230866E+03  0.15415230866E+03  0.00000000000E+00 0. -1.
         -4   -1    0    0    0  501 -0.00000000000E+00 -0.00000000000E+00 -0.38113629964E+04  0.38113629964E+04  0.00000000000E+00 0. -1.
        -13    1    1    2    0    0  0.26419703606E+03  0.21137466521E+03 -0.17968782054E+04  0.18284558018E+04  0.10566000000E+00 0.  1.
         13    1    1    2    0    0 -0.58680099033E+03 -0.13616688359E+03 -0.66769563580E+03  0.89927431614E+03  0.10566000000E+00 0. -1.
         -4    1    1    2    0  502  0.32260395427E+03 -0.75207781622E+02 -0.11926368465E+04  0.12377851871E+04  0.00000000000E+00 0. -1.
</event>
<event>
 5    1  0.2540860E-005  0.4898218E+03  0.7818608E-02  0.9595441E-01
         -4   -1    0    0    0  501 -0.00000000000E+00  0.00000000000E+00  0.35926463589E+04  0.35926463589E+04  0.00000000000E+00 0. -1.
         21   -1    0    0  501  502  0.00000000000E+00 -0.00000000000E+00 -0.18302814940E+03  0.18302814940E+03  0.00000000000E+00 0. -1.
        -13    1    1    2    0    0 -0.34594691557E+03 -0.39582240022E+02  0.19614933189E+04  0.19921601526E+04  0.10566000000E+00 0.  1.
         13    1    1    2    0    0  0.79276162994E+02  0.49970448098E+03  0.77724557285E+03  0.92741574820E+03  0.10566000000E+00 0. -1.
         -4    1    1    2    0  502  0.26667075258E+03 -0.46012224095E+03  0.67087931775E+03  0.85609860757E+03  0.00000000000E+00 0. -1.
</event>
<event>
 5    1  0.2540860E-005  0.3697843E+03  0.7818608E-02  0.9941971E-01
          4   -1    0    0  502    0 -0.00000000000E+00  0.00000000000E+00  0.26483138077E+04  0.26483138077E+04  0.00000000000E+00 0.  1.
         21   -1    0    0  501  502  0.00000000000E+00 -0.00000000000E+00 -0.13345009797E+03  0.13345009797E+03  0.00000000000E+00 0.  1.
        -13    1    1    2    0    0  0.82898328898E+02 -0.54011081328E+03  0.16757449984E+04  0.17625870573E+04  0.10566000000E+00 0.  1.
         13    1    1    2    0    0  0.47517942461E+02  0.24137500902E+03  0.43753121310E+03  0.50194962241E+03  0.10566000000E+00 0. -1.
          4    1    1    2  501    0 -0.13041627136E+03  0.29873580426E+03  0.40158749821E+03  0.51722722598E+03  0.00000000000E+00 0.  1.
</event>
<event>
 5    1  0.2540860E-005  0.7994754E+03  0.7818608E-02  0.8989974E-01
         21   -1    0    0  501  502  0.00000000000E+00  0.00000000000E+00  0.37039583064E+03  0.37039583064E+03  0.00000000000E+00 0.  1.
         -4   -1    0    0    0  501 -0.00000000000E+00 -0.00000000000E+00 -0.24050574817E+04  0.24050574817E+04  0.00000000000E+00 0. -1.
        -13    1    1    2    0    0  0.66615299909E+03 -0.48423985870E+03 -0.72372459322E+03  0.10963691700E+04  0.10566000000E+00 0.  1.
         13    1    1    2    0    0 -0.61942683473E+03  0.48421880796E+03 -0.13843646815E+04  0.15920499490E+04  0.10566000000E+00 0. -1.
         -4    1    1    2    0  502 -0.46726164358E+02  0.21050741230E-01  0.73427623706E+02  0.87034193292E+02  0.00000000000E+00 0. -1.
</event>
<event>
 5    1  0.2540860E-005  0.5102360E+03  0.7818608E-02  0.9936011E-01
         -4   -1    0    0    0  501 -0.00000000000E+00  0.00000000000E+00  0.13775392062E+04  0.13775392062E+04  0.00000000000E+00 0. -1.
         21   -1    0    0  501  502  0.00000000000E+00 -0.00000000000E+00 -0.23715019826E+03  0.23715019826E+03  0.00000000000E+00 0. -1.
        -13    1    1    2    0    0  0.94368379156E+02 -0.14754163888E+02  0.20842998422E+03  0.22927308133E+03  0.10566000000E+00 0.  1.
         13    1    1    2    0    0  0.39603229806E+03 -0.24704181575E+03  0.47303327519E+03  0.66455378295E+03  0.10566000000E+00 0. -1.
         -4    1    1    2    0  502 -0.49040067722E+03  0.26179597964E+03  0.45892574854E+03  0.72086254019E+03  0.00000000000E+00 0. -1.
</event>
<event>
 5    1  0.2540860E-005  0.4713700E+03  0.7818608E-02  0.9543032E-01
          4   -1    0    0  502    0 -0.00000000000E+00  0.00000000000E+00  0.33448490318E+04  0.33448490318E+04  0.00000000000E+00 0.  1.
         21   -1    0    0  501  502  0.00000000000E+00 -0.00000000000E+00 -0.18144746225E+03  0.18144746225E+03  0.00000000000E+00 0.  1.
        -13    1    1    2    0    0  0.97248918950E+02  0.63810235298E+03  0.71260333862E+03  0.96147568585E+03  0.10566000000E+00 0.  1.
         13    1    1    2    0    0  0.12629573693E+03 -0.41441640625E+03  0.12442173801E+04  0.13174856625E+04  0.10566000000E+00 0. -1.
          4    1    1    2  501    0 -0.22354465588E+03 -0.22368594673E+03  0.12065808508E+04  0.12473351456E+04  0.00000000000E+00 0.  1.
</event>
<event>
 5    1  0.2540860E-005  0.3929363E+03  0.7818608E-02  0.9929128E-01
         -4   -1    0    0    0  501 -0.00000000000E+00  0.00000000000E+00  0.28838445485E+04  0.28838445485E+04  0.00000000000E+00 0. -1.
         21   -1    0    0  501  502  0.00000000000E+00 -0.00000000000E+00 -0.14771771032E+03  0.14771771032E+03  0.00000000000E+00 0. -1.
        -13    1    1    2    0    0 -0.13679599803E+03  0.16452891918E+03  0.91565469090E+03  0.94032251619E+03  0.10566000000E+00 0.  1.
         13    1    1    2    0    0 -0.26013908014E+03 -0.30052323427E+03  0.25908695543E+03  0.47446034291E+03  0.10566000000E+00 0. -1.
         -4    1    1    2    0  502  0.39693507817E+03  0.13599431509E+03  0.15613851918E+04  0.16167793997E+04  0.00000000000E+00 0. -1.
</event>
<event>
 5    1  0.2540860E-005  0.4015069E+03  0.7818608E-02  0.1007376E+00
         21   -1    0    0  501  502  0.00000000000E+00  0.00000000000E+00  0.59477803826E+03  0.59477803826E+03  0.00000000000E+00 0.  1.
          4   -1    0    0  502    0 -0.00000000000E+00 -0.00000000000E+00 -0.52901608786E+03  0.52901608786E+03  0.00000000000E+00 0.  1.
        -13    1    1    2    0    0 -0.26050052464E+03  0.26992015213E+03  0.27394591800E+03  0.46450380947E+03  0.10566000000E+00 0.  1.
         13    1    1    2    0    0 -0.89713349319E+02  0.86837827454E+02 -0.28629026837E+02  0.12809732887E+03  0.10566000000E+00 0. -1.
          4    1    1    2  501    0  0.35021387396E+03 -0.35675797959E+03 -0.17955494076E+03  0.53119298777E+03  0.00000000000E+00 0.  1.
</event>
<event>
 5    1  0.2540860E-005  0.2189877E+03  0.7818608E-02  0.1047845E+00
         -4   -1    0    0    0  501 -0.00000000000E+00  0.00000000000E+00  0.13319773475E+04  0.13319773475E+04  0.00000000000E+00 0. -1.
         21   -1    0    0  501  502  0.00000000000E+00 -0.00000000000E+00 -0.11708950341E+03  0.11708950341E+03  0.00000000000E+00 0. -1.
        -13    1    1    2    0    0 -0.14156076464E+03 -0.17579273484E+03  0.55043026042E+03  0.59490841182E+03  0.10566000000E+00 0.  1.
         13    1    1    2    0    0  0.14458627103E+03  0.15854394338E+03  0.74316748036E+03  0.77352394067E+03  0.10566000000E+00 0. -1.
         -4    1    1    2    0  502 -0.30255063930E+01  0.17248791463E+02 -0.78709896702E+02  0.80634498415E+02  0.00000000000E+00 0. -1.
</event>
<event>
 5    1  0.2540860E-005  0.5131659E+03  0.7818608E-02  0.9775536E-01
         -4   -1    0    0    0  501 -0.00000000000E+00  0.00000000000E+00  0.38786401538E+04  0.38786401538E+04  0.00000000000E+00 0. -1.
         21   -1    0    0  501  502  0.00000000000E+00 -0.00000000000E+00 -0.10029524382E+03  0.10029524382E+03  0.00000000000E+00 0. -1.
        -13    1    1    2    0    0  0.12055992314E+03 -0.10729420962E+03  0.45215367481E+03  0.48009342767E+03  0.10566000000E+00 0.  1.
         13    1    1    2    0    0 -0.48392936937E+03  0.29980782898E+03  0.11391092498E+04  0.12734371845E+04  0.10566000000E+00 0. -1.
         -4    1    1    2    0  502  0.36336944623E+03 -0.19251361936E+03  0.21870819854E+04  0.22254047854E+04  0.00000000000E+00 0. -1.
</event>
<event>
 5    1  0.2540860E-005  0.1034315E+03  0.7818608E-02  0.1159000E+00
          4   -1    0    0  502    0 -0.00000000000E+00  0.00000000000E+00  0.26959240408E+03  0.26959240408E+03  0.00000000000E+00 0.  1.
         21   -1    0    0  501  502  0.00000000000E+00 -0.00000000000E+00 -0.60497464458E+02  0.60497464458E+02  0.00000000000E+00 0. -1.
        -13    1    1    2    0    0 -0.10505097640E+03 -0.15949987836E+02  0.15012328006E+03  0.18392150536E+03  0.10566000000E+00 0.  1.
         13    1    1    2    0    0  0.10029618835E+03 -0.10165251398E+02  0.63639031762E+02  0.11921658971E+03  0.10566000000E+00 0. -1.
          4    1    1    2  501    0  0.47547880511E+01  0.26115239234E+02 -0.46673722002E+01  0.26951773465E+02  0.00000000000E+00 0.  1.
</event>
<event>
 5    1  0.2540860E-005  0.4895420E+03  0.7818608E-02  0.9501193E-01
         21   -1    0    0  501  502  0.00000000000E+00  0.00000000000E+00  0.30385607436E+03  0.30385607436E+03  0.00000000000E+00 0.  1.
          4   -1    0    0  502    0 -0.00000000000E+00 -0.00000000000E+00 -0.16574614055E+04  0.16574614055E+04  0.00000000000E+00 0.  1.
        -13    1    1    2    0    0 -0.52358869274E+02 -0.63546617514E+03 -0.10139979398E+04  0.11978107296E+04  0.10566000000E+00 0.  1.
         13    1    1    2    0    0 -0.40683821219E+02  0.35607051429E+03 -0.29801062421E+03  0.46610270087E+03  0.10566000000E+00 0. -1.
          4    1    1    2  501    0  0.93042690493E+02  0.27939566085E+03 -0.41596767165E+02  0.29740404940E+03  0.00000000000E+00 0.  1.
</event>
<event>
 5    1  0.2540860E-005  0.1639581E+03  0.7818608E-02  0.1088107E+00
         21   -1    0    0  501  502  0.00000000000E+00  0.00000000000E+00  0.17055558216E+03  0.17055558216E+03  0.00000000000E+00 0.  1.
         -4   -1    0    0    0  501 -0.00000000000E+00 -0.00000000000E+00 -0.31053884632E+03  0.31053884632E+03  0.00000000000E+00 0. -1.
        -13    1    1    2    0    0  0.15997041309E+03  0.27359534558E+02 -0.21483650660E+03  0.26924675101E+03  0.10566000000E+00 0.  1.
         13    1    1    2    0    0 -0.16507164675E+03 -0.47407316490E+02  0.48726336636E+02  0.17852274158E+03  0.10566000000E+00 0. -1.
         -4    1    1    2    0  502  0.51012336539E+01  0.20047781932E+02  0.26126905808E+02  0.33324935893E+02  0.00000000000E+00 0. -1.
</event>
<event>
 5    1  0.2540860E-005  0.5111280E+03  0.7818608E-02  0.9801057E-01
          4   -1    0    0  502    0 -0.00000000000E+00  0.00000000000E+00  0.98704599405E+03  0.98704599405E+03  0.00000000000E+00 0.  1.
         21   -1    0    0  501  502  0.00000000000E+00 -0.00000000000E+00 -0.40059088450E+03  0.40059088450E+03  0.00000000000E+00 0.  1.
        -13    1    1    2    0    0  0.14353161998E+03  0.56373296082E+03  0.83783588020E+02  0.58772091832E+03  0.10566000000E+00 0.  1.
         13    1    1    2    0    0 -0.13612302787E+02 -0.14904896116E+03  0.26567237460E+03  0.30493066326E+03  0.10566000000E+00 0. -1.
          4    1    1    2  501    0 -0.12991931720E+03 -0.41468399966E+03  0.23699914693E+03  0.49498529696E+03  0.00000000000E+00 0.  1.
</event>
<event>
 5    1  0.2540860E-005  0.4247267E+03  0.7818608E-02  0.9660234E-01
         -4   -1    0    0    0  501 -0.00000000000E+00  0.00000000000E+00  0.74324770285E+03  0.74324770285E+03  0.00000000000E+00 0. -1.
         21   -1    0    0  501  502  0.00000000000E+00 -0.00000000000E+00 -0.18435768025E+04  0.18435768025E+04  0.00000000000E+00 0. -1.
        -13    1    1    2    0    0  0.21782672666E+02 -0.46343302764E+03  0.47217893796E+03  0.66196496626E+03  0.10566000000E+00 0.  1.
         13    1    1    2    0    0 -0.36287916495E+03  0.24130720985E+03 -0.17556785161E+03  0.46982394529E+03  0.10566000000E+00 0. -1.
         -4    1    1    2    0  502  0.34109649229E+03  0.22212581778E+03 -0.13969401860E+04  0.14550355938E+04  0.00000000000E+00 0. -1.
</event>
<event>
 5    1  0.2540860E-005  0.9499934E+02  0.7818608E-02  0.1173105E+00
          4   -1    0    0  502    0 -0.00000000000E+00  0.00000000000E+00  0.12320591884E+03  0.12320591884E+03  0.00000000000E+00 0.  1.
         21   -1    0    0  501  502  0.00000000000E+00 -0.00000000000E+00 -0.25534937054E+03  0.25534937054E+03  0.00000000000E+00 0. -1.
        -13    1    1    2    0    0  0.77162507327E+02  0.58704252431E+02  0.89491185425E+02  0.13194288622E+03  0.10566000000E+00 0.  1.
         13    1    1    2    0    0 -0.51717167626E+02 -0.58042627014E+02 -0.19423041862E+03  0.20921060838E+03  0.10566000000E+00 0. -1.
          4    1    1    2  501    0 -0.25445339701E+02 -0.66162541714E+00 -0.27404218505E+02  0.37401794777E+02  0.00000000000E+00 0.  1.
</event>
<event>
 5    1  0.2540860E-005  0.5003092E+03  0.7818608E-02  0.9493860E-01
         21   -1    0    0  501  502  0.00000000000E+00  0.00000000000E+00  0.29491154364E+03  0.29491154364E+03  0.00000000000E+00 0.  1.
          4   -1    0    0  502    0 -0.00000000000E+00 -0.00000000000E+00 -0.21108123566E+04  0.21108123566E+04  0.00000000000E+00 0.  1.
        -13    1    1    2    0    0 -0.20930878738E+03  0.17303544194E+03 -0.75656365460E+03  0.80382834440E+03  0.10566000000E+00 0.  1.
         13    1    1    2    0    0 -0.46299418639E+03  0.86468671109E+02 -0.52123106423E+03  0.70251141001E+03  0.10566000000E+00 0. -1.
          4    1    1    2  501    0  0.67230297377E+03 -0.25950411305E+03 -0.53810609417E+03  0.89938414585E+03  0.00000000000E+00 0.  1.
</event>
<event>
 5    1  0.2540860E-005  0.2817532E+02  0.7818608E-02  0.1420187E+00
          4   -1    0    0  502    0 -0.00000000000E+00  0.00000000000E+00  0.36804419492E+02  0.36804419492E+02  0.00000000000E+00 0.  1.
         21   -1    0    0  501  502  0.00000000000E+00 -0.00000000000E+00 -0.51289874324E+03  0.51289874324E+03  0.00000000000E+00 0.  1.
        -13    1    1    2    0    0  0.28541682146E+02 -0.15855827866E+01  0.29986408722E+02  0.41428704597E+02  0.10566000000E+00 0.  1.
         13    1    1    2    0    0 -0.19540344226E+02 -0.10156096774E+02 -0.12629524504E+03  0.12820090265E+03  0.10566000000E+00 0. -1.
          4    1    1    2  501    0 -0.90013379199E+01  0.11741679561E+02 -0.37978548743E+03  0.38007355549E+03  0.00000000000E+00 0.  1.
</event>
<event>
 5    1  0.2540860E-005  0.4905592E+03  0.7818608E-02  0.9503904E-01
         -4   -1    0    0    0  501 -0.00000000000E+00  0.00000000000E+00  0.29812882695E+04  0.29812882695E+04  0.00000000000E+00 0. -1.
         21   -1    0    0  501  502  0.00000000000E+00 -0.00000000000E+00 -0.27460086759E+03  0.27460086759E+03  0.00000000000E+00 0. -1.
        -13    1    1    2    0    0 -0.20574237931E+03  0.43559236918E+03  0.16580615212E+04  0.17266263805E+04  0.10566000000E+00 0.  1.
         13    1    1    2    0    0 -0.40632771332E+03 -0.11833622858E+03  0.42126049092E+03  0.59713154831E+03  0.10566000000E+00 0. -1.
         -4    1    1    2    0  502  0.61207009264E+03 -0.31725614061E+03  0.62736538976E+03  0.93213120821E+03  0.00000000000E+00 0. -1.
</event>
<event>
 5    1  0.2540860E-005  0.4899898E+03  0.7818608E-02  0.9720584E-01
         -4   -1    0    0    0  501 -0.00000000000E+00  0.00000000000E+00  0.17203211234E+03  0.17203211234E+03  0.00000000000E+00 0. -1.
         21   -1    0    0  501  502  0.00000000000E+00 -0.00000000000E+00 -0.25664630500E+04  0.25664630500E+04  0.00000000000E+00 0. -1.
        -13    1    1    2    0    0 -0.72988004504E+02  0.21186596532E+03 -0.89051893817E+03  0.91828014596E+03  0.10566000000E+00 0.  1.
         13    1    1    2    0    0 -0.44512418840E+03 -0.96052419884E+02 -0.45035315296E+03  0.64045263994E+03  0.10566000000E+00 0. -1.
         -4    1    1    2    0  502  0.51811219290E+03 -0.11581354543E+03 -0.10535588465E+04  0.11797623764E+04  0.00000000000E+00 0. -1.
</event>
<event>
 5    1  0.2540860E-005  0.6671183E+02  0.7818608E-02  0.1235629E+00
         21   -1    0    0  501  502  0.00000000000E+00  0.00000000000E+00  0.38184590843E+03  0.38184590843E+03  0.00000000000E+00 0. -1.
          4   -1    0    0  502    0 -0.00000000000E+00 -0.00000000000E+00 -0.79144838362E+02  0.79144838362E+02  0.00000000000E+00 0.  1.
        -13    1    1    2    0    0 -0.24254644908E+02 -0.62697847660E+02 -0.60961814843E+02  0.90750547843E+02  0.10566000000E+00 0.  1.
         13    1    1    2    0    0  0.19205662594E+02  0.54037905196E+02  0.26883899481E+03  0.27488792074E+03  0.10566000000E+00 0. -1.
          4    1    1    2  501    0  0.50489823140E+01  0.86599424644E+01  0.94823890101E+02  0.95352278210E+02  0.00000000000E+00 0.  1.
</event>
<event>
 5    1  0.2540860E-005  0.1318180E+03  0.7818608E-02  0.1120569E+00
         21   -1    0    0  501  502  0.00000000000E+00  0.00000000000E+00  0.31454665315E+03  0.31454665315E+03  0.00000000000E+00 0.  1.
         -4   -1    0    0    0  501 -0.00000000000E+00 -0.00000000000E+00 -0.29325299306E+03  0.29325299306E+03  0.00000000000E+00 0. -1.
        -13    1    1    2    0    0  0.10659888524E+03 -0.53455445461E+02  0.20231272696E+03  0.23484304895E+03  0.10566000000E+00 0.  1.
         13    1    1    2    0    0 -0.11363377884E+03  0.68649610506E+02 -0.26015325859E+03  0.29207042615E+03  0.10566000000E+00 0. -1.
         -4    1    1    2    0  502  0.70348936006E+01 -0.15194165045E+02  0.79134191716E+02  0.80886171116E+02  0.00000000000E+00 0. -1.
</event>
<event>
 5    1  0.2540860E-005  0.3452670E+03  0.7818608E-02  0.9901991E-01
         -4   -1    0    0    0  501 -0.00000000000E+00  0.00000000000E+00  0.23314259726E+04  0.23314259726E+04  0.00000000000E+00 0. -1.
         21   -1    0    0  501  502  0.00000000000E+00 -0.00000000000E+00 -0.41955811399E+03  0.41955811399E+03  0.00000000000E+00 0. -1.
        -13    1    1    2    0    0 -0.55949245347E+02  0.32617275094E+03  0.16340469501E+04  0.16672217692E+04  0.10566000000E+00 0.  1.
         13    1    1    2    0    0  0.98637275383E+02 -0.63177597293E+03 -0.40139855540E+02  0.64068823248E+03  0.10566000000E+00 0. -1.
         -4    1    1    2    0  502 -0.42688030036E+02  0.30560322200E+03  0.31796076402E+03  0.44307408484E+03  0.00000000000E+00 0. -1.
</event>
<event>
 5    1  0.2540860E-005  0.4943294E+03  0.7818608E-02  0.9814573E-01
         21   -1    0    0  501  502  0.00000000000E+00  0.00000000000E+00  0.10546431194E+04  0.10546431194E+04  0.00000000000E+00 0. -1.
         -4   -1    0    0    0  501 -0.00000000000E+00 -0.00000000000E+00 -0.39647340643E+03  0.39647340643E+03  0.00000000000E+00 0. -1.
        -13    1    1    2    0    0  0.15778491156E+03  0.82921412067E+01 -0.80667547581E+00  0.15800474617E+03  0.10566000000E+00 0.  1.
         13    1    1    2    0    0 -0.10580384734E+03  0.48814770162E+03  0.61462858793E+03  0.79199175815E+03  0.10566000000E+00 0. -1.
         -4    1    1    2    0  502 -0.51981064220E+02 -0.49643984283E+03  0.44347800542E+02  0.50112002155E+03  0.00000000000E+00 0. -1.
</event>
<event>
 5    1  0.2540860E-005  0.1080488E+03  0.7818608E-02  0.1151884E+00
         21   -1    0    0  501  502  0.00000000000E+00  0.00000000000E+00  0.30886893442E+03  0.30886893442E+03  0.00000000000E+00 0. -1.
         -4   -1    0    0    0  501 -0.00000000000E+00 -0.00000000000E+00 -0.40442744447E+03  0.40442744447E+03  0.00000000000E+00 0. -1.
        -13    1    1    2    0    0 -0.77961344488E+02  0.18367666218E+02  0.14719822196E+01  0.80109426988E+02  0.10566000000E+00 0.  1.
         13    1    1    2    0    0  0.82956359451E+02 -0.82401555960E+02 -0.35165600285E+03  0.37058565745E+03  0.10566000000E+00 0. -1.
         -4    1    1    2    0  502 -0.49950149626E+01  0.64033889742E+02  0.25462551059E+03  0.26260129446E+03  0.00000000000E+00 0. -1.
</event>
<event>
 5    1  0.2540860E-005  0.1749896E+02  0.7818608E-02  0.1547952E+00
         21   -1    0    0  501  502  0.00000000000E+00  0.00000000000E+00  0.25733035354E+03  0.25733035354E+03  0.00000000000E+00 0. -1.
         -4   -1    0    0    0  501 -0.00000000000E+00 -0.00000000000E+00 -0.10143220607E+02  0.10143220607E+02  0.00000000000E+00 0. -1.
        -13    1    1    2    0    0  0.25005064597E+02  0.10951386343E+02  0.83273920647E+02  0.87634143701E+02  0.10566000000E+00 0.  1.
         13    1    1    2    0    0 -0.10058908890E+02 -0.13414781227E+02  0.16252778794E+01  0.16846088437E+02  0.10566000000E+00 0. -1.
         -4    1    1    2    0  502 -0.14946155707E+02  0.24633948841E+01  0.16228793440E+03  0.16299334201E+03  0.00000000000E+00 0. -1.
</event>
<event>
 5    1  0.2540860E-005  0.2391829E+03  0.7818608E-02  0.1036156E+00
         21   -1    0    0  501  502  0.00000000000E+00  0.00000000000E+00  0.65640562886E+02  0.65640562886E+02  0.00000000000E+00 0. -1.
          4   -1    0    0  502    0 -0.00000000000E+00 -0.00000000000E+00 -0.16509679381E+04  0.16509679381E+04  0.00000000000E+00 0.  1.
        -13    1    1    2    0    0 -0.19103265479E+03  0.14486072226E+03 -0.12574672288E+04  0.12801179425E+04  0.10566000000E+00 0.  1.
         13    1    1    2    0    0  0.15970954050E+03 -0.17991363544E+03 -0.26367862510E+03  0.35693484285E+03  0.10566000000E+00 0. -1.
          4    1    1    2  501    0  0.31323114294E+02  0.35052913185E+02 -0.64181521325E+02  0.79555715642E+02  0.00000000000E+00 0.  1.
</event>
<event>
 5    1  0.2540860E-005  0.5015223E+03  0.7818608E-02  0.9714215E-01
         -4   -1    0    0    0  501 -0.00000000000E+00  0.00000000000E+00  0.29785485040E+04  0.29785485040E+04  0.00000000000E+00 0. -1.
         21   -1    0    0  501  502  0.00000000000E+00 -0.00000000000E+00 -0.14109587342E+03  0.14109587342E+03  0.00000000000E+00 0. -1.
        -13    1    1    2    0    0  0.32523711591E+02 -0.21116049206E+03  0.86503580564E+03  0.89102946159E+03  0.10566000000E+00 0.  1.
         13    1    1    2    0    0  0.38973430982E+03  0.41281796000E+03  0.11458914785E+04  0.12788192961E+04  0.10566000000E+00 0. -1.
         -4    1    1    2    0  502 -0.42225802141E+03 -0.20165746794E+03  0.82652534646E+03  0.94979561979E+03  0.00000000000E+00 0. -1.
</event>
<event>
 5    1  0.2540860E-005  0.4912186E+03  0.7818608E-02  0.9853381E-01
         21   -1    0    0  501  502  0.00000000000E+00  0.00000000000E+00  0.33193983824E+03  0.33193983824E+03  0.00000000000E+00 0.  1.
          4   -1    0    0  502    0 -0.00000000000E+00 -0.00000000000E+00 -0.12267212480E+04  0.12267212480E+04  0.00000000000E+00 0.  1.
        -13    1    1    2    0    0 -0.23357424516E+02 -0.44093180942E+03 -0.42900307617E+03  0.61563794584E+03  0.10566000000E+00 0.  1.
         13    1    1    2    0    0 -0.12672884614E+03 -0.62200510653E+02 -0.38720310531E+03  0.41213512334E+03  0.10566000000E+00 0. -1.
          4    1    1    2  501    0  0.15008627065E+03  0.50313232007E+03 -0.78575228275E+02  0.53088801704E+03  0.00000000000E+00 0.  1.
</event>
<event>
 5    1  0.2540860E-005  0.6866694E+03  0.7818608E-02  0.9142543E-01
         21   -1    0    0  501  502  0.00000000000E+00  0.00000000000E+00  0.55972547099E+03  0.55972547099E+03  0.00000000000E+00 0. -1.
         -4   -1    0    0    0  501 -0.00000000000E+00 -0.00000000000E+00 -0.21317461438E+04  0.21317461438E+04  0.00000000000E+00 0. -1.
        -13    1    1    2    0    0  0.16215810335E+03  0.64772167132E+03 -0.12969930293E+04  0.14587767283E+04  0.10566000000E+00 0.  1.
         13    1    1    2    0    0 -0.49477287412E+03 -0.62501880462E+03 -0.38010974156E+03  0.88313766191E+03  0.10566000000E+00 0. -1.
         -4    1    1    2    0  502  0.33261477076E+03 -0.22702866693E+02  0.10508209805E+03  0.34955722452E+03  0.00000000000E+00 0. -1.
</event>
<event>
 5    1  0.2540860E-005  0.4676292E+03  0.7818608E-02  0.9880240E-01
          4   -1    0    0  502    0 -0.00000000000E+00  0.00000000000E+00  0.14150292680E+04  0.14150292680E+04  0.00000000000E+00 0.  1.
         21   -1    0    0  501  502  0.00000000000E+00 -0.00000000000E+00 -0.48584204415E+03  0.48584204415E+03  0.00000000000E+00 0.  1.
        -13    1    1    2    0    0 -0.30493718708E+03 -0.31231838403E+03 -0.11033781167E+03  0.45022650401E+03  0.10566000000E+00 0.  1.
         13    1    1    2    0    0  0.16786535902E+02 -0.14853168434E+03  0.86789146543E+03  0.88066966337E+03  0.10566000000E+00 0. -1.
          4    1    1    2  501    0  0.28815065117E+03  0.46085006838E+03  0.17163357012E+03  0.56997514480E+03  0.00000000000E+00 0.  1.
</event>
<event>
 5    1  0.2540860E-005  0.4968850E+03  0.7818608E-02  0.9712063E-01
          4   -1    0    0  502    0 -0.00000000000E+00  0.00000000000E+00  0.12914693661E+04  0.12914693661E+04  0.00000000000E+00 0.  1.
         21   -1    0    0  501  502  0.00000000000E+00 -0.00000000000E+00 -0.34776009583E+03  0.34776009583E+03  0.00000000000E+00 0.  1.
        -13    1    1    2    0    0  0.11763108570E+03 -0.41284368313E+03  0.50733278028E+03  0.66457771565E+03  0.10566000000E+00 0.  1.
         13    1    1    2    0    0  0.22085298334E+03 -0.14625751552E+02  0.36206211588E+03  0.42435708994E+03  0.10566000000E+00 0. -1.
          4    1    1    2  501    0 -0.33848406904E+03  0.42746943468E+03  0.74314374096E+02  0.55029465633E+03  0.00000000000E+00 0.  1.
</event>
<event>
 5    1  0.2540860E-005  0.4947665E+03  0.7818608E-02  0.9866758E-01
         21   -1    0    0  501  502  0.00000000000E+00  0.00000000000E+00  0.27009575710E+03  0.27009575710E+03  0.00000000000E+00 0. -1.
         -4   -1    0    0    0  501 -0.00000000000E+00 -0.00000000000E+00 -0.14143875269E+04  0.14143875269E+04  0.00000000000E+00 0. -1.
        -13    1    1    2    0    0  0.28622400765E+02 -0.12892169538E+03 -0.37989762605E+03  0.40219679611E+03  0.10566000000E+00 0.  1.
         13    1    1    2    0    0  0.46563074609E+03  0.18547387289E+03 -0.53932673390E+03  0.73626482076E+03  0.10566000000E+00 0. -1.
         -4    1    1    2    0  502 -0.49425314686E+03 -0.56552177509E+02 -0.22506740983E+03  0.54602166708E+03  0.00000000000E+00 0. -1.
</event>
<event>
 5    1  0.2540860E-005  0.1121275E+03  0.7818608E-02  0.1146353E+00
          4   -1    0    0  502    0 -0.00000000000E+00  0.00000000000E+00  0.25413845877E+03  0.25413845877E+03  0.00000000000E+00 0.  1.
         21   -1    0    0  501  502  0.00000000000E+00 -0.00000000000E+00 -0.17941569657E+03  0.17941569657E+03  0.00000000000E+00 0. -1.
        -13    1    1    2    0    0 -0.13399928724E+03  0.34985799250E+02  0.10923472637E+03  0.17638608715E+03  0.10566000000E+00 0.  1.
         13    1    1    2    0    0  0.87991561368E+02  0.70486416788E+02  0.40512997325E+02  0.11980051728E+03  0.10566000000E+00 0. -1.
          4    1    1    2  501    0  0.46007725871E+02 -0.10547221604E+03 -0.75024961498E+02  0.13736755091E+03  0.00000000000E+00 0.  1.
</event>
<event>
 5    1  0.2540860E-005  0.5956804E+03  0.7818608E-02  0.9289829E-01
         -4   -1    0    0    0  501 -0.00000000000E+00  0.00000000000E+00  0.64736346449E+03  0.64736346449E+03  0.00000000000E+00 0. -1.
         21   -1    0    0  501  502  0.00000000000E+00 -0.00000000000E+00 -0.11913800037E+04  0.11913800037E+04  0.00000000000E+00 0. -1.
        -13    1    1    2    0    0 -0.46178872999E+03 -0.30054444053E+03  0.26093199767E+02  0.55159465019E+03  0.10566000000E+00 0.  1.
         13    1    1    2    0    0  0.37147626104E+03  0.67095828307E+03 -0.44063672698E+03  0.88450006583E+03  0.10566000000E+00 0. -1.
         -4    1    1    2    0  502  0.90312468954E+02 -0.37041384254E+03 -0.12947301202E+03  0.40264875218E+03  0.00000000000E+00 0. -1.
</event>
<event>
 5    1  0.2540860E-005  0.1828513E+03  0.7818608E-02  0.1072574E+00
         21   -1    0    0  501  502  0.00000000000E+00  0.00000000000E+00  0.11162539784E+03  0.11162539784E+03  0.00000000000E+00 0.  1.
          4   -1    0    0  502    0 -0.00000000000E+00 -0.00000000000E+00 -0.18068131605E+04  0.18068131605E+04  0.00000000000E+00 0.  1.
        -13    1    1    2    0    0 -0.16521494608E+03  0.15159553412E+03 -0.11024835781E+04  0.11250543256E+04  0.10566000000E+00 0.  1.
         13    1    1    2    0    0  0.59920544665E+02 -0.14495558164E+03 -0.65319903852E+03  0.67176750994E+03  0.10566000000E+00 0. -1.
          4    1    1    2  501    0  0.10529440141E+03 -0.66399524762E+01  0.60494853896E+02  0.12161672289E+03  0.00000000000E+00 0.  1.
</event>
<event>
 5    1  0.2540860E-005  0.3913140E+03  0.7818608E-02  0.9927120E-01
         -4   -1    0    0    0  501 -0.00000000000E+00  0.00000000000E+00  0.26400408401E+04  0.26400408401E+04  0.00000000000E+00 0. -1.
         21   -1    0    0  501  502  0.00000000000E+00 -0.00000000000E+00 -0.11298423432E+03  0.11298423432E+03  0.00000000000E+00 0. -1.
        -13    1    1    2    0    0  0.18138197779E+03 -0.12110030375E+03  0.60276015806E+03  0.64100274940E+03  0.10566000000E+00 0.  1.
         13    1    1    2    0    0  0.26475669127E+03  0.12478162637E+03  0.13677805259E+04  0.13987459161E+04  0.10566000000E+00 0. -1.
         -4    1    1    2    0  502 -0.44613866906E+03 -0.36813226238E+01  0.55651592189E+03  0.71327640889E+03  0.00000000000E+00 0. -1.
</event>
<event>
 5    1  0.2540860E-005  0.4543151E+03  0.7818608E-02  0.9763463E-01
         -4   -1    0    0    0  501 -0.00000000000E+00  0.00000000000E+00  0.55034166849E+03  0.55034166849E+03  0.00000000000E+00 0. -1.
         21   -1    0    0  501  502  0.00000000000E+00 -0.00000000000E+00 -0.76357058127E+03  0.76357058127E+03  0.00000000000E+00 0. -1.
        -13    1    1    2    0    0  0.12383474764E+03 -0.20841738646E+03  0.65026891830E+02  0.25100071619E+03  0.10566000000E+00 0.  1.
         13    1    1    2    0    0 -0.42693019905E+03 -0.15478008428E+03  0.90574237113E+02  0.46306584083E+03  0.10566000000E+00 0. -1.
         -4    1    1    2    0  502  0.30309545141E+03  0.36319747074E+03 -0.36883004172E+03  0.59984569274E+03  0.00000000000E+00 0. -1.
</event>
<event>
 5    1  0.2540860E-005  0.3557456E+03  0.7818608E-02  0.9874434E-01
          4   -1    0    0  502    0 -0.00000000000E+00  0.00000000000E+00  0.11018062981E+04  0.11018062981E+04  0.00000000000E+00 0.  1.
         21   -1    0    0  501  502  0.00000000000E+00 -0.00000000000E+00 -0.54539963369E+03  0.54539963369E+03  0.00000000000E+00 0.  1.
        -13    1    1    2    0    0 -0.21747028649E+03  0.13916272541E+03 -0.36645244905E+03  0.44827112134E+03  0.10566000000E+00 0.  1.
         13    1    1    2    0    0  0.33988216225E+03  0.19485847217E+03  0.35412437711E+03  0.52810396138E+03  0.10566000000E+00 0. -1.
          4    1    1    2  501    0 -0.12241187576E+03 -0.33402119758E+03  0.56873473639E+03  0.67083084912E+03  0.00000000000E+00 0.  1.
</event>
<event>
 5    1  0.2540860E-005  0.4422020E+02  0.7818608E-02  0.1328725E+00
         21   -1    0    0  501  502  0.00000000000E+00  0.00000000000E+00  0.19349473918E+03  0.19349473918E+03  0.00000000000E+00 0.  1.
          4   -1    0    0  502    0 -0.00000000000E+00 -0.00000000000E+00 -0.16656913821E+03  0.16656913821E+03  0.00000000000E+00 0.  1.
        -13    1    1    2    0    0  0.43945228875E+02  0.17451898375E+02 -0.13250403037E+03  0.14068788550E+03  0.10566000000E+00 0.  1.
         13    1    1    2    0    0 -0.33509955670E+01 -0.35541394057E+02 -0.15478243562E+02  0.38910243518E+02  0.10566000000E+00 0. -1.
          4    1    1    2  501    0 -0.40594233308E+02  0.18089495682E+02  0.17490787491E+03  0.18046574837E+03  0.00000000000E+00 0.  1.
</event>
<event>
 5    1  0.2540860E-005  0.5273263E+02  0.7818608E-02  0.1287530E+00
          4   -1    0    0  502    0 -0.00000000000E+00  0.00000000000E+00  0.80068479026E+02  0.80068479026E+02  0.00000000000E+00 0.  1.
         21   -1    0    0  501  502  0.00000000000E+00 -0.00000000000E+00 -0.12157371644E+03  0.12157371644E+03  0.00000000000E+00 0.  1.
        -13    1    1    2    0    0 -0.15099859320E+02 -0.72766903446E+02  0.27407643452E+02  0.79209961951E+02  0.10566000000E+00 0.  1.
         13    1    1    2    0    0 -0.23776421497E+02  0.39793547606E+02 -0.16206387215E+02  0.49107054492E+02  0.10566000000E+00 0. -1.
          4    1    1    2  501    0  0.38876280817E+02  0.32973355840E+02 -0.52706493651E+02  0.73325179021E+02  0.00000000000E+00 0.  1.
</event>
<event>
 5    1  0.2676031E-005  0.7497880E+03  0.7818608E-02  0.9053722E-01
         21   -1    0    0  501  502  0.00000000000E+00  0.00000000000E+00  0.77350121688E+03  0.77350121688E+03  0.00000000000E+00 0.  1.
         -4   -1    0    0    0  501 -0.00000000000E+00 -0.00000000000E+00 -0.18676724424E+04  0.18676724424E+04  0.00000000000E+00 0. -1.
        -13    1    1    2    0    0  0.83502798419E+03 -0.26216529156E+03 -0.97750794740E+03  0.13120686617E+04  0.10566000000E+00 0.  1.
         13    1    1    2    0    0 -0.48177016518E+03  0.44902284520E+03 -0.45911656556E+03  0.80281507179E+03  0.10566000000E+00 0. -1.
         -4    1    1    2    0  502 -0.35325781901E+03 -0.18685755363E+03  0.34245328740E+03  0.52628992589E+03  0.00000000000E+00 0. -1.
</event>
<event>
 5    1  0.2540860E-005  0.4750684E+03  0.7818608E-02  0.9540644E-01
         21   -1    0    0  501  502  0.00000000000E+00  0.00000000000E+00  0.53026435221E+03  0.53026435221E+03  0.00000000000E+00 0.  1.
         -4   -1    0    0    0  501 -0.00000000000E+00 -0.00000000000E+00 -0.11834750333E+04  0.11834750333E+04  0.00000000000E+00 0. -1.
        -13    1    1    2    0    0 -0.14456908779E+03 -0.44134817919E+03 -0.68612688759E+02  0.46946368192E+03  0.10566000000E+00 0.  1.
         13    1    1    2    0    0 -0.31826843264E+03  0.52280599131E+03 -0.43569288889E+03  0.75129834577E+03  0.10566000000E+00 0. -1.
         -4    1    1    2    0  502  0.46283752042E+03 -0.81457812115E+02 -0.14890510340E+03  0.49297735778E+03  0.00000000000E+00 0. -1.
</event>
<event>
 5    1  0.2540860E-005  0.4909360E+03  0.7818608E-02  0.9762118E-01
         -4   -1    0    0    0  501 -0.00000000000E+00  0.00000000000E+00  0.21303440333E+04  0.21303440333E+04  0.00000000000E+00 0. -1.
         21   -1    0    0  501  502  0.00000000000E+00 -0.00000000000E+00 -0.18121069944E+03  0.18121069944E+03  0.00000000000E+00 0. -1.
        -13    1    1    2    0    0  0.15075402492E+03 -0.12053497239E+03  0.49778907921E+03  0.53390020991E+03  0.10566000000E+00 0.  1.
         13    1    1    2    0    0  0.43254669478E+03  0.57224869773E+02  0.54782359432E+03  0.70034422289E+03  0.10566000000E+00 0. -1.
         -4    1    1    2    0  502 -0.58330071970E+03  0.63310102615E+02  0.90352066036E+03  0.10773103000E+04  0.00000000000E+00 0. -1.
</event>
<event>
 5    1  0.2540860E-005  0.4541210E+03  0.7818608E-02  0.9892738E-01
         21   -1    0    0  501  502  0.00000000000E+00  0.00000000000E+00  0.10843605451E+03  0.10843605451E+03  0.00000000000E+00 0.  1.
          4   -1    0    0  502    0 -0.00000000000E+00 -0.00000000000E+00 -0.29255607519E+04  0.29255607519E+04  0.00000000000E+00 0.  1.
        -13    1    1    2    0    0 -0.36109579618E+03  0.14174633788E+03 -0.16560363686E+04  0.17008640933E+04  0.10566000000E+00 0.  1.
         13    1    1    2    0    0 -0.12967171529E+03 -0.87648714649E+02 -0.35303761439E+03  0.38617692741E+03  0.10566000000E+00 0. -1.
          4    1    1    2  501    0  0.49076751146E+03 -0.54097623231E+02 -0.80805071431E+03  0.94695578569E+03  0.00000000000E+00 0.  1.
</event>
<event>
 5    1  0.2540860E-005  0.5285239E+03  0.7818608E-02  0.9417553E-01
         -4   -1    0    0    0  501 -0.00000000000E+00  0.00000000000E+00  0.82760772524E+03  0.82760772524E+03  0.00000000000E+00 0. -1.
         21   -1    0    0  501  502  0.00000000000E+00 -0.00000000000E+00 -0.93766058998E+03  0.93766058998E+03  0.00000000000E+00 0. -1.
        -13    1    1    2    0    0 -0.47421651195E+03 -0.29356872494E+01  0.35660835186E+03  0.59334597517E+03  0.10566000000E+00 0.  1.
         13    1    1    2    0    0  0.71194556522E+03 -0.42337502030E+02 -0.82593314085E+02  0.71796978948E+03  0.10566000000E+00 0. -1.
         -4    1    1    2    0  502 -0.23772905326E+03  0.45273189280E+02 -0.38406790251E+03  0.45395255057E+03  0.00000000000E+00 0. -1.
</event>
<event>
 5    1  0.2540860E-005  0.7510508E+02  0.7818608E-02  0.1213936E+00
         21   -1    0    0  501  502  0.00000000000E+00  0.00000000000E+00  0.19473128175E+03  0.19473128175E+03  0.00000000000E+00 0.  1.
         -4   -1    0    0    0  501 -0.00000000000E+00 -0.00000000000E+00 -0.10910785211E+03  0.10910785211E+03  0.00000000000E+00 0. -1.
        -13    1    1    2    0    0  0.77450034269E+02 -0.66412325993E+01  0.51070627586E+02  0.93009859395E+02  0.10566000000E+00 0.  1.
         13    1    1    2    0    0 -0.70571857893E+02  0.25360854373E+02 -0.71083534102E+02  0.10332686023E+03  0.10566000000E+00 0. -1.
         -4    1    1    2    0  502 -0.68781763761E+01 -0.18719621774E+02  0.10563633616E+03  0.10750241424E+03  0.00000000000E+00 0. -1.
</event>
<event>
 5    1  0.2766390E-005  0.3641727E+03  0.7818608E-02  0.1003094E+00
          4   -1    0    0  502    0 -0.00000000000E+00  0.00000000000E+00  0.12788548267E+04  0.12788548267E+04  0.00000000000E+00 0.  1.
         21   -1    0    0  501  502  0.00000000000E+00 -0.00000000000E+00 -0.32683912531E+03  0.32683912531E+03  0.00000000000E+00 0.  1.
        -13    1    1    2    0    0 -0.42733487448E+01 -0.24844674285E+03  0.71035190613E+03  0.75255822848E+03  0.10566000000E+00 0.  1.
         13    1    1    2    0    0  0.15873502838E+03 -0.10847616484E+03  0.39165731969E+03  0.43630190786E+03  0.10566000000E+00 0. -1.
          4    1    1    2  501    0 -0.15446167964E+03  0.35692290769E+03 -0.14999352443E+03  0.41683381567E+03  0.00000000000E+00 0.  1.
</event>
<event>
 5    1  0.2540860E-005  0.4497835E+03  0.7818608E-02  0.9939807E-01
         21   -1    0    0  501  502  0.00000000000E+00  0.00000000000E+00  0.43906367086E+04  0.43906367086E+04  0.00000000000E+00 0.  1.
          4   -1    0    0  502    0 -0.00000000000E+00 -0.00000000000E+00 -0.12742738855E+03  0.12742738855E+03  0.00000000000E+00 0.  1.
        -13    1    1    2    0    0 -0.17453750197E+03  0.50735860063E+03  0.18979617855E+04  0.19723425260E+04  0.10566000000E+00 0.  1.
         13    1    1    2    0    0 -0.23692906446E+01 -0.13766946758E+03 -0.74473979834E+01  0.13789115542E+03  0.10566000000E+00 0. -1.
          4    1    1    2  501    0  0.17690679262E+03 -0.36968913304E+03  0.23726949325E+04  0.24078304158E+04  0.00000000000E+00 0.  1.
</event>
<event>
 5    1  0.2540860E-005  0.1827334E+03  0.7818608E-02  0.1072664E+00
         21   -1    0    0  501  502  0.00000000000E+00  0.00000000000E+00  0.83454355199E+03  0.83454355199E+03  0.00000000000E+00 0.  1.
         -4   -1    0    0    0  501 -0.00000000000E+00 -0.00000000000E+00 -0.87895613142E+02  0.87895613142E+02  0.00000000000E+00 0. -1.
        -13    1    1    2    0    0 -0.10456641561E+02  0.18907983527E+03  0.34137377816E+03  0.39038006230E+03  0.10566000000E+00 0.  1.
         13    1    1    2    0    0 -0.38591952728E+01 -0.18049637654E+03  0.65769576166E+02  0.19214443434E+03  0.10566000000E+00 0. -1.
         -4    1    1    2    0  502  0.14315836834E+02 -0.85834587283E+01  0.33950458452E+03  0.33991466849E+03  0.00000000000E+00 0. -1.
</event>
<event>
 5    1  0.2540860E-005  0.4351158E+03  0.7818608E-02  0.1006260E+00
         21   -1    0    0  501  502  0.00000000000E+00  0.00000000000E+00  0.13203143865E+03  0.13203143865E+03  0.00000000000E+00 0. -1.
         -4   -1    0    0    0  501 -0.00000000000E+00 -0.00000000000E+00 -0.24113837852E+04  0.24113837852E+04  0.00000000000E+00 0. -1.
        -13    1    1    2    0    0 -0.72052412692E+02  0.71783970538E+02 -0.37521742740E+03  0.38875778782E+03  0.10566000000E+00 0.  1.
         13    1    1    2    0    0 -0.41556478463E+03 -0.53525545325E+02 -0.42373327823E+03  0.59591020839E+03  0.10566000000E+00 0. -1.
         -4    1    1    2    0  502  0.48761719732E+03 -0.18258425213E+02 -0.14804016409E+04  0.15587472277E+04  0.00000000000E+00 0. -1.
</event>
<event>
 5    1  0.2540860E-005  0.1230918E+03  0.7818608E-02  0.1131160E+00
         -4   -1    0    0    0  501 -0.00000000000E+00  0.00000000000E+00  0.58378181165E+02  0.58378181165E+02  0.00000000000E+00 0. -1.
         21   -1    0    0  501  502  0.00000000000E+00 -0.00000000000E+00 -0.12101179234E+04  0.12101179234E+04  0.00000000000E+00 0.  1.
        -13    1    1    2    0    0 -0.13236371355E+03  0.12700608972E+02 -0.69455841775E+03  0.70717244359E+03  0.10566000000E+00 0.  1.
         13    1    1    2    0    0  0.11629086070E+03 -0.38087441690E+02 -0.21059691957E+02  0.12416818951E+03  0.10566000000E+00 0. -1.
         -4    1    1    2    0  502  0.16072852847E+02  0.25386832718E+02 -0.43612163255E+03  0.43715547149E+03  0.00000000000E+00 0. -1.
</event>
<event>
 5    1  0.2540860E-005  0.2739864E+03  0.7818608E-02  0.1018661E+00
         21   -1    0    0  501  502  0.00000000000E+00  0.00000000000E+00  0.66866448518E+03  0.66866448518E+03  0.00000000000E+00 0.  1.
         -4   -1    0    0    0  501 -0.00000000000E+00 -0.00000000000E+00 -0.24073703349E+03  0.24073703349E+03  0.00000000000E+00 0. -1.
        -13    1    1    2    0    0  0.14514946040E+03 -0.19359786374E+03  0.39210516023E+03  0.46075477918E+03  0.10566000000E+00 0.  1.
         13    1    1    2    0    0 -0.17237248969E+03  0.22227842211E+03 -0.10662426349E+03  0.30081342534E+03  0.10566000000E+00 0. -1.
         -4    1    1    2    0  502  0.27223029285E+02 -0.28680558377E+02  0.14244655495E+03  0.14783331414E+03  0.00000000000E+00 0. -1.
</event>
<event>
 5    1  0.2540860E-005  0.4040720E+03  0.7818608E-02  0.9899072E-01
          4   -1    0    0  502    0 -0.00000000000E+00  0.00000000000E+00  0.12064747848E+04  0.12064747848E+04  0.00000000000E+00 0.  1.
         21   -1    0    0  501  502  0.00000000000E+00 -0.00000000000E+00 -0.29922164659E+03  0.29922164659E+03  0.00000000000E+00 0.  1.
        -13    1    1    2    0    0 -0.31734352532E+03 -0.26717397310E+03  0.30474195135E+03  0.51473926705E+03  0.10566000000E+00 0.  1.
         13    1    1    2    0    0  0.17603666232E+03 -0.12776085760E+03  0.51973409424E+03  0.56341395359E+03  0.10566000000E+00 0. -1.
          4    1    1    2  501    0  0.14130686299E+03  0.39493483070E+03  0.82777092661E+02  0.42754321080E+03  0.00000000000E+00 0.  1.
</event>
<event>
 5    1  0.2540860E-005  0.9690496E+02  0.7818608E-02  0.1186607E+00
         21   -1    0    0  501  502  0.00000000000E+00  0.00000000000E+00  0.21970577907E+03  0.21970577907E+03  0.00000000000E+00 0.  1.
         -4   -1    0    0    0  501 -0.00000000000E+00 -0.00000000000E+00 -0.17032721740E+03  0.17032721740E+03  0.00000000000E+00 0. -1.
        -13    1    1    2    0    0  0.61884420737E+02  0.20289505182E+02  0.59498127788E+02  0.88212152931E+02  0.10566000000E+00 0.  1.
         13    1    1    2    0    0  0.63811407242E+01  0.57816555530E+02 -0.13052083791E+03  0.14289567293E+03  0.10566000000E+00 0. -1.
         -4    1    1    2    0  502 -0.68265561461E+02 -0.78106060712E+02  0.12040127179E+03  0.15892517060E+03  0.00000000000E+00 0. -1.
</event>
<event>
 5    1  0.2540860E-005  0.2743215E+03  0.7818608E-02  0.1018506E+00
         21   -1    0    0  501  502  0.00000000000E+00  0.00000000000E+00  0.34400964617E+03  0.34400964617E+03  0.00000000000E+00 0. -1.
         -4   -1    0    0    0  501 -0.00000000000E+00 -0.00000000000E+00 -0.13514272164E+04  0.13514272164E+04  0.00000000000E+00 0. -1.
        -13    1    1    2    0    0 -0.12061366587E+03  0.24450272006E+03 -0.45516911379E+03  0.53057343490E+03  0.10566000000E+00 0.  1.
         13    1    1    2    0    0  0.37125512071E+02 -0.30046397314E+03  0.22747781084E+03  0.37868597597E+03  0.10566000000E+00 0. -1.
         -4    1    1    2    0  502  0.83488153799E+02  0.55961253087E+02 -0.77972626730E+03  0.78617745171E+03  0.00000000000E+00 0. -1.
</event>
<event>
 5    1  0.2540860E-005  0.4582544E+03  0.7818608E-02  0.9798738E-01
          4   -1    0    0  502    0 -0.00000000000E+00  0.00000000000E+00  0.16156465527E+04  0.16156465527E+04  0.00000000000E+00 0.  1.
         21   -1    0    0  501  502  0.00000000000E+00 -0.00000000000E+00 -0.23752950772E+03  0.23752950772E+03  0.00000000000E+00 0.  1.
        -13    1    1    2    0    0 -0.54073736176E+02  0.51559995934E+03  0.23853313615E+03  0.57067096932E+03  0.10566000000E+00 0.  1.
         13    1    1    2    0    0  0.62346414698E+02 -0.19983460940E+03  0.19344102085E+03  0.28502699214E+03  0.10566000000E+00 0. -1.
          4    1    1    2  501    0 -0.82726785223E+01 -0.31576534994E+03  0.94614288794E+03  0.99747809892E+03  0.00000000000E+00 0.  1.
</event>
<event>
 5    1  0.2540860E-005  0.2928105E+03  0.7818608E-02  0.1023530E+00
          4   -1    0    0  502    0 -0.00000000000E+00  0.00000000000E+00  0.12935447028E+04  0.12935447028E+04  0.00000000000E+00 0.  1.
         21   -1    0    0  501  502  0.00000000000E+00 -0.00000000000E+00 -0.13337404425E+03  0.13337404425E+03  0.00000000000E+00 0. -1.
        -13    1    1    2    0    0 -0.10160136089E+03  0.17167133720E+03  0.62882874561E+03  0.65971166961E+03  0.10566000000E+00 0.  1.
         13    1    1    2    0    0  0.51516622610E+02  0.18558185345E+03  0.19123440905E+03  0.27141333259E+03  0.10566000000E+00 0. -1.
          4    1    1    2  501    0  0.50084738283E+02 -0.35725319065E+03  0.34010750387E+03  0.49579374484E+03  0.00000000000E+00 0.  1.
</event>
<event>
 5    1  0.2540860E-005  0.4324390E+03  0.7818608E-02  0.9755448E-01
         -4   -1    0    0    0  501 -0.00000000000E+00  0.00000000000E+00  0.97245188022E+03  0.97245188022E+03  0.00000000000E+00 0. -1.
         21   -1    0    0  501  502  0.00000000000E+00 -0.00000000000E+00 -0.51097875419E+03  0.51097875419E+03  0.00000000000E+00 0. -1.
        -13    1    1    2    0    0  0.22659148009E+03  0.17934634574E+03  0.36719162948E+03  0.46726706979E+03  0.10566000000E+00 0.  1.
         13    1    1    2    0    0 -0.43263226822E+02 -0.48116054081E+03 -0.23150577647E+03  0.53570711077E+03  0.10566000000E+00 0. -1.
         -4    1    1    2    0  502 -0.18332825327E+03  0.30181419508E+03  0.32578727301E+03  0.48045645386E+03  0.00000000000E+00 0. -1.
</event>
<event>
 5    1  0.2540860E-005  0.3380259E+02  0.7818608E-02  0.1391658E+00
          4   -1    0    0  502    0 -0.00000000000E+00  0.00000000000E+00  0.21091901578E+03  0.21091901578E+03  0.00000000000E+00 0.  1.
         21   -1    0    0  501  502  0.00000000000E+00 -0.00000000000E+00 -0.64751584085E+02  0.64751584085E+02  0.00000000000E+00 0. -1.
        -13    1    1    2    0    0 -0.53287973760E+02  0.15463321149E+02  0.19101017580E+03  0.19890606042E+03  0.10566000000E+00 0.  1.
         13    1    1    2    0    0  0.26059120560E+02  0.25945755703E+01 -0.32733382335E+02  0.41920103410E+02  0.10566000000E+00 0. -1.
          4    1    1    2  501    0  0.27228853200E+02 -0.18057896719E+02 -0.12109361767E+02  0.34844436039E+02  0.00000000000E+00 0.  1.
</event>
<event>
 5    1  0.2540860E-005  0.5668348E+03  0.7818608E-02  0.9342402E-01
         21   -1    0    0  501  502  0.00000000000E+00  0.00000000000E+00  0.16098080127E+03  0.16098080127E+03  0.00000000000E+00 0.  1.
         -4   -1    0    0    0  501 -0.00000000000E+00 -0.00000000000E+00 -0.25322997434E+04  0.25322997434E+04  0.00000000000E+00 0. -1.
        -13    1    1    2    0    0  0.27789979904E+00 -0.58642765115E+03 -0.10789779270E+04  0.12280435030E+04  0.10566000000E+00 0.  1.
         13    1    1    2    0    0  0.54219879689E+02  0.55040257843E+03 -0.12856536913E+04  0.13995671541E+04  0.10566000000E+00 0. -1.
         -4    1    1    2    0  502 -0.54497779488E+02  0.36025072719E+02 -0.66873238854E+01  0.65669887576E+02  0.00000000000E+00 0. -1.
</event>
<event>
 5    1  0.2540860E-005  0.2358293E+02  0.7818608E-02  0.1538498E+00
          4   -1    0    0  502    0 -0.00000000000E+00  0.00000000000E+00  0.34830937146E+02  0.34830937146E+02  0.00000000000E+00 0.  1.
         21   -1    0    0  501  502  0.00000000000E+00 -0.00000000000E+00 -0.12608233536E+03  0.12608233536E+03  0.00000000000E+00 0. -1.
        -13    1    1    2    0    0 -0.14811612062E+01  0.13392056359E+02  0.17608924239E+02  0.22172649570E+02  0.10566000000E+00 0.  1.
         13    1    1    2    0    0  0.41120920922E+02 -0.19674329772E+02 -0.63587765354E+02  0.78239532566E+02  0.10566000000E+00 0. -1.
          4    1    1    2  501    0 -0.39639759716E+02  0.62822734122E+01 -0.45272557101E+02  0.60501090370E+02  0.00000000000E+00 0.  1.
</event>
<event>
 5    1  0.2540860E-005  0.5049351E+03  0.7818608E-02  0.9467221E-01
         21   -1    0    0  501  502  0.00000000000E+00  0.00000000000E+00  0.55981408755E+03  0.55981408755E+03  0.00000000000E+00 0. -1.
         -4   -1    0    0    0  501 -0.00000000000E+00 -0.00000000000E+00 -0.12373800597E+04  0.12373800597E+04  0.00000000000E+00 0. -1.
        -13    1    1    2    0    0  0.14183969096E+03  0.45642117004E+03 -0.33383236572E+03  0.58299471864E+03  0.10566000000E+00 0.  1.
         13    1    1    2    0    0  0.87948017591E+02 -0.54488668467E+03 -0.62935624295E+03  0.83709356982E+03  0.10566000000E+00 0. -1.
         -4    1    1    2    0  502 -0.22978770855E+03  0.88465514633E+02  0.28562263649E+03  0.37710585882E+03  0.00000000000E+00 0. -1.
</event>
<event>
 5    1  0.2540860E-005  0.4562895E+03  0.7818608E-02  0.9768812E-01
          4   -1    0    0  502    0 -0.00000000000E+00  0.00000000000E+00  0.78164365961E+03  0.78164365961E+03  0.00000000000E+00 0.  1.
         21   -1    0    0  501  502  0.00000000000E+00 -0.00000000000E+00 -0.73755188939E+03  0.73755188939E+03  0.00000000000E+00 0.  1.
        -13    1    1    2    0    0  0.63219572559E+02 -0.27668885315E+03  0.22689925830E+03  0.36336857376E+03  0.10566000000E+00 0.  1.
         13    1    1    2    0    0  0.34023046988E+02 -0.23246145001E+03  0.34412406689E+03  0.41667406692E+03  0.10566000000E+00 0. -1.
          4    1    1    2  501    0 -0.97242619547E+02  0.50915030316E+03 -0.52693155497E+03  0.73915290833E+03  0.00000000000E+00 0.  1.
</event>
<event>
 5    1  0.2540860E-005  0.1415148E+03  0.7818608E-02  0.1109795E+00
          4   -1    0    0  502    0 -0.00000000000E+00  0.00000000000E+00  0.20453660635E+03  0.20453660635E+03  0.00000000000E+00 0.  1.
         21   -1    0    0  501  502  0.00000000000E+00 -0.00000000000E+00 -0.24231371955E+03  0.24231371955E+03  0.00000000000E+00 0.  1.
        -13    1    1    2    0    0 -0.76958507918E+02  0.11305063523E+03  0.93057878134E+02  0.16541716330E+03  0.10566000000E+00 0.  1.
         13    1    1    2    0    0  0.10756654275E+03 -0.10978049547E+03 -0.70272739229E+01  0.15385614076E+03  0.10566000000E+00 0. -1.
          4    1    1    2  501    0 -0.30608034837E+02 -0.32701397589E+01 -0.12380771742E+03  0.12757702184E+03  0.00000000000E+00 0.  1.
</event>
<event>
 5    1  0.2540860E-005  0.1177501E+03  0.7818608E-02  0.1138128E+00
         21   -1    0    0  501  502  0.00000000000E+00  0.00000000000E+00  0.40548086354E+03  0.40548086354E+03  0.00000000000E+00 0.  1.
          4   -1    0    0  502    0 -0.00000000000E+00 -0.00000000000E+00 -0.48998301574E+02  0.48998301574E+02  0.00000000000E+00 0.  1.
        -13    1    1    2    0    0 -0.54609412656E+02 -0.12629819869E+03  0.14025987476E+03  0.19648477441E+03  0.10566000000E+00 0.  1.
         13    1    1    2    0    0  0.47139453917E+02  0.88231012695E+02  0.13541087027E+03  0.16835365951E+03  0.10566000000E+00 0. -1.
          4    1    1    2  501    0  0.74699587393E+01  0.38067185999E+02  0.80811816934E+02  0.89640731198E+02  0.00000000000E+00 0.  1.
</event>
<event>
 5    1  0.2540860E-005  0.1359246E+03  0.7818608E-02  0.1115888E+00
         -4   -1    0    0    0  501 -0.00000000000E+00  0.00000000000E+00  0.27766050216E+03  0.27766050216E+03  0.00000000000E+00 0. -1.
         21   -1    0    0  501  502  0.00000000000E+00 -0.00000000000E+00 -0.40972886173E+03  0.40972886173E+03  0.00000000000E+00 0. -1.
        -13    1    1    2    0    0 -0.13732680650E+03  0.43233374197E+02 -0.18424409524E+03  0.23382402405E+03  0.10566000000E+00 0.  1.
         13    1    1    2    0    0  0.10957678327E+03  0.89313509310E+02  0.20522787038E+03  0.24920366033E+03  0.10566000000E+00 0. -1.
         -4    1    1    2    0  502  0.27750023226E+02 -0.13254688351E+03 -0.15305213471E+03  0.20436167952E+03  0.00000000000E+00 0. -1.
</event>
<event>
 5    1  0.2540860E-005  0.4774842E+03  0.7818608E-02  0.9735742E-01
         -4   -1    0    0    0  501 -0.00000000000E+00  0.00000000000E+00  0.28593208871E+04  0.28593208871E+04  0.00000000000E+00 0. -1.
         21   -1    0    0  501  502  0.00000000000E+00 -0.00000000000E+00 -0.14308116593E+03  0.14308116593E+03  0.00000000000E+00 0. -1.
        -13    1    1    2    0    0  0.12694489820E+03 -0.19152235786E+03  0.59389891891E+03  0.63679805103E+03  0.10566000000E+00 0.  1.
         13    1    1    2    0    0 -0.19644229162E+03  0.59369637430E+03  0.14496838654E+04  0.15788123003E+04  0.10566000000E+00 0. -1.
         -4    1    1    2    0  502  0.69497393427E+02 -0.40217401644E+03  0.67265693689E+03  0.78679170175E+03  0.00000000000E+00 0. -1.
</event>
<event>
 5    1  0.2540860E-005  0.4519970E+03  0.7818608E-02  0.1003821E+00
         21   -1    0    0  501  502  0.00000000000E+00  0.00000000000E+00  0.39708980372E+03  0.39708980372E+03  0.00000000000E+00 0.  1.
          4   -1    0    0  502    0 -0.00000000000E+00 -0.00000000000E+00 -0.81597945867E+03  0.81597945867E+03  0.00000000000E+00 0.  1.
        -13    1    1    2    0    0  0.43954299369E+03  0.12178548212E+03  0.81350663327E+02  0.46330086180E+03  0.10566000000E+00 0.  1.
         13    1    1    2    0    0  0.94391172800E+01 -0.97749750015E+02 -0.15240069958E+03  0.18130111682E+03  0.10566000000E+00 0. -1.
          4    1    1    2  501    0 -0.44898211097E+03 -0.24035732103E+02 -0.34783961869E+03  0.56846728377E+03  0.00000000000E+00 0.  1.
</event>
<event>
 5    1  0.2540860E-005  0.4457862E+03  0.7818608E-02  0.9605437E-01
         21   -1    0    0  501  502  0.00000000000E+00  0.00000000000E+00  0.46176783429E+03  0.46176783429E+03  0.00000000000E+00 0. -1.
         -4   -1    0    0    0  501 -0.00000000000E+00 -0.00000000000E+00 -0.10110852906E+04  0.10110852906E+04  0.00000000000E+00 0. -1.
        -13    1    1    2    0    0  0.10830086184E+03  0.30312787967E+03 -0.11277821048E+03  0.34107847196E+03  0.10566000000E+00 0.  1.
         13    1    1    2    0    0 -0.25861947576E+03 -0.50966194401E+03 -0.59989683274E+03  0.82856234015E+03  0.10566000000E+00 0. -1.
         -4    1    1    2    0  502  0.15031861392E+03  0.20653406433E+03  0.16335758691E+03  0.30321231278E+03  0.00000000000E+00 0. -1.
</event>
<event>
 5    1  0.2540860E-005  0.6582728E+03  0.7818608E-02  0.9185811E-01
         21   -1    0    0  501  502  0.00000000000E+00  0.00000000000E+00  0.92812522560E+03  0.92812522560E+03  0.00000000000E+00 0. -1.
          4   -1    0    0  502    0 -0.00000000000E+00 -0.00000000000E+00 -0.84458218638E+03  0.84458218638E+03  0.00000000000E+00 0.  1.
        -13    1    1    2    0    0  0.31543709985E+03  0.68979031325E+03 -0.16477826364E+03  0.77618498281E+03  0.10566000000E+00 0.  1.
         13    1    1    2    0    0 -0.21630097557E+03 -0.53853673554E+03 -0.11412214171E+03  0.59146580793E+03  0.10566000000E+00 0. -1.
          4    1    1    2  501    0 -0.99136124278E+02 -0.15125357771E+03  0.36244344456E+03  0.40505662124E+03  0.00000000000E+00 0.  1.
</event>
<event>
 5    1  0.2540860E-005  0.5145295E+03  0.7818608E-02  0.9711203E-01
         21   -1    0    0  501  502  0.00000000000E+00  0.00000000000E+00  0.66605492165E+03  0.66605492165E+03  0.00000000000E+00 0. -1.
         -4   -1    0    0    0  501 -0.00000000000E+00 -0.00000000000E+00 -0.80501953154E+03  0.80501953154E+03  0.00000000000E+00 0. -1.
        -13    1    1    2    0    0  0.88758153293E+02  0.17915326836E+03 -0.29416306186E+03  0.35567656862E+03  0.10566000000E+00 0.  1.
         13    1    1    2    0    0  0.48311111973E+03 -0.96799925876E+02  0.20883793430E+03  0.53514472213E+03  0.10566000000E+00 0. -1.
         -4    1    1    2    0  502 -0.57186927303E+03 -0.82353342484E+02 -0.53639482337E+02  0.58025316244E+03  0.00000000000E+00 0. -1.
</event>
<event>
 5    1  0.2540860E-005  0.2121477E+03  0.7818608E-02  0.1052113E+00
         -4   -1    0    0    0  501 -0.00000000000E+00  0.00000000000E+00  0.12213318635E+04  0.12213318635E+04  0.00000000000E+00 0. -1.
         21   -1    0    0  501  502  0.00000000000E+00 -0.00000000000E+00 -0.63183808858E+02  0.63183808858E+02  0.00000000000E+00 0.  1.
        -13    1    1    2    0    0  0.25805374607E+02 -0.21776242753E+03  0.36611273733E+03  0.42676098674E+03  0.10566000000E+00 0.  1.
         13    1    1    2    0    0 -0.24396291181E+02  0.20759685275E+03  0.81028815639E+03  0.83681451938E+03  0.10566000000E+00 0. -1.
         -4    1    1    2    0  502 -0.14090834267E+01  0.10165574781E+02 -0.18252839091E+02  0.20940166227E+02  0.00000000000E+00 0. -1.
</event>
<event>
 5    1  0.2540860E-005  0.4882022E+03  0.7818608E-02  0.9578912E-01
          4   -1    0    0  502    0 -0.00000000000E+00  0.00000000000E+00  0.56712100637E+03  0.56712100637E+03  0.00000000000E+00 0.  1.
         21   -1    0    0  501  502  0.00000000000E+00 -0.00000000000E+00 -0.91717303294E+03  0.91717303294E+03  0.00000000000E+00 0.  1.
        -13    1    1    2    0    0  0.14753388516E+03 -0.26866851802E+03  0.16278091571E+03  0.34705425733E+03  0.10566000000E+00 0.  1.
         13    1    1    2    0    0  0.36430736431E+03 -0.80241696003E+02 -0.79916063472E+02  0.38150383201E+03  0.10566000000E+00 0. -1.
          4    1    1    2  501    0 -0.51184124948E+03  0.34891021402E+03 -0.43291687881E+03  0.75573594997E+03  0.00000000000E+00 0.  1.
</event>
<event>
 5    1  0.2540860E-005  0.4125889E+03  0.7818608E-02  0.9693376E-01
         -4   -1    0    0    0  501 -0.00000000000E+00  0.00000000000E+00  0.68542813585E+03  0.68542813585E+03  0.00000000000E+00 0. -1.
         21   -1    0    0  501  502  0.00000000000E+00 -0.00000000000E+00 -0.81303893808E+03  0.81303893808E+03  0.00000000000E+00 0. -1.
        -13    1    1    2    0    0  0.11759942846E+03  0.32793852358E+03 -0.14397156119E+03  0.37696302527E+03  0.10566000000E+00 0.  1.
         13    1    1    2    0    0 -0.26092577093E+03 -0.47978159836E+03 -0.38559663980E+03  0.66854874157E+03  0.10566000000E+00 0. -1.
         -4    1    1    2    0  502  0.14332634247E+03  0.15184307478E+03  0.40195739876E+03  0.45295530709E+03  0.00000000000E+00 0. -1.
</event>
<event>
 5    1  0.2540860E-005  0.3595473E+03  0.7818608E-02  0.9951637E-01
         21   -1    0    0  501  502  0.00000000000E+00  0.00000000000E+00  0.26685345302E+03  0.26685345302E+03  0.00000000000E+00 0. -1.
         -4   -1    0    0    0  501 -0.00000000000E+00 -0.00000000000E+00 -0.17256648751E+04  0.17256648751E+04  0.00000000000E+00 0. -1.
        -13    1    1    2    0    0  0.74342007963E+02  0.24829819584E+03 -0.11649594584E+03  0.28416552353E+03  0.10566000000E+00 0.  1.
         13    1    1    2    0    0  0.27246626863E+03 -0.84889310710E+02 -0.12902753538E+04  0.13214592549E+04  0.10566000000E+00 0. -1.
         -4    1    1    2    0  502 -0.34680827659E+03 -0.16340888513E+03 -0.52040122480E+02  0.38689354970E+03  0.00000000000E+00 0. -1.
</event>
<event>
 5    1  0.2540860E-005  0.1092539E+03  0.7818608E-02  0.1150091E+00
          4   -1    0    0  502    0 -0.00000000000E+00  0.00000000000E+00  0.29809222177E+02  0.29809222177E+02  0.00000000000E+00 0.  1.
         21   -1    0    0  501  502  0.00000000000E+00 -0.00000000000E+00 -0.52988839628E+03  0.52988839628E+03  0.00000000000E+00 0. -1.
        -13    1    1    2    0    0 -0.89202579488E+02 -0.67581505442E+02 -0.16953103598E+03  0.20313823714E+03  0.10566000000E+00 0.  1.
         13    1    1    2    0    0  0.77584174480E+02  0.72805529284E+02 -0.21072905570E+03  0.23606502347E+03  0.10566000000E+00 0. -1.
          4    1    1    2  501    0  0.11618405008E+02 -0.52240238420E+01 -0.11981908243E+03  0.12049435785E+03  0.00000000000E+00 0.  1.
</event>
<event>
 5    1  0.2540860E-005  0.5889897E+03  0.7818608E-02  0.9389604E-01
         21   -1    0    0  501  502  0.00000000000E+00  0.00000000000E+00  0.10425920320E+04  0.10425920320E+04  0.00000000000E+00 0.  1.
          4   -1    0    0  502    0 -0.00000000000E+00 -0.00000000000E+00 -0.10370335357E+04  0.10370335357E+04  0.00000000000E+00 0.  1.
        -13    1    1    2    0    0  0.16169745073E+03  0.28337966349E+02 -0.23957087249E+03  0.29041921427E+03  0.10566000000E+00 0.  1.
         13    1    1    2    0    0  0.17991535815E+03  0.67083358320E+03 -0.37940823965E+03  0.79141509711E+03  0.10566000000E+00 0. -1.
          4    1    1    2  501    0 -0.34161280888E+03 -0.69917154955E+03  0.62453760841E+03  0.99779125633E+03  0.00000000000E+00 0.  1.
</event>
<event>
 5    1  0.2540860E-005  0.4980967E+03  0.7818608E-02  0.9579958E-01
         21   -1    0    0  501  502  0.00000000000E+00  0.00000000000E+00  0.11018746144E+04  0.11018746144E+04  0.00000000000E+00 0.  1.
         -4   -1    0    0    0  501 -0.00000000000E+00 -0.00000000000E+00 -0.50848413866E+03  0.50848413866E+03  0.00000000000E+00 0. -1.
        -13    1    1    2    0    0  0.16024931298E+03  0.31108851527E+03 -0.59952720894E+02  0.35503555674E+03  0.10566000000E+00 0.  1.
         13    1    1    2    0    0  0.18145924143E+03 -0.59841252245E+03  0.37146566996E+03  0.72733194516E+03  0.10566000000E+00 0. -1.
         -4    1    1    2    0  502 -0.34170855441E+03  0.28732400718E+03  0.28187752666E+03  0.52799125115E+03  0.00000000000E+00 0. -1.
</event>
<event>
 5    1  0.2540860E-005  0.4803874E+03  0.7818608E-02  0.9739730E-01
         21   -1    0    0  501  502  0.00000000000E+00  0.00000000000E+00  0.67798933272E+03  0.67798933272E+03  0.00000000000E+00 0.  1.
          4   -1    0    0  502    0 -0.00000000000E+00 -0.00000000000E+00 -0.57858095799E+03  0.57858095799E+03  0.00000000000E+00 0.  1.
        -13    1    1    2    0    0 -0.29160514818E+03 -0.29806433899E+03 -0.11196660694E+03  0.43175507508E+03  0.10566000000E+00 0.  1.
         13    1    1    2    0    0  0.99616066382E+02 -0.19900320471E+03 -0.54778810163E+02  0.22918631149E+03  0.10566000000E+00 0. -1.
          4    1    1    2  501    0  0.19198908180E+03  0.49706754371E+03  0.26615379184E+03  0.59562890414E+03  0.00000000000E+00 0.  1.
</event>
<event>
 5    1  0.2540860E-005  0.4924891E+03  0.7818608E-02  0.9882306E-01
         21   -1    0    0  501  502  0.00000000000E+00  0.00000000000E+00  0.73202085808E+03  0.73202085808E+03  0.00000000000E+00 0.  1.
          4   -1    0    0  502    0 -0.00000000000E+00 -0.00000000000E+00 -0.61276998537E+03  0.61276998537E+03  0.00000000000E+00 0.  1.
        -13    1    1    2    0    0 -0.50687939808E+03 -0.11157599477E+03  0.28454263030E+03  0.59189563812E+03  0.10566000000E+00 0.  1.
         13    1    1    2    0    0  0.40599873720E+02  0.12041997902E+03 -0.24855481908E+03  0.27915735767E+03  0.10566000000E+00 0. -1.
          4    1    1    2  501    0  0.46627952436E+03 -0.88439842572E+01  0.83263061487E+02  0.47373784765E+03  0.00000000000E+00 0.  1.
</event>
<event>
 5    1  0.2540860E-005  0.5875596E+03  0.7818608E-02  0.9310797E-01
          4   -1    0    0  502    0 -0.00000000000E+00  0.00000000000E+00  0.58643472784E+03  0.58643472784E+03  0.00000000000E+00 0.  1.
         21   -1    0    0  501  502  0.00000000000E+00 -0.00000000000E+00 -0.15288012457E+04  0.15288012457E+04  0.00000000000E+00 0. -1.
        -13    1    1    2    0    0 -0.60069393670E+03  0.18734687926E+03 -0.28087424057E+03  0.68907358747E+03  0.10566000000E+00 0.  1.
         13    1    1    2    0    0  0.52604871681E+03  0.39545188923E+03 -0.22985291626E+03  0.69709527572E+03  0.10566000000E+00 0. -1.
          4    1    1    2  501    0  0.74645219897E+02 -0.58279876849E+03 -0.43163936100E+03  0.72906711033E+03  0.00000000000E+00 0.  1.
</event>
<event>
 5    1  0.2540860E-005  0.1086740E+03  0.7818608E-02  0.1188235E+00
         -4   -1    0    0    0  501 -0.00000000000E+00  0.00000000000E+00  0.49878685281E+03  0.49878685281E+03  0.00000000000E+00 0. -1.
         21   -1    0    0  501  502  0.00000000000E+00 -0.00000000000E+00 -0.21880051694E+03  0.21880051694E+03  0.00000000000E+00 0. -1.
        -13    1    1    2    0    0 -0.44333210717E+02 -0.33590567676E+01  0.19447886329E+02  0.48527809363E+02  0.10566000000E+00 0.  1.
         13    1    1    2    0    0  0.10756657897E+03 -0.84090177286E+02  0.43942218037E+03  0.46014518426E+03  0.10566000000E+00 0. -1.
         -4    1    1    2    0  502 -0.63233368257E+02  0.87449234053E+02 -0.17888373083E+03  0.20891437613E+03  0.00000000000E+00 0. -1.
</event>
<event>
 5    1  0.2540860E-005  0.4880913E+03  0.7818608E-02  0.9537631E-01
         -4   -1    0    0    0  501 -0.00000000000E+00  0.00000000000E+00  0.17908254252E+04  0.17908254252E+04  0.00000000000E+00 0. -1.
         21   -1    0    0  501  502  0.00000000000E+00 -0.00000000000E+00 -0.32637947720E+03  0.32637947720E+03  0.00000000000E+00 0. -1.
        -13    1    1    2    0    0 -0.39375721075E+03  0.17990022429E+03  0.59979648396E+03  0.73970579628E+03  0.10566000000E+00 0.  1.
         13    1    1    2    0    0  0.55797757540E+03  0.24982606702E+03  0.46475687101E+03  0.76795247166E+03  0.10566000000E+00 0. -1.
         -4    1    1    2    0  502 -0.16422036466E+03 -0.42972629131E+03  0.39989259300E+03  0.60954663444E+03  0.00000000000E+00 0. -1.
</event>
<event>
 5    1  0.2540860E-005  0.1935214E+03  0.7818608E-02  0.1064670E+00
         -4   -1    0    0    0  501 -0.00000000000E+00  0.00000000000E+00  0.75701547388E+03  0.75701547388E+03  0.00000000000E+00 0. -1.
         21   -1    0    0  501  502  0.00000000000E+00 -0.00000000000E+00 -0.83392362781E+02  0.83392362781E+02  0.00000000000E+00 0.  1.
        -13    1    1    2    0    0 -0.14167703953E+03 -0.14297836663E+03  0.16030169767E+03  0.25731661877E+03  0.10566000000E+00 0.  1.
         13    1    1    2    0    0  0.12702093261E+03  0.14253211039E+03  0.52853609668E+03  0.56196097415E+03  0.10566000000E+00 0. -1.
         -4    1    1    2    0  502  0.14656106914E+02  0.44625624035E+00 -0.15214683244E+02  0.21130243745E+02  0.00000000000E+00 0. -1.
</event>
<event>
 5    1  0.2540860E-005  0.4057522E+03  0.7818608E-02  0.9724114E-01
         -4   -1    0    0    0  501 -0.00000000000E+00  0.00000000000E+00  0.24688774376E+04  0.24688774376E+04  0.00000000000E+00 0. -1.
         21   -1    0    0  501  502  0.00000000000E+00 -0.00000000000E+00 -0.23023992582E+03  0.23023992582E+03  0.00000000000E+00 0. -1.
        -13    1    1    2    0    0 -0.20583873793E+03  0.33105746909E+03  0.10120724008E+04  0.10845548348E+04  0.10566000000E+00 0.  1.
         13    1    1    2    0    0  0.17670835449E+03  0.31028249492E+03  0.21602667205E+03  0.41733512121E+03  0.10566000000E+00 0. -1.
         -4    1    1    2    0  502  0.29130383441E+02 -0.64133996401E+03  0.10105384389E+04  0.11972274075E+04  0.00000000000E+00 0. -1.
</event>
<event>
 5    1  0.2540860E-005  0.3205289E+02  0.7818608E-02  0.1389145E+00
         21   -1    0    0  501  502  0.00000000000E+00  0.00000000000E+00  0.74974679490E+02  0.74974679490E+02  0.00000000000E+00 0.  1.
          4   -1    0    0  502    0 -0.00000000000E+00 -0.00000000000E+00 -0.12543573258E+03  0.12543573258E+03  0.00000000000E+00 0.  1.
        -13    1    1    2    0    0 -0.28700377953E+02  0.35168656901E+02 -0.29945690535E+02  0.54381078222E+02  0.10566000000E+00 0.  1.
         13    1    1    2    0    0  0.17464607264E+02 -0.23429970601E+02 -0.79577018660E+02  0.84773162570E+02  0.10566000000E+00 0. -1.
          4    1    1    2  501    0  0.11235770688E+02 -0.11738686300E+02  0.59061656100E+02  0.61256171284E+02  0.00000000000E+00 0.  1.
</event>
<event>
 5    1  0.2540860E-005  0.1933172E+03  0.7818608E-02  0.1066234E+00
         21   -1    0    0  501  502  0.00000000000E+00  0.00000000000E+00  0.20622786446E+03  0.20622786446E+03  0.00000000000E+00 0. -1.
         -4   -1    0    0    0  501 -0.00000000000E+00 -0.00000000000E+00 -0.21784690389E+04  0.21784690389E+04  0.00000000000E+00 0. -1.
        -13    1    1    2    0    0  0.18188803639E+03 -0.36751137587E+02 -0.85201928097E+03  0.87199241407E+03  0.10566000000E+00 0.  1.
         13    1    1    2    0    0 -0.36337217956E+03 -0.72821379741E+01 -0.12391174702E+04  0.12913188942E+04  0.10566000000E+00 0. -1.
         -4    1    1    2    0  502  0.18148414317E+03  0.44033275561E+02  0.11889557668E+03  0.22138559513E+03  0.00000000000E+00 0. -1.
</event>
<event>
 5    1  0.2540860E-005  0.2116374E+03  0.7818608E-02  0.1052438E+00
         21   -1    0    0  501  502  0.00000000000E+00  0.00000000000E+00  0.32033876858E+03  0.32033876858E+03  0.00000000000E+00 0.  1.
         -4   -1    0    0    0  501 -0.00000000000E+00 -0.00000000000E+00 -0.32635550758E+03  0.32635550758E+03  0.00000000000E+00 0. -1.
        -13    1    1    2    0    0  0.16383194948E+03  0.11958113733E+03  0.16588246245E+03  0.26202587390E+03  0.10566000000E+00 0.  1.
         13    1    1    2    0    0 -0.16784928236E+03 -0.13168993143E+03 -0.23668045641E+03  0.31864285531E+03  0.10566000000E+00 0. -1.
         -4    1    1    2    0  502  0.40173328795E+01  0.12108794093E+02  0.64781254950E+02  0.66025546955E+02  0.00000000000E+00 0. -1.
</event>
<event>
 5    1  0.2540860E-005  0.3505901E+03  0.7818608E-02  0.9883725E-01
         21   -1    0    0  501  502  0.00000000000E+00  0.00000000000E+00  0.50626373825E+03  0.50626373825E+03  0.00000000000E+00 0.  1.
         -4   -1    0    0    0  501 -0.00000000000E+00 -0.00000000000E+00 -0.55039477122E+03  0.55039477122E+03  0.00000000000E+00 0. -1.
        -13    1    1    2    0    0  0.22050010500E+03  0.24354884359E+03  0.81113400024E+02  0.33840172923E+03  0.10566000000E+00 0.  1.
         13    1    1    2    0    0 -0.28919870559E+03 -0.21531784225E+03 -0.33720200286E+03  0.49366270510E+03  0.10566000000E+00 0. -1.
         -4    1    1    2    0  502  0.68698600594E+02 -0.28231001337E+02  0.21195756987E+03  0.22459407513E+03  0.00000000000E+00 0. -1.
</event>
<event>
 5    1  0.2540860E-005  0.4458239E+03  0.7818608E-02  0.1033002E+00
         21   -1    0    0  501  502  0.00000000000E+00  0.00000000000E+00  0.20860370502E+03  0.20860370502E+03  0.00000000000E+00 0.  1.
          4   -1    0    0  502    0 -0.00000000000E+00 -0.00000000000E+00 -0.12928763875E+04  0.12928763875E+04  0.00000000000E+00 0.  1.
        -13    1    1    2    0    0 -0.81161311259E+02 -0.45100971698E+03 -0.25621363641E+03  0.52501653489E+03  0.10566000000E+00 0.  1.
         13    1    1    2    0    0  0.93940387861E+01  0.39579653228E+02  0.83988614655E+01  0.41537319994E+02  0.10566000000E+00 0. -1.
          4    1    1    2  501    0  0.71767272473E+02  0.41143006375E+03 -0.83645790752E+03  0.93492623763E+03  0.00000000000E+00 0.  1.
</event>
<event>
 5    1  0.2540860E-005  0.6142986E+02  0.7818608E-02  0.1251187E+00
         21   -1    0    0  501  502  0.00000000000E+00  0.00000000000E+00  0.12699086901E+03  0.12699086901E+03  0.00000000000E+00 0.  1.
          4   -1    0    0  502    0 -0.00000000000E+00 -0.00000000000E+00 -0.90544903313E+02  0.90544903313E+02  0.00000000000E+00 0.  1.
        -13    1    1    2    0    0  0.57079113344E+02 -0.17853620986E+02 -0.57261323399E+02  0.82798836247E+02  0.10566000000E+00 0.  1.
         13    1    1    2    0    0 -0.63760710346E+02  0.27533532382E+02  0.40823888337E+02  0.80561309648E+02  0.10566000000E+00 0. -1.
          4    1    1    2  501    0  0.66815970021E+01 -0.96799113967E+01  0.52883400762E+02  0.54175626432E+02  0.00000000000E+00 0.  1.
</event>
<event>
 5    1  0.2540860E-005  0.3231829E+03  0.7818608E-02  0.1009520E+00
         21   -1    0    0  501  502  0.00000000000E+00  0.00000000000E+00  0.30942506516E+03  0.30942506516E+03  0.00000000000E+00 0.  1.
          4   -1    0    0  502    0 -0.00000000000E+00 -0.00000000000E+00 -0.17944066265E+04  0.17944066265E+04  0.00000000000E+00 0.  1.
        -13    1    1    2    0    0 -0.38444966516E+02 -0.50445394007E+03 -0.93922685273E+03  0.10668171751E+04  0.10566000000E+00 0.  1.
         13    1    1    2    0    0 -0.60590747506E+02  0.21505628146E+03 -0.67045030040E+03  0.70669941230E+03  0.10566000000E+00 0. -1.
          4    1    1    2  501    0  0.99035714022E+02  0.28939765861E+03  0.12469559180E+03  0.33031510422E+03  0.00000000000E+00 0.  1.
</event>
<event>
 5    1  0.2540860E-005  0.1757008E+03  0.7818608E-02  0.1150589E+00
         -4   -1    0    0    0  501 -0.00000000000E+00  0.00000000000E+00  0.78178179169E+03  0.78178179169E+03  0.00000000000E+00 0. -1.
         21   -1    0    0  501  502  0.00000000000E+00 -0.00000000000E+00 -0.62274838390E+02  0.62274838390E+02  0.00000000000E+00 0. -1.
        -13    1    1    2    0    0  0.22858339981E+02  0.12274517318E+02  0.13412801795E+02  0.29207565769E+02  0.10566000000E+00 0.  1.
         13    1    1    2    0    0  0.13387646385E+03 -0.98998228723E+02  0.55836577449E+03  0.58266277223E+03  0.10566000000E+00 0. -1.
         -4    1    1    2    0  502 -0.15673480384E+03  0.86723711404E+02  0.14772837702E+03  0.23218629208E+03  0.00000000000E+00 0. -1.
</event>
<event>
 5    1  0.2540860E-005  0.6978872E+03  0.7818608E-02  0.9215683E-01
          4   -1    0    0  502    0 -0.00000000000E+00  0.00000000000E+00  0.27107884241E+04  0.27107884241E+04  0.00000000000E+00 0.  1.
         21   -1    0    0  501  502  0.00000000000E+00 -0.00000000000E+00 -0.39746873874E+03  0.39746873874E+03  0.00000000000E+00 0. -1.
        -13    1    1    2    0    0  0.33512784464E+03 -0.32881445738E+03  0.63359752336E+03  0.78859080162E+03  0.10566000000E+00 0.  1.
         13    1    1    2    0    0 -0.66963567522E+03 -0.28368130928E+03  0.13804905641E+04  0.15603336923E+04  0.10566000000E+00 0. -1.
          4    1    1    2  501    0  0.33450783058E+03  0.61249576665E+03  0.29923159796E+03  0.75933266893E+03  0.00000000000E+00 0.  1.
</event>
<event>
 5    1  0.2540860E-005  0.9631532E+02  0.7818608E-02  0.1170800E+00
         21   -1    0    0  501  502  0.00000000000E+00  0.00000000000E+00  0.20543699383E+03  0.20543699383E+03  0.00000000000E+00 0. -1.
          4   -1    0    0  502    0 -0.00000000000E+00 -0.00000000000E+00 -0.92551128868E+02  0.92551128868E+02  0.00000000000E+00 0.  1.
        -13    1    1    2    0    0 -0.40889904227E+01 -0.10603187103E+03 -0.30295599360E+02  0.11035085873E+03  0.10566000000E+00 0.  1.
         13    1    1    2    0    0 -0.21561122881E+02  0.74366763295E+02  0.72627984671E+02  0.10616088180E+03  0.10566000000E+00 0. -1.
          4    1    1    2  501    0  0.25650113304E+02  0.31665107739E+02  0.70553479654E+02  0.81476382173E+02  0.00000000000E+00 0.  1.
</event>
<event>
 5    1  0.2540860E-005  0.4399459E+03  0.7818608E-02  0.9620307E-01
         21   -1    0    0  501  502  0.00000000000E+00  0.00000000000E+00  0.12763396819E+04  0.12763396819E+04  0.00000000000E+00 0. -1.
          4   -1    0    0  502    0 -0.00000000000E+00 -0.00000000000E+00 -0.31392450673E+03  0.31392450673E+03  0.00000000000E+00 0.  1.
        -13    1    1    2    0    0 -0.33279440936E+03 -0.27913480298E+03  0.32371296166E+02  0.43556431111E+03  0.10566000000E+00 0.  1.
         13    1    1    2    0    0  0.32193069827E+03  0.31698203442E+03  0.34531577629E+03  0.56864750167E+03  0.10566000000E+00 0. -1.
          4    1    1    2  501    0  0.10863711094E+02 -0.37847231444E+02  0.58472810274E+03  0.58605237589E+03  0.00000000000E+00 0.  1.
</event>
<event>
 5    1  0.2540860E-005  0.4932969E+03  0.7818608E-02  0.9806247E-01
         -4   -1    0    0    0  501 -0.00000000000E+00  0.00000000000E+00  0.64681641938E+03  0.64681641938E+03  0.00000000000E+00 0. -1.
         21   -1    0    0  501  502  0.00000000000E+00 -0.00000000000E+00 -0.54360923163E+03  0.54360923163E+03  0.00000000000E+00 0. -1.
        -13    1    1    2    0    0  0.14764112653E+03 -0.70411854381E+02  0.35063344584E+02  0.16728771855E+03  0.10566000000E+00 0.  1.
         13    1    1    2    0    0 -0.13919503400E+03 -0.45865924877E+03 -0.47005655064E+02  0.48161510228E+03  0.10566000000E+00 0. -1.
         -4    1    1    2    0  502 -0.84460925271E+01  0.52907110315E+03  0.11514949822E+03  0.54152283018E+03  0.00000000000E+00 0. -1.
</event>
<event>
 5    1  0.2540860E-005  0.1044622E+03  0.7818608E-02  0.1157377E+00
         21   -1    0    0  501  502  0.00000000000E+00  0.00000000000E+00  0.97153769451E+02  0.97153769451E+02  0.00000000000E+00 0. -1.
          4   -1    0    0  502    0 -0.00000000000E+00 -0.00000000000E+00 -0.23679523740E+03  0.23679523740E+03  0.00000000000E+00 0.  1.
        -13    1    1    2    0    0 -0.83540004213E+02  0.10429442090E+03 -0.12092797430E+03  0.18022165427E+03  0.10566000000E+00 0.  1.
         13    1    1    2    0    0  0.26074926080E+02 -0.76722325501E+02 -0.34489207437E+02  0.88066642914E+02  0.10566000000E+00 0. -1.
          4    1    1    2  501    0  0.57465078133E+02 -0.27572095400E+02  0.15775713782E+02  0.65660709674E+02  0.00000000000E+00 0.  1.
</event>
<event>
 5    1  0.2540860E-005  0.1164330E+03  0.7818608E-02  0.1164517E+00
         21   -1    0    0  501  502  0.00000000000E+00  0.00000000000E+00  0.46486920003E+02  0.46486920003E+02  0.00000000000E+00 0.  1.
          4   -1    0    0  502    0 -0.00000000000E+00 -0.00000000000E+00 -0.51501638197E+03  0.51501638197E+03  0.00000000000E+00 0.  1.
        -13    1    1    2    0    0 -0.35493540418E+02  0.12831787778E+03 -0.23254799871E+03  0.26796240788E+03  0.10566000000E+00 0.  1.
         13    1    1    2    0    0  0.60090849826E+02 -0.20255212100E+02 -0.77162468861E+02  0.99876131357E+02  0.10566000000E+00 0. -1.
          4    1    1    2  501    0 -0.24597309408E+02 -0.10806266568E+03 -0.15881899440E+03  0.19366476274E+03  0.00000000000E+00 0.  1.
</event>
<event>
 5    1  0.2540860E-005  0.4075034E+03  0.7818608E-02  0.9744888E-01
         21   -1    0    0  501  502  0.00000000000E+00  0.00000000000E+00  0.24427848205E+03  0.24427848205E+03  0.00000000000E+00 0.  1.
          4   -1    0    0  502    0 -0.00000000000E+00 -0.00000000000E+00 -0.23077106171E+04  0.23077106171E+04  0.00000000000E+00 0.  1.
        -13    1    1    2    0    0  0.21522154298E+03 -0.16182611080E+03 -0.11070620917E+04  0.11393394967E+04  0.10566000000E+00 0.  1.
         13    1    1    2    0    0  0.23540411855E+03  0.26991424023E+03 -0.87057652566E+03  0.94136724731E+03  0.10566000000E+00 0. -1.
          4    1    1    2  501    0 -0.45062566153E+03 -0.10808812943E+03 -0.85793517644E+02  0.47128235510E+03  0.00000000000E+00 0.  1.
</event>
<event>
 5    1  0.2540860E-005  0.3401532E+03  0.7818608E-02  0.9919873E-01
         -4   -1    0    0    0  501 -0.00000000000E+00  0.00000000000E+00  0.14815989592E+04  0.14815989592E+04  0.00000000000E+00 0. -1.
         21   -1    0    0  501  502  0.00000000000E+00 -0.00000000000E+00 -0.17114044406E+03  0.17114044406E+03  0.00000000000E+00 0.  1.
        -13    1    1    2    0    0 -0.84155698770E+02 -0.31094783628E+03  0.55441203115E+02  0.32687073392E+03  0.10566000000E+00 0.  1.
         13    1    1    2    0    0  0.65447194327E+02  0.33706586598E+03  0.12460798114E+04  0.12925214276E+04  0.10566000000E+00 0. -1.
         -4    1    1    2    0  502  0.18708504443E+02 -0.26118029702E+02  0.89375006183E+01  0.33347241735E+02  0.00000000000E+00 0. -1.
</event>
<event>
 5    1  0.2540860E-005  0.4532822E+03  0.7818608E-02  0.9750240E-01
         21   -1    0    0  501  502  0.00000000000E+00  0.00000000000E+00  0.36575324201E+03  0.36575324201E+03  0.00000000000E+00 0.  1.
         -4   -1    0    0    0  501 -0.00000000000E+00 -0.00000000000E+00 -0.17380694640E+04  0.17380694640E+04  0.00000000000E+00 0. -1.
        -13    1    1    2    0    0 -0.14515271898E+03  0.21021967810E+03  0.11713634991E+03  0.28103836130E+03  0.10566000000E+00 0.  1.
         13    1    1    2    0    0  0.55764317448E+03 -0.18852174997E+03 -0.11346798579E+04  0.12782819530E+04  0.10566000000E+00 0. -1.
         -4    1    1    2    0  502 -0.41249045550E+03 -0.21697928130E+02 -0.35477271394E+03  0.54450239166E+03  0.00000000000E+00 0. -1.
</event>
<event>
 5    1  0.2540860E-005  0.4646142E+03  0.7818608E-02  0.9790907E-01
         21   -1    0    0  501  502  0.00000000000E+00  0.00000000000E+00  0.29874339814E+03  0.29874339814E+03  0.00000000000E+00 0. -1.
         -4   -1    0    0    0  501 -0.00000000000E+00 -0.00000000000E+00 -0.12842785538E+04  0.12842785538E+04  0.00000000000E+00 0. -1.
        -13    1    1    2    0    0 -0.18968756525E+03 -0.81115091227E+02 -0.36946400178E+03  0.42316035992E+03  0.10566000000E+00 0.  1.
         13    1    1    2    0    0 -0.36935804765E+03  0.17922178515E+03 -0.20379547447E+03  0.45834312716E+03  0.10566000000E+00 0. -1.
         -4    1    1    2    0  502  0.55904561290E+03 -0.98106693919E+02 -0.41227567938E+03  0.70151846484E+03  0.00000000000E+00 0. -1.
</event>
<event>
 5    1  0.2540860E-005  0.5009599E+03  0.7818608E-02  0.9578554E-01
         21   -1    0    0  501  502  0.00000000000E+00  0.00000000000E+00  0.68598425232E+03  0.68598425232E+03  0.00000000000E+00 0. -1.
         -4   -1    0    0    0  501 -0.00000000000E+00 -0.00000000000E+00 -0.94823832253E+03  0.94823832253E+03  0.00000000000E+00 0. -1.
        -13    1    1    2    0    0  0.19217375927E+03  0.28736446137E+03 -0.43426291402E+03  0.55506159755E+03  0.10566000000E+00 0.  1.
         13    1    1    2    0    0  0.41253890293E+03 -0.17951528064E+03  0.47400792442E+02  0.45239466034E+03  0.10566000000E+00 0. -1.
         -4    1    1    2    0  502 -0.60471266220E+03 -0.10784918073E+03  0.12460805137E+03  0.62676631696E+03  0.00000000000E+00 0. -1.
</event>
<event>
 5    1  0.2540860E-005  0.2328018E+03  0.7818608E-02  0.1055119E+00
         -4   -1    0    0    0  501 -0.00000000000E+00  0.00000000000E+00  0.25160959067E+03  0.25160959067E+03  0.00000000000E+00 0. -1.
         21   -1    0    0  501  502  0.00000000000E+00 -0.00000000000E+00 -0.13497026762E+04  0.13497026762E+04  0.00000000000E+00 0. -1.
        -13    1    1    2    0    0  0.16164810919E+02 -0.14600918270E+03 -0.52774476291E+02  0.15609336647E+03  0.10566000000E+00 0.  1.
         13    1    1    2    0    0 -0.21519703189E+03  0.18207572826E+02  0.12614972608E+03  0.25011006137E+03  0.10566000000E+00 0. -1.
         -4    1    1    2    0  502  0.19903222097E+03  0.12780160987E+03 -0.11714683353E+04  0.11951088390E+04  0.00000000000E+00 0. -1.
</event>
<event>
 5    1  0.2540860E-005  0.5111588E+03  0.7818608E-02  0.9453844E-01
         21   -1    0    0  501  502  0.00000000000E+00  0.00000000000E+00  0.50319436428E+03  0.50319436428E+03  0.00000000000E+00 0. -1.
         -4   -1    0    0    0  501 -0.00000000000E+00 -0.00000000000E+00 -0.22915880640E+04  0.22915880640E+04  0.00000000000E+00 0. -1.
        -13    1    1    2    0    0 -0.39859752639E+03 -0.28299570922E+03 -0.15345123334E+04  0.16104951636E+04  0.10566000000E+00 0.  1.
         13    1    1    2    0    0  0.53692356940E+03  0.24807128367E+03 -0.57996287052E+03  0.82836177091E+03  0.10566000000E+00 0. -1.
         -4    1    1    2    0  502 -0.13832604302E+03  0.34924425547E+02  0.32608150424E+03  0.35592549372E+03  0.00000000000E+00 0. -1.
</event>
<event>
 5    1  0.2540860E-005  0.1034708E+03  0.7818608E-02  0.1158937E+00
         -4   -1    0    0    0  501 -0.00000000000E+00  0.00000000000E+00  0.35556042668E+02  0.35556042668E+02  0.00000000000E+00 0. -1.
         21   -1    0    0  501  502  0.00000000000E+00 -0.00000000000E+00 -0.15853815145E+04  0.15853815145E+04  0.00000000000E+00 0. -1.
        -13    1    1    2    0    0  0.75647313998E+02 -0.17161227175E+03 -0.60360413252E+03  0.63206902146E+03  0.10566000000E+00 0.  1.
         13    1    1    2    0    0 -0.28523950280E+02  0.84280465368E+02 -0.88741620447E+02  0.12566582250E+03  0.10566000000E+00 0. -1.
         -4    1    1    2    0  502 -0.47123363718E+02  0.87331806386E+02 -0.85747971886E+03  0.86320271320E+03  0.00000000000E+00 0. -1.
</event>
<event>
 5    1  0.2540860E-005  0.3602890E+03  0.7818608E-02  0.9915838E-01
         21   -1    0    0  501  502  0.00000000000E+00  0.00000000000E+00  0.49072622011E+03  0.49072622011E+03  0.00000000000E+00 0.  1.
          4   -1    0    0  502    0 -0.00000000000E+00 -0.00000000000E+00 -0.12942969693E+04  0.12942969693E+04  0.00000000000E+00 0.  1.
        -13    1    1    2    0    0 -0.13726110651E+03 -0.24910322965E+03 -0.61038601804E+03  0.67339745513E+03  0.10566000000E+00 0.  1.
         13    1    1    2    0    0 -0.19651550699E+03  0.38475486722E+03 -0.48388043738E+03  0.64868709035E+03  0.10566000000E+00 0. -1.
          4    1    1    2  501    0  0.33377661350E+03 -0.13565163756E+03  0.29069570619E+03  0.46293864398E+03  0.00000000000E+00 0.  1.
</event>
<event>
 5    1  0.2540860E-005  0.2401670E+03  0.7818608E-02  0.1035618E+00
         21   -1    0    0  501  502  0.00000000000E+00  0.00000000000E+00  0.13400485669E+03  0.13400485669E+03  0.00000000000E+00 0.  1.
         -4   -1    0    0    0  501 -0.00000000000E+00 -0.00000000000E+00 -0.69882707011E+03  0.69882707011E+03  0.00000000000E+00 0. -1.
        -13    1    1    2    0    0 -0.14404822040E+03 -0.12419472262E+03 -0.92137562066E+02  0.21133755093E+03  0.10566000000E+00 0.  1.
         13    1    1    2    0    0  0.22036363449E+03  0.15825406162E+03 -0.46397219796E+03  0.53747064205E+03  0.10566000000E+00 0. -1.
         -4    1    1    2    0  502 -0.76315414089E+02 -0.34059338999E+02 -0.87124534030E+01  0.84023733820E+02  0.00000000000E+00 0. -1.
</event>
<event>
 5    1  0.2540860E-005  0.4533508E+03  0.7818608E-02  0.9894530E-01
         21   -1    0    0  501  502  0.00000000000E+00  0.00000000000E+00  0.16255035435E+03  0.16255035435E+03  0.00000000000E+00 0.  1.
          4   -1    0    0  502    0 -0.00000000000E+00 -0.00000000000E+00 -0.21371307646E+04  0.21371307646E+04  0.00000000000E+00 0.  1.
        -13    1    1    2    0    0  0.21643647074E+03  0.39488228228E+03 -0.47392618206E+03  0.65374521026E+03  0.10566000000E+00 0.  1.
         13    1    1    2    0    0  0.13836080599E+03 -0.72860509845E+02 -0.16681404495E+03  0.22864667784E+03  0.10566000000E+00 0. -1.
          4    1    1    2  501    0 -0.35479727673E+03 -0.32202177244E+03 -0.13338401832E+04  0.14172892309E+04  0.00000000000E+00 0.  1.
</event>
<event>
 5    1  0.2540860E-005  0.3921211E+03  0.7818608E-02  0.9752080E-01
         21   -1    0    0  501  502  0.00000000000E+00  0.00000000000E+00  0.76442074352E+03  0.76442074352E+03  0.00000000000E+00 0. -1.
         -4   -1    0    0    0  501 -0.00000000000E+00 -0.00000000000E+00 -0.10931887133E+04  0.10931887133E+04  0.00000000000E+00 0. -1.
        -13    1    1    2    0    0 -0.11251275770E+03  0.34342789046E+03 -0.65145397800E+03  0.74497928374E+03  0.10566000000E+00 0.  1.
         13    1    1    2    0    0 -0.56953498045E+01 -0.54777908096E+03 -0.16389731447E+03  0.57180127615E+03  0.10566000000E+00 0. -1.
         -4    1    1    2    0  502  0.11820810751E+03  0.20435119050E+03  0.48658332274E+03  0.54082889689E+03  0.00000000000E+00 0. -1.
</event>
<event>
 5    1  0.2540860E-005  0.4895015E+03  0.7818608E-02  0.9501284E-01
         21   -1    0    0  501  502  0.00000000000E+00  0.00000000000E+00  0.27391898947E+03  0.27391898947E+03  0.00000000000E+00 0.  1.
          4   -1    0    0  502    0 -0.00000000000E+00 -0.00000000000E+00 -0.46231344327E+04  0.46231344327E+04  0.00000000000E+00 0.  1.
        -13    1    1    2    0    0  0.17881947022E+03 -0.44884456471E+03 -0.96695638346E+03  0.10809451905E+04  0.10566000000E+00 0.  1.
         13    1    1    2    0    0 -0.52996509847E+03  0.14881008156E+03 -0.33016916678E+04  0.33472638567E+04  0.10566000000E+00 0. -1.
          4    1    1    2  501    0  0.35114562825E+03  0.30003448315E+03 -0.80567392016E+02  0.46884437501E+03  0.00000000000E+00 0.  1.
</event>
<event>
 5    1  0.2540860E-005  0.4658998E+03  0.7818608E-02  0.9603352E-01
         -4   -1    0    0    0  501 -0.00000000000E+00  0.00000000000E+00  0.87528019529E+03  0.87528019529E+03  0.00000000000E+00 0. -1.
         21   -1    0    0  501  502  0.00000000000E+00 -0.00000000000E+00 -0.61799257041E+03  0.61799257041E+03  0.00000000000E+00 0. -1.
        -13    1    1    2    0    0 -0.55319509333E+02  0.38950270023E+03  0.13347711143E+03  0.41543802431E+03  0.10566000000E+00 0.  1.
         13    1    1    2    0    0  0.70903474618E+02  0.20124900532E+03  0.37836609241E+03  0.43438390383E+03  0.10566000000E+00 0. -1.
         -4    1    1    2    0  502 -0.15583965284E+02 -0.59075170555E+03 -0.25455557896E+03  0.64345083757E+03  0.00000000000E+00 0. -1.
</event>
<event>
 5    1  0.2540860E-005  0.1076466E+03  0.7818608E-02  0.1152489E+00
         21   -1    0    0  501  502  0.00000000000E+00  0.00000000000E+00  0.79309309483E+03  0.79309309483E+03  0.00000000000E+00 0. -1.
          4   -1    0    0  502    0 -0.00000000000E+00 -0.00000000000E+00 -0.71599502228E+02  0.71599502228E+02  0.00000000000E+00 0.  1.
        -13    1    1    2    0    0 -0.10895802084E+03  0.21325405013E+01 -0.17907493324E+02  0.11044042519E+03  0.10566000000E+00 0.  1.
         13    1    1    2    0    0  0.90456698808E+02 -0.45366856393E+02  0.53789995212E+03  0.54733621812E+03  0.10566000000E+00 0. -1.
          4    1    1    2  501    0  0.18501322036E+02  0.43234315892E+02  0.20150113381E+03  0.20691595375E+03  0.00000000000E+00 0.  1.
</event>
<event>
 5    1  0.2540860E-005  0.1684847E+03  0.7818608E-02  0.1084187E+00
          4   -1    0    0  502    0 -0.00000000000E+00  0.00000000000E+00  0.66490605385E+02  0.66490605385E+02  0.00000000000E+00 0.  1.
         21   -1    0    0  501  502  0.00000000000E+00 -0.00000000000E+00 -0.85976492461E+03  0.85976492461E+03  0.00000000000E+00 0.  1.
        -13    1    1    2    0    0 -0.13690674725E+03  0.12340812121E+03 -0.20908233415E+03  0.27872648859E+03  0.10566000000E+00 0.  1.
         13    1    1    2    0    0  0.12349874716E+03 -0.95314760132E+02 -0.16459238544E+03  0.22677634038E+03  0.10566000000E+00 0. -1.
          4    1    1    2  501    0  0.13408000099E+02 -0.28093361078E+02 -0.41959959964E+03  0.42075270103E+03  0.00000000000E+00 0.  1.
</event>
<event>
 5    1  0.2540860E-005  0.1646155E+03  0.7818608E-02  0.1087529E+00
         -4   -1    0    0    0  501 -0.00000000000E+00  0.00000000000E+00  0.10116079332E+04  0.10116079332E+04  0.00000000000E+00 0. -1.
         21   -1    0    0  501  502  0.00000000000E+00 -0.00000000000E+00 -0.13271693751E+03  0.13271693751E+03  0.00000000000E+00 0. -1.
        -13    1    1    2    0    0  0.93866883845E+02  0.15201278503E+03  0.27287934126E+03  0.32616257411E+03  0.10566000000E+00 0.  1.
         13    1    1    2    0    0 -0.41985293920E+02 -0.15607128989E+03  0.69583218499E+03  0.71435527105E+03  0.10566000000E+00 0. -1.
         -4    1    1    2    0  502 -0.51881589925E+02  0.40585048559E+01 -0.89820530591E+02  0.10380702554E+03  0.00000000000E+00 0. -1.
</event>
<event>
 5    1  0.2540860E-005  0.4876019E+03  0.7818608E-02  0.9667049E-01
         -4   -1    0    0    0  501 -0.00000000000E+00  0.00000000000E+00  0.52297794561E+03  0.52297794561E+03  0.00000000000E+00 0. -1.
         21   -1    0    0  501  502  0.00000000000E+00 -0.00000000000E+00 -0.11128893042E+04  0.11128893042E+04  0.00000000000E+00 0. -1.
        -13    1    1    2    0    0 -0.27341730307E+03 -0.18850843674E+02  0.19768880887E+03  0.33792492102E+03  0.10566000000E+00 0.  1.
         13    1    1    2    0    0  0.30241968097E+03  0.47869382849E+03 -0.37237597758E+03  0.67769412327E+03  0.10566000000E+00 0. -1.
         -4    1    1    2    0  502 -0.29002377894E+02 -0.45984298482E+03 -0.41522418992E+03  0.62024820556E+03  0.00000000000E+00 0. -1.
</event>
<event>
 5    1  0.2540860E-005  0.4542437E+03  0.7818608E-02  0.9688958E-01
          4   -1    0    0  502    0 -0.00000000000E+00  0.00000000000E+00  0.21998663625E+04  0.21998663625E+04  0.00000000000E+00 0.  1.
         21   -1    0    0  501  502  0.00000000000E+00 -0.00000000000E+00 -0.27116181338E+03  0.27116181338E+03  0.00000000000E+00 0.  1.
        -13    1    1    2    0    0 -0.11721425808E+03  0.43061886951E+03  0.50405464519E+03  0.67323316137E+03  0.10566000000E+00 0.  1.
         13    1    1    2    0    0  0.31266118770E+03  0.28700543568E+02  0.12175220881E+04  0.12573546778E+04  0.10566000000E+00 0. -1.
          4    1    1    2  501    0 -0.19544692962E+03 -0.45931941308E+03  0.20712781587E+03  0.54044033679E+03  0.00000000000E+00 0.  1.
</event>
<event>
 5    1  0.2540860E-005  0.1788536E+03  0.7818608E-02  0.1075687E+00
         21   -1    0    0  501  502  0.00000000000E+00  0.00000000000E+00  0.12565407838E+03  0.12565407838E+03  0.00000000000E+00 0. -1.
         -4   -1    0    0    0  501 -0.00000000000E+00 -0.00000000000E+00 -0.34477998055E+03  0.34477998055E+03  0.00000000000E+00 0. -1.
        -13    1    1    2    0    0 -0.20048562203E+02 -0.15304073235E+03 -0.13317214810E+02  0.15492181893E+03  0.10566000000E+00 0.  1.
         13    1    1    2    0    0  0.52934380118E+01  0.19339831227E+03 -0.18531898561E+03  0.26790682199E+03  0.10566000000E+00 0. -1.
         -4    1    1    2    0  502  0.14755124192E+02 -0.40357579917E+02 -0.20489701753E+02  0.47605418017E+02  0.00000000000E+00 0. -1.
</event>
<event>
 5    1  0.2540860E-005  0.3749841E+03  0.7818608E-02  0.9804209E-01
         21   -1    0    0  501  502  0.00000000000E+00  0.00000000000E+00  0.11895140854E+03  0.11895140854E+03  0.00000000000E+00 0. -1.
         -4   -1    0    0    0  501 -0.00000000000E+00 -0.00000000000E+00 -0.24510488688E+04  0.24510488688E+04  0.00000000000E+00 0. -1.
        -13    1    1    2    0    0 -0.20153290608E+03 -0.15461864938E+03 -0.36171936444E+03  0.44199926328E+03  0.10566000000E+00 0.  1.
         13    1    1    2    0    0  0.45409114089E+03  0.17835682187E+03 -0.16426599785E+04  0.17135757165E+04  0.10566000000E+00 0. -1.
         -4    1    1    2    0  502 -0.25255823481E+03 -0.23738172487E+02 -0.32771811734E+03  0.41442529753E+03  0.00000000000E+00 0. -1.
</event>
<event>
 5    1  0.2540860E-005  0.3989408E+03  0.7818608E-02  0.9732110E-01
         -4   -1    0    0    0  501 -0.00000000000E+00  0.00000000000E+00  0.11229698687E+04  0.11229698687E+04  0.00000000000E+00 0. -1.
         21   -1    0    0  501  502  0.00000000000E+00 -0.00000000000E+00 -0.47818902461E+03  0.47818902461E+03  0.00000000000E+00 0. -1.
        -13    1    1    2    0    0 -0.30484283464E+03  0.12967710410E+03  0.41449280363E+03  0.53061247684E+03  0.10566000000E+00 0.  1.
         13    1    1    2    0    0  0.51867954563E+03 -0.14977828231E+03  0.49307559691E+03  0.73115358191E+03  0.10566000000E+00 0. -1.
         -4    1    1    2    0  502 -0.21383671100E+03  0.20101178209E+02 -0.26278755643E+03  0.33939283456E+03  0.00000000000E+00 0. -1.
</event>
<event>
 5    1  0.2540860E-005  0.2938991E+03  0.7818608E-02  0.1009856E+00
          4   -1    0    0  502    0 -0.00000000000E+00  0.00000000000E+00  0.13706407211E+04  0.13706407211E+04  0.00000000000E+00 0.  1.
         21   -1    0    0  501  502  0.00000000000E+00 -0.00000000000E+00 -0.42841873161E+03  0.42841873161E+03  0.00000000000E+00 0.  1.
        -13    1    1    2    0    0 -0.56282511808E+02  0.42983399020E+03  0.52880403784E+03  0.68378264227E+03  0.10566000000E+00 0.  1.
         13    1    1    2    0    0  0.10676009948E+02 -0.25448034525E+03  0.71746631683E+03  0.76133576709E+03  0.10566000000E+00 0. -1.
          4    1    1    2  501    0  0.45606501860E+02 -0.17535364495E+03 -0.30404836517E+03  0.35394104335E+03  0.00000000000E+00 0.  1.
</event>
<event>
 5    1  0.2540860E-005  0.4272009E+03  0.7818608E-02  0.9890867E-01
          4   -1    0    0  502    0 -0.00000000000E+00  0.00000000000E+00  0.18793870211E+04  0.18793870211E+04  0.00000000000E+00 0.  1.
         21   -1    0    0  501  502  0.00000000000E+00 -0.00000000000E+00 -0.19848353937E+03  0.19848353937E+03  0.00000000000E+00 0.  1.
        -13    1    1    2    0    0  0.49051245974E+03  0.55560185764E+02  0.12270771303E+04  0.13226517691E+04  0.10566000000E+00 0.  1.
         13    1    1    2    0    0 -0.91183342509E+02 -0.16576571631E+03  0.15150055021E+03  0.24237388995E+03  0.10566000000E+00 0. -1.
          4    1    1    2  501    0 -0.39932911723E+03  0.11020553054E+03  0.30232580123E+03  0.51284490143E+03  0.00000000000E+00 0.  1.
</event>
<event>
 5    1  0.2540860E-005  0.5813638E+02  0.7818608E-02  0.1261801E+00
          4   -1    0    0  502    0 -0.00000000000E+00  0.00000000000E+00  0.28406711631E+03  0.28406711631E+03  0.00000000000E+00 0.  1.
         21   -1    0    0  501  502  0.00000000000E+00 -0.00000000000E+00 -0.30810904526E+02  0.30810904526E+02  0.00000000000E+00 0.  1.
        -13    1    1    2    0    0 -0.95936313618E+01 -0.56888263812E+02  0.14645191583E+03  0.15740548636E+03  0.10566000000E+00 0.  1.
         13    1    1    2    0    0  0.23069889627E+02  0.54908924277E+02  0.12278932142E+03  0.13647138305E+03  0.10566000000E+00 0. -1.
          4    1    1    2  501    0 -0.13476258265E+02  0.19793395342E+01 -0.15985025469E+02  0.21001151423E+02  0.00000000000E+00 0.  1.
</event>
<event>
 5    1  0.2540860E-005  0.1701155E+03  0.7818608E-02  0.1082807E+00
          4   -1    0    0  502    0 -0.00000000000E+00  0.00000000000E+00  0.21238018090E+03  0.21238018090E+03  0.00000000000E+00 0.  1.
         21   -1    0    0  501  502  0.00000000000E+00 -0.00000000000E+00 -0.34391905767E+03  0.34391905767E+03  0.00000000000E+00 0.  1.
        -13    1    1    2    0    0  0.12818498788E+03  0.15020634161E+03 -0.43847069640E+02  0.20227682234E+03  0.10566000000E+00 0.  1.
         13    1    1    2    0    0 -0.17552804505E+03 -0.10619260376E+02  0.11712219610E+02  0.17623861820E+03  0.10566000000E+00 0. -1.
          4    1    1    2  501    0  0.47343057171E+02 -0.13958708123E+03 -0.99404026747E+02  0.17778379803E+03  0.00000000000E+00 0.  1.
</event>
<event>
 5    1  0.2540860E-005  0.2371853E+03  0.7818608E-02  0.1037256E+00
          4   -1    0    0  502    0 -0.00000000000E+00  0.00000000000E+00  0.27877069497E+03  0.27877069497E+03  0.00000000000E+00 0.  1.
         21   -1    0    0  501  502  0.00000000000E+00 -0.00000000000E+00 -0.83505189666E+03  0.83505189666E+03  0.00000000000E+00 0. -1.
        -13    1    1    2    0    0 -0.52099644768E+02  0.23335057336E+03  0.19686010906E+03  0.30971079538E+03  0.10566000000E+00 0.  1.
         13    1    1    2    0    0  0.66153893531E+02 -0.21111563133E+03 -0.46689643693E+03  0.51666085724E+03  0.10566000000E+00 0. -1.
          4    1    1    2  501    0 -0.14054248763E+02 -0.22234942026E+02 -0.28624487382E+03  0.28745093902E+03  0.00000000000E+00 0.  1.
</event>
<event>
 5    1  0.2540860E-005  0.4883835E+03  0.7818608E-02  0.9855301E-01
         21   -1    0    0  501  502  0.00000000000E+00  0.00000000000E+00  0.18722379643E+04  0.18722379643E+04  0.00000000000E+00 0. -1.
         -4   -1    0    0    0  501 -0.00000000000E+00 -0.00000000000E+00 -0.19060191606E+03  0.19060191606E+03  0.00000000000E+00 0. -1.
        -13    1    1    2    0    0 -0.20137523364E+02  0.14128696846E+03  0.59159399736E+02  0.15449068919E+03  0.10566000000E+00 0.  1.
         13    1    1    2    0    0  0.20218116548E+03 -0.50556492565E+03  0.12190323643E+04  0.13351078736E+04  0.10566000000E+00 0. -1.
         -4    1    1    2    0  502 -0.18204364211E+03  0.36427795718E+03  0.40344428417E+03  0.57324131756E+03  0.00000000000E+00 0. -1.
</event>
<event>
 5    1  0.2540860E-005  0.1258289E+03  0.7818608E-02  0.1130524E+00
         -4   -1    0    0    0  501 -0.00000000000E+00  0.00000000000E+00  0.25400564576E+03  0.25400564576E+03  0.00000000000E+00 0. -1.
         21   -1    0    0  501  502  0.00000000000E+00 -0.00000000000E+00 -0.95629767657E+03  0.95629767657E+03  0.00000000000E+00 0. -1.
        -13    1    1    2    0    0 -0.10703336186E+03 -0.47569284731E+02  0.26313001311E+02  0.12004733484E+03  0.10566000000E+00 0.  1.
         13    1    1    2    0    0  0.21180684636E+03 -0.19071223266E+02  0.11212077912E+03  0.24040992492E+03  0.10566000000E+00 0. -1.
         -4    1    1    2    0  502 -0.10477348450E+03  0.66640507996E+02 -0.84072581125E+03  0.84984606257E+03  0.00000000000E+00 0. -1.
</event>
<event>
 5    1  0.2540860E-005  0.4331156E+03  0.7818608E-02  0.9789355E-01
         -4   -1    0    0    0  501 -0.00000000000E+00  0.00000000000E+00  0.13564362060E+04  0.13564362060E+04  0.00000000000E+00 0. -1.
         21   -1    0    0  501  502  0.00000000000E+00 -0.00000000000E+00 -0.33283787416E+03  0.33283787416E+03  0.00000000000E+00 0. -1.
        -13    1    1    2    0    0 -0.72267960518E+02 -0.24561078823E+03  0.41513885320E+03  0.48773722025E+03  0.10566000000E+00 0.  1.
         13    1    1    2    0    0  0.10052027433E+03 -0.36442990702E+03  0.64080654230E+02  0.38343164201E+03  0.10566000000E+00 0. -1.
         -4    1    1    2    0  502 -0.28252313810E+02  0.61004069525E+03  0.54437882441E+03  0.81810521790E+03  0.00000000000E+00 0. -1.
</event>
<event>
 5    1  0.2540860E-005  0.3305969E+02  0.7818608E-02  0.1449356E+00
         21   -1    0    0  501  502  0.00000000000E+00  0.00000000000E+00  0.66341755610E+02  0.66341755610E+02  0.00000000000E+00 0. -1.
         -4   -1    0    0    0  501 -0.00000000000E+00 -0.00000000000E+00 -0.68554410860E+02  0.68554410860E+02  0.00000000000E+00 0. -1.
        -13    1    1    2    0    0  0.65920561603E+01 -0.87554415504E+01  0.75974860694E+01  0.13335888413E+02  0.10566000000E+00 0.  1.
         13    1    1    2    0    0 -0.52295323778E+01 -0.25009516870E+02 -0.57609990616E+02  0.63021790880E+02  0.10566000000E+00 0. -1.
         -4    1    1    2    0  502 -0.13625237824E+01  0.33764958420E+02  0.47799849297E+02  0.58538487177E+02  0.00000000000E+00 0. -1.
</event>
<event>
 5    1  0.2540860E-005  0.3872179E+02  0.7818608E-02  0.1346020E+00
          4   -1    0    0  502    0 -0.00000000000E+00  0.00000000000E+00  0.23278173092E+02  0.23278173092E+02  0.00000000000E+00 0.  1.
         21   -1    0    0  501  502  0.00000000000E+00 -0.00000000000E+00 -0.83844600482E+03  0.83844600482E+03  0.00000000000E+00 0.  1.
        -13    1    1    2    0    0 -0.36518807638E+02  0.93689384534E+01 -0.52071430884E+01  0.38059503704E+02  0.10566000000E+00 0.  1.
         13    1    1    2    0    0  0.32022856011E+02 -0.42180389406E+02 -0.10199234542E+03  0.11492213993E+03  0.10566000000E+00 0. -1.
          4    1    1    2  501    0  0.44959516273E+01  0.32811450952E+02 -0.70796834322E+03  0.70874253428E+03  0.00000000000E+00 0.  1.
</event>
<event>
 5    1  0.2540860E-005  0.4832304E+03  0.7818608E-02  0.9719445E-01
          4   -1    0    0  502    0 -0.00000000000E+00  0.00000000000E+00  0.83211783889E+03  0.83211783889E+03  0.00000000000E+00 0.  1.
         21   -1    0    0  501  502  0.00000000000E+00 -0.00000000000E+00 -0.13354255762E+04  0.13354255762E+04  0.00000000000E+00 0.  1.
        -13    1    1    2    0    0 -0.24022338711E+03  0.50626312800E+03 -0.95576374321E+03  0.11079232710E+04  0.10566000000E+00 0.  1.
         13    1    1    2    0    0  0.18942003418E+03 -0.13831812723E+03  0.61197299685E+03  0.65537990029E+03  0.10566000000E+00 0. -1.
          4    1    1    2  501    0  0.50803352927E+02 -0.36794500078E+03 -0.15951699090E+03  0.40424024373E+03  0.00000000000E+00 0.  1.
</event>
<event>
 5    1  0.2540860E-005  0.4108351E+03  0.7818608E-02  0.9698264E-01
         21   -1    0    0  501  502  0.00000000000E+00  0.00000000000E+00  0.12637683796E+04  0.12637683796E+04  0.00000000000E+00 0. -1.
          4   -1    0    0  502    0 -0.00000000000E+00 -0.00000000000E+00 -0.28967113308E+03  0.28967113308E+03  0.00000000000E+00 0.  1.
        -13    1    1    2    0    0 -0.36818288758E+03  0.19847831323E+03  0.36350554870E+01  0.41828878101E+03  0.10566000000E+00 0.  1.
         13    1    1    2    0    0  0.34581421542E+03 -0.18913871397E+03  0.39104629670E+03  0.55522800905E+03  0.10566000000E+00 0. -1.
          4    1    1    2  501    0  0.22368672160E+02 -0.93395992619E+01  0.57941589434E+03  0.57992272263E+03  0.00000000000E+00 0.  1.
</event>
<event>
 5    1  0.2540860E-005  0.5699852E+02  0.7818608E-02  0.1265653E+00
         -4   -1    0    0    0  501 -0.00000000000E+00  0.00000000000E+00  0.16330676845E+02  0.16330676845E+02  0.00000000000E+00 0. -1.
         21   -1    0    0  501  502  0.00000000000E+00 -0.00000000000E+00 -0.41228051103E+03  0.41228051103E+03  0.00000000000E+00 0.  1.
        -13    1    1    2    0    0  0.75221677530E+02 -0.39583736582E+01 -0.18965333226E+03  0.20406461500E+03  0.10566000000E+00 0.  1.
         13    1    1    2    0    0 -0.49411571990E+02 -0.62126361327E+01 -0.72839115462E+02  0.88236320183E+02  0.10566000000E+00 0. -1.
         -4    1    1    2    0  502 -0.25810105540E+02  0.10171009791E+02 -0.13345738646E+03  0.13631025269E+03  0.00000000000E+00 0. -1.
</event>
<event>
 5    1  0.2540860E-005  0.7220197E+02  0.7818608E-02  0.1221066E+00
          4   -1    0    0  502    0 -0.00000000000E+00  0.00000000000E+00  0.27335250704E+03  0.27335250704E+03  0.00000000000E+00 0.  1.
         21   -1    0    0  501  502  0.00000000000E+00 -0.00000000000E+00 -0.36018821516E+02  0.36018821516E+02  0.00000000000E+00 0. -1.
        -13    1    1    2    0    0  0.68346214388E+02  0.34114301073E+02  0.20797011348E+03  0.22155489122E+03  0.10566000000E+00 0.  1.
         13    1    1    2    0    0 -0.58729070375E+02 -0.13863561243E+02  0.21344064180E+02  0.64006892420E+02  0.10566000000E+00 0. -1.
          4    1    1    2  501    0 -0.96171440123E+01 -0.20250739829E+02  0.80195078608E+01  0.23809544912E+02  0.00000000000E+00 0.  1.
</event>
<event>
 5    1  0.2540860E-005  0.4824900E+03  0.7818608E-02  0.9967610E-01
          4   -1    0    0  502    0 -0.00000000000E+00  0.00000000000E+00  0.21590670718E+04  0.21590670718E+04  0.00000000000E+00 0.  1.
         21   -1    0    0  501  502  0.00000000000E+00 -0.00000000000E+00 -0.16368424352E+03  0.16368424352E+03  0.00000000000E+00 0.  1.
        -13    1    1    2    0    0  0.48432742791E+03  0.18592307618E+03  0.46000162754E+03  0.69335557703E+03  0.10566000000E+00 0.  1.
         13    1    1    2    0    0 -0.98189042865E+02 -0.26646558278E+02  0.54693048716E+03  0.55631294803E+03  0.10566000000E+00 0. -1.
          4    1    1    2  501    0 -0.38613838505E+03 -0.15927651790E+03  0.98845071356E+03  0.10730827902E+04  0.00000000000E+00 0.  1.
</event>
<event>
 5    1  0.2540860E-005  0.3151576E+02  0.7818608E-02  0.1428775E+00
         21   -1    0    0  501  502  0.00000000000E+00  0.00000000000E+00  0.89210019842E+02  0.89210019842E+02  0.00000000000E+00 0. -1.
         -4   -1    0    0    0  501 -0.00000000000E+00 -0.00000000000E+00 -0.22563979444E+02  0.22563979444E+02  0.00000000000E+00 0. -1.
        -13    1    1    2    0    0  0.11173647508E+02 -0.13498641828E+02  0.14971849312E+02  0.23048452566E+02  0.10566000000E+00 0.  1.
         13    1    1    2    0    0 -0.28363342161E+02 -0.14384610344E+02  0.57529338640E+01  0.32318781000E+02  0.10566000000E+00 0. -1.
         -4    1    1    2    0  502  0.17189694653E+02  0.27883252173E+02  0.45921257223E+02  0.56406765719E+02  0.00000000000E+00 0. -1.
</event>
<event>
 5    1  0.2540860E-005  0.6950253E+03  0.7818608E-02  0.9130226E-01
          4   -1    0    0  502    0 -0.00000000000E+00  0.00000000000E+00  0.16558967410E+04  0.16558967410E+04  0.00000000000E+00 0.  1.
         21   -1    0    0  501  502  0.00000000000E+00 -0.00000000000E+00 -0.54313149661E+03  0.54313149661E+03  0.00000000000E+00 0.  1.
        -13    1    1    2    0    0 -0.44385128927E+03 -0.71316879653E+03  0.16663514270E+03  0.85637665854E+03  0.10566000000E+00 0.  1.
         13    1    1    2    0    0  0.15180311132E+03  0.63137499407E+03  0.64402087435E+03  0.91457173885E+03  0.10566000000E+00 0. -1.
          4    1    1    2  501    0  0.29204817795E+03  0.81793802465E+02  0.30210922739E+03  0.42807984026E+03  0.00000000000E+00 0.  1.
</event>
<event>
 5    1  0.2540860E-005  0.4570101E+03  0.7818608E-02  0.9709704E-01
          4   -1    0    0  502    0 -0.00000000000E+00  0.00000000000E+00  0.22381913028E+04  0.22381913028E+04  0.00000000000E+00 0.  1.
         21   -1    0    0  501  502  0.00000000000E+00 -0.00000000000E+00 -0.44990810529E+03  0.44990810529E+03  0.00000000000E+00 0.  1.
        -13    1    1    2    0    0 -0.37061013283E+03  0.37412712654E+02  0.36632938217E+03  0.52244502967E+03  0.10566000000E+00 0.  1.
         13    1    1    2    0    0 -0.25760558639E+02  0.28565808864E+03  0.15989976182E+04  0.16245176343E+04  0.10566000000E+00 0. -1.
          4    1    1    2  501    0  0.39637069147E+03 -0.32307080129E+03 -0.17704380287E+03  0.54113674412E+03  0.00000000000E+00 0.  1.
</event>
<event>
 5    1  0.2540860E-005  0.1833252E+03  0.7818608E-02  0.1072210E+00
          4   -1    0    0  502    0 -0.00000000000E+00  0.00000000000E+00  0.34044838893E+03  0.34044838893E+03  0.00000000000E+00 0.  1.
         21   -1    0    0  501  502  0.00000000000E+00 -0.00000000000E+00 -0.13114269768E+03  0.13114269768E+03  0.00000000000E+00 0. -1.
        -13    1    1    2    0    0 -0.13619600849E+03 -0.11890662908E+03  0.17728861426E+03  0.25321809390E+03  0.10566000000E+00 0.  1.
         13    1    1    2    0    0  0.13425339521E+03  0.13208298908E+03  0.51061150169E+02  0.19513365253E+03  0.10566000000E+00 0. -1.
          4    1    1    2  501    0  0.19426132756E+01 -0.13176359993E+02 -0.19044073173E+02  0.23239340181E+02  0.00000000000E+00 0.  1.
</event>
<event>
 5    1  0.2540860E-005  0.5986772E+02  0.7818608E-02  0.1295752E+00
          4   -1    0    0  502    0 -0.00000000000E+00  0.00000000000E+00  0.96022244064E+02  0.96022244064E+02  0.00000000000E+00 0.  1.
         21   -1    0    0  501  502  0.00000000000E+00 -0.00000000000E+00 -0.84545558118E+02  0.84545558118E+02  0.00000000000E+00 0. -1.
        -13    1    1    2    0    0 -0.56742748441E+01 -0.75235017119E+02  0.45078429563E+02  0.87889596493E+02  0.10566000000E+00 0.  1.
         13    1    1    2    0    0 -0.13089431012E+02  0.23559310712E+02 -0.25508399434E+02  0.37108812042E+02  0.10566000000E+00 0. -1.
          4    1    1    2  501    0  0.18763705856E+02  0.51675706407E+02 -0.80933441823E+01  0.55569393646E+02  0.00000000000E+00 0.  1.
</event>
<event>
 5    1  0.2540860E-005  0.2311757E+03  0.7818608E-02  0.1048165E+00
         -4   -1    0    0    0  501 -0.00000000000E+00  0.00000000000E+00  0.11116706330E+04  0.11116706330E+04  0.00000000000E+00 0. -1.
         21   -1    0    0  501  502  0.00000000000E+00 -0.00000000000E+00 -0.45013356768E+03  0.45013356768E+03  0.00000000000E+00 0. -1.
        -13    1    1    2    0    0  0.19150910881E+03 -0.17416395663E+03  0.42566444104E+03  0.49819579492E+03  0.10566000000E+00 0.  1.
         13    1    1    2    0    0  0.17936062792E+03 -0.77990811117E+02 -0.30417403795E+03  0.36162778930E+03  0.10566000000E+00 0. -1.
         -4    1    1    2    0  502 -0.37086973673E+03  0.25215476775E+03  0.54004666226E+03  0.70198061650E+03  0.00000000000E+00 0. -1.
</event>
<event>
 5    1  0.2540860E-005  0.2727019E+03  0.7818608E-02  0.1027651E+00
         21   -1    0    0  501  502  0.00000000000E+00  0.00000000000E+00  0.16137076698E+03  0.16137076698E+03  0.00000000000E+00 0. -1.
         -4   -1    0    0    0  501 -0.00000000000E+00 -0.00000000000E+00 -0.27681140903E+04  0.27681140903E+04  0.00000000000E+00 0. -1.
        -13    1    1    2    0    0  0.16995733220E+03  0.12280777238E+03 -0.10551603361E+04  0.10757930050E+04  0.10566000000E+00 0.  1.
         13    1    1    2    0    0 -0.24822067942E+03  0.12953673566E+03 -0.21564316596E+00  0.27998808768E+03  0.10566000000E+00 0. -1.
         -4    1    1    2    0  502  0.78263347224E+02 -0.25234450804E+03 -0.15513673441E+04  0.15737037646E+04  0.00000000000E+00 0. -1.
</event>
<event>
 5    1  0.2540860E-005  0.7991363E+02  0.7818608E-02  0.1202882E+00
         21   -1    0    0  501  502  0.00000000000E+00  0.00000000000E+00  0.99488421635E+02  0.99488421635E+02  0.00000000000E+00 0. -1.
         -4   -1    0    0    0  501 -0.00000000000E+00 -0.00000000000E+00 -0.82967287653E+02  0.82967287653E+02  0.00000000000E+00 0. -1.
        -13    1    1    2    0    0  0.65615932522E+02  0.33786611255E+02  0.24052384957E+02  0.77624184936E+02  0.10566000000E+00 0.  1.
         13    1    1    2    0    0 -0.72064173035E+02 -0.42895388338E+02 -0.21862522016E+02  0.86667412612E+02  0.10566000000E+00 0. -1.
         -4    1    1    2    0  502  0.64482405129E+01  0.91087770838E+01  0.14331271040E+02  0.18164111740E+02  0.00000000000E+00 0. -1.
</event>
<event>
 5    1  0.2540860E-005  0.2288876E+03  0.7818608E-02  0.1128080E+00
         -4   -1    0    0    0  501 -0.00000000000E+00  0.00000000000E+00  0.16026436708E+03  0.16026436708E+03  0.00000000000E+00 0. -1.
         21   -1    0    0  501  502  0.00000000000E+00 -0.00000000000E+00 -0.49689849720E+03  0.49689849720E+03  0.00000000000E+00 0. -1.
        -13    1    1    2    0    0  0.16955337909E+01 -0.20651669551E+02  0.65091067033E+00  0.20731645830E+02  0.10566000000E+00 0.  1.
         13    1    1    2    0    0  0.21699484448E+03  0.84622792617E+02 -0.43011233735E+01  0.23295126182E+03  0.10566000000E+00 0. -1.
         -4    1    1    2    0  502 -0.21869037827E+03 -0.63971123067E+02 -0.33298391742E+03  0.40347995662E+03  0.00000000000E+00 0. -1.
</event>
<event>
 5    1  0.2540860E-005  0.4646984E+02  0.7818608E-02  0.1306869E+00
         -4   -1    0    0    0  501 -0.00000000000E+00  0.00000000000E+00  0.60388783167E+02  0.60388783167E+02  0.00000000000E+00 0. -1.
         21   -1    0    0  501  502  0.00000000000E+00 -0.00000000000E+00 -0.10098896238E+03  0.10098896238E+03  0.00000000000E+00 0. -1.
        -13    1    1    2    0    0 -0.36355051352E+02 -0.30291829031E+01  0.48770986069E+01  0.36805746328E+02  0.10566000000E+00 0.  1.
         13    1    1    2    0    0  0.64661689156E+02  0.13883971109E+02  0.43153921620E+01  0.66276183292E+02  0.10566000000E+00 0. -1.
         -4    1    1    2    0  502 -0.28306637803E+02 -0.10854788206E+02 -0.49792669984E+02  0.58295815929E+02  0.00000000000E+00 0. -1.
</event>
<event>
 5    1  0.2540860E-005  0.4354224E+03  0.7818608E-02  0.9719052E-01
         -4   -1    0    0    0  501 -0.00000000000E+00  0.00000000000E+00  0.12879892638E+04  0.12879892638E+04  0.00000000000E+00 0. -1.
         21   -1    0    0  501  502  0.00000000000E+00 -0.00000000000E+00 -0.39122707223E+03  0.39122707223E+03  0.00000000000E+00 0. -1.
        -13    1    1    2    0    0 -0.86243699913E+02 -0.30923351419E+03  0.42121824241E+03  0.52961133011E+03  0.10566000000E+00 0.  1.
         13    1    1    2    0    0  0.48012544185E+03  0.35808863487E+03  0.45499067454E+03  0.75217314192E+03  0.10566000000E+00 0. -1.
         -4    1    1    2    0  502 -0.39388174194E+03 -0.48855120672E+02  0.20553274645E+02  0.39743186403E+03  0.00000000000E+00 0. -1.
</event>
<event>
 5    1  0.2540860E-005  0.3989920E+03  0.7818608E-02  0.9864000E-01
         21   -1    0    0  501  502  0.00000000000E+00  0.00000000000E+00  0.18877513388E+04  0.18877513388E+04  0.00000000000E+00 0.  1.
          4   -1    0    0  502    0 -0.00000000000E+00 -0.00000000000E+00 -0.45811366090E+03  0.45811366090E+03  0.00000000000E+00 0.  1.
        -13    1    1    2    0    0 -0.21523059499E+03  0.15189009350E+03  0.77908728501E+03  0.82241827457E+03  0.10566000000E+00 0.  1.
         13    1    1    2    0    0 -0.28591902703E+03  0.41006807913E+03 -0.40362827495E+02  0.50153234048E+03  0.10566000000E+00 0. -1.
          4    1    1    2  501    0  0.50114962202E+03 -0.56195817263E+03  0.69091322037E+03  0.10219143846E+04  0.00000000000E+00 0.  1.
</event>
<event>
 5    1  0.2540860E-005  0.4953096E+03  0.7818608E-02  0.9764053E-01
         -4   -1    0    0    0  501 -0.00000000000E+00  0.00000000000E+00  0.19762160363E+04  0.19762160363E+04  0.00000000000E+00 0. -1.
         21   -1    0    0  501  502  0.00000000000E+00 -0.00000000000E+00 -0.24994337410E+03  0.24994337410E+03  0.00000000000E+00 0. -1.
        -13    1    1    2    0    0 -0.17854280193E+03 -0.54589005538E+02  0.89108981030E+03  0.91043865957E+03  0.10566000000E+00 0.  1.
         13    1    1    2    0    0  0.23564446617E+03  0.49307052440E+03  0.30676785494E+03  0.62670039449E+03  0.10566000000E+00 0. -1.
         -4    1    1    2    0  502 -0.57101664238E+02 -0.43848151886E+03  0.52841499698E+03  0.68902035636E+03  0.00000000000E+00 0. -1.
</event>
<event>
 5    1  0.2540860E-005  0.4388287E+02  0.7818608E-02  0.1323183E+00
         21   -1    0    0  501  502  0.00000000000E+00  0.00000000000E+00  0.20534402472E+03  0.20534402472E+03  0.00000000000E+00 0.  1.
         -4   -1    0    0    0  501 -0.00000000000E+00 -0.00000000000E+00 -0.63362605516E+02  0.63362605516E+02  0.00000000000E+00 0. -1.
        -13    1    1    2    0    0  0.94251549823E+01 -0.39393482021E+02  0.81956809417E+02  0.91419963608E+02  0.10566000000E+00 0.  1.
         13    1    1    2    0    0 -0.48375168685E+02  0.54935678286E+02 -0.29113667938E+02  0.78776281449E+02  0.10566000000E+00 0. -1.
         -4    1    1    2    0  502  0.38950013703E+02 -0.15542196264E+02  0.89138277724E+02  0.98510385177E+02  0.00000000000E+00 0. -1.
</event>
<event>
 5    1  0.2540860E-005  0.4013023E+03  0.7818608E-02  0.1006568E+00
          4   -1    0    0  502    0 -0.00000000000E+00  0.00000000000E+00  0.15373108643E+04  0.15373108643E+04  0.00000000000E+00 0.  1.
         21   -1    0    0  501  502  0.00000000000E+00 -0.00000000000E+00 -0.22228223177E+03  0.22228223177E+03  0.00000000000E+00 0.  1.
        -13    1    1    2    0    0 -0.38502295258E+03  0.20827980994E+03  0.95433901012E+03  0.10499457656E+04  0.10566000000E+00 0.  1.
         13    1    1    2    0    0  0.10586518148E+03  0.72583078458E+02  0.27644221096E+03  0.30478852848E+03  0.10566000000E+00 0. -1.
          4    1    1    2  501    0  0.27915777110E+03 -0.28086288840E+03  0.84247411453E+02  0.40485880203E+03  0.00000000000E+00 0.  1.
</event>
<event>
 5    1  0.2540860E-005  0.5950532E+03  0.7818608E-02  0.9290938E-01
         -4   -1    0    0    0  501 -0.00000000000E+00  0.00000000000E+00  0.17143924586E+04  0.17143924586E+04  0.00000000000E+00 0. -1.
         21   -1    0    0  501  502  0.00000000000E+00 -0.00000000000E+00 -0.42927027405E+03  0.42927027405E+03  0.00000000000E+00 0. -1.
        -13    1    1    2    0    0  0.37570975532E+03  0.38466904004E+03  0.58959215117E+03  0.79796428898E+03  0.10566000000E+00 0.  1.
         13    1    1    2    0    0 -0.26803703261E+03 -0.63489083646E+03  0.79824344033E+03  0.10545723428E+04  0.10566000000E+00 0. -1.
         -4    1    1    2    0  502 -0.10767272271E+03  0.25022179642E+03 -0.10271340695E+03  0.29112610084E+03  0.00000000000E+00 0. -1.
</event>
<event>
 5    1  0.2540860E-005  0.4812153E+03  0.7818608E-02  0.1003576E+00
         21   -1    0    0  501  502  0.00000000000E+00  0.00000000000E+00  0.11646440010E+04  0.11646440010E+04  0.00000000000E+00 0.  1.
          4   -1    0    0  502    0 -0.00000000000E+00 -0.00000000000E+00 -0.27043334240E+03  0.27043334240E+03  0.00000000000E+00 0.  1.
        -13    1    1    2    0    0 -0.40832204223E+02 -0.49247217986E+03  0.66468631999E+03  0.82825360366E+03  0.10566000000E+00 0.  1.
         13    1    1    2    0    0  0.75980567098E+02  0.30918950623E+02 -0.14886207337E+02  0.83370488886E+02  0.10566000000E+00 0. -1.
          4    1    1    2  501    0 -0.35148362874E+02  0.46155322924E+03  0.24441054590E+03  0.52345325081E+03  0.00000000000E+00 0.  1.
</event>
<event>
 5    1  0.2540860E-005  0.2469353E+03  0.7818608E-02  0.1031993E+00
         21   -1    0    0  501  502  0.00000000000E+00  0.00000000000E+00  0.69757579184E+03  0.69757579184E+03  0.00000000000E+00 0.  1.
         -4   -1    0    0    0  501 -0.00000000000E+00 -0.00000000000E+00 -0.10614305678E+04  0.10614305678E+04  0.00000000000E+00 0. -1.
        -13    1    1    2    0    0  0.66852391926E+02 -0.35517157032E+03  0.32640241910E+03  0.48698525340E+03  0.10566000000E+00 0.  1.
         13    1    1    2    0    0 -0.87867555593E+00  0.24284964840E+03 -0.95048030874E+03  0.98101455252E+03  0.10566000000E+00 0. -1.
         -4    1    1    2    0  502 -0.65973716370E+02  0.11232192192E+03  0.26022311370E+03  0.29100655371E+03  0.00000000000E+00 0. -1.
</event>
<event>
 5    1  0.2540860E-005  0.7191979E+02  0.7818608E-02  0.1232877E+00
          4   -1    0    0  502    0 -0.00000000000E+00  0.00000000000E+00  0.55280914325E+02  0.55280914325E+02  0.00000000000E+00 0.  1.
         21   -1    0    0  501  502  0.00000000000E+00 -0.00000000000E+00 -0.21958936398E+03  0.21958936398E+03  0.00000000000E+00 0. -1.
        -13    1    1    2    0    0 -0.50029825311E+02  0.85429898052E+02 -0.57914831203E+02  0.11469694738E+03  0.10566000000E+00 0.  1.
         13    1    1    2    0    0  0.51893487356E+02 -0.22322439015E+02 -0.46874181454E+02  0.73405894617E+02  0.10566000000E+00 0. -1.
          4    1    1    2  501    0 -0.18636620441E+01 -0.63107459037E+02 -0.59519436998E+02  0.86767436305E+02  0.00000000000E+00 0.  1.
</event>
<event>
 5    1  0.2540860E-005  0.2755163E+03  0.7818608E-02  0.1048905E+00
         -4   -1    0    0    0  501 -0.00000000000E+00  0.00000000000E+00  0.10103290628E+04  0.10103290628E+04  0.00000000000E+00 0. -1.
         21   -1    0    0  501  502  0.00000000000E+00 -0.00000000000E+00 -0.14676246900E+03  0.14676246900E+03  0.00000000000E+00 0. -1.
        -13    1    1    2    0    0  0.10181971463E+03 -0.31350714950E+02  0.43928577417E+03  0.45202004842E+03  0.10566000000E+00 0.  1.
         13    1    1    2    0    0 -0.21492773813E+03 -0.20379890810E+03  0.17405681238E+03  0.34354579412E+03  0.10566000000E+00 0. -1.
         -4    1    1    2    0  502  0.11310802349E+03  0.23514962304E+03  0.25022400729E+03  0.36152568929E+03  0.00000000000E+00 0. -1.
</event>
<event>
 5    1  0.2540860E-005  0.4900618E+03  0.7818608E-02  0.9569112E-01
         21   -1    0    0  501  502  0.00000000000E+00  0.00000000000E+00  0.49197016957E+03  0.49197016957E+03  0.00000000000E+00 0.  1.
          4   -1    0    0  502    0 -0.00000000000E+00 -0.00000000000E+00 -0.10954127527E+04  0.10954127527E+04  0.00000000000E+00 0.  1.
        -13    1    1    2    0    0 -0.24392515671E+03  0.61674069436E+02 -0.44759181653E+03  0.51346043499E+03  0.10566000000E+00 0.  1.
         13    1    1    2    0    0 -0.36855799555E+03  0.10031782911E+03 -0.21380476184E+03  0.43773410910E+03  0.10566000000E+00 0. -1.
          4    1    1    2  501    0  0.61248315225E+03 -0.16199189854E+03  0.57953995229E+02  0.63618837819E+03  0.00000000000E+00 0.  1.
</event>
<event>
 5    1  0.2540860E-005  0.7915053E+02  0.7818608E-02  0.1204578E+00
         21   -1    0    0  501  502  0.00000000000E+00  0.00000000000E+00  0.38077300403E+03  0.38077300403E+03  0.00000000000E+00 0. -1.
          4   -1    0    0  502    0 -0.00000000000E+00 -0.00000000000E+00 -0.37227659034E+02  0.37227659034E+02  0.00000000000E+00 0.  1.
        -13    1    1    2    0    0 -0.10018879971E+02  0.73201957967E+02  0.50645393269E+02  0.89576066164E+02  0.10566000000E+00 0.  1.
         13    1    1    2    0    0  0.12882648995E+02 -0.86361780562E+02  0.91146344320E+02  0.12622197524E+03  0.10566000000E+00 0. -1.
          4    1    1    2  501    0 -0.28637690235E+01  0.13159822595E+02  0.20175360741E+03  0.20220262166E+03  0.00000000000E+00 0.  1.
</event>
<event>
 5    1  0.2540860E-005  0.2940555E+02  0.7818608E-02  0.1416841E+00
         21   -1    0    0  501  502  0.00000000000E+00  0.00000000000E+00  0.28975787540E+03  0.28975787540E+03  0.00000000000E+00 0. -1.
          4   -1    0    0  502    0 -0.00000000000E+00 -0.00000000000E+00 -0.48830647576E+02  0.48830647576E+02  0.00000000000E+00 0.  1.
        -13    1    1    2    0    0  0.10570427699E+02 -0.35543291151E+02 -0.38547423832E+02  0.53488078445E+02  0.10566000000E+00 0.  1.
         13    1    1    2    0    0  0.15230639176E+02  0.21285589970E+02  0.10919855051E+03  0.11229151039E+03  0.10566000000E+00 0. -1.
          4    1    1    2  501    0 -0.25801066875E+02  0.14257701181E+02  0.17027610115E+03  0.17280893414E+03  0.00000000000E+00 0.  1.
</event>
<event>
 5    1  0.2540860E-005  0.7478035E+02  0.7818608E-02  0.1217740E+00
         21   -1    0    0  501  502  0.00000000000E+00  0.00000000000E+00  0.64248061044E+03  0.64248061044E+03  0.00000000000E+00 0. -1.
          4   -1    0    0  502    0 -0.00000000000E+00 -0.00000000000E+00 -0.50233644826E+02  0.50233644826E+02  0.00000000000E+00 0.  1.
        -13    1    1    2    0    0  0.11316394979E+02  0.64307891411E+01 -0.39484241790E+02  0.41574419516E+02  0.10566000000E+00 0.  1.
         13    1    1    2    0    0  0.48260468993E+02 -0.60421403918E+02  0.30054708889E+03  0.31033591917E+03  0.10566000000E+00 0. -1.
          4    1    1    2  501    0 -0.59576863972E+02  0.53990614777E+02  0.33118411851E+03  0.34080391658E+03  0.00000000000E+00 0.  1.
</event>
<event>
 5    1  0.2540860E-005  0.4558401E+03  0.7818608E-02  0.9636679E-01
          4   -1    0    0  502    0 -0.00000000000E+00  0.00000000000E+00  0.25736831637E+04  0.25736831637E+04  0.00000000000E+00 0.  1.
         21   -1    0    0  501  502  0.00000000000E+00 -0.00000000000E+00 -0.66997657159E+03  0.66997657159E+03  0.00000000000E+00 0.  1.
        -13    1    1    2    0    0 -0.97014900059E+02 -0.67616548346E+03 -0.48727870993E+02  0.68482557519E+03  0.10566000000E+00 0.  1.
         13    1    1    2    0    0  0.20555751288E+03  0.31156629768E+03  0.21131510350E+04  0.21458645709E+04  0.10566000000E+00 0. -1.
          4    1    1    2  501    0 -0.10854261282E+03  0.36459918577E+03 -0.16071657192E+03  0.41296958914E+03  0.00000000000E+00 0.  1.
</event>
<event>
 5    1  0.2540860E-005  0.3565359E+03  0.7818608E-02  0.9863724E-01
         21   -1    0    0  501  502  0.00000000000E+00  0.00000000000E+00  0.18999372762E+04  0.18999372762E+04  0.00000000000E+00 0.  1.
         -4   -1    0    0    0  501 -0.00000000000E+00 -0.00000000000E+00 -0.16422539140E+03  0.16422539140E+03  0.00000000000E+00 0. -1.
        -13    1    1    2    0    0 -0.10596875231E+03  0.29897808388E+03  0.71761435276E+03  0.78459393419E+03  0.10566000000E+00 0.  1.
         13    1    1    2    0    0  0.24003368970E+03 -0.34647189481E+03  0.10520496840E+04  0.11333435026E+04  0.10566000000E+00 0. -1.
         -4    1    1    2    0  502 -0.13406493738E+03  0.47493810925E+02 -0.33952151944E+02  0.14622523084E+03  0.00000000000E+00 0. -1.
</event>
<event>
 5    1  0.2540860E-005  0.4927726E+03  0.7818608E-02  0.9575523E-01
         21   -1    0    0  501  502  0.00000000000E+00  0.00000000000E+00  0.33934733045E+03  0.33934733045E+03  0.00000000000E+00 0.  1.
          4   -1    0    0  502    0 -0.00000000000E+00 -0.00000000000E+00 -0.18961866608E+04  0.18961866608E+04  0.00000000000E+00 0.  1.
        -13    1    1    2    0    0  0.56374270775E+02  0.31890687055E+03 -0.49230853005E+03  0.58927697258E+03  0.10566000000E+00 0.  1.
         13    1    1    2    0    0 -0.22642419865E+03  0.28905262997E+03 -0.93128443880E+03  0.10010544729E+04  0.10566000000E+00 0. -1.
          4    1    1    2  501    0  0.17004992787E+03 -0.60795950052E+03 -0.13324636154E+03  0.64520254580E+03  0.00000000000E+00 0.  1.
</event>
<event>
 5    1  0.2540860E-005  0.3044572E+03  0.7818608E-02  0.1005482E+00
          4   -1    0    0  502    0 -0.00000000000E+00  0.00000000000E+00  0.39025291487E+03  0.39025291487E+03  0.00000000000E+00 0.  1.
         21   -1    0    0  501  502  0.00000000000E+00 -0.00000000000E+00 -0.69400403118E+03  0.69400403118E+03  0.00000000000E+00 0. -1.
        -13    1    1    2    0    0 -0.14248229323E+03  0.32088782246E+03  0.17478596402E+03  0.39219936622E+03  0.10566000000E+00 0.  1.
         13    1    1    2    0    0  0.50853874398E+02 -0.23780256987E+03 -0.52971880669E+02  0.24888191996E+03  0.10566000000E+00 0. -1.
          4    1    1    2  501    0  0.91628418829E+02 -0.83085252588E+02 -0.42556519966E+03  0.44317565987E+03  0.00000000000E+00 0.  1.
</event>
<event>
 5    1  0.2540860E-005  0.6156648E+03  0.7818608E-02  0.9255212E-01
         -4   -1    0    0    0  501 -0.00000000000E+00  0.00000000000E+00  0.23921517942E+04  0.23921517942E+04  0.00000000000E+00 0. -1.
         21   -1    0    0  501  502  0.00000000000E+00 -0.00000000000E+00 -0.28778638700E+03  0.28778638700E+03  0.00000000000E+00 0. -1.
        -13    1    1    2    0    0  0.16885534592E+03 -0.48819185253E+03  0.47957219378E+03  0.70486375488E+03  0.10566000000E+00 0.  1.
         13    1    1    2    0    0 -0.22446542025E+03  0.63416515699E+03  0.16797749867E+04  0.18094734561E+04  0.10566000000E+00 0. -1.
         -4    1    1    2    0  502  0.55610074330E+02 -0.14597330446E+03 -0.54981773203E+02  0.16560097030E+03  0.00000000000E+00 0. -1.
</event>
<event>
 5    1  0.2540860E-005  0.4326266E+03  0.7818608E-02  0.9848633E-01
          4   -1    0    0  502    0 -0.00000000000E+00  0.00000000000E+00  0.11401694900E+04  0.11401694900E+04  0.00000000000E+00 0.  1.
         21   -1    0    0  501  502  0.00000000000E+00 -0.00000000000E+00 -0.32129632517E+03  0.32129632517E+03  0.00000000000E+00 0. -1.
        -13    1    1    2    0    0 -0.24488740586E+03 -0.51112412603E+03  0.53607602990E+03  0.78012514044E+03  0.10566000000E+00 0.  1.
         13    1    1    2    0    0  0.26661108540E+01  0.20997195182E+03  0.19156981823E+03  0.28424344341E+03  0.10566000000E+00 0. -1.
          4    1    1    2  501    0  0.24222129500E+03  0.30115217421E+03  0.91227316656E+02  0.39709723128E+03  0.00000000000E+00 0.  1.
</event>
<event>
 5    1  0.2540860E-005  0.1171464E+03  0.7818608E-02  0.1138941E+00
         21   -1    0    0  501  502  0.00000000000E+00  0.00000000000E+00  0.55950310157E+03  0.55950310157E+03  0.00000000000E+00 0.  1.
          4   -1    0    0  502    0 -0.00000000000E+00 -0.00000000000E+00 -0.36454042832E+03  0.36454042832E+03  0.00000000000E+00 0.  1.
        -13    1    1    2    0    0  0.14642185291E+02 -0.11325262780E+03 -0.31285725963E+03  0.33304688463E+03  0.10566000000E+00 0.  1.
         13    1    1    2    0    0 -0.98124885935E+01  0.17543962092E+03  0.16005543193E+03  0.23768276751E+03  0.10566000000E+00 0. -1.
          4    1    1    2  501    0 -0.48296966979E+01 -0.62186993112E+02  0.34776450095E+03  0.35331387774E+03  0.00000000000E+00 0.  1.
</event>
<event>
 5    1  0.2540860E-005  0.2696903E+03  0.7818608E-02  0.1037450E+00
         21   -1    0    0  501  502  0.00000000000E+00  0.00000000000E+00  0.22975445762E+03  0.22975445762E+03  0.00000000000E+00 0.  1.
          4   -1    0    0  502    0 -0.00000000000E+00 -0.00000000000E+00 -0.22429557952E+04  0.22429557952E+04  0.00000000000E+00 0.  1.
        -13    1    1    2    0    0 -0.11937632630E+03 -0.15280295239E+03  0.72432600810E+02  0.20699261428E+03  0.10566000000E+00 0.  1.
         13    1    1    2    0    0 -0.64820957972E+02 -0.34364605631E+03 -0.70359026216E+03  0.78570582076E+03  0.10566000000E+00 0. -1.
          4    1    1    2  501    0  0.18419728427E+03  0.49644900871E+03 -0.13820436762E+04  0.14800118178E+04  0.00000000000E+00 0.  1.
</event>
<event>
 5    1  0.2540860E-005  0.4069735E+03  0.7818608E-02  0.1009919E+00
          4   -1    0    0  502    0 -0.00000000000E+00  0.00000000000E+00  0.10455772378E+04  0.10455772378E+04  0.00000000000E+00 0.  1.
         21   -1    0    0  501  502  0.00000000000E+00 -0.00000000000E+00 -0.59443173050E+03  0.59443173050E+03  0.00000000000E+00 0.  1.
        -13    1    1    2    0    0 -0.38834702629E+03 -0.87197391010E+01  0.22094103054E+03  0.44688297888E+03  0.10566000000E+00 0.  1.
         13    1    1    2    0    0 -0.14204432834E+02  0.10954430530E+03  0.61641211030E+03  0.62623128445E+03  0.10566000000E+00 0. -1.
          4    1    1    2  501    0  0.40255145912E+03 -0.10082456620E+03 -0.38620763350E+03  0.56689470500E+03  0.00000000000E+00 0.  1.
</event>
<event>
 5    1  0.2540860E-005  0.1750122E+03  0.7818608E-02  0.1120416E+00
         21   -1    0    0  501  502  0.00000000000E+00  0.00000000000E+00  0.53495416640E+03  0.53495416640E+03  0.00000000000E+00 0. -1.
         -4   -1    0    0    0  501 -0.00000000000E+00 -0.00000000000E+00 -0.91078815651E+02  0.91078815651E+02  0.00000000000E+00 0. -1.
        -13    1    1    2    0    0 -0.45398873802E+02 -0.33715487003E+02  0.12589294316E+01  0.56563131753E+02  0.10566000000E+00 0.  1.
         13    1    1    2    0    0  0.67658451881E+02  0.18930614627E+03  0.24163596000E+03  0.31432854063E+03  0.10566000000E+00 0. -1.
         -4    1    1    2    0  502 -0.22259578079E+02 -0.15559065926E+03  0.20098046132E+03  0.25514130967E+03  0.00000000000E+00 0. -1.
</event>
<event>
 5    1  0.2540860E-005  0.7894569E+02  0.7818608E-02  0.1205037E+00
         21   -1    0    0  501  502  0.00000000000E+00  0.00000000000E+00  0.29470723307E+03  0.29470723307E+03  0.00000000000E+00 0.  1.
         -4   -1    0    0    0  501 -0.00000000000E+00 -0.00000000000E+00 -0.88404120698E+02  0.88404120698E+02  0.00000000000E+00 0. -1.
        -13    1    1    2    0    0  0.65948370402E+02  0.51388060542E+02  0.11538790105E+03  0.14249315492E+03  0.10566000000E+00 0.  1.
         13    1    1    2    0    0 -0.48565164442E+02 -0.61712545421E+02 -0.53353233907E+02  0.94939939920E+02  0.10566000000E+00 0. -1.
         -4    1    1    2    0  502 -0.17383205960E+02  0.10324484879E+02  0.14426844523E+03  0.14567825893E+03  0.00000000000E+00 0. -1.
</event>
<event>
 5    1  0.2540860E-005  0.5156790E+03  0.7818608E-02  0.9614306E-01
         21   -1    0    0  501  502  0.00000000000E+00  0.00000000000E+00  0.17813291701E+04  0.17813291701E+04  0.00000000000E+00 0. -1.
         -4   -1    0    0    0  501 -0.00000000000E+00 -0.00000000000E+00 -0.32101627339E+03  0.32101627339E+03  0.00000000000E+00 0. -1.
        -13    1    1    2    0    0  0.25053874065E+03  0.12289737538E+03 -0.84137153853E+01  0.27918493372E+03  0.10566000000E+00 0.  1.
         13    1    1    2    0    0 -0.29881669006E+03  0.42119783374E+03  0.55105293204E+03  0.75522074554E+03  0.10566000000E+00 0. -1.
         -4    1    1    2    0  502  0.48277949404E+02 -0.54409520912E+03  0.91767368010E+03  0.10679397643E+04  0.00000000000E+00 0. -1.
</event>
<event>
 5    1  0.2540860E-005  0.9038344E+02  0.7818608E-02  0.1181528E+00
         21   -1    0    0  501  502  0.00000000000E+00  0.00000000000E+00  0.49462158798E+02  0.49462158798E+02  0.00000000000E+00 0. -1.
          4   -1    0    0  502    0 -0.00000000000E+00 -0.00000000000E+00 -0.28135232335E+03  0.28135232335E+03  0.00000000000E+00 0.  1.
        -13    1    1    2    0    0  0.95849103208E+02  0.15274034969E+02 -0.18956932130E+03  0.21297156024E+03  0.10566000000E+00 0.  1.
         13    1    1    2    0    0 -0.69604810018E+02 -0.34251085975E+02 -0.28850979170E+02  0.82766881247E+02  0.10566000000E+00 0. -1.
          4    1    1    2  501    0 -0.26244293190E+02  0.18977051006E+02 -0.13469864080E+02  0.35076040658E+02  0.00000000000E+00 0.  1.
</event>
<event>
 5    1  0.2540860E-005  0.4094685E+03  0.7818608E-02  0.9950614E-01
         -4   -1    0    0    0  501 -0.00000000000E+00  0.00000000000E+00  0.28306186075E+03  0.28306186075E+03  0.00000000000E+00 0. -1.
         21   -1    0    0  501  502  0.00000000000E+00 -0.00000000000E+00 -0.12891821443E+04  0.12891821443E+04  0.00000000000E+00 0. -1.
        -13    1    1    2    0    0 -0.17090267984E+03  0.42357570383E+02 -0.34783936664E+02  0.17947652537E+03  0.10566000000E+00 0.  1.
         13    1    1    2    0    0 -0.24228016042E+03  0.13168943953E+03  0.47341346204E+02  0.27979099136E+03  0.10566000000E+00 0. -1.
         -4    1    1    2    0  502  0.41318284026E+03 -0.17404700992E+03 -0.10186776931E+04  0.11129764884E+04  0.00000000000E+00 0. -1.
</event>
<event>
 5    1  0.2540860E-005  0.4548837E+03  0.7818608E-02  0.9928039E-01
         -4   -1    0    0    0  501 -0.00000000000E+00  0.00000000000E+00  0.22222737302E+04  0.22222737302E+04  0.00000000000E+00 0. -1.
         21   -1    0    0  501  502  0.00000000000E+00 -0.00000000000E+00 -0.13926830445E+03  0.13926830445E+03  0.00000000000E+00 0. -1.
        -13    1    1    2    0    0 -0.91936101637E+02  0.10347479092E+03  0.60357553591E+03  0.61924366598E+03  0.10566000000E+00 0.  1.
         13    1    1    2    0    0 -0.18044114049E+03  0.34216229253E+03  0.76591213252E+03  0.85805328827E+03  0.10566000000E+00 0. -1.
         -4    1    1    2    0  502  0.27237724213E+03 -0.44563708345E+03  0.71351775730E+03  0.88424508037E+03  0.00000000000E+00 0. -1.
</event>
<event>
 5    1  0.2540860E-005  0.3498800E+03  0.7818608E-02  0.9886141E-01
         21   -1    0    0  501  502  0.00000000000E+00  0.00000000000E+00  0.26623915486E+03  0.26623915486E+03  0.00000000000E+00 0. -1.
          4   -1    0    0  502    0 -0.00000000000E+00 -0.00000000000E+00 -0.93218307479E+03  0.93218307479E+03  0.00000000000E+00 0.  1.
        -13    1    1    2    0    0  0.22081597208E+03  0.24950943505E+03 -0.37043258991E+03  0.49823184015E+03  0.10566000000E+00 0.  1.
         13    1    1    2    0    0 -0.21199360242E+03 -0.30214945568E+03 -0.42334874857E+03  0.56165804108E+03  0.10566000000E+00 0. -1.
          4    1    1    2  501    0 -0.88223696618E+01  0.52640020631E+02  0.12783741855E+03  0.13853234842E+03  0.00000000000E+00 0.  1.
</event>
<event>
 5    1  0.2540860E-005  0.4579589E+03  0.7818608E-02  0.9901986E-01
         21   -1    0    0  501  502  0.00000000000E+00  0.00000000000E+00  0.11880621326E+04  0.11880621326E+04  0.00000000000E+00 0. -1.
         -4   -1    0    0    0  501 -0.00000000000E+00 -0.00000000000E+00 -0.66087991936E+03  0.66087991936E+03  0.00000000000E+00 0. -1.
        -13    1    1    2    0    0  0.11227239355E+03 -0.96371035217E+02 -0.42538474788E+03  0.45038279460E+03  0.10566000000E+00 0.  1.
         13    1    1    2    0    0 -0.45844737698E+03 -0.13968886993E+03  0.83602705302E+03  0.96365358008E+03  0.10566000000E+00 0. -1.
         -4    1    1    2    0  502  0.34617498343E+03  0.23605990515E+03  0.11653990811E+03  0.43490567731E+03  0.00000000000E+00 0. -1.
</event>
<event>
 5    1  0.2540860E-005  0.2972921E+03  0.7818608E-02  0.1041849E+00
          4   -1    0    0  502    0 -0.00000000000E+00  0.00000000000E+00  0.15358133856E+04  0.15358133856E+04  0.00000000000E+00 0.  1.
         21   -1    0    0  501  502  0.00000000000E+00 -0.00000000000E+00 -0.28687779006E+03  0.28687779006E+03  0.00000000000E+00 0.  1.
        -13    1    1    2    0    0 -0.36056887918E+03  0.15469203235E+03  0.80748364515E+03  0.89775797955E+03  0.10566000000E+00 0.  1.
         13    1    1    2    0    0  0.96748070737E+02 -0.40252843050E+02  0.59140239504E+03  0.60061408957E+03  0.10566000000E+00 0. -1.
          4    1    1    2  501    0  0.26382080845E+03 -0.11443918930E+03 -0.14995044465E+03  0.32431910654E+03  0.00000000000E+00 0.  1.
</event>
<event>
 5    1  0.2540860E-005  0.3994175E+03  0.7818608E-02  0.9969140E-01
         -4   -1    0    0    0  501 -0.00000000000E+00  0.00000000000E+00  0.83462396495E+03  0.83462396495E+03  0.00000000000E+00 0. -1.
         21   -1    0    0  501  502  0.00000000000E+00 -0.00000000000E+00 -0.41072658966E+03  0.41072658966E+03  0.00000000000E+00 0. -1.
        -13    1    1    2    0    0  0.14151754165E+03  0.10868599404E+03  0.14501868619E+03  0.22993540485E+03  0.10566000000E+00 0.  1.
         13    1    1    2    0    0 -0.11064088161E+03  0.31494092301E+03  0.44761118559E+03  0.55837708969E+03  0.10566000000E+00 0. -1.
         -4    1    1    2    0  502 -0.30876660040E+02 -0.42362691705E+03 -0.16873249648E+03  0.45703806007E+03  0.00000000000E+00 0. -1.
</event>
<event>
 5    1  0.2540860E-005  0.2738787E+03  0.7818608E-02  0.1018711E+00
         -4   -1    0    0    0  501 -0.00000000000E+00  0.00000000000E+00  0.78626017530E+03  0.78626017530E+03  0.00000000000E+00 0. -1.
         21   -1    0    0  501  502  0.00000000000E+00 -0.00000000000E+00 -0.48956165882E+03  0.48956165882E+03  0.00000000000E+00 0. -1.
        -13    1    1    2    0    0 -0.19165665365E+03 -0.12903835927E+03  0.24757056050E+03  0.33863603565E+03  0.10566000000E+00 0.  1.
         13    1    1    2    0    0  0.26072759088E+03  0.19404785449E+03  0.43320372966E+03  0.54157079780E+03  0.10566000000E+00 0. -1.
         -4    1    1    2    0  502 -0.69070937227E+02 -0.65009495227E+02 -0.38407577367E+03  0.39561500068E+03  0.00000000000E+00 0. -1.
</event>
<event>
 5    1  0.2540860E-005  0.4234411E+02  0.7818608E-02  0.1326540E+00
          4   -1    0    0  502    0 -0.00000000000E+00  0.00000000000E+00  0.78156978675E+02  0.78156978675E+02  0.00000000000E+00 0.  1.
         21   -1    0    0  501  502  0.00000000000E+00 -0.00000000000E+00 -0.94179402734E+02  0.94179402734E+02  0.00000000000E+00 0. -1.
        -13    1    1    2    0    0 -0.39735898631E+02 -0.14723433653E+02  0.59865017223E+02  0.73345433325E+02  0.10566000000E+00 0.  1.
         13    1    1    2    0    0  0.33609756337E+02  0.29458759209E+02 -0.41099676618E+02  0.60717615214E+02  0.10566000000E+00 0. -1.
          4    1    1    2  501    0  0.61261422940E+01 -0.14735325556E+02 -0.34787764664E+02  0.38273332870E+02  0.00000000000E+00 0.  1.
</event>
<event>
 5    1  0.2540860E-005  0.4808443E+03  0.7818608E-02  0.9520975E-01
         21   -1    0    0  501  502  0.00000000000E+00  0.00000000000E+00  0.10588236611E+04  0.10588236611E+04  0.00000000000E+00 0. -1.
         -4   -1    0    0    0  501 -0.00000000000E+00 -0.00000000000E+00 -0.14761982520E+04  0.14761982520E+04  0.00000000000E+00 0. -1.
        -13    1    1    2    0    0 -0.40111162255E+03  0.22715257601E+03 -0.11290527568E+04  0.12195281733E+04  0.10566000000E+00 0.  1.
         13    1    1    2    0    0  0.71340440849E+03 -0.30924440176E+03  0.43936527683E+03  0.89309563190E+03  0.10566000000E+00 0. -1.
         -4    1    1    2    0  502 -0.31229278594E+03  0.82091825758E+02  0.27231288905E+03  0.42239810789E+03  0.00000000000E+00 0. -1.
</event>
<event>
 5    1  0.2540860E-005  0.4965210E+03  0.7818608E-02  0.9495455E-01
         -4   -1    0    0    0  501 -0.00000000000E+00  0.00000000000E+00  0.21913962425E+04  0.21913962425E+04  0.00000000000E+00 0. -1.
         21   -1    0    0  501  502  0.00000000000E+00 -0.00000000000E+00 -0.36624237026E+03  0.36624237026E+03  0.00000000000E+00 0. -1.
        -13    1    1    2    0    0  0.33575925358E+03 -0.34172911044E+03  0.11895889598E+04  0.12824332208E+04  0.10566000000E+00 0.  1.
         13    1    1    2    0    0 -0.47752832215E+03 -0.21987118453E+03  0.28141475041E+03  0.59629766824E+03  0.10566000000E+00 0. -1.
         -4    1    1    2    0  502  0.14176906857E+03  0.56160029497E+03  0.35415016204E+03  0.67890772376E+03  0.00000000000E+00 0. -1.
</event>
<event>
 5    1  0.2540860E-005  0.2485284E+03  0.7818608E-02  0.1031158E+00
         -4   -1    0    0    0  501 -0.00000000000E+00  0.00000000000E+00  0.47694053850E+03  0.47694053850E+03  0.00000000000E+00 0. -1.
         21   -1    0    0  501  502  0.00000000000E+00 -0.00000000000E+00 -0.10183301431E+04  0.10183301431E+04  0.00000000000E+00 0. -1.
        -13    1    1    2    0    0  0.16046688597E+03  0.11864293890E+03 -0.61329204629E+02  0.20877512052E+03  0.10566000000E+00 0.  1.
         13    1    1    2    0    0 -0.27107990072E+03 -0.31618885700E+02  0.35042762395E+03  0.44416618207E+03  0.10566000000E+00 0. -1.
         -4    1    1    2    0  502  0.11061301475E+03 -0.87024053204E+02 -0.83048802390E+03  0.84232937899E+03  0.00000000000E+00 0. -1.
</event>
<event>
 5    1  0.2540860E-005  0.5049392E+03  0.7818608E-02  0.9467212E-01
         21   -1    0    0  501  502  0.00000000000E+00  0.00000000000E+00  0.89481160186E+03  0.89481160186E+03  0.00000000000E+00 0.  1.
         -4   -1    0    0    0  501 -0.00000000000E+00 -0.00000000000E+00 -0.11219470721E+04  0.11219470721E+04  0.00000000000E+00 0. -1.
        -13    1    1    2    0    0 -0.32134086806E+03 -0.41423536844E+03 -0.16622480475E+03  0.54998326414E+03  0.10566000000E+00 0.  1.
         13    1    1    2    0    0  0.32215193502E+03  0.37839082064E+03 -0.68244308291E+03  0.84420972214E+03  0.10566000000E+00 0. -1.
         -4    1    1    2    0  502 -0.81106696027E+00  0.35844547809E+02  0.62153241748E+03  0.62256568763E+03  0.00000000000E+00 0. -1.
</event>
<event>
 5    1  0.2540860E-005  0.4724655E+03  0.7818608E-02  0.9852103E-01
         21   -1    0    0  501  502  0.00000000000E+00  0.00000000000E+00  0.18383709542E+03  0.18383709542E+03  0.00000000000E+00 0. -1.
         -4   -1    0    0    0  501 -0.00000000000E+00 -0.00000000000E+00 -0.21100483363E+04  0.21100483363E+04  0.00000000000E+00 0. -1.
        -13    1    1    2    0    0 -0.11158496494E+03  0.11374930763E+03 -0.69172516554E+03  0.70984070409E+03  0.10566000000E+00 0.  1.
         13    1    1    2    0    0 -0.39557337015E+03  0.53883407048E+01 -0.84681203859E+03  0.93466462716E+03  0.10566000000E+00 0. -1.
         -4    1    1    2    0  502  0.50715833510E+03 -0.11913764833E+03 -0.38767403673E+03  0.64938010045E+03  0.00000000000E+00 0. -1.
</event>
<event>
 5    1  0.2540860E-005  0.2637610E+03  0.7818608E-02  0.1057370E+00
          4   -1    0    0  502    0 -0.00000000000E+00  0.00000000000E+00  0.10921377441E+03  0.10921377441E+03  0.00000000000E+00 0.  1.
         21   -1    0    0  501  502  0.00000000000E+00 -0.00000000000E+00 -0.10123984043E+04  0.10123984043E+04  0.00000000000E+00 0.  1.
        -13    1    1    2    0    0  0.22242388385E+03  0.72866909435E+02 -0.36892886611E+03  0.43691016240E+03  0.10566000000E+00 0.  1.
         13    1    1    2    0    0  0.38436384733E+02  0.86376047698E+02 -0.38017682021E+02  0.10189962020E+03  0.10566000000E+00 0. -1.
          4    1    1    2  501    0 -0.26086026858E+03 -0.15924295713E+03 -0.49623808177E+03  0.58280239612E+03  0.00000000000E+00 0.  1.
</event>
<event>
 5    1  0.2540860E-005  0.2173782E+03  0.7818608E-02  0.1048834E+00
          4   -1    0    0  502    0 -0.00000000000E+00  0.00000000000E+00  0.11447309895E+04  0.11447309895E+04  0.00000000000E+00 0.  1.
         21   -1    0    0  501  502  0.00000000000E+00 -0.00000000000E+00 -0.30735615226E+03  0.30735615226E+03  0.00000000000E+00 0.  1.
        -13    1    1    2    0    0  0.12723957534E+03  0.19654456504E+03  0.96627203227E+03  0.99423404040E+03  0.10566000000E+00 0.  1.
         13    1    1    2    0    0 -0.17214870159E+03 -0.57729080348E+02  0.83759619837E+02  0.19995876389E+03  0.10566000000E+00 0. -1.
          4    1    1    2  501    0  0.44909126241E+02 -0.13881548469E+03 -0.21265681485E+03  0.25789433749E+03  0.00000000000E+00 0.  1.
</event>
<event>
 5    1  0.2540860E-005  0.4390752E+03  0.7818608E-02  0.9790931E-01
         -4   -1    0    0    0  501 -0.00000000000E+00  0.00000000000E+00  0.30367499381E+04  0.30367499381E+04  0.00000000000E+00 0. -1.
         21   -1    0    0  501  502  0.00000000000E+00 -0.00000000000E+00 -0.15780330550E+03  0.15780330550E+03  0.00000000000E+00 0. -1.
        -13    1    1    2    0    0  0.40656340167E+02 -0.24101159829E+03  0.13691793138E+04  0.13908240482E+04  0.10566000000E+00 0.  1.
         13    1    1    2    0    0  0.53957360651E+02  0.50687183528E+03  0.37083086387E+03  0.63035386485E+03  0.10566000000E+00 0. -1.
         -4    1    1    2    0  502 -0.94613700817E+02 -0.26586023700E+03  0.11389364549E+04  0.11733753306E+04  0.00000000000E+00 0. -1.
</event>
<event>
 5    1  0.2540860E-005  0.3748118E+03  0.7818608E-02  0.9804748E-01
          4   -1    0    0  502    0 -0.00000000000E+00  0.00000000000E+00  0.31135951888E+04  0.31135951888E+04  0.00000000000E+00 0.  1.
         21   -1    0    0  501  502  0.00000000000E+00 -0.00000000000E+00 -0.22139260345E+03  0.22139260345E+03  0.00000000000E+00 0.  1.
        -13    1    1    2    0    0 -0.47473452772E+02  0.39541508008E+03  0.10097856713E+04  0.10854832691E+04  0.10566000000E+00 0.  1.
         13    1    1    2    0    0  0.29797752659E+02 -0.36368594230E+03  0.20478624272E+04  0.20801192039E+04  0.10566000000E+00 0. -1.
          4    1    1    2  501    0  0.17675700113E+02 -0.31729137776E+02 -0.16544551315E+03  0.16938531925E+03  0.00000000000E+00 0.  1.
</event>
<event>
 5    1  0.2540860E-005  0.1028021E+03  0.7818608E-02  0.1160001E+00
         -4   -1    0    0    0  501 -0.00000000000E+00  0.00000000000E+00  0.98874665189E+02  0.98874665189E+02  0.00000000000E+00 0. -1.
         21   -1    0    0  501  502  0.00000000000E+00 -0.00000000000E+00 -0.17825428258E+03  0.17825428258E+03  0.00000000000E+00 0.  1.
        -13    1    1    2    0    0 -0.81344058324E+02  0.75449706805E+02 -0.36480134093E+01  0.11100825756E+03  0.10566000000E+00 0.  1.
         13    1    1    2    0    0  0.68163208883E+02 -0.66899109239E+02 -0.71639416082E+01  0.95776025630E+02  0.10566000000E+00 0. -1.
         -4    1    1    2    0  502  0.13180849441E+02 -0.85505975668E+01 -0.68567662376E+02  0.70344664577E+02  0.00000000000E+00 0. -1.
</event>
<event>
 5    1  0.2540860E-005  0.2282520E+03  0.7818608E-02  0.1042323E+00
          4   -1    0    0  502    0 -0.00000000000E+00  0.00000000000E+00  0.18441474665E+04  0.18441474665E+04  0.00000000000E+00 0.  1.
         21   -1    0    0  501  502  0.00000000000E+00 -0.00000000000E+00 -0.39146534753E+02  0.39146534753E+02  0.00000000000E+00 0. -1.
        -13    1    1    2    0    0 -0.15735715868E+02  0.23343903883E+03  0.13322852714E+04  0.13526734466E+04  0.10566000000E+00 0.  1.
         13    1    1    2    0    0  0.72080280952E+01 -0.21474047245E+03  0.45616275503E+03  0.50423198671E+03  0.10566000000E+00 0. -1.
          4    1    1    2  501    0  0.85276877725E+01 -0.18698566381E+02  0.16552905319E+02  0.26388567940E+02  0.00000000000E+00 0.  1.
</event>
<event>
 5    1  0.2540860E-005  0.4890186E+03  0.7818608E-02  0.9655208E-01
         21   -1    0    0  501  502  0.00000000000E+00  0.00000000000E+00  0.12921110846E+03  0.12921110846E+03  0.00000000000E+00 0. -1.
         -4   -1    0    0    0  501 -0.00000000000E+00 -0.00000000000E+00 -0.36813357237E+04  0.36813357237E+04  0.00000000000E+00 0. -1.
        -13    1    1    2    0    0  0.35577063536E+01 -0.28320303775E+03 -0.12164485817E+04  0.12489851003E+04  0.10566000000E+00 0.  1.
         13    1    1    2    0    0 -0.17465147665E+03 -0.27917724152E+03 -0.15252530886E+04  0.15603974064E+04  0.10566000000E+00 0. -1.
         -4    1    1    2    0  502  0.17109377030E+03  0.56238027927E+03 -0.81042294502E+03  0.10011643255E+04  0.00000000000E+00 0. -1.
</event>
<event>
 5    1  0.2540860E-005  0.4758247E+03  0.7818608E-02  0.9532594E-01
         21   -1    0    0  501  502  0.00000000000E+00  0.00000000000E+00  0.12454569584E+03  0.12454569584E+03  0.00000000000E+00 0.  1.
         -4   -1    0    0    0  501 -0.00000000000E+00 -0.00000000000E+00 -0.20775909214E+04  0.20775909214E+04  0.00000000000E+00 0. -1.
        -13    1    1    2    0    0  0.28926562977E+03 -0.36354141073E+03 -0.72443911817E+03  0.86060967283E+03  0.10566000000E+00 0.  1.
         13    1    1    2    0    0 -0.31959000211E+03  0.36309620753E+03 -0.12160142519E+04  0.13086891523E+04  0.10566000000E+00 0. -1.
         -4    1    1    2    0  502  0.30324372339E+02  0.44520320374E+00 -0.12591855452E+02  0.32837792060E+02  0.00000000000E+00 0. -1.
</event>
<event>
 5    1  0.2540860E-005  0.1171610E+03  0.7818608E-02  0.1138921E+00
         -4   -1    0    0    0  501 -0.00000000000E+00  0.00000000000E+00  0.21401092838E+03  0.21401092838E+03  0.00000000000E+00 0. -1.
         21   -1    0    0  501  502  0.00000000000E+00 -0.00000000000E+00 -0.18531338773E+03  0.18531338773E+03  0.00000000000E+00 0.  1.
        -13    1    1    2    0    0  0.62608084165E+02 -0.10580665440E+03 -0.50515461145E+02  0.13291592567E+03  0.10566000000E+00 0.  1.
         13    1    1    2    0    0 -0.41134442635E+02  0.10871605235E+03  0.15149376437E+03  0.19094919276E+03  0.10566000000E+00 0. -1.
         -4    1    1    2    0  502 -0.21473641530E+02 -0.29093979545E+01 -0.72280762573E+02  0.75459197684E+02  0.00000000000E+00 0. -1.
</event>
<event>
 5    1  0.2540860E-005  0.3924894E+02  0.7818608E-02  0.1343038E+00
         21   -1    0    0  501  502  0.00000000000E+00  0.00000000000E+00  0.15205699290E+03  0.15205699290E+03  0.00000000000E+00 0. -1.
          4   -1    0    0  502    0 -0.00000000000E+00 -0.00000000000E+00 -0.24149248408E+02  0.24149248408E+02  0.00000000000E+00 0.  1.
        -13    1    1    2    0    0 -0.39682275236E+02  0.33734893800E+01  0.14714620772E+02  0.42456973833E+02  0.10566000000E+00 0.  1.
         13    1    1    2    0    0  0.35829554752E+02 -0.18097476477E+02  0.32541978999E+02  0.51674628298E+02  0.10566000000E+00 0. -1.
          4    1    1    2  501    0  0.38527204843E+01  0.14723987097E+02  0.80651144719E+02  0.82074639174E+02  0.00000000000E+00 0.  1.
</event>
<event>
 5    1  0.2540860E-005  0.6289150E+02  0.7818608E-02  0.1246712E+00
         21   -1    0    0  501  502  0.00000000000E+00  0.00000000000E+00  0.12994446911E+03  0.12994446911E+03  0.00000000000E+00 0.  1.
         -4   -1    0    0    0  501 -0.00000000000E+00 -0.00000000000E+00 -0.73522200274E+02  0.73522200274E+02  0.00000000000E+00 0. -1.
        -13    1    1    2    0    0 -0.95959417561E+01  0.79023830508E+02  0.22277260996E+01  0.79635556217E+02  0.10566000000E+00 0.  1.
         13    1    1    2    0    0  0.16813852920E+02 -0.51294747401E+02 -0.87377896227E+01  0.54682875679E+02  0.10566000000E+00 0. -1.
         -4    1    1    2    0  502 -0.72179111641E+01 -0.27729083107E+02  0.62932332358E+02  0.69148237487E+02  0.00000000000E+00 0. -1.
</event>
<event>
 5    1  0.2540860E-005  0.4164486E+03  0.7818608E-02  0.1006013E+00
         -4   -1    0    0    0  501 -0.00000000000E+00  0.00000000000E+00  0.12981575603E+04  0.12981575603E+04  0.00000000000E+00 0. -1.
         21   -1    0    0  501  502  0.00000000000E+00 -0.00000000000E+00 -0.27679304290E+03  0.27679304290E+03  0.00000000000E+00 0. -1.
        -13    1    1    2    0    0 -0.50349063824E+02 -0.10554330618E+03  0.32243654598E+03  0.34298652314E+03  0.10566000000E+00 0.  1.
         13    1    1    2    0    0  0.37316954509E+02  0.43868009762E+03 -0.18713339341E+02  0.44066198313E+03  0.10566000000E+00 0. -1.
         -4    1    1    2    0  502  0.13032109315E+02 -0.33313679143E+03  0.71764131074E+03  0.79130209690E+03  0.00000000000E+00 0. -1.
</event>
<event>
 5    1  0.2540860E-005  0.3553125E+03  0.7818608E-02  0.9867806E-01
         21   -1    0    0  501  502  0.00000000000E+00  0.00000000000E+00  0.24364789196E+03  0.24364789196E+03  0.00000000000E+00 0.  1.
         -4   -1    0    0    0  501 -0.00000000000E+00 -0.00000000000E+00 -0.13096198406E+04  0.13096198406E+04  0.00000000000E+00 0. -1.
        -13    1    1    2    0    0 -0.17884051913E+03  0.34000868274E+03 -0.27711141776E+03  0.47368827792E+03  0.10566000000E+00 0.  1.
         13    1    1    2    0    0  0.14921710818E+03 -0.31210243268E+03 -0.89841144683E+03  0.96271325576E+03  0.10566000000E+00 0. -1.
         -4    1    1    2    0  502  0.29623410952E+02 -0.27906250060E+02  0.10955091592E+03  0.11686619891E+03  0.00000000000E+00 0. -1.
</event>
<event>
 5    1  0.3947396E-005  0.3558072E+03  0.7818608E-02  0.1022553E+00
         -4   -1    0    0    0  501 -0.00000000000E+00  0.00000000000E+00  0.34516086089E+03  0.34516086089E+03  0.00000000000E+00 0. -1.
         21   -1    0    0  501  502  0.00000000000E+00 -0.00000000000E+00 -0.91836639351E+03  0.91836639351E+03  0.00000000000E+00 0. -1.
        -13    1    1    2    0    0  0.10553965107E+03 -0.33331433167E+02 -0.16262906394E+02  0.11186641888E+03  0.10566000000E+00 0.  1.
         13    1    1    2    0    0  0.18706852659E+03 -0.19493430190E+03  0.18131437171E+03  0.32537505782E+03  0.10566000000E+00 0. -1.
         -4    1    1    2    0  502 -0.29260817766E+03  0.22826573506E+03 -0.73825699793E+03  0.82628577770E+03  0.00000000000E+00 0. -1.
</event>
<event>
 5    1  0.2540860E-005  0.4162465E+03  0.7818608E-02  0.9713539E-01
         -4   -1    0    0    0  501 -0.00000000000E+00  0.00000000000E+00  0.17126577620E+04  0.17126577620E+04  0.00000000000E+00 0. -1.
         21   -1    0    0  501  502  0.00000000000E+00 -0.00000000000E+00 -0.80235075433E+03  0.80235075433E+03  0.00000000000E+00 0. -1.
        -13    1    1    2    0    0 -0.29697090670E+03 -0.22829350558E+03  0.13209798462E+04  0.13730613276E+04  0.10566000000E+00 0.  1.
         13    1    1    2    0    0  0.12188296806E+03 -0.22484731912E+03  0.22586556501E+03  0.34121406688E+03  0.10566000000E+00 0. -1.
         -4    1    1    2    0  502  0.17508793864E+03  0.45314082469E+03 -0.63653840354E+03  0.80073312186E+03  0.00000000000E+00 0. -1.
</event>
<event>
 5    1  0.2540860E-005  0.1515303E+03  0.7818608E-02  0.1099612E+00
          4   -1    0    0  502    0 -0.00000000000E+00  0.00000000000E+00  0.29549522305E+03  0.29549522305E+03  0.00000000000E+00 0.  1.
         21   -1    0    0  501  502  0.00000000000E+00 -0.00000000000E+00 -0.23684979828E+03  0.23684979828E+03  0.00000000000E+00 0. -1.
        -13    1    1    2    0    0  0.11621219236E+03 -0.97351252494E+02  0.23827889320E+03  0.28241703583E+03  0.10566000000E+00 0.  1.
         13    1    1    2    0    0 -0.10229276233E+03  0.11272702982E+03 -0.14958878230E+03  0.21341979156E+03  0.10566000000E+00 0. -1.
          4    1    1    2  501    0 -0.13919430031E+02 -0.15375777322E+02 -0.30044686128E+02  0.36508193946E+02  0.00000000000E+00 0.  1.
</event>
<event>
 5    1  0.2540860E-005  0.4828700E+03  0.7818608E-02  0.9633157E-01
         21   -1    0    0  501  502  0.00000000000E+00  0.00000000000E+00  0.69347055418E+03  0.69347055418E+03  0.00000000000E+00 0.  1.
          4   -1    0    0  502    0 -0.00000000000E+00 -0.00000000000E+00 -0.64848793252E+03  0.64848793252E+03  0.00000000000E+00 0.  1.
        -13    1    1    2    0    0  0.32725804423E+03 -0.18441190445E+03 -0.56260313843E+02  0.37982997788E+03  0.10566000000E+00 0.  1.
         13    1    1    2    0    0  0.30384136496E+03  0.93679616657E+02  0.10622716637E+02  0.31813251784E+03  0.10566000000E+00 0. -1.
          4    1    1    2  501    0 -0.63109940919E+03  0.90732287789E+02  0.90620218861E+02  0.64399599098E+03  0.00000000000E+00 0.  1.
</event>
<event>
 5    1  0.2540860E-005  0.3333404E+03  0.7818608E-02  0.1023813E+00
         -4   -1    0    0    0  501 -0.00000000000E+00  0.00000000000E+00  0.18050253982E+04  0.18050253982E+04  0.00000000000E+00 0. -1.
         21   -1    0    0  501  502  0.00000000000E+00 -0.00000000000E+00 -0.11651458719E+03  0.11651458719E+03  0.00000000000E+00 0. -1.
        -13    1    1    2    0    0  0.63528322603E+02  0.11272040099E+03  0.60974427482E+03  0.62332160914E+03  0.10566000000E+00 0.  1.
         13    1    1    2    0    0  0.20864543420E+03  0.14303539047E+03  0.77982842881E+03  0.81983195210E+03  0.10566000000E+00 0. -1.
         -4    1    1    2    0  502 -0.27217375680E+03 -0.25575579146E+03  0.29893810735E+03  0.47838642412E+03  0.00000000000E+00 0. -1.
</event>
<event>
 5    1  0.2540860E-005  0.4249810E+03  0.7818608E-02  0.1002993E+00
         21   -1    0    0  501  502  0.00000000000E+00  0.00000000000E+00  0.17799123109E+03  0.17799123109E+03  0.00000000000E+00 0.  1.
          4   -1    0    0  502    0 -0.00000000000E+00 -0.00000000000E+00 -0.15926249853E+04  0.15926249853E+04  0.00000000000E+00 0.  1.
        -13    1    1    2    0    0 -0.44400076892E+03  0.88957431929E+02 -0.30859881388E+03  0.54798115532E+03  0.10566000000E+00 0.  1.
         13    1    1    2    0    0  0.10884864542E+03  0.53699069527E+02 -0.11669910924E+03  0.16837550575E+03  0.10566000000E+00 0. -1.
          4    1    1    2  501    0  0.33515212350E+03 -0.14265650146E+03 -0.98933583107E+03  0.10542595553E+04  0.00000000000E+00 0.  1.
</event>
<event>
 5    1  0.2540860E-005  0.1583238E+03  0.7818608E-02  0.1093181E+00
         21   -1    0    0  501  502  0.00000000000E+00  0.00000000000E+00  0.10651642930E+03  0.10651642930E+03  0.00000000000E+00 0.  1.
         -4   -1    0    0    0  501 -0.00000000000E+00 -0.00000000000E+00 -0.35898780675E+03  0.35898780675E+03  0.00000000000E+00 0. -1.
        -13    1    1    2    0    0  0.10672119254E+03  0.10793955977E+03 -0.10299647337E+03  0.18343567317E+03  0.10566000000E+00 0.  1.
         13    1    1    2    0    0 -0.11549327083E+03 -0.11554718978E+03 -0.18375369941E+03  0.24587655822E+03  0.10566000000E+00 0. -1.
         -4    1    1    2    0  502  0.87720782880E+01  0.76076300101E+01  0.34278795324E+02  0.36192004652E+02  0.00000000000E+00 0. -1.
</event>
<event>
 5    1  0.2540860E-005  0.3814133E+03  0.7818608E-02  0.9804956E-01
         21   -1    0    0  501  502  0.00000000000E+00  0.00000000000E+00  0.30578238618E+03  0.30578238618E+03  0.00000000000E+00 0.  1.
          4   -1    0    0  502    0 -0.00000000000E+00 -0.00000000000E+00 -0.24473963439E+04  0.24473963439E+04  0.00000000000E+00 0.  1.
        -13    1    1    2    0    0  0.51074903655E+03  0.12008025270E+03 -0.79565572157E+03  0.95307496235E+03  0.10566000000E+00 0.  1.
         13    1    1    2    0    0 -0.18390881498E+03 -0.30415468278E+03 -0.13784991804E+04  0.14235843933E+04  0.10566000000E+00 0. -1.
          4    1    1    2  501    0 -0.32684022157E+03  0.18407443009E+03  0.32540944278E+02  0.37651937441E+03  0.00000000000E+00 0.  1.
</event>
<event>
 5    1  0.2540860E-005  0.7118882E+02  0.7818608E-02  0.1223642E+00
          4   -1    0    0  502    0 -0.00000000000E+00  0.00000000000E+00  0.49749980471E+02  0.49749980471E+02  0.00000000000E+00 0.  1.
         21   -1    0    0  501  502  0.00000000000E+00 -0.00000000000E+00 -0.32845751481E+03  0.32845751481E+03  0.00000000000E+00 0. -1.
        -13    1    1    2    0    0 -0.76577560817E+02  0.10840971372E+02 -0.15610520849E+01  0.77356948806E+02  0.10566000000E+00 0.  1.
         13    1    1    2    0    0  0.57361245746E+02 -0.15540561867E+02 -0.66135290986E+02  0.88914056563E+02  0.10566000000E+00 0. -1.
          4    1    1    2  501    0  0.19216315071E+02  0.46995904952E+01 -0.21101119126E+03  0.21193648991E+03  0.00000000000E+00 0.  1.
</event>
<event>
 5    1  0.2540860E-005  0.4876779E+03  0.7818608E-02  0.9854398E-01
         -4   -1    0    0    0  501 -0.00000000000E+00  0.00000000000E+00  0.34661452175E+03  0.34661452175E+03  0.00000000000E+00 0. -1.
         21   -1    0    0  501  502  0.00000000000E+00 -0.00000000000E+00 -0.10956707725E+04  0.10956707725E+04  0.00000000000E+00 0. -1.
        -13    1    1    2    0    0 -0.13990634341E+03  0.33119735618E+02  0.57720760720E+02  0.15492707702E+03  0.10566000000E+00 0.  1.
         13    1    1    2    0    0  0.35670159743E+03  0.37116159535E+03 -0.58041488709E+03  0.77580823133E+03  0.10566000000E+00 0. -1.
         -4    1    1    2    0  502 -0.21679525402E+03 -0.40428133097E+03 -0.22636212443E+03  0.51154998594E+03  0.00000000000E+00 0. -1.
</event>
<event>
 5    1  0.2540860E-005  0.4231128E+03  0.7818608E-02  0.9664573E-01
          4   -1    0    0  502    0 -0.00000000000E+00  0.00000000000E+00  0.23046924349E+04  0.23046924349E+04  0.00000000000E+00 0.  1.
         21   -1    0    0  501  502  0.00000000000E+00 -0.00000000000E+00 -0.39047394103E+03  0.39047394103E+03  0.00000000000E+00 0.  1.
        -13    1    1    2    0    0 -0.68125847596E+03 -0.11656584388E+02  0.46634999028E+03  0.82567021966E+03  0.10566000000E+00 0.  1.
         13    1    1    2    0    0  0.36779776668E+03 -0.13424642972E+03  0.14717301213E+04  0.15229205042E+04  0.10566000000E+00 0. -1.
          4    1    1    2  501    0  0.31346070928E+03  0.14590301411E+03 -0.23861617716E+02  0.34657565204E+03  0.00000000000E+00 0.  1.
</event>
<event>
 5    1  0.2540860E-005  0.4898379E+03  0.7818608E-02  0.9596885E-01
         21   -1    0    0  501  502  0.00000000000E+00  0.00000000000E+00  0.42075651171E+03  0.42075651171E+03  0.00000000000E+00 0.  1.
          4   -1    0    0  502    0 -0.00000000000E+00 -0.00000000000E+00 -0.19453636179E+04  0.19453636179E+04  0.00000000000E+00 0.  1.
        -13    1    1    2    0    0 -0.16237510533E+03 -0.24213960390E+03 -0.40296535266E+03  0.49737143989E+03  0.10566000000E+00 0.  1.
         13    1    1    2    0    0 -0.31329710818E+03 -0.14774120800E+03 -0.11997673420E+04  0.12487690854E+04  0.10566000000E+00 0. -1.
          4    1    1    2  501    0  0.47567221351E+03  0.38988081190E+03  0.78125588478E+02  0.61997960432E+03  0.00000000000E+00 0.  1.
</event>
<event>
 5    1  0.2540860E-005  0.3365248E+03  0.7818608E-02  0.9932764E-01
          4   -1    0    0  502    0 -0.00000000000E+00  0.00000000000E+00  0.18050462691E+04  0.18050462691E+04  0.00000000000E+00 0.  1.
         21   -1    0    0  501  502  0.00000000000E+00 -0.00000000000E+00 -0.27654568403E+03  0.27654568403E+03  0.00000000000E+00 0.  1.
        -13    1    1    2    0    0  0.38442967706E+03 -0.18448486476E+03  0.10274130686E+04  0.11123841363E+04  0.10566000000E+00 0.  1.
         13    1    1    2    0    0 -0.22568603848E+03  0.16580350738E+03  0.67633195706E+03  0.73201770357E+03  0.10566000000E+00 0. -1.
          4    1    1    2  501    0 -0.15874363858E+03  0.18681357380E+02 -0.17524444057E+03  0.23719011332E+03  0.00000000000E+00 0.  1.
</event>
<event>
 5    1  0.2540860E-005  0.1508133E+03  0.7818608E-02  0.1100312E+00
         21   -1    0    0  501  502  0.00000000000E+00  0.00000000000E+00  0.38391275042E+03  0.38391275042E+03  0.00000000000E+00 0.  1.
         -4   -1    0    0    0  501 -0.00000000000E+00 -0.00000000000E+00 -0.63966856544E+03  0.63966856544E+03  0.00000000000E+00 0. -1.
        -13    1    1    2    0    0 -0.75603509104E+02  0.12895744434E+03  0.26283272545E+03  0.30236892328E+03  0.10566000000E+00 0.  1.
         13    1    1    2    0    0  0.86194535878E+02 -0.12382430746E+03 -0.61033931747E+03  0.62870983033E+03  0.10566000000E+00 0. -1.
         -4    1    1    2    0  502 -0.10591026773E+02 -0.51331368708E+01  0.91750777004E+02  0.92502562252E+02  0.00000000000E+00 0. -1.
</event>
<event>
 5    1  0.2540860E-005  0.5270277E+03  0.7818608E-02  0.9420622E-01
          4   -1    0    0  502    0 -0.00000000000E+00  0.00000000000E+00  0.40820159048E+04  0.40820159048E+04  0.00000000000E+00 0.  1.
         21   -1    0    0  501  502  0.00000000000E+00 -0.00000000000E+00 -0.11453060171E+03  0.11453060171E+03  0.00000000000E+00 0. -1.
        -13    1    1    2    0    0 -0.25675106671E+03  0.51502313157E+03  0.29142443712E+04  0.29705201906E+04  0.10566000000E+00 0.  1.
         13    1    1    2    0    0  0.10202499735E+03 -0.42961938471E+03  0.84067807734E+03  0.94959020461E+03  0.10566000000E+00 0. -1.
          4    1    1    2  501    0  0.15472606935E+03 -0.85403746860E+02  0.21256285454E+03  0.27643611133E+03  0.00000000000E+00 0.  1.
</event>
<event>
 5    1  0.2540860E-005  0.1300846E+03  0.7818608E-02  0.1122600E+00
          4   -1    0    0  502    0 -0.00000000000E+00  0.00000000000E+00  0.49362337413E+03  0.49362337413E+03  0.00000000000E+00 0.  1.
         21   -1    0    0  501  502  0.00000000000E+00 -0.00000000000E+00 -0.79489084696E+02  0.79489084696E+02  0.00000000000E+00 0.  1.
        -13    1    1    2    0    0 -0.63836622398E+02  0.11701463505E+03  0.41210580150E+03  0.43312670429E+03  0.10566000000E+00 0.  1.
         13    1    1    2    0    0  0.55431838622E+02 -0.10070360225E+03  0.17130303074E+02  0.11622118003E+03  0.10566000000E+00 0. -1.
          4    1    1    2  501    0  0.84047837753E+01 -0.16311032798E+02 -0.15101815140E+02  0.23764574512E+02  0.00000000000E+00 0.  1.
</event>
<event>
 5    1  0.2540860E-005  0.2050587E+03  0.7818608E-02  0.1070387E+00
          4   -1    0    0  502    0 -0.00000000000E+00  0.00000000000E+00  0.81358580994E+03  0.81358580994E+03  0.00000000000E+00 0.  1.
         21   -1    0    0  501  502  0.00000000000E+00 -0.00000000000E+00 -0.48793013299E+03  0.48793013299E+03  0.00000000000E+00 0.  1.
        -13    1    1    2    0    0 -0.30112193166E+03  0.12134302992E+03  0.49271236741E+03  0.59005426598E+03  0.10566000000E+00 0.  1.
         13    1    1    2    0    0  0.10318342423E+03 -0.91630388755E+02  0.22919227609E+03  0.26752954558E+03  0.10566000000E+00 0. -1.
          4    1    1    2  501    0  0.19793850743E+03 -0.29712641169E+02 -0.39624896655E+03  0.44393213137E+03  0.00000000000E+00 0.  1.
</event>
<event>
 5    1  0.2540860E-005  0.3716007E+03  0.7818608E-02  0.9950744E-01
         21   -1    0    0  501  502  0.00000000000E+00  0.00000000000E+00  0.40394018454E+03  0.40394018454E+03  0.00000000000E+00 0. -1.
         -4   -1    0    0    0  501 -0.00000000000E+00 -0.00000000000E+00 -0.94866196311E+03  0.94866196311E+03  0.00000000000E+00 0. -1.
        -13    1    1    2    0    0  0.15109608420E+02  0.23498621134E+03 -0.25638991247E+02  0.23686322809E+03  0.10566000000E+00 0.  1.
         13    1    1    2    0    0  0.32277021585E+03 -0.35237277478E+03 -0.58148788836E+03  0.75264557404E+03  0.10566000000E+00 0. -1.
         -4    1    1    2    0  502 -0.33787982427E+03  0.11738656344E+03  0.62405101029E+02  0.36309334552E+03  0.00000000000E+00 0. -1.
</event>
<event>
 5    1  0.2540860E-005  0.2970686E+03  0.7818608E-02  0.1052774E+00
         -4   -1    0    0    0  501 -0.00000000000E+00  0.00000000000E+00  0.24157238997E+04  0.24157238997E+04  0.00000000000E+00 0. -1.
         21   -1    0    0  501  502  0.00000000000E+00 -0.00000000000E+00 -0.89712527339E+02  0.89712527339E+02  0.00000000000E+00 0. -1.
        -13    1    1    2    0    0  0.35580559197E+02  0.66892920432E+02  0.41135918132E+03  0.41827864662E+03  0.10566000000E+00 0.  1.
         13    1    1    2    0    0  0.58261289598E+02 -0.34032468065E+03  0.16791671479E+04  0.17142979869E+04  0.10566000000E+00 0. -1.
         -4    1    1    2    0  502 -0.93841848795E+02  0.27343176022E+03  0.23548504314E+03  0.37285979352E+03  0.00000000000E+00 0. -1.
</event>
<event>
 5    1  0.2540860E-005  0.4856634E+03  0.7818608E-02  0.1001700E+00
         21   -1    0    0  501  502  0.00000000000E+00  0.00000000000E+00  0.15943018200E+03  0.15943018200E+03  0.00000000000E+00 0. -1.
         -4   -1    0    0    0  501 -0.00000000000E+00 -0.00000000000E+00 -0.18744341787E+04  0.18744341787E+04  0.00000000000E+00 0. -1.
        -13    1    1    2    0    0  0.72527369258E+02 -0.43994150757E+02 -0.20537117828E+03  0.22220044245E+03  0.10566000000E+00 0.  1.
         13    1    1    2    0    0  0.35614089369E+03  0.30142911919E+03 -0.96758676282E+03  0.10742066863E+04  0.10566000000E+00 0. -1.
         -4    1    1    2    0  502 -0.42866826294E+03 -0.25743496844E+03 -0.54204605564E+03  0.73745723202E+03  0.00000000000E+00 0. -1.
</event>
<event>
 5    1  0.2540860E-005  0.4573764E+03  0.7818608E-02  0.9937015E-01
         -4   -1    0    0    0  501 -0.00000000000E+00  0.00000000000E+00  0.91847597053E+03  0.91847597053E+03  0.00000000000E+00 0. -1.
         21   -1    0    0  501  502  0.00000000000E+00 -0.00000000000E+00 -0.32059239516E+03  0.32059239516E+03  0.00000000000E+00 0. -1.
        -13    1    1    2    0    0  0.13181285789E+03  0.96393510590E+01  0.87196867905E+00  0.13216776493E+03  0.10566000000E+00 0.  1.
         13    1    1    2    0    0 -0.53151785536E+03 -0.24229947540E+02  0.33477000828E+03  0.62862492038E+03  0.10566000000E+00 0. -1.
         -4    1    1    2    0  502  0.39970499747E+03  0.14590596481E+02  0.26224159841E+03  0.47827568038E+03  0.00000000000E+00 0. -1.
</event>
<event>
 5    1  0.2540860E-005  0.4353769E+03  0.7818608E-02  0.9936950E-01
         -4   -1    0    0    0  501 -0.00000000000E+00  0.00000000000E+00  0.57936448773E+03  0.57936448773E+03  0.00000000000E+00 0. -1.
         21   -1    0    0  501  502  0.00000000000E+00 -0.00000000000E+00 -0.59572719226E+03  0.59572719226E+03  0.00000000000E+00 0. -1.
        -13    1    1    2    0    0  0.89256143521E+02  0.12458925442E+03 -0.12807091128E+02  0.15379588493E+03  0.10566000000E+00 0.  1.
         13    1    1    2    0    0  0.36657706126E+03 -0.56805668350E+02  0.29348887680E+03  0.47301306300E+03  0.10566000000E+00 0. -1.
         -4    1    1    2    0  502 -0.45583320478E+03 -0.67783586069E+02 -0.29704449020E+03  0.54828273206E+03  0.00000000000E+00 0. -1.
</event>
<event>
 5    1  0.2540860E-005  0.2480697E+03  0.7818608E-02  0.1031398E+00
         21   -1    0    0  501  502  0.00000000000E+00  0.00000000000E+00  0.34785208717E+03  0.34785208717E+03  0.00000000000E+00 0. -1.
          4   -1    0    0  502    0 -0.00000000000E+00 -0.00000000000E+00 -0.19317203431E+03  0.19317203431E+03  0.00000000000E+00 0.  1.
        -13    1    1    2    0    0 -0.19657264044E+03  0.14772333272E+03  0.38072277622E+02  0.24882221663E+03  0.10566000000E+00 0.  1.
         13    1    1    2    0    0  0.20615012389E+03 -0.14306645305E+03  0.95367835005E+02  0.26844164857E+03  0.10566000000E+00 0. -1.
          4    1    1    2  501    0 -0.95774834492E+01 -0.46568796700E+01  0.21239940230E+02  0.23760256279E+02  0.00000000000E+00 0.  1.
</event>
<event>
 5    1  0.2540860E-005  0.5128283E+03  0.7818608E-02  0.9450290E-01
         21   -1    0    0  501  502  0.00000000000E+00  0.00000000000E+00  0.31783057289E+03  0.31783057289E+03  0.00000000000E+00 0.  1.
          4   -1    0    0  502    0 -0.00000000000E+00 -0.00000000000E+00 -0.20354097158E+04  0.20354097158E+04  0.00000000000E+00 0.  1.
        -13    1    1    2    0    0  0.24616399648E+02 -0.75531321271E+03 -0.53820443697E+03  0.92777585847E+03  0.10566000000E+00 0.  1.
         13    1    1    2    0    0 -0.11973877425E+03  0.42890052598E+03 -0.80344418260E+03  0.91859436149E+03  0.10566000000E+00 0. -1.
          4    1    1    2  501    0  0.95122374598E+02  0.32641268673E+03 -0.37593052338E+03  0.50687006877E+03  0.00000000000E+00 0.  1.
</event>
<event>
 5    1  0.2540860E-005  0.5175350E+03  0.7818608E-02  0.9515459E-01
         -4   -1    0    0    0  501 -0.00000000000E+00  0.00000000000E+00  0.14719673290E+04  0.14719673290E+04  0.00000000000E+00 0. -1.
         21   -1    0    0  501  502  0.00000000000E+00 -0.00000000000E+00 -0.83624751082E+03  0.83624751082E+03  0.00000000000E+00 0. -1.
        -13    1    1    2    0    0  0.59270794577E+03  0.32056779956E+02  0.92312215380E+03  0.10974902588E+04  0.10566000000E+00 0.  1.
         13    1    1    2    0    0  0.13016970514E+02 -0.97127664636E+02  0.32947091343E+03  0.34373582694E+03  0.10566000000E+00 0. -1.
         -4    1    1    2    0  502 -0.60572491629E+03  0.65070884681E+02 -0.61687324909E+03  0.86698875407E+03  0.00000000000E+00 0. -1.
</event>
<event>
 5    1  0.2540860E-005  0.4353827E+03  0.7818608E-02  0.9963460E-01
          4   -1    0    0  502    0 -0.00000000000E+00  0.00000000000E+00  0.10969244153E+04  0.10969244153E+04  0.00000000000E+00 0.  1.
         21   -1    0    0  501  502  0.00000000000E+00 -0.00000000000E+00 -0.30411465381E+03  0.30411465381E+03  0.00000000000E+00 0.  1.
        -13    1    1    2    0    0 -0.99332403180E+02  0.36962463390E+03  0.64345056692E+03  0.74867746029E+03  0.10566000000E+00 0.  1.
         13    1    1    2    0    0  0.10970631475E+03  0.87579134695E+02  0.13508612528E+03  0.19481748571E+03  0.10566000000E+00 0. -1.
          4    1    1    2  501    0 -0.10373911571E+02 -0.45720376860E+03  0.14273069262E+02  0.45754412308E+03  0.00000000000E+00 0.  1.
</event>
<event>
 5    1  0.2540860E-005  0.3096564E+02  0.7818608E-02  0.1397318E+00
         -4   -1    0    0    0  501 -0.00000000000E+00  0.00000000000E+00  0.27705303730E+02  0.27705303730E+02  0.00000000000E+00 0. -1.
         21   -1    0    0  501  502  0.00000000000E+00 -0.00000000000E+00 -0.86267176378E+02  0.86267176378E+02  0.00000000000E+00 0. -1.
        -13    1    1    2    0    0  0.38388157223E+01 -0.24547009907E+02 -0.34125757602E+02  0.42212210289E+02  0.10566000000E+00 0.  1.
         13    1    1    2    0    0  0.50074306579E+01  0.32839199906E+02  0.10452621298E+02  0.34824644554E+02  0.10566000000E+00 0. -1.
         -4    1    1    2    0  502 -0.88462463802E+01 -0.82921899988E+01 -0.34888736345E+02  0.36935625265E+02  0.00000000000E+00 0. -1.
</event>
<event>
 5    1  0.2540860E-005  0.4782281E+03  0.7818608E-02  0.9891892E-01
         21   -1    0    0  501  502  0.00000000000E+00  0.00000000000E+00  0.25798653876E+03  0.25798653876E+03  0.00000000000E+00 0.  1.
          4   -1    0    0  502    0 -0.00000000000E+00 -0.00000000000E+00 -0.12102919179E+04  0.12102919179E+04  0.00000000000E+00 0.  1.
        -13    1    1    2    0    0  0.90316868464E+02  0.51001546680E+03 -0.50412883774E+03  0.72278545178E+03  0.10566000000E+00 0.  1.
         13    1    1    2    0    0  0.93391148440E+02 -0.96650044883E+02 -0.51754276501E+02  0.14401963089E+03  0.10566000000E+00 0. -1.
          4    1    1    2  501    0 -0.18370801690E+03 -0.41336542192E+03 -0.39642226493E+03  0.60147337401E+03  0.00000000000E+00 0.  1.
</event>
<event>
 5    1  0.2540860E-005  0.4918551E+03  0.7818608E-02  0.9508577E-01
         -4   -1    0    0    0  501 -0.00000000000E+00  0.00000000000E+00  0.14927880942E+04  0.14927880942E+04  0.00000000000E+00 0. -1.
         21   -1    0    0  501  502  0.00000000000E+00 -0.00000000000E+00 -0.42279761437E+03  0.42279761437E+03  0.00000000000E+00 0. -1.
        -13    1    1    2    0    0 -0.14775187772E+03  0.44607030372E+03  0.21377102037E+03  0.51624354092E+03  0.10566000000E+00 0.  1.
         13    1    1    2    0    0  0.13039970934E+03  0.30627521430E+03  0.39560041258E+03  0.51701865410E+03  0.10566000000E+00 0. -1.
         -4    1    1    2    0  502  0.17352168380E+02 -0.75234551802E+03  0.46061904692E+03  0.88232351358E+03  0.00000000000E+00 0. -1.
</event>
<event>
 5    1  0.2540860E-005  0.4672445E+03  0.7818608E-02  0.9674547E-01
         21   -1    0    0  501  502  0.00000000000E+00  0.00000000000E+00  0.95085101590E+03  0.95085101590E+03  0.00000000000E+00 0. -1.
         -4   -1    0    0    0  501 -0.00000000000E+00 -0.00000000000E+00 -0.55955660731E+03  0.55955660731E+03  0.00000000000E+00 0. -1.
        -13    1    1    2    0    0  0.63936152978E+02 -0.29658187251E+03 -0.14423884544E+03  0.33593674175E+03  0.10566000000E+00 0.  1.
         13    1    1    2    0    0  0.86998221667E+02  0.64986776290E+03  0.27924634383E+03  0.71265372484E+03  0.10566000000E+00 0. -1.
         -4    1    1    2    0  502 -0.15093437465E+03 -0.35328589039E+03  0.25628691020E+03  0.46181715661E+03  0.00000000000E+00 0. -1.
</event>
<event>
 5    1  0.2540860E-005  0.6421016E+03  0.7818608E-02  0.9211485E-01
         21   -1    0    0  501  502  0.00000000000E+00  0.00000000000E+00  0.37248639832E+03  0.37248639832E+03  0.00000000000E+00 0.  1.
          4   -1    0    0  502    0 -0.00000000000E+00 -0.00000000000E+00 -0.20203568638E+04  0.20203568638E+04  0.00000000000E+00 0.  1.
        -13    1    1    2    0    0  0.69183745872E+03  0.19910478153E+02 -0.12656910302E+04  0.14425703767E+04  0.10566000000E+00 0.  1.
         13    1    1    2    0    0 -0.55427156169E+03  0.16555089244E+03 -0.42188970677E+03  0.71597136670E+03  0.10566000000E+00 0. -1.
          4    1    1    2  501    0 -0.13756589703E+03 -0.18546137060E+03  0.39710271570E+02  0.23430151872E+03  0.00000000000E+00 0.  1.
</event>
<event>
 5    1  0.2540860E-005  0.3654667E+03  0.7818608E-02  0.9834449E-01
         21   -1    0    0  501  502  0.00000000000E+00  0.00000000000E+00  0.18919600973E+03  0.18919600973E+03  0.00000000000E+00 0. -1.
          4   -1    0    0  502    0 -0.00000000000E+00 -0.00000000000E+00 -0.90734958714E+03  0.90734958714E+03  0.00000000000E+00 0.  1.
        -13    1    1    2    0    0 -0.62985415590E+02  0.35461381909E+03 -0.46535895972E+03  0.58845313818E+03  0.10566000000E+00 0.  1.
         13    1    1    2    0    0  0.97443469303E+02 -0.36155691270E+03 -0.27668722978E+03  0.46559044784E+03  0.10566000000E+00 0. -1.
          4    1    1    2  501    0 -0.34458053713E+02  0.69430936094E+01  0.23892612091E+02  0.42502010859E+02  0.00000000000E+00 0.  1.
</event>
<event>
 5    1  0.2540860E-005  0.2743302E+03  0.7818608E-02  0.1044625E+00
         21   -1    0    0  501  502  0.00000000000E+00  0.00000000000E+00  0.11349604329E+04  0.11349604329E+04  0.00000000000E+00 0.  1.
          4   -1    0    0  502    0 -0.00000000000E+00 -0.00000000000E+00 -0.29552266049E+03  0.29552266049E+03  0.00000000000E+00 0.  1.
        -13    1    1    2    0    0  0.25115877196E+03  0.96841932089E+02  0.91535880005E+03  0.95411782948E+03  0.10566000000E+00 0.  1.
         13    1    1    2    0    0  0.17498912125E+02  0.12141314975E+03 -0.34233001988E+01  0.12271550434E+03  0.10566000000E+00 0. -1.
          4    1    1    2  501    0 -0.26865768409E+03 -0.21825508184E+03 -0.72497727422E+02  0.35364975958E+03  0.00000000000E+00 0.  1.
</event>
<event>
 5    1  0.2540860E-005  0.2951949E+02  0.7818608E-02  0.1408809E+00
          4   -1    0    0  502    0 -0.00000000000E+00  0.00000000000E+00  0.16128631109E+03  0.16128631109E+03  0.00000000000E+00 0.  1.
         21   -1    0    0  501  502  0.00000000000E+00 -0.00000000000E+00 -0.72225581688E+02  0.72225581688E+02  0.00000000000E+00 0.  1.
        -13    1    1    2    0    0  0.29714017173E+02  0.14653830403E+01  0.15440700705E+03  0.15724695595E+03  0.10566000000E+00 0.  1.
         13    1    1    2    0    0 -0.22311156969E+02 -0.12366897784E+02 -0.36274969375E+02  0.44346504409E+02  0.10566000000E+00 0. -1.
          4    1    1    2  501    0 -0.74028602040E+01  0.10901514743E+02 -0.29071308278E+02  0.31918432416E+02  0.00000000000E+00 0.  1.
</event>
<event>
 5    1  0.2540860E-005  0.1062327E+03  0.7818608E-02  0.1154636E+00
         21   -1    0    0  501  502  0.00000000000E+00  0.00000000000E+00  0.64108134922E+03  0.64108134922E+03  0.00000000000E+00 0. -1.
          4   -1    0    0  502    0 -0.00000000000E+00 -0.00000000000E+00 -0.27151322030E+02  0.27151322030E+02  0.00000000000E+00 0.  1.
        -13    1    1    2    0    0 -0.10103885141E+03 -0.36310695410E+02  0.12947492198E+03  0.16819953235E+03  0.10566000000E+00 0.  1.
         13    1    1    2    0    0  0.10269960946E+03  0.18448042396E+02  0.38079278640E+03  0.39482996010E+03  0.10566000000E+00 0. -1.
          4    1    1    2  501    0 -0.16607580509E+01  0.17862653014E+02  0.10366231881E+03  0.10520317880E+03  0.00000000000E+00 0.  1.
</event>
<event>
 5    1  0.2540860E-005  0.2444123E+03  0.7818608E-02  0.1033330E+00
          4   -1    0    0  502    0 -0.00000000000E+00  0.00000000000E+00  0.60097336417E+02  0.60097336417E+02  0.00000000000E+00 0.  1.
         21   -1    0    0  501  502  0.00000000000E+00 -0.00000000000E+00 -0.12472756525E+04  0.12472756525E+04  0.00000000000E+00 0. -1.
        -13    1    1    2    0    0  0.23573716114E+03  0.93994851492E+02 -0.59603663006E+03  0.64781688523E+03  0.10566000000E+00 0.  1.
         13    1    1    2    0    0 -0.21020035844E+03 -0.11277972988E+03 -0.39941852299E+03  0.46522964849E+03  0.10566000000E+00 0. -1.
          4    1    1    2  501    0 -0.25536802694E+02  0.18784878384E+02 -0.19172316299E+03  0.19432645516E+03  0.00000000000E+00 0.  1.
</event>
<event>
 5    1  0.2540860E-005  0.4770623E+03  0.7818608E-02  0.9866026E-01
          4   -1    0    0  502    0 -0.00000000000E+00  0.00000000000E+00  0.14207453618E+04  0.14207453618E+04  0.00000000000E+00 0.  1.
         21   -1    0    0  501  502  0.00000000000E+00 -0.00000000000E+00 -0.23628061341E+03  0.23628061341E+03  0.00000000000E+00 0.  1.
        -13    1    1    2    0    0  0.49228254244E+02  0.41881997385E+03  0.32966793143E+03  0.53527053691E+03  0.10566000000E+00 0.  1.
         13    1    1    2    0    0  0.42587065654E+02  0.14140564456E+03  0.26342946215E+03  0.30200050855E+03  0.10566000000E+00 0. -1.
          4    1    1    2  501    0 -0.91815319898E+02 -0.56022561841E+03  0.59136735482E+03  0.81975492974E+03  0.00000000000E+00 0.  1.
</event>
<event>
 5    1  0.2540860E-005  0.4738854E+03  0.7818608E-02  0.9537123E-01
         -4   -1    0    0    0  501 -0.00000000000E+00  0.00000000000E+00  0.49495862867E+03  0.49495862867E+03  0.00000000000E+00 0. -1.
         21   -1    0    0  501  502  0.00000000000E+00 -0.00000000000E+00 -0.14402643093E+04  0.14402643093E+04  0.00000000000E+00 0.  1.
        -13    1    1    2    0    0  0.43003727610E+03 -0.52772641480E+02  0.11828338638E+03  0.44911911692E+03  0.10566000000E+00 0.  1.
         13    1    1    2    0    0 -0.59401033332E+03  0.32838356783E+03 -0.52027929536E+03  0.85520442004E+03  0.10566000000E+00 0. -1.
         -4    1    1    2    0  502  0.16397305721E+03 -0.27561092635E+03 -0.54330977166E+03  0.63089940101E+03  0.00000000000E+00 0. -1.
</event>
<event>
 5    1  0.2540860E-005  0.4031269E+03  0.7818608E-02  0.9720059E-01
          4   -1    0    0  502    0 -0.00000000000E+00  0.00000000000E+00  0.19807242853E+04  0.19807242853E+04  0.00000000000E+00 0.  1.
         21   -1    0    0  501  502  0.00000000000E+00 -0.00000000000E+00 -0.12418728637E+03  0.12418728637E+03  0.00000000000E+00 0. -1.
        -13    1    1    2    0    0 -0.22647906970E+03 -0.32944822331E+03  0.56827810868E+03  0.69481574595E+03  0.10566000000E+00 0.  1.
         13    1    1    2    0    0  0.23835835612E+03  0.32715801086E+03  0.13175913342E+04  0.13783664263E+04  0.10566000000E+00 0. -1.
          4    1    1    2  501    0 -0.11879286428E+02  0.22902124461E+01 -0.29332443952E+02  0.31729399416E+02  0.00000000000E+00 0.  1.
</event>
<event>
 5    1  0.2540860E-005  0.2866036E+03  0.7818608E-02  0.1099682E+00
         21   -1    0    0  501  502  0.00000000000E+00  0.00000000000E+00  0.25517205451E+03  0.25517205451E+03  0.00000000000E+00 0.  1.
          4   -1    0    0  502    0 -0.00000000000E+00 -0.00000000000E+00 -0.11172174922E+04  0.11172174922E+04  0.00000000000E+00 0.  1.
        -13    1    1    2    0    0  0.25355569046E+02 -0.28681814509E+03  0.14457619679E+03  0.32219534615E+03  0.10566000000E+00 0.  1.
         13    1    1    2    0    0 -0.17936398181E+02  0.13339066751E+02 -0.12891454336E+03  0.13083812798E+03  0.10566000000E+00 0. -1.
          4    1    1    2  501    0 -0.74191708648E+01  0.27347907834E+03 -0.87770709111E+03  0.91935607257E+03  0.00000000000E+00 0.  1.
</event>
<event>
 5    1  0.2540860E-005  0.6428809E+03  0.7818608E-02  0.9210229E-01
         21   -1    0    0  501  502  0.00000000000E+00  0.00000000000E+00  0.34257516299E+03  0.34257516299E+03  0.00000000000E+00 0. -1.
         -4   -1    0    0    0  501 -0.00000000000E+00 -0.00000000000E+00 -0.24457444617E+04  0.24457444617E+04  0.00000000000E+00 0. -1.
        -13    1    1    2    0    0 -0.18642618081E+01  0.64652074410E+03 -0.70908959432E+03  0.95958356174E+03  0.10566000000E+00 0.  1.
         13    1    1    2    0    0 -0.45304052434E+03 -0.56013691902E+03 -0.83636508671E+03  0.11038594359E+04  0.10566000000E+00 0. -1.
         -4    1    1    2    0  502  0.45490478615E+03 -0.86383825077E+02 -0.55771461765E+03  0.72487662705E+03  0.00000000000E+00 0. -1.
</event>
<event>
 5    1  0.2540860E-005  0.3351290E+03  0.7818608E-02  0.1017346E+00
          4   -1    0    0  502    0 -0.00000000000E+00  0.00000000000E+00  0.42103022108E+03  0.42103022108E+03  0.00000000000E+00 0.  1.
         21   -1    0    0  501  502  0.00000000000E+00 -0.00000000000E+00 -0.61724746998E+03  0.61724746998E+03  0.00000000000E+00 0.  1.
        -13    1    1    2    0    0 -0.26440497105E+03  0.11762748641E+03  0.22410799853E+03  0.36601997274E+03  0.10566000000E+00 0.  1.
         13    1    1    2    0    0 -0.87459597606E+02 -0.12927703207E+03 -0.56526637941E+02  0.16600302466E+03  0.10566000000E+00 0. -1.
          4    1    1    2  501    0  0.35186456865E+03  0.11649545664E+02 -0.36379860949E+03  0.50625469366E+03  0.00000000000E+00 0.  1.
</event>
<event>
 5    1  0.2540860E-005  0.6365707E+02  0.7818608E-02  0.1244422E+00
         -4   -1    0    0    0  501 -0.00000000000E+00  0.00000000000E+00  0.30813484885E+02  0.30813484885E+02  0.00000000000E+00 0. -1.
         21   -1    0    0  501  502  0.00000000000E+00 -0.00000000000E+00 -0.19602575989E+03  0.19602575989E+03  0.00000000000E+00 0.  1.
        -13    1    1    2    0    0 -0.59752993279E+02  0.47170918416E+01 -0.77945921657E+02  0.98327254758E+02  0.10566000000E+00 0.  1.
         13    1    1    2    0    0  0.66064416455E+02  0.57777909038E+01 -0.35308707921E+02  0.75130593026E+02  0.10566000000E+00 0. -1.
         -4    1    1    2    0  502 -0.63114231761E+01 -0.10494882745E+02 -0.51957645432E+02  0.53381396996E+02  0.00000000000E+00 0. -1.
</event>
<event>
 5    1  0.2540860E-005  0.1998356E+03  0.7818608E-02  0.1060249E+00
          4   -1    0    0  502    0 -0.00000000000E+00  0.00000000000E+00  0.74439551197E+03  0.74439551197E+03  0.00000000000E+00 0.  1.
         21   -1    0    0  501  502  0.00000000000E+00 -0.00000000000E+00 -0.14105049534E+03  0.14105049534E+03  0.00000000000E+00 0.  1.
        -13    1    1    2    0    0  0.19579962166E+03  0.81261428656E+02  0.42403107721E+03  0.47407096223E+03  0.10566000000E+00 0.  1.
         13    1    1    2    0    0 -0.17893633980E+03 -0.51217249040E+02  0.26224025290E+03  0.32157640104E+03  0.10566000000E+00 0. -1.
          4    1    1    2  501    0 -0.16863281860E+02 -0.30044179615E+02 -0.82926313484E+02  0.89798644042E+02  0.00000000000E+00 0.  1.
</event>
<event>
 5    1  0.2540860E-005  0.4648751E+03  0.7818608E-02  0.9638210E-01
          4   -1    0    0  502    0 -0.00000000000E+00  0.00000000000E+00  0.26884008396E+04  0.26884008396E+04  0.00000000000E+00 0.  1.
         21   -1    0    0  501  502  0.00000000000E+00 -0.00000000000E+00 -0.24331462725E+03  0.24331462725E+03  0.00000000000E+00 0.  1.
        -13    1    1    2    0    0  0.47463193504E+03  0.57067805717E+02  0.23632500027E+03  0.53327453073E+03  0.10566000000E+00 0.  1.
         13    1    1    2    0    0 -0.12200643761E+03  0.32807341756E+03  0.13387313488E+04  0.13837338521E+04  0.10566000000E+00 0. -1.
          4    1    1    2  501    0 -0.35262549743E+03 -0.38514122328E+03  0.87002986332E+03  0.10147070840E+04  0.00000000000E+00 0.  1.
</event>
<event>
 5    1  0.2540860E-005  0.4511660E+03  0.7818608E-02  0.9903399E-01
          4   -1    0    0  502    0 -0.00000000000E+00  0.00000000000E+00  0.22585758611E+04  0.22585758611E+04  0.00000000000E+00 0.  1.
         21   -1    0    0  501  502  0.00000000000E+00 -0.00000000000E+00 -0.16314234990E+03  0.16314234990E+03  0.00000000000E+00 0.  1.
        -13    1    1    2    0    0 -0.35380908971E+03 -0.84904590174E+02  0.12424520306E+04  0.12946338173E+04  0.10566000000E+00 0.  1.
         13    1    1    2    0    0 -0.13230899531E+03  0.78837620167E+02  0.50834201966E+03  0.53116161449E+03  0.10566000000E+00 0. -1.
          4    1    1    2  501    0  0.48611808501E+03  0.60669700063E+01  0.34463946087E+03  0.59592277913E+03  0.00000000000E+00 0.  1.
</event>
<event>
 5    1  0.2540860E-005  0.4258114E+02  0.7818608E-02  0.1325343E+00
          4   -1    0    0  502    0 -0.00000000000E+00  0.00000000000E+00  0.75611055455E+02  0.75611055455E+02  0.00000000000E+00 0.  1.
         21   -1    0    0  501  502  0.00000000000E+00 -0.00000000000E+00 -0.18855519872E+03  0.18855519872E+03  0.00000000000E+00 0.  1.
        -13    1    1    2    0    0  0.46444438006E+02 -0.45849708444E+02  0.14207350691E+02  0.66791777666E+02  0.10566000000E+00 0.  1.
         13    1    1    2    0    0 -0.24125876125E+02  0.25090147360E+02  0.24579955804E+02  0.42611721212E+02  0.10566000000E+00 0. -1.
          4    1    1    2  501    0 -0.22318561881E+02  0.20759561084E+02 -0.15173144976E+03  0.15476275530E+03  0.00000000000E+00 0.  1.
</event>
<event>
 5    1  0.2540860E-005  0.5009700E+03  0.7818608E-02  0.9926794E-01
          4   -1    0    0  502    0 -0.00000000000E+00  0.00000000000E+00  0.28325647583E+03  0.28325647583E+03  0.00000000000E+00 0.  1.
         21   -1    0    0  501  502  0.00000000000E+00 -0.00000000000E+00 -0.15123057229E+04  0.15123057229E+04  0.00000000000E+00 0.  1.
        -13    1    1    2    0    0 -0.43823416527E+03  0.79945239425E+02 -0.45005555045E+03  0.63323805521E+03  0.10566000000E+00 0.  1.
         13    1    1    2    0    0 -0.10346863600E+03  0.11012249923E+02  0.87798030346E+02  0.13614526646E+03  0.10566000000E+00 0. -1.
          4    1    1    2  501    0  0.54170280127E+03 -0.90957489348E+02 -0.86679172697E+03  0.10261788771E+04  0.00000000000E+00 0.  1.
</event>
<event>
 5    1  0.2540860E-005  0.1605352E+03  0.7818608E-02  0.1111096E+00
         -4   -1    0    0    0  501 -0.00000000000E+00  0.00000000000E+00  0.13047190067E+04  0.13047190067E+04  0.00000000000E+00 0. -1.
         21   -1    0    0  501  502  0.00000000000E+00 -0.00000000000E+00 -0.26424008641E+03  0.26424008641E+03  0.00000000000E+00 0. -1.
        -13    1    1    2    0    0 -0.44671194054E+02  0.82302488904E+02  0.29236458418E+03  0.30699556431E+03  0.10566000000E+00 0.  1.
         13    1    1    2    0    0 -0.15829646751E+03 -0.20755967313E+02 -0.21947598067E+03  0.27140062465E+03  0.10566000000E+00 0. -1.
         -4    1    1    2    0  502  0.20296766156E+03 -0.61546521591E+02  0.96759031678E+03  0.99056290416E+03  0.00000000000E+00 0. -1.
</event>
<event>
 5    1  0.2540860E-005  0.4741833E+03  0.7818608E-02  0.9642451E-01
         21   -1    0    0  501  502  0.00000000000E+00  0.00000000000E+00  0.38891877532E+03  0.38891877532E+03  0.00000000000E+00 0.  1.
          4   -1    0    0  502    0 -0.00000000000E+00 -0.00000000000E+00 -0.13392848098E+04  0.13392848098E+04  0.00000000000E+00 0.  1.
        -13    1    1    2    0    0  0.51340662979E+02 -0.28674960060E+03 -0.51021017149E+03  0.58751649115E+03  0.10566000000E+00 0.  1.
         13    1    1    2    0    0 -0.17212486455E+03 -0.27558116347E+03 -0.46235173771E+03  0.56510272268E+03  0.10566000000E+00 0. -1.
          4    1    1    2  501    0  0.12078420157E+03  0.56233076407E+03  0.22195874768E+02  0.57558437125E+03  0.00000000000E+00 0.  1.
</event>
<event>
 5    1  0.2540860E-005  0.8122659E+03  0.7818608E-02  0.8974348E-01
         21   -1    0    0  501  502  0.00000000000E+00  0.00000000000E+00  0.36254393353E+03  0.36254393353E+03  0.00000000000E+00 0.  1.
         -4   -1    0    0    0  501 -0.00000000000E+00 -0.00000000000E+00 -0.31069425891E+04  0.31069425891E+04  0.00000000000E+00 0. -1.
        -13    1    1    2    0    0  0.72000192049E+03 -0.22656796406E+03 -0.16831006406E+04  0.18446039102E+04  0.10566000000E+00 0.  1.
         13    1    1    2    0    0 -0.86082115259E+03  0.42398529393E+03 -0.97366122834E+03  0.13670379603E+04  0.10566000000E+00 0. -1.
         -4    1    1    2    0  502  0.14081923211E+03 -0.19741732987E+03 -0.87636786623E+02  0.25784465214E+03  0.00000000000E+00 0. -1.
</event>
<event>
 5    1  0.2540860E-005  0.5300125E+03  0.7818608E-02  0.9414510E-01
          4   -1    0    0  502    0 -0.00000000000E+00  0.00000000000E+00  0.21117985061E+04  0.21117985061E+04  0.00000000000E+00 0.  1.
         21   -1    0    0  501  502  0.00000000000E+00 -0.00000000000E+00 -0.25372523335E+03  0.25372523335E+03  0.00000000000E+00 0. -1.
        -13    1    1    2    0    0  0.31059591075E+03 -0.44150639151E+03  0.15050965735E+04  0.15989726140E+04  0.10566000000E+00 0.  1.
         13    1    1    2    0    0 -0.27927821705E+03  0.42208640239E+03  0.44089399769E+03  0.67122334730E+03  0.10566000000E+00 0. -1.
          4    1    1    2  501    0 -0.31317693697E+02  0.19419989130E+02 -0.87917298472E+02  0.95327778149E+02  0.00000000000E+00 0.  1.
</event>
<event>
 5    1  0.2540860E-005  0.3871865E+03  0.7818608E-02  0.9766798E-01
         21   -1    0    0  501  502  0.00000000000E+00  0.00000000000E+00  0.11053217551E+03  0.11053217551E+03  0.00000000000E+00 0.  1.
         -4   -1    0    0    0  501 -0.00000000000E+00 -0.00000000000E+00 -0.23598582814E+04  0.23598582814E+04  0.00000000000E+00 0. -1.
        -13    1    1    2    0    0 -0.37852704742E+03  0.13146084630E+03 -0.44158936847E+03  0.59629343552E+03  0.10566000000E+00 0.  1.
         13    1    1    2    0    0  0.36940762835E+03 -0.10413583842E+03 -0.18047803434E+04  0.18451391188E+04  0.10566000000E+00 0. -1.
         -4    1    1    2    0  502  0.91194190678E+01 -0.27325007874E+02 -0.29563940969E+01  0.28957902643E+02  0.00000000000E+00 0. -1.
</event>
<event>
 5    1  0.2540860E-005  0.4749060E+03  0.7818608E-02  0.1006018E+00
         -4   -1    0    0    0  501 -0.00000000000E+00  0.00000000000E+00  0.45005631043E+03  0.45005631043E+03  0.00000000000E+00 0. -1.
         21   -1    0    0  501  502  0.00000000000E+00 -0.00000000000E+00 -0.84438306624E+03  0.84438306624E+03  0.00000000000E+00 0. -1.
        -13    1    1    2    0    0 -0.52253835598E+02  0.59036399190E+02  0.14036476369E+03  0.16099080040E+03  0.10566000000E+00 0.  1.
         13    1    1    2    0    0 -0.36491867515E+03 -0.29608864507E+03 -0.88424178152E+02  0.47817671593E+03  0.10566000000E+00 0. -1.
         -4    1    1    2    0  502  0.41717251075E+03  0.23705224588E+03 -0.44626734134E+03  0.65527186034E+03  0.00000000000E+00 0. -1.
</event>
<event>
 5    1  0.2540860E-005  0.4640657E+03  0.7818608E-02  0.9885732E-01
         21   -1    0    0  501  502  0.00000000000E+00  0.00000000000E+00  0.57633339013E+03  0.57633339013E+03  0.00000000000E+00 0. -1.
         -4   -1    0    0    0  501 -0.00000000000E+00 -0.00000000000E+00 -0.74331020804E+03  0.74331020804E+03  0.00000000000E+00 0. -1.
        -13    1    1    2    0    0  0.36189436611E+02 -0.14572694649E+03 -0.26622394400E+03  0.30564884718E+03  0.10566000000E+00 0.  1.
         13    1    1    2    0    0 -0.44383203122E+03 -0.12242677206E+03  0.22159004807E+03  0.51095728493E+03  0.10566000000E+00 0. -1.
         -4    1    1    2    0  502  0.40764259461E+03  0.26815371855E+03 -0.12234292197E+03  0.50303746607E+03  0.00000000000E+00 0. -1.
</event>
<event>
 5    1  0.2540860E-005  0.4912836E+03  0.7818608E-02  0.9497284E-01
         21   -1    0    0  501  502  0.00000000000E+00  0.00000000000E+00  0.50214674083E+03  0.50214674083E+03  0.00000000000E+00 0. -1.
         -4   -1    0    0    0  501 -0.00000000000E+00 -0.00000000000E+00 -0.23635718063E+04  0.23635718063E+04  0.00000000000E+00 0. -1.
        -13    1    1    2    0    0  0.32460484855E+02  0.47744184246E+03 -0.17324106749E+04  0.17972899471E+04  0.10566000000E+00 0.  1.
         13    1    1    2    0    0  0.21134423970E+03 -0.65620935095E+03  0.89801545253E+02  0.69522760922E+03  0.10566000000E+00 0. -1.
         -4    1    1    2    0  502 -0.24380472455E+03  0.17876750849E+03 -0.21881593576E+03  0.37320099082E+03  0.00000000000E+00 0. -1.
</event>
<event>
 5    1  0.2540860E-005  0.5927920E+03  0.7818608E-02  0.9613777E-01
         21   -1    0    0  501  502  0.00000000000E+00  0.00000000000E+00  0.70907240069E+03  0.70907240069E+03  0.00000000000E+00 0.  1.
          4   -1    0    0  502    0 -0.00000000000E+00 -0.00000000000E+00 -0.13302674192E+04  0.13302674192E+04  0.00000000000E+00 0.  1.
        -13    1    1    2    0    0 -0.52434861676E+03  0.11079670437E+03  0.19874845548E+03  0.57159281076E+03  0.10566000000E+00 0.  1.
         13    1    1    2    0    0 -0.17529453225E+03  0.56097739128E+02 -0.71808517414E+03  0.74129714545E+03  0.10566000000E+00 0. -1.
          4    1    1    2  501    0  0.69964314901E+03 -0.16689444350E+03 -0.10185829988E+03  0.72644986371E+03  0.00000000000E+00 0.  1.
</event>
<event>
 5    1  0.2540860E-005  0.7549474E+02  0.7818608E-02  0.1213007E+00
         21   -1    0    0  501  502  0.00000000000E+00  0.00000000000E+00  0.29437814082E+03  0.29437814082E+03  0.00000000000E+00 0. -1.
         -4   -1    0    0    0  501 -0.00000000000E+00 -0.00000000000E+00 -0.83011738590E+02  0.83011738590E+02  0.00000000000E+00 0. -1.
        -13    1    1    2    0    0  0.46170604672E+02 -0.51771978067E+02 -0.32048985690E+02  0.76414730887E+02  0.10566000000E+00 0.  1.
         13    1    1    2    0    0 -0.55069129950E+02  0.92723204539E+02  0.85588468049E+02  0.13767933309E+03  0.10566000000E+00 0. -1.
         -4    1    1    2    0  502  0.88985252777E+01 -0.40951226473E+02  0.15782691987E+03  0.16329581543E+03  0.00000000000E+00 0. -1.
</event>
<event>
 5    1  0.2540860E-005  0.1050008E+03  0.7818608E-02  0.1156537E+00
         21   -1    0    0  501  502  0.00000000000E+00  0.00000000000E+00  0.72349530229E+03  0.72349530229E+03  0.00000000000E+00 0.  1.
         -4   -1    0    0    0  501 -0.00000000000E+00 -0.00000000000E+00 -0.69884174371E+02  0.69884174371E+02  0.00000000000E+00 0. -1.
        -13    1    1    2    0    0 -0.47344108566E+02  0.10476980447E+03  0.61419718660E+03  0.62486508283E+03  0.10566000000E+00 0.  1.
         13    1    1    2    0    0  0.41826030764E+02 -0.95565852047E+02 -0.21627837691E+02  0.10653648884E+03  0.10566000000E+00 0. -1.
         -4    1    1    2    0  502  0.55180778028E+01 -0.92039524233E+01  0.61041779010E+02  0.61977904994E+02  0.00000000000E+00 0. -1.
</event>
<event>
 5    1  0.2540860E-005  0.4443475E+03  0.7818608E-02  0.9609078E-01
         21   -1    0    0  501  502  0.00000000000E+00  0.00000000000E+00  0.27316807209E+03  0.27316807209E+03  0.00000000000E+00 0. -1.
          4   -1    0    0  502    0 -0.00000000000E+00 -0.00000000000E+00 -0.10211289455E+04  0.10211289455E+04  0.00000000000E+00 0.  1.
        -13    1    1    2    0    0  0.40114741509E+03  0.11986861227E+03 -0.46508577573E+03  0.62577353954E+03  0.10566000000E+00 0.  1.
         13    1    1    2    0    0 -0.47043234009E+03 -0.12131965114E+03 -0.32767825629E+03  0.58600178769E+03  0.10566000000E+00 0. -1.
          4    1    1    2  501    0  0.69284925006E+02  0.14510388757E+01  0.44803158662E+02  0.82521690318E+02  0.00000000000E+00 0.  1.
</event>
<event>
 5    1  0.2540860E-005  0.2565232E+03  0.7818608E-02  0.1033160E+00
         -4   -1    0    0    0  501 -0.00000000000E+00  0.00000000000E+00  0.69767120871E+03  0.69767120871E+03  0.00000000000E+00 0. -1.
         21   -1    0    0  501  502  0.00000000000E+00 -0.00000000000E+00 -0.25603910266E+03  0.25603910266E+03  0.00000000000E+00 0. -1.
        -13    1    1    2    0    0  0.19081301410E+02  0.21165064338E+03  0.23221207997E+03  0.31477381110E+03  0.10566000000E+00 0.  1.
         13    1    1    2    0    0 -0.26953426952E+03 -0.16656729771E+03  0.21752150531E+03  0.38432929052E+03  0.10566000000E+00 0. -1.
         -4    1    1    2    0  502  0.25045296811E+03 -0.45083345666E+02 -0.81014792358E+01  0.25460720975E+03  0.00000000000E+00 0. -1.
</event>
<event>
 5    1  0.2540860E-005  0.4486020E+03  0.7818608E-02  0.1012797E+00
         21   -1    0    0  501  502  0.00000000000E+00  0.00000000000E+00  0.16405380234E+03  0.16405380234E+03  0.00000000000E+00 0. -1.
         -4   -1    0    0    0  501 -0.00000000000E+00 -0.00000000000E+00 -0.30067989275E+04  0.30067989275E+04  0.00000000000E+00 0. -1.
        -13    1    1    2    0    0  0.70692517149E+02  0.25671599323E+02  0.62048602810E+02  0.97501298798E+02  0.10566000000E+00 0.  1.
         13    1    1    2    0    0  0.33541703013E+03  0.20931013413E+03 -0.21391543976E+04  0.21753843026E+04  0.10566000000E+00 0. -1.
         -4    1    1    2    0  502 -0.40610954727E+03 -0.23498173345E+03 -0.76563933043E+03  0.89796712843E+03  0.00000000000E+00 0. -1.
</event>
<event>
 5    1  0.2540860E-005  0.4557966E+03  0.7818608E-02  0.1020052E+00
         -4   -1    0    0    0  501 -0.00000000000E+00  0.00000000000E+00  0.47280329800E+03  0.47280329800E+03  0.00000000000E+00 0. -1.
         21   -1    0    0  501  502  0.00000000000E+00 -0.00000000000E+00 -0.63139398718E+03  0.63139398718E+03  0.00000000000E+00 0. -1.
        -13    1    1    2    0    0 -0.49940646346E+02 -0.27383653620E+02  0.47058121192E+02  0.73881056958E+02  0.10566000000E+00 0.  1.
         13    1    1    2    0    0  0.19643338003E+03  0.44602189211E+03  0.92269066407E+02  0.49601934721E+03  0.10566000000E+00 0. -1.
         -4    1    1    2    0  502 -0.14649273369E+03 -0.41863823849E+03 -0.29791787679E+03  0.53429688101E+03  0.00000000000E+00 0. -1.
</event>
<event>
 5    1  0.2540860E-005  0.1090576E+04  0.7818608E-02  0.8693857E-01
         -4   -1    0    0    0  501 -0.00000000000E+00  0.00000000000E+00  0.22114799244E+04  0.22114799244E+04  0.00000000000E+00 0. -1.
         21   -1    0    0  501  502  0.00000000000E+00 -0.00000000000E+00 -0.10774235469E+04  0.10774235469E+04  0.00000000000E+00 0.  1.
        -13    1    1    2    0    0 -0.10915956243E+04  0.24335224788E+03  0.13510715460E+04  0.17539086798E+04  0.10566000000E+00 0.  1.
         13    1    1    2    0    0  0.86758670715E+03 -0.59385317340E+03 -0.33355486246E+03  0.11030082245E+04  0.10566000000E+00 0. -1.
         -4    1    1    2    0  502  0.22400891716E+03  0.35050092552E+03  0.11653969389E+03  0.43198656693E+03  0.00000000000E+00 0. -1.
</event>
<event>
 5    1  0.2540860E-005  0.7837640E+02  0.7818608E-02  0.1206320E+00
         21   -1    0    0  501  502  0.00000000000E+00  0.00000000000E+00  0.14012708891E+04  0.14012708891E+04  0.00000000000E+00 0.  1.
          4   -1    0    0  502    0 -0.00000000000E+00 -0.00000000000E+00 -0.92959866901E+01  0.92959866901E+01  0.00000000000E+00 0.  1.
        -13    1    1    2    0    0 -0.92276572280E+02 -0.49145056680E+02  0.45417472106E+03  0.46605245499E+03  0.10566000000E+00 0.  1.
         13    1    1    2    0    0  0.53177348276E+02  0.24546057970E+02  0.34673177664E+03  0.35164367679E+03  0.10566000000E+00 0. -1.
          4    1    1    2  501    0  0.39099224004E+02  0.24598998710E+02  0.59106840470E+03  0.59287074400E+03  0.00000000000E+00 0.  1.
</event>
<event>
 5    1  0.2540860E-005  0.4826345E+03  0.7818608E-02  0.9758376E-01
         21   -1    0    0  501  502  0.00000000000E+00  0.00000000000E+00  0.52715849618E+03  0.52715849618E+03  0.00000000000E+00 0. -1.
         -4   -1    0    0    0  501 -0.00000000000E+00 -0.00000000000E+00 -0.89596824624E+03  0.89596824624E+03  0.00000000000E+00 0. -1.
        -13    1    1    2    0    0  0.20489663932E+03  0.19065718541E+02 -0.37520838675E+03  0.42793396579E+03  0.10566000000E+00 0.  1.
         13    1    1    2    0    0  0.24441104800E+03 -0.33192335795E+03 -0.12766217501E+03  0.43151769144E+03  0.10566000000E+00 0. -1.
         -4    1    1    2    0  502 -0.44930768732E+03  0.31285763941E+03  0.13406081171E+03  0.56367508519E+03  0.00000000000E+00 0. -1.
</event>
<event>
 5    1  0.2540860E-005  0.4762287E+03  0.7818608E-02  0.9531653E-01
          4   -1    0    0  502    0 -0.00000000000E+00  0.00000000000E+00  0.20636033694E+04  0.20636033694E+04  0.00000000000E+00 0.  1.
         21   -1    0    0  501  502  0.00000000000E+00 -0.00000000000E+00 -0.24044902797E+03  0.24044902797E+03  0.00000000000E+00 0.  1.
        -13    1    1    2    0    0 -0.48027458782E+03 -0.45768009563E+03  0.11775994505E+04  0.13516194829E+04  0.10566000000E+00 0.  1.
         13    1    1    2    0    0  0.18527841673E+03  0.29526229277E+03  0.42595557327E+03  0.55040537315E+03  0.10566000000E+00 0. -1.
          4    1    1    2  501    0  0.29499617109E+03  0.16241780286E+03  0.21959931769E+03  0.40202754131E+03  0.00000000000E+00 0.  1.
</event>
<event>
 5    1  0.2540860E-005  0.4044366E+03  0.7818608E-02  0.9965317E-01
          4   -1    0    0  502    0 -0.00000000000E+00  0.00000000000E+00  0.23479180882E+04  0.23479180882E+04  0.00000000000E+00 0.  1.
         21   -1    0    0  501  502  0.00000000000E+00 -0.00000000000E+00 -0.19624512439E+03  0.19624512439E+03  0.00000000000E+00 0.  1.
        -13    1    1    2    0    0 -0.32407432454E+03 -0.10117072369E+03  0.10732089144E+04  0.11256274110E+04  0.10566000000E+00 0.  1.
         13    1    1    2    0    0 -0.10064985195E+03  0.14200687261E+03  0.96008560311E+03  0.97573598941E+03  0.10566000000E+00 0. -1.
          4    1    1    2  501    0  0.42472417648E+03 -0.40836148920E+02  0.11837844625E+03  0.44279981220E+03  0.00000000000E+00 0.  1.
</event>
<event>
 5    1  0.2540860E-005  0.1653994E+03  0.7818608E-02  0.1086844E+00
          4   -1    0    0  502    0 -0.00000000000E+00  0.00000000000E+00  0.69815476048E+03  0.69815476048E+03  0.00000000000E+00 0.  1.
         21   -1    0    0  501  502  0.00000000000E+00 -0.00000000000E+00 -0.74944073479E+02  0.74944073479E+02  0.00000000000E+00 0.  1.
        -13    1    1    2    0    0  0.15655219209E+03 -0.61403712471E+02  0.31147533720E+03  0.35397161129E+03  0.10566000000E+00 0.  1.
         13    1    1    2    0    0 -0.15839651458E+03  0.40808573992E+02  0.34394121946E+03  0.38085478749E+03  0.10566000000E+00 0. -1.
          4    1    1    2  501    0  0.18443224884E+01  0.20595138479E+02 -0.32205869660E+02  0.38272435185E+02  0.00000000000E+00 0.  1.
</event>
<event>
 5    1  0.2540860E-005  0.4053339E+03  0.7818608E-02  0.9847593E-01
         -4   -1    0    0    0  501 -0.00000000000E+00  0.00000000000E+00  0.70857697923E+03  0.70857697923E+03  0.00000000000E+00 0. -1.
         21   -1    0    0  501  502  0.00000000000E+00 -0.00000000000E+00 -0.50157978717E+03  0.50157978717E+03  0.00000000000E+00 0. -1.
        -13    1    1    2    0    0 -0.21228068902E+03  0.14348821195E+03  0.19473055026E+03  0.32182597202E+03  0.10566000000E+00 0.  1.
         13    1    1    2    0    0  0.31242824059E+03  0.27255633872E+03  0.14668207232E+03  0.43978859103E+03  0.10566000000E+00 0. -1.
         -4    1    1    2    0  502 -0.10014755157E+03 -0.41604455067E+03 -0.13441543052E+03  0.44854220336E+03  0.00000000000E+00 0. -1.
</event>
<event>
 5    1  0.2540860E-005  0.4381950E+03  0.7818608E-02  0.9624812E-01
         21   -1    0    0  501  502  0.00000000000E+00  0.00000000000E+00  0.81112669721E+03  0.81112669721E+03  0.00000000000E+00 0. -1.
         -4   -1    0    0    0  501 -0.00000000000E+00 -0.00000000000E+00 -0.68196720054E+03  0.68196720054E+03  0.00000000000E+00 0. -1.
        -13    1    1    2    0    0  0.37389809188E+03  0.14473164847E+03  0.79400938669E+02  0.40871940669E+03  0.10566000000E+00 0.  1.
         13    1    1    2    0    0 -0.46826585513E+03  0.17244809852E+03 -0.31637801434E+03  0.59085219546E+03  0.10566000000E+00 0. -1.
         -4    1    1    2    0  502  0.94367763250E+02 -0.31717974699E+03  0.36613657234E+03  0.49352229559E+03  0.00000000000E+00 0. -1.
</event>
<event>
 5    1  0.2540860E-005  0.1943917E+03  0.7818608E-02  0.1064050E+00
         21   -1    0    0  501  502  0.00000000000E+00  0.00000000000E+00  0.17238299776E+03  0.17238299776E+03  0.00000000000E+00 0. -1.
          4   -1    0    0  502    0 -0.00000000000E+00 -0.00000000000E+00 -0.39477458763E+03  0.39477458763E+03  0.00000000000E+00 0.  1.
        -13    1    1    2    0    0 -0.11994815168E+03 -0.15080764194E+03 -0.63751204329E+02  0.20296485207E+03  0.10566000000E+00 0.  1.
         13    1    1    2    0    0  0.11219638708E+03  0.15998597785E+03 -0.22427904777E+03  0.29746368655E+03  0.10566000000E+00 0. -1.
          4    1    1    2  501    0  0.77517645932E+01 -0.91783359099E+01  0.65638662229E+02  0.66729046776E+02  0.00000000000E+00 0.  1.
</event>
<event>
 5    1  0.2540860E-005  0.3239959E+03  0.7818608E-02  0.9978650E-01
         -4   -1    0    0    0  501 -0.00000000000E+00  0.00000000000E+00  0.55707690453E+03  0.55707690453E+03  0.00000000000E+00 0. -1.
         21   -1    0    0  501  502  0.00000000000E+00 -0.00000000000E+00 -0.90689271826E+03  0.90689271826E+03  0.00000000000E+00 0. -1.
        -13    1    1    2    0    0  0.33165395577E+03 -0.82156194830E+02  0.11277735539E+02  0.34186427894E+03  0.10566000000E+00 0.  1.
         13    1    1    2    0    0 -0.32023638253E+03 -0.10237201959E+02  0.30926695450E+03  0.44531135322E+03  0.10566000000E+00 0. -1.
         -4    1    1    2    0  502 -0.11417573246E+02  0.92393396788E+02 -0.67036050377E+03  0.67679399063E+03  0.00000000000E+00 0. -1.
</event>
<event>
 5    1  0.2540860E-005  0.9065845E+02  0.7818608E-02  0.1181011E+00
          4   -1    0    0  502    0 -0.00000000000E+00  0.00000000000E+00  0.54317207386E+03  0.54317207386E+03  0.00000000000E+00 0.  1.
         21   -1    0    0  501  502  0.00000000000E+00 -0.00000000000E+00 -0.11247570344E+03  0.11247570344E+03  0.00000000000E+00 0.  1.
        -13    1    1    2    0    0 -0.93170290724E+02  0.49167755584E+00  0.39571943828E+03  0.40654007160E+03  0.10566000000E+00 0.  1.
         13    1    1    2    0    0  0.84401418556E+02 -0.12173105052E+02  0.12862634389E+03  0.15432605563E+03  0.10566000000E+00 0. -1.
          4    1    1    2  501    0  0.87688721674E+01  0.11681427496E+02 -0.93649411748E+02  0.94781650060E+02  0.00000000000E+00 0.  1.
</event>
<event>
 5    1  0.2540860E-005  0.2199058E+03  0.7818608E-02  0.1047285E+00
          4   -1    0    0  502    0 -0.00000000000E+00  0.00000000000E+00  0.23035068804E+04  0.23035068804E+04  0.00000000000E+00 0.  1.
         21   -1    0    0  501  502  0.00000000000E+00 -0.00000000000E+00 -0.46256535175E+02  0.46256535175E+02  0.00000000000E+00 0. -1.
        -13    1    1    2    0    0 -0.70286973928E+01 -0.16661478734E+03  0.54064914144E+03  0.56578387680E+03  0.10566000000E+00 0.  1.
         13    1    1    2    0    0 -0.36711722772E+02  0.26596074790E+03  0.16086124399E+04  0.16308638395E+04  0.10566000000E+00 0. -1.
          4    1    1    2  501    0  0.43740420164E+02 -0.99345960559E+02  0.10798876384E+03  0.15311569924E+03  0.00000000000E+00 0.  1.
</event>
<event>
 5    1  0.2540860E-005  0.2107800E+03  0.7818608E-02  0.1058207E+00
          4   -1    0    0  502    0 -0.00000000000E+00  0.00000000000E+00  0.30047593666E+04  0.30047593666E+04  0.00000000000E+00 0.  1.
         21   -1    0    0  501  502  0.00000000000E+00 -0.00000000000E+00 -0.15174198609E+03  0.15174198609E+03  0.00000000000E+00 0.  1.
        -13    1    1    2    0    0 -0.63103874120E+02 -0.18751552947E+03 -0.57413998652E+02  0.20601104612E+03  0.10566000000E+00 0.  1.
         13    1    1    2    0    0 -0.18271800961E+03  0.13571833920E+03  0.11594830178E+04  0.11816117037E+04  0.10566000000E+00 0. -1.
          4    1    1    2  501    0  0.24582188373E+03  0.51797190268E+02  0.17509483614E+04  0.17688786029E+04  0.00000000000E+00 0.  1.
</event>
<event>
 5    1  0.2540860E-005  0.4649371E+03  0.7818608E-02  0.9958960E-01
         21   -1    0    0  501  502  0.00000000000E+00  0.00000000000E+00  0.17034281581E+03  0.17034281581E+03  0.00000000000E+00 0.  1.
          4   -1    0    0  502    0 -0.00000000000E+00 -0.00000000000E+00 -0.21117025498E+04  0.21117025498E+04  0.00000000000E+00 0.  1.
        -13    1    1    2    0    0 -0.43325470378E+03 -0.15312695394E+03 -0.38067153748E+03  0.59671461603E+03  0.10566000000E+00 0.  1.
         13    1    1    2    0    0  0.27080934563E+02 -0.11382169476E+03 -0.56940866916E+03  0.58130456638E+03  0.10566000000E+00 0. -1.
          4    1    1    2  501    0  0.40617376921E+03  0.26694864870E+03 -0.99127952738E+03  0.11040261832E+04  0.00000000000E+00 0.  1.
</event>
<event>
 5    1  0.2540860E-005  0.5286778E+03  0.7818608E-02  0.9466989E-01
         21   -1    0    0  501  502  0.00000000000E+00  0.00000000000E+00  0.14080660798E+04  0.14080660798E+04  0.00000000000E+00 0.  1.
          4   -1    0    0  502    0 -0.00000000000E+00 -0.00000000000E+00 -0.61728630343E+03  0.61728630343E+03  0.00000000000E+00 0.  1.
        -13    1    1    2    0    0  0.32952703109E+03 -0.35895201239E+03  0.65849355867E+02  0.49170190182E+03  0.10566000000E+00 0.  1.
         13    1    1    2    0    0 -0.55156190608E+03 -0.17717559032E+03 -0.31620397567E+02  0.58018237370E+03  0.10566000000E+00 0. -1.
          4    1    1    2  501    0  0.22203487500E+03  0.53612760272E+03  0.75655081810E+03  0.95346810774E+03  0.00000000000E+00 0.  1.
</event>
<event>
 5    1  0.2540860E-005  0.2672473E+03  0.7818608E-02  0.1021823E+00
         21   -1    0    0  501  502  0.00000000000E+00  0.00000000000E+00  0.54811283529E+02  0.54811283529E+02  0.00000000000E+00 0. -1.
          4   -1    0    0  502    0 -0.00000000000E+00 -0.00000000000E+00 -0.16374791929E+04  0.16374791929E+04  0.00000000000E+00 0.  1.
        -13    1    1    2    0    0 -0.56692669951E+02  0.26398484325E+03 -0.10499438110E+04  0.10841051949E+04  0.10566000000E+00 0.  1.
         13    1    1    2    0    0  0.73308735048E+02 -0.25222823292E+03 -0.52378220225E+03  0.58595311986E+03  0.10566000000E+00 0. -1.
          4    1    1    2  501    0 -0.16616065097E+02 -0.11756610321E+02 -0.89418961777E+01  0.22232161676E+02  0.00000000000E+00 0.  1.
</event>
<event>
 5    1  0.2540860E-005  0.5147784E+03  0.7818608E-02  0.9504034E-01
         21   -1    0    0  501  502  0.00000000000E+00  0.00000000000E+00  0.96345942099E+03  0.96345942099E+03  0.00000000000E+00 0. -1.
          4   -1    0    0  502    0 -0.00000000000E+00 -0.00000000000E+00 -0.90954397047E+03  0.90954397047E+03  0.00000000000E+00 0.  1.
        -13    1    1    2    0    0 -0.32198045953E+03 -0.37405035684E+02  0.72764729585E+02  0.33221268798E+03  0.10566000000E+00 0.  1.
         13    1    1    2    0    0 -0.33190538102E+03 -0.46605988501E+03 -0.32802215599E+03  0.65952372539E+03  0.10566000000E+00 0. -1.
          4    1    1    2  501    0  0.65388584056E+03  0.50346492070E+03  0.30917287693E+03  0.88126697810E+03  0.00000000000E+00 0.  1.
</event>
<event>
 5    1  0.2540860E-005  0.3929410E+02  0.7818608E-02  0.1342785E+00
         -4   -1    0    0    0  501 -0.00000000000E+00  0.00000000000E+00  0.24007556471E+03  0.24007556471E+03  0.00000000000E+00 0. -1.
         21   -1    0    0  501  502  0.00000000000E+00 -0.00000000000E+00 -0.14116838305E+04  0.14116838305E+04  0.00000000000E+00 0. -1.
        -13    1    1    2    0    0 -0.65475702888E+02  0.25767469845E+02 -0.18999935218E+03  0.20260995820E+03  0.10566000000E+00 0.  1.
         13    1    1    2    0    0  0.38388296178E+02 -0.71371898363E+01  0.23191562841E+03  0.23517965606E+03  0.10566000000E+00 0. -1.
         -4    1    1    2    0  502  0.27087406711E+02 -0.18630280008E+02 -0.12135245420E+04  0.12139697809E+04  0.00000000000E+00 0. -1.
</event>
<event>
 5    1  0.2540860E-005  0.7408161E+03  0.7818608E-02  0.9065782E-01
         21   -1    0    0  501  502  0.00000000000E+00  0.00000000000E+00  0.18978683894E+04  0.18978683894E+04  0.00000000000E+00 0. -1.
          4   -1    0    0  502    0 -0.00000000000E+00 -0.00000000000E+00 -0.64507499841E+03  0.64507499841E+03  0.00000000000E+00 0.  1.
        -13    1    1    2    0    0 -0.35751942078E+03  0.66337004738E+03  0.52710018307E+02  0.75541929628E+03  0.10566000000E+00 0.  1.
         13    1    1    2    0    0  0.27959509616E+02 -0.76888049856E+03  0.30457020851E+03  0.82747929177E+03  0.10566000000E+00 0. -1.
          4    1    1    2  501    0  0.32955991116E+03  0.10551045117E+03  0.89551316418E+03  0.96004479977E+03  0.00000000000E+00 0.  1.
</event>
<event>
 5    1  0.2705747E-005  0.4959121E+03  0.7818608E-02  0.1061006E+00
         21   -1    0    0  501  502  0.00000000000E+00  0.00000000000E+00  0.19411607554E+04  0.19411607554E+04  0.00000000000E+00 0.  1.
          4   -1    0    0  502    0 -0.00000000000E+00 -0.00000000000E+00 -0.16467675742E+03  0.16467675742E+03  0.00000000000E+00 0.  1.
        -13    1    1    2    0    0  0.15387313618E+03  0.47180741766E+03  0.79977957073E+03  0.94123671535E+03  0.10566000000E+00 0.  1.
         13    1    1    2    0    0 -0.12366602415E+02  0.32646247201E+01 -0.35392267455E+02  0.37632624005E+02  0.10566000000E+00 0. -1.
          4    1    1    2  501    0 -0.14150653376E+03 -0.47507204238E+03  0.10120966947E+04  0.11269681734E+04  0.00000000000E+00 0.  1.
</event>
<event>
 5    1  0.2540860E-005  0.4144057E+03  0.7818608E-02  0.9902138E-01
         -4   -1    0    0    0  501 -0.00000000000E+00  0.00000000000E+00  0.11803537528E+04  0.11803537528E+04  0.00000000000E+00 0. -1.
         21   -1    0    0  501  502  0.00000000000E+00 -0.00000000000E+00 -0.31366612747E+03  0.31366612747E+03  0.00000000000E+00 0. -1.
        -13    1    1    2    0    0 -0.15799673655E+03  0.12194861938E+03  0.86099932747E+02  0.21736523207E+03  0.10566000000E+00 0.  1.
         13    1    1    2    0    0 -0.16611145650E+03  0.33430814457E+03  0.83185590010E+02  0.38245889329E+03  0.10566000000E+00 0. -1.
         -4    1    1    2    0  502  0.32410819305E+03 -0.45625676395E+03  0.69740210262E+03  0.89419575496E+03  0.00000000000E+00 0. -1.
</event>
<event>
 5    1  0.2540860E-005  0.5050488E+03  0.7818608E-02  0.9483180E-01
         21   -1    0    0  501  502  0.00000000000E+00  0.00000000000E+00  0.62818640909E+03  0.62818640909E+03  0.00000000000E+00 0.  1.
          4   -1    0    0  502    0 -0.00000000000E+00 -0.00000000000E+00 -0.22938947520E+04  0.22938947520E+04  0.00000000000E+00 0.  1.
        -13    1    1    2    0    0  0.41989888318E+03  0.14003144124E+03  0.43259166962E+01  0.44265404251E+03  0.10566000000E+00 0.  1.
         13    1    1    2    0    0 -0.16629922826E+03  0.49292109183E+03 -0.17188180022E+04  0.17958179117E+04  0.10566000000E+00 0. -1.
          4    1    1    2  501    0 -0.25359965492E+03 -0.63295253307E+03  0.48783742670E+02  0.68360920682E+03  0.00000000000E+00 0.  1.
</event>
<event>
 5    1  0.2540860E-005  0.2892642E+03  0.7818608E-02  0.1011838E+00
          4   -1    0    0  502    0 -0.00000000000E+00  0.00000000000E+00  0.16260906478E+03  0.16260906478E+03  0.00000000000E+00 0.  1.
         21   -1    0    0  501  502  0.00000000000E+00 -0.00000000000E+00 -0.73861845209E+03  0.73861845209E+03  0.00000000000E+00 0.  1.
        -13    1    1    2    0    0  0.17894964076E+03 -0.29091339714E+03 -0.27472796435E+03  0.43832527205E+03  0.10566000000E+00 0.  1.
         13    1    1    2    0    0 -0.10639789592E+03  0.22963256338E+03 -0.18914784316E+03  0.31595655422E+03  0.10566000000E+00 0. -1.
          4    1    1    2  501    0 -0.72551744840E+02  0.61280833759E+02 -0.11213357981E+03  0.14694569060E+03  0.00000000000E+00 0.  1.
</event>
<event>
 5    1  0.2540860E-005  0.4275628E+03  0.7818608E-02  0.9652660E-01
         -4   -1    0    0    0  501 -0.00000000000E+00  0.00000000000E+00  0.19086992918E+04  0.19086992918E+04  0.00000000000E+00 0. -1.
         21   -1    0    0  501  502  0.00000000000E+00 -0.00000000000E+00 -0.40799234722E+03  0.40799234722E+03  0.00000000000E+00 0. -1.
        -13    1    1    2    0    0  0.17373345229E+02 -0.41397615667E+03  0.10930439432E+04  0.11689410440E+04  0.10566000000E+00 0.  1.
         13    1    1    2    0    0  0.33625832378E+03  0.44852169674E+03  0.53050383806E+03  0.77180030197E+03  0.10566000000E+00 0. -1.
         -4    1    1    2    0  502 -0.35363166901E+03 -0.34545540064E+02 -0.12284083671E+03  0.37595029303E+03  0.00000000000E+00 0. -1.
</event>
<event>
 5    1  0.2540860E-005  0.3990949E+03  0.7818608E-02  0.1003680E+00
         21   -1    0    0  501  502  0.00000000000E+00  0.00000000000E+00  0.13834565208E+04  0.13834565208E+04  0.00000000000E+00 0.  1.
          4   -1    0    0  502    0 -0.00000000000E+00 -0.00000000000E+00 -0.32953864245E+03  0.32953864245E+03  0.00000000000E+00 0.  1.
        -13    1    1    2    0    0  0.42135250263E+03 -0.29203599064E+03  0.25568373320E+03  0.57288492203E+03  0.10566000000E+00 0.  1.
         13    1    1    2    0    0 -0.10108960915E+03  0.10158592769E+03 -0.95225472201E+02  0.17206600914E+03  0.10566000000E+00 0. -1.
          4    1    1    2  501    0 -0.32026289349E+03  0.19045006295E+03  0.89345961734E+03  0.96804423207E+03  0.00000000000E+00 0.  1.
</event>
<event>
 5    1  0.2540860E-005  0.5082942E+03  0.7818608E-02  0.9459976E-01
         21   -1    0    0  501  502  0.00000000000E+00  0.00000000000E+00  0.41600286340E+03  0.41600286340E+03  0.00000000000E+00 0. -1.
          4   -1    0    0  502    0 -0.00000000000E+00 -0.00000000000E+00 -0.15537344861E+04  0.15537344861E+04  0.00000000000E+00 0.  1.
        -13    1    1    2    0    0 -0.18186792570E+03 -0.50928455794E+03 -0.12522031483E+04  0.13639865978E+04  0.10566000000E+00 0.  1.
         13    1    1    2    0    0  0.22245197379E+03  0.32955908545E+03  0.18588950615E+02  0.39804476091E+03  0.10566000000E+00 0. -1.
          4    1    1    2  501    0 -0.40584048086E+02  0.17972547249E+03  0.95882574942E+02  0.20770599076E+03  0.00000000000E+00 0.  1.
</event>
<event>
 5    1  0.2540860E-005  0.4564266E+03  0.7818608E-02  0.9774088E-01
         -4   -1    0    0    0  501 -0.00000000000E+00  0.00000000000E+00  0.33495482363E+04  0.33495482363E+04  0.00000000000E+00 0. -1.
         21   -1    0    0  501  502  0.00000000000E+00 -0.00000000000E+00 -0.11610543926E+03  0.11610543926E+03  0.00000000000E+00 0. -1.
        -13    1    1    2    0    0 -0.19114967501E+03 -0.12883296748E+03  0.12076504938E+04  0.12294534794E+04  0.10566000000E+00 0.  1.
         13    1    1    2    0    0 -0.11483111472E+03  0.47090875848E+03  0.11337081169E+04  0.12329782436E+04  0.10566000000E+00 0. -1.
         -4    1    1    2    0  502  0.30598078973E+03 -0.34207579100E+03  0.89208418639E+03  0.10032219525E+04  0.00000000000E+00 0. -1.
</event>
<event>
 5    1  0.2540860E-005  0.4934169E+03  0.7818608E-02  0.9696162E-01
         21   -1    0    0  501  502  0.00000000000E+00  0.00000000000E+00  0.17665667875E+04  0.17665667875E+04  0.00000000000E+00 0. -1.
         -4   -1    0    0    0  501 -0.00000000000E+00 -0.00000000000E+00 -0.26734768686E+03  0.26734768686E+03  0.00000000000E+00 0. -1.
        -13    1    1    2    0    0 -0.13237336444E+03 -0.19886901387E+03  0.38005982340E+02  0.24190092630E+03  0.10566000000E+00 0.  1.
         13    1    1    2    0    0 -0.40324916635E+03  0.21391122534E+02  0.30702084000E+03  0.50727633262E+03  0.10566000000E+00 0. -1.
         -4    1    1    2    0  502  0.53562253079E+03  0.17747789133E+03  0.11541922783E+04  0.12847372154E+04  0.00000000000E+00 0. -1.
</event>
<event>
 5    1  0.2540860E-005  0.3498888E+03  0.7818608E-02  0.9990328E-01
         21   -1    0    0  501  502  0.00000000000E+00  0.00000000000E+00  0.26822649044E+03  0.26822649044E+03  0.00000000000E+00 0.  1.
          4   -1    0    0  502    0 -0.00000000000E+00 -0.00000000000E+00 -0.17452604694E+04  0.17452604694E+04  0.00000000000E+00 0.  1.
        -13    1    1    2    0    0  0.35886153771E+03 -0.25724232196E+03 -0.96105301784E+03  0.10576285405E+04  0.10566000000E+00 0.  1.
         13    1    1    2    0    0 -0.13374798420E+02  0.24720562523E+03 -0.55530987229E+03  0.60799553601E+03  0.10566000000E+00 0. -1.
          4    1    1    2  501    0 -0.34548673929E+03  0.10036696736E+02  0.39328911202E+02  0.34786288328E+03  0.00000000000E+00 0.  1.
</event>
<event>
 5    1  0.2540860E-005  0.1098841E+03  0.7818608E-02  0.1149163E+00
          4   -1    0    0  502    0 -0.00000000000E+00  0.00000000000E+00  0.52347961310E+02  0.52347961310E+02  0.00000000000E+00 0.  1.
         21   -1    0    0  501  502  0.00000000000E+00 -0.00000000000E+00 -0.52536181232E+03  0.52536181232E+03  0.00000000000E+00 0. -1.
        -13    1    1    2    0    0 -0.10287689526E+03 -0.55965872676E+02 -0.34100299330E+02  0.12197817863E+03  0.10566000000E+00 0.  1.
         13    1    1    2    0    0  0.62752850881E+02  0.49871581147E+02 -0.32717714188E+03  0.33685306623E+03  0.10566000000E+00 0. -1.
          4    1    1    2  501    0  0.40124044379E+02  0.60942915290E+01 -0.11173640980E+03  0.11887852877E+03  0.00000000000E+00 0.  1.
</event>
<event>
 5    1  0.2540860E-005  0.4563180E+03  0.7818608E-02  0.9810217E-01
         -4   -1    0    0    0  501 -0.00000000000E+00  0.00000000000E+00  0.24297067708E+04  0.24297067708E+04  0.00000000000E+00 0. -1.
         21   -1    0    0  501  502  0.00000000000E+00 -0.00000000000E+00 -0.13515063709E+03  0.13515063709E+03  0.00000000000E+00 0. -1.
        -13    1    1    2    0    0 -0.37680258753E+01 -0.20383545278E+03  0.52769636364E+03  0.56570889439E+03  0.10566000000E+00 0.  1.
         13    1    1    2    0    0 -0.36439023213E+03 -0.16814819417E+03  0.91842155466E+03  0.10022735254E+04  0.10566000000E+00 0. -1.
         -4    1    1    2    0  502  0.36815825801E+03  0.37198364696E+03  0.84843821540E+03  0.99687498810E+03  0.00000000000E+00 0. -1.
</event>
<event>
 5    1  0.2540860E-005  0.9786392E+02  0.7818608E-02  0.1186569E+00
         21   -1    0    0  501  502  0.00000000000E+00  0.00000000000E+00  0.41504482349E+02  0.41504482349E+02  0.00000000000E+00 0.  1.
          4   -1    0    0  502    0 -0.00000000000E+00 -0.00000000000E+00 -0.89246825504E+03  0.89246825504E+03  0.00000000000E+00 0.  1.
        -13    1    1    2    0    0  0.31231021791E+01 -0.15167504777E+03 -0.67563639015E+03  0.69245910836E+03  0.10566000000E+00 0.  1.
         13    1    1    2    0    0 -0.16365460132E+02  0.61132837074E+02 -0.11694259589E+03  0.13296854497E+03  0.10566000000E+00 0. -1.
          4    1    1    2  501    0  0.13242357953E+02  0.90542210699E+02 -0.58384786654E+02  0.10854508407E+03  0.00000000000E+00 0.  1.
</event>
<event>
 5    1  0.2540860E-005  0.5430218E+02  0.7818608E-02  0.1275199E+00
         21   -1    0    0  501  502  0.00000000000E+00  0.00000000000E+00  0.11478796208E+03  0.11478796208E+03  0.00000000000E+00 0.  1.
         -4   -1    0    0    0  501 -0.00000000000E+00 -0.00000000000E+00 -0.50887222368E+02  0.50887222368E+02  0.00000000000E+00 0. -1.
        -13    1    1    2    0    0 -0.25012013705E+02  0.43672110887E+02  0.73141200796E+02  0.88783447313E+02  0.10566000000E+00 0.  1.
         13    1    1    2    0    0  0.16576512338E+02 -0.52929450836E+02 -0.21386727686E+02  0.59445023444E+02  0.10566000000E+00 0. -1.
         -4    1    1    2    0  502  0.84355013675E+01  0.92573399490E+01  0.12146266606E+02  0.17446713694E+02  0.00000000000E+00 0. -1.
</event>
<event>
 5    1  0.2540860E-005  0.3702411E+03  0.7818608E-02  0.9953682E-01
          4   -1    0    0  502    0 -0.00000000000E+00  0.00000000000E+00  0.54238774257E+03  0.54238774257E+03  0.00000000000E+00 0.  1.
         21   -1    0    0  501  502  0.00000000000E+00 -0.00000000000E+00 -0.99169626911E+03  0.99169626911E+03  0.00000000000E+00 0.  1.
        -13    1    1    2    0    0 -0.45893187052E+03 -0.32597163464E+03 -0.10394325988E+03  0.57243356017E+03  0.10566000000E+00 0.  1.
         13    1    1    2    0    0  0.21246061134E+03  0.10221955791E+03  0.20896533569E+03  0.31504741242E+03  0.10566000000E+00 0. -1.
          4    1    1    2  501    0  0.24647125919E+03  0.22375207673E+03 -0.55433060235E+03  0.64660303908E+03  0.00000000000E+00 0.  1.
</event>
<event>
 5    1  0.2540860E-005  0.3969792E+03  0.7818608E-02  0.9827238E-01
         21   -1    0    0  501  502  0.00000000000E+00  0.00000000000E+00  0.64246524758E+03  0.64246524758E+03  0.00000000000E+00 0. -1.
         -4   -1    0    0    0  501 -0.00000000000E+00 -0.00000000000E+00 -0.12279159228E+04  0.12279159228E+04  0.00000000000E+00 0. -1.
        -13    1    1    2    0    0 -0.87142372996E+02 -0.27892528241E+03 -0.75727844271E+03  0.81170423018E+03  0.10566000000E+00 0.  1.
         13    1    1    2    0    0 -0.12040744445E+03  0.57290331953E+03 -0.11729910813E+03  0.59705549000E+03  0.10566000000E+00 0. -1.
         -4    1    1    2    0  502  0.20754981744E+03 -0.29397803712E+03  0.28912687565E+03  0.46162145016E+03  0.00000000000E+00 0. -1.
</event>
<event>
 5    1  0.4221914E-005  0.5593266E+03  0.7818608E-02  0.9442785E-01
          4   -1    0    0  502    0 -0.00000000000E+00  0.00000000000E+00  0.23083632210E+04  0.23083632210E+04  0.00000000000E+00 0.  1.
         21   -1    0    0  501  502  0.00000000000E+00 -0.00000000000E+00 -0.37050714821E+03  0.37050714821E+03  0.00000000000E+00 0.  1.
        -13    1    1    2    0    0  0.93496103542E+02  0.23967560139E+03  0.48111130681E+03  0.54557677369E+03  0.10566000000E+00 0.  1.
         13    1    1    2    0    0  0.50894004774E+03  0.41428940181E+03  0.75674492596E+03  0.10016579130E+04  0.10566000000E+00 0. -1.
          4    1    1    2  501    0 -0.60243615128E+03 -0.65396500321E+03  0.69999983999E+03  0.11316356824E+04  0.00000000000E+00 0.  1.
</event>
<event>
 5    1  0.2540860E-005  0.2862240E+03  0.7818608E-02  0.1013159E+00
          4   -1    0    0  502    0 -0.00000000000E+00  0.00000000000E+00  0.32486606720E+03  0.32486606720E+03  0.00000000000E+00 0.  1.
         21   -1    0    0  501  502  0.00000000000E+00 -0.00000000000E+00 -0.30849881467E+03  0.30849881467E+03  0.00000000000E+00 0. -1.
        -13    1    1    2    0    0 -0.27060265995E+03  0.53292574089E+02 -0.74593854499E+02  0.28570990938E+03  0.10566000000E+00 0.  1.
         13    1    1    2    0    0  0.28360608060E+03 -0.69745127014E+02  0.11665281443E+03  0.31449114768E+03  0.10566000000E+00 0. -1.
          4    1    1    2  501    0 -0.13003420647E+02  0.16452552925E+02 -0.25691707398E+02  0.33163824799E+02  0.00000000000E+00 0.  1.
</event>
<event>
 5    1  0.2540860E-005  0.4539745E+02  0.7818608E-02  0.1311754E+00
         21   -1    0    0  501  502  0.00000000000E+00  0.00000000000E+00  0.77437127840E+02  0.77437127840E+02  0.00000000000E+00 0.  1.
          4   -1    0    0  502    0 -0.00000000000E+00 -0.00000000000E+00 -0.93077777929E+02  0.93077777929E+02  0.00000000000E+00 0.  1.
        -13    1    1    2    0    0 -0.41883657908E+02  0.30907772818E+02 -0.68814052511E+02  0.86283927862E+02  0.10566000000E+00 0.  1.
         13    1    1    2    0    0  0.20306942376E+02 -0.24058993920E+02  0.62013674045E+01  0.32088552769E+02  0.10566000000E+00 0. -1.
          4    1    1    2  501    0  0.21576715532E+02 -0.68487788975E+01  0.46972035017E+02  0.52142425137E+02  0.00000000000E+00 0.  1.
</event>
<event>
 5    1  0.2540860E-005  0.4303768E+03  0.7818608E-02  0.9727224E-01
         21   -1    0    0  501  502  0.00000000000E+00  0.00000000000E+00  0.41763969903E+03  0.41763969903E+03  0.00000000000E+00 0. -1.
          4   -1    0    0  502    0 -0.00000000000E+00 -0.00000000000E+00 -0.12027361259E+04  0.12027361259E+04  0.00000000000E+00 0.  1.
        -13    1    1    2    0    0  0.35173938780E+02 -0.27239618566E+03 -0.52979804187E+03  0.59676030721E+03  0.10566000000E+00 0.  1.
         13    1    1    2    0    0  0.31140575219E+03 -0.86410016853E+02 -0.39038140793E+03  0.50679176032E+03  0.10566000000E+00 0. -1.
          4    1    1    2  501    0 -0.34657969097E+03  0.35880620252E+03  0.13508302291E+03  0.51682375742E+03  0.00000000000E+00 0.  1.
</event>
<event>
 5    1  0.2540860E-005  0.5122838E+02  0.7818608E-02  0.1286867E+00
         21   -1    0    0  501  502  0.00000000000E+00  0.00000000000E+00  0.37210143837E+02  0.37210143837E+02  0.00000000000E+00 0.  1.
         -4   -1    0    0    0  501 -0.00000000000E+00 -0.00000000000E+00 -0.23330287623E+03  0.23330287623E+03  0.00000000000E+00 0. -1.
        -13    1    1    2    0    0 -0.43346341878E+02  0.89679900585E+01 -0.57660879947E+01  0.44638426660E+02  0.10566000000E+00 0.  1.
         13    1    1    2    0    0  0.48098304381E+02  0.25581505163E+02 -0.18205639845E+03  0.19003263844E+03  0.10566000000E+00 0. -1.
         -4    1    1    2    0  502 -0.47519625032E+01 -0.34549495222E+02 -0.82702459433E+01  0.35841954964E+02  0.00000000000E+00 0. -1.
</event>
<event>
 5    1  0.2540860E-005  0.4208574E+02  0.7818608E-02  0.1327855E+00
          4   -1    0    0  502    0 -0.00000000000E+00  0.00000000000E+00  0.16810779570E+02  0.16810779570E+02  0.00000000000E+00 0.  1.
         21   -1    0    0  501  502  0.00000000000E+00 -0.00000000000E+00 -0.29227618641E+03  0.29227618641E+03  0.00000000000E+00 0.  1.
        -13    1    1    2    0    0 -0.37998894369E+02 -0.17804599056E+02 -0.26386518278E+02  0.49569942825E+02  0.10566000000E+00 0.  1.
         13    1    1    2    0    0  0.43227771868E+02  0.64135306033E+01 -0.91077605072E+02  0.10101937906E+03  0.10566000000E+00 0. -1.
          4    1    1    2  501    0 -0.52288774991E+01  0.11391068453E+02 -0.15800128349E+03  0.15849764410E+03  0.00000000000E+00 0.  1.
</event>
<event>
 5    1  0.2540860E-005  0.4898453E+03  0.7818608E-02  0.9817859E-01
         21   -1    0    0  501  502  0.00000000000E+00  0.00000000000E+00  0.88146230413E+03  0.88146230413E+03  0.00000000000E+00 0.  1.
          4   -1    0    0  502    0 -0.00000000000E+00 -0.00000000000E+00 -0.54121036799E+03  0.54121036799E+03  0.00000000000E+00 0.  1.
        -13    1    1    2    0    0 -0.25277499678E+03  0.42213199344E+03 -0.14418529766E+03  0.51271827557E+03  0.10566000000E+00 0.  1.
         13    1    1    2    0    0  0.14692316333E+03  0.64793997914E+02  0.36320869484E+03  0.39712119719E+03  0.10566000000E+00 0. -1.
          4    1    1    2  501    0  0.10585183345E+03 -0.48692599135E+03  0.12122853897E+03  0.51283319935E+03  0.00000000000E+00 0.  1.
</event>
<event>
 5    1  0.2540860E-005  0.5059173E+03  0.7818608E-02  0.9634623E-01
         21   -1    0    0  501  502  0.00000000000E+00  0.00000000000E+00  0.35267580127E+03  0.35267580127E+03  0.00000000000E+00 0.  1.
          4   -1    0    0  502    0 -0.00000000000E+00 -0.00000000000E+00 -0.13810225082E+04  0.13810225082E+04  0.00000000000E+00 0.  1.
        -13    1    1    2    0    0  0.17794829071E+03  0.58331755476E+03 -0.17386388515E+03  0.63415583698E+03  0.10566000000E+00 0.  1.
         13    1    1    2    0    0 -0.20519374081E+03 -0.18312174745E+03 -0.46618969431E+03  0.54126785227E+03  0.10566000000E+00 0. -1.
          4    1    1    2  501    0  0.27245450101E+02 -0.40019580732E+03 -0.38829312752E+03  0.55827462026E+03  0.00000000000E+00 0.  1.
</event>
<event>
 5    1  0.2540860E-005  0.4744768E+03  0.7818608E-02  0.9831226E-01
          4   -1    0    0  502    0 -0.00000000000E+00  0.00000000000E+00  0.25349789021E+04  0.25349789021E+04  0.00000000000E+00 0.  1.
         21   -1    0    0  501  502  0.00000000000E+00 -0.00000000000E+00 -0.13928173845E+03  0.13928173845E+03  0.00000000000E+00 0.  1.
        -13    1    1    2    0    0 -0.23154126149E+03 -0.47375427913E+03  0.64322981991E+03  0.83174460333E+03  0.10566000000E+00 0.  1.
         13    1    1    2    0    0  0.17918281859E+02  0.16789317312E+03  0.31471312985E+03  0.35714639530E+03  0.10566000000E+00 0. -1.
          4    1    1    2  501    0  0.21362297963E+03  0.30586110601E+03  0.14377542139E+04  0.14853696419E+04  0.00000000000E+00 0.  1.
</event>
<event>
 5    1  0.2540860E-005  0.2677940E+03  0.7818608E-02  0.1021563E+00
         21   -1    0    0  501  502  0.00000000000E+00  0.00000000000E+00  0.19051532663E+03  0.19051532663E+03  0.00000000000E+00 0. -1.
          4   -1    0    0  502    0 -0.00000000000E+00 -0.00000000000E+00 -0.75747589320E+03  0.75747589320E+03  0.00000000000E+00 0.  1.
        -13    1    1    2    0    0 -0.26598151460E+03 -0.50410363178E+01 -0.20106511477E+03  0.33346479529E+03  0.10566000000E+00 0.  1.
         13    1    1    2    0    0  0.26871217588E+03 -0.11650091153E+02 -0.45243735038E+03  0.52634734280E+03  0.10566000000E+00 0. -1.
          4    1    1    2  501    0 -0.27306612845E+01  0.16691127471E+02  0.86541898579E+02  0.88179081742E+02  0.00000000000E+00 0.  1.
</event>
<event>
 5    1  0.2540860E-005  0.2968813E+03  0.7818608E-02  0.1008601E+00
         21   -1    0    0  501  502  0.00000000000E+00  0.00000000000E+00  0.12646317708E+04  0.12646317708E+04  0.00000000000E+00 0.  1.
         -4   -1    0    0    0  501 -0.00000000000E+00 -0.00000000000E+00 -0.86928809186E+02  0.86928809186E+02  0.00000000000E+00 0. -1.
        -13    1    1    2    0    0  0.16580585563E+03  0.23787408198E+03  0.64030827356E+03  0.70290138497E+03  0.10566000000E+00 0.  1.
         13    1    1    2    0    0 -0.17718576148E+03 -0.24347320785E+03  0.35366435093E+03  0.46449163749E+03  0.10566000000E+00 0. -1.
         -4    1    1    2    0  502  0.11379905850E+02  0.55991258769E+01  0.18373033716E+03  0.18416755757E+03  0.00000000000E+00 0. -1.
</event>
<event>
 5    1  0.2540860E-005  0.6006273E+03  0.7818608E-02  0.9633520E-01
         -4   -1    0    0    0  501 -0.00000000000E+00  0.00000000000E+00  0.25458060260E+04  0.25458060260E+04  0.00000000000E+00 0. -1.
         21   -1    0    0  501  502  0.00000000000E+00 -0.00000000000E+00 -0.23268648355E+03  0.23268648355E+03  0.00000000000E+00 0. -1.
        -13    1    1    2    0    0 -0.16417147040E+03  0.16515575475E+02  0.11447502479E+03  0.20082225571E+03  0.10566000000E+00 0.  1.
         13    1    1    2    0    0 -0.36763525008E+03  0.43062270111E+03  0.55341665542E+03  0.79174591472E+03  0.10566000000E+00 0. -1.
         -4    1    1    2    0  502  0.53180672048E+03 -0.44713827659E+03  0.16452278623E+04  0.17859243391E+04  0.00000000000E+00 0. -1.
</event>
<event>
 5    1  0.2540860E-005  0.1336907E+03  0.7818608E-02  0.1118411E+00
         21   -1    0    0  501  502  0.00000000000E+00  0.00000000000E+00  0.12612444037E+03  0.12612444037E+03  0.00000000000E+00 0. -1.
          4   -1    0    0  502    0 -0.00000000000E+00 -0.00000000000E+00 -0.29440757079E+03  0.29440757079E+03  0.00000000000E+00 0.  1.
        -13    1    1    2    0    0  0.11325343157E+03 -0.81581408166E+02 -0.16989797341E+03  0.21987996374E+03  0.10566000000E+00 0.  1.
         13    1    1    2    0    0 -0.10532446271E+03  0.66478987333E+02 -0.58903086323E+02  0.13777620602E+03  0.10566000000E+00 0. -1.
          4    1    1    2  501    0 -0.79289688557E+01  0.15102420832E+02  0.60517929315E+02  0.62875841392E+02  0.00000000000E+00 0.  1.
</event>
<event>
 5    1  0.2540860E-005  0.4986914E+03  0.7818608E-02  0.9587718E-01
         21   -1    0    0  501  502  0.00000000000E+00  0.00000000000E+00  0.19377958907E+03  0.19377958907E+03  0.00000000000E+00 0. -1.
         -4   -1    0    0    0  501 -0.00000000000E+00 -0.00000000000E+00 -0.26221355957E+04  0.26221355957E+04  0.00000000000E+00 0. -1.
        -13    1    1    2    0    0 -0.33727375882E+03 -0.35726560991E+02 -0.86765454355E+03  0.93158702956E+03  0.10566000000E+00 0.  1.
         13    1    1    2    0    0  0.95099009292E+02  0.51043203580E+03 -0.84973752989E+03  0.99581050688E+03  0.10566000000E+00 0. -1.
         -4    1    1    2    0  502  0.24217474953E+03 -0.47470547480E+03 -0.71096393322E+03  0.88851764837E+03  0.00000000000E+00 0. -1.
</event>
<event>
 5    1  0.2540860E-005  0.4096886E+03  0.7818608E-02  0.9989108E-01
         21   -1    0    0  501  502  0.00000000000E+00  0.00000000000E+00  0.82575875842E+03  0.82575875842E+03  0.00000000000E+00 0. -1.
         -4   -1    0    0    0  501 -0.00000000000E+00 -0.00000000000E+00 -0.43103677971E+03  0.43103677971E+03  0.00000000000E+00 0. -1.
        -13    1    1    2    0    0  0.49870534604E+01  0.15475233464E+03 -0.44695179855E+02  0.16115466498E+03  0.10566000000E+00 0.  1.
         13    1    1    2    0    0  0.25910907707E+03 -0.35024434867E+03  0.59063671757E+03  0.73393484786E+03  0.10566000000E+00 0. -1.
         -4    1    1    2    0  502 -0.26409613053E+03  0.19549201403E+03 -0.15121955900E+03  0.36170602529E+03  0.00000000000E+00 0. -1.
</event>
<event>
 5    1  0.2540860E-005  0.7264494E+03  0.7818608E-02  0.9085468E-01
         -4   -1    0    0    0  501 -0.00000000000E+00  0.00000000000E+00  0.26921172430E+04  0.26921172430E+04  0.00000000000E+00 0. -1.
         21   -1    0    0  501  502  0.00000000000E+00 -0.00000000000E+00 -0.25259624808E+03  0.25259624808E+03  0.00000000000E+00 0.  1.
        -13    1    1    2    0    0 -0.59203750896E+02 -0.77747964015E+03  0.90289443426E+03  0.11929786442E+04  0.10566000000E+00 0.  1.
         13    1    1    2    0    0  0.70425813047E+02  0.69476012750E+03  0.15107534487E+04  0.16643399364E+04  0.10566000000E+00 0. -1.
         -4    1    1    2    0  502 -0.11222062151E+02  0.82719512651E+02  0.25873111912E+02  0.87394910448E+02  0.00000000000E+00 0. -1.
</event>
<event>
 5    1  0.2540860E-005  0.7809122E+03  0.7818608E-02  0.9013206E-01
         -4   -1    0    0    0  501 -0.00000000000E+00  0.00000000000E+00  0.14456294736E+04  0.14456294736E+04  0.00000000000E+00 0. -1.
         21   -1    0    0  501  502  0.00000000000E+00 -0.00000000000E+00 -0.43573028062E+03  0.43573028062E+03  0.00000000000E+00 0.  1.
        -13    1    1    2    0    0 -0.60070416879E+03 -0.49088322579E+03  0.50395422519E+03  0.92508470532E+03  0.10566000000E+00 0.  1.
         13    1    1    2    0    0  0.61608601183E+03  0.48834388757E+03  0.51344831530E+03  0.93897332771E+03  0.10566000000E+00 0. -1.
         -4    1    1    2    0  502 -0.15381843040E+02  0.25393382217E+01 -0.75033474811E+01  0.17301721225E+02  0.00000000000E+00 0. -1.
</event>
<event>
 5    1  0.2540860E-005  0.2835492E+03  0.7818608E-02  0.1014337E+00
         -4   -1    0    0    0  501 -0.00000000000E+00  0.00000000000E+00  0.29229178202E+04  0.29229178202E+04  0.00000000000E+00 0. -1.
         21   -1    0    0  501  502  0.00000000000E+00 -0.00000000000E+00 -0.54572743105E+02  0.54572743105E+02  0.00000000000E+00 0.  1.
        -13    1    1    2    0    0 -0.27840287629E+03  0.95742089684E+02  0.17534599707E+04  0.17780035403E+04  0.10566000000E+00 0.  1.
         13    1    1    2    0    0  0.25214534116E+03 -0.95570478398E+02  0.11348849804E+04  0.11664797123E+04  0.10566000000E+00 0. -1.
         -4    1    1    2    0  502  0.26257535133E+02 -0.17161128612E+00 -0.19999873966E+02  0.33007310711E+02  0.00000000000E+00 0. -1.
</event>
<event>
 5    1  0.2540860E-005  0.3590014E+03  0.7818608E-02  0.9855552E-01
         -4   -1    0    0    0  501 -0.00000000000E+00  0.00000000000E+00  0.10318064997E+04  0.10318064997E+04  0.00000000000E+00 0. -1.
         21   -1    0    0  501  502  0.00000000000E+00 -0.00000000000E+00 -0.22130218474E+03  0.22130218474E+03  0.00000000000E+00 0.  1.
        -13    1    1    2    0    0 -0.22861001630E+03  0.28328116223E+03  0.38183724823E+03  0.52755137354E+03  0.10566000000E+00 0.  1.
         13    1    1    2    0    0  0.21666872119E+03 -0.28155612174E+03  0.52201005173E+03  0.63143779560E+03  0.10566000000E+00 0. -1.
         -4    1    1    2    0  502  0.11941295109E+02 -0.17250404968E+01 -0.93342985047E+02  0.94119515251E+02  0.00000000000E+00 0. -1.
</event>
<event>
 5    1  0.2540860E-005  0.2833911E+03  0.7818608E-02  0.1025795E+00
         -4   -1    0    0    0  501 -0.00000000000E+00  0.00000000000E+00  0.19472371783E+04  0.19472371783E+04  0.00000000000E+00 0. -1.
         21   -1    0    0  501  502  0.00000000000E+00 -0.00000000000E+00 -0.24658938603E+03  0.24658938603E+03  0.00000000000E+00 0. -1.
        -13    1    1    2    0    0 -0.14266589013E+03  0.13721393007E+03  0.82179864397E+03  0.84530127245E+03  0.10566000000E+00 0.  1.
         13    1    1    2    0    0  0.39162447954E+03 -0.15830106576E+02  0.97857225541E+03  0.10541460978E+04  0.10566000000E+00 0. -1.
         -4    1    1    2    0  502 -0.24895858941E+03 -0.12138382349E+03 -0.99723107090E+02  0.29437919412E+03  0.00000000000E+00 0. -1.
</event>
<event>
 5    1  0.2540860E-005  0.4713647E+03  0.7818608E-02  0.9669194E-01
         21   -1    0    0  501  502  0.00000000000E+00  0.00000000000E+00  0.74304877511E+03  0.74304877511E+03  0.00000000000E+00 0. -1.
          4   -1    0    0  502    0 -0.00000000000E+00 -0.00000000000E+00 -0.63781965162E+03  0.63781965162E+03  0.00000000000E+00 0.  1.
        -13    1    1    2    0    0 -0.13187762058E+03  0.23333641686E+03 -0.31557176771E+03  0.41403277888E+03  0.10566000000E+00 0.  1.
         13    1    1    2    0    0 -0.14202236339E+03  0.26550391545E+03  0.13426640650E+03  0.32968190715E+03  0.10566000000E+00 0. -1.
          4    1    1    2  501    0  0.27389998398E+03 -0.49884033231E+03  0.28653448470E+03  0.63715374070E+03  0.00000000000E+00 0.  1.
</event>
<event>
 5    1  0.2540860E-005  0.4420348E+03  0.7818608E-02  0.1002493E+00
          4   -1    0    0  502    0 -0.00000000000E+00  0.00000000000E+00  0.63940166920E+03  0.63940166920E+03  0.00000000000E+00 0.  1.
         21   -1    0    0  501  502  0.00000000000E+00 -0.00000000000E+00 -0.77165939407E+03  0.77165939407E+03  0.00000000000E+00 0.  1.
        -13    1    1    2    0    0 -0.26023502996E+03  0.36483282023E+03 -0.47687300639E+03  0.65439524213E+03  0.10566000000E+00 0.  1.
         13    1    1    2    0    0  0.10185537257E+03  0.40553240320E+02  0.29970653425E+03  0.31912865753E+03  0.10566000000E+00 0. -1.
          4    1    1    2  501    0  0.15837965739E+03 -0.40538606055E+03  0.44908747263E+02  0.43753716361E+03  0.00000000000E+00 0.  1.
</event>
<event>
 5    1  0.2540860E-005  0.3760285E+03  0.7818608E-02  0.9800948E-01
         21   -1    0    0  501  502  0.00000000000E+00  0.00000000000E+00  0.29860875747E+03  0.29860875747E+03  0.00000000000E+00 0.  1.
          4   -1    0    0  502    0 -0.00000000000E+00 -0.00000000000E+00 -0.18544707400E+04  0.18544707400E+04  0.00000000000E+00 0.  1.
        -13    1    1    2    0    0 -0.34600062726E+03  0.25885308408E+03 -0.10236797326E+04  0.11111442567E+04  0.10566000000E+00 0.  1.
         13    1    1    2    0    0  0.24865360288E+03 -0.21871904355E+03 -0.73902708354E+03  0.80983188108E+03  0.10566000000E+00 0. -1.
          4    1    1    2  501    0  0.97347024375E+02 -0.40134040531E+02  0.20684483362E+03  0.23210335964E+03  0.00000000000E+00 0.  1.
</event>
<event>
 5    1  0.2540860E-005  0.2169797E+03  0.7818608E-02  0.1049080E+00
         21   -1    0    0  501  502  0.00000000000E+00  0.00000000000E+00  0.98473923259E+03  0.98473923259E+03  0.00000000000E+00 0. -1.
         -4   -1    0    0    0  501 -0.00000000000E+00 -0.00000000000E+00 -0.82834377809E+02  0.82834377809E+02  0.00000000000E+00 0. -1.
        -13    1    1    2    0    0 -0.16925867335E+03 -0.14319922835E+03  0.32354740731E+03  0.39222117924E+03  0.10566000000E+00 0.  1.
         13    1    1    2    0    0  0.15675861300E+03  0.14560476764E+03  0.18807300078E+03  0.28486044986E+03  0.10566000000E+00 0. -1.
         -4    1    1    2    0  502  0.12500060352E+02 -0.24055392941E+01  0.39028444669E+03  0.39049198129E+03  0.00000000000E+00 0. -1.
</event>
<event>
 5    1  0.2540860E-005  0.4974353E+03  0.7818608E-02  0.9588918E-01
         21   -1    0    0  501  502  0.00000000000E+00  0.00000000000E+00  0.42980854631E+03  0.42980854631E+03  0.00000000000E+00 0.  1.
          4   -1    0    0  502    0 -0.00000000000E+00 -0.00000000000E+00 -0.12175159943E+04  0.12175159943E+04  0.00000000000E+00 0.  1.
        -13    1    1    2    0    0  0.31481159350E+03  0.56803136587E+03 -0.86727842960E+02  0.65520050513E+03  0.10566000000E+00 0.  1.
         13    1    1    2    0    0 -0.26354969182E+03 -0.21524426974E+03 -0.40342671894E+03  0.52777046567E+03  0.10566000000E+00 0. -1.
          4    1    1    2  501    0 -0.51261901680E+02 -0.35278709613E+03 -0.29755288608E+03  0.46435356979E+03  0.00000000000E+00 0.  1.
</event>
<event>
 5    1  0.2540860E-005  0.3124040E+03  0.7818608E-02  0.1002313E+00
         -4   -1    0    0    0  501 -0.00000000000E+00  0.00000000000E+00  0.59300115906E+03  0.59300115906E+03  0.00000000000E+00 0. -1.
         21   -1    0    0  501  502  0.00000000000E+00 -0.00000000000E+00 -0.23634450188E+03  0.23634450188E+03  0.00000000000E+00 0.  1.
        -13    1    1    2    0    0 -0.30518480689E+03 -0.93901573516E+02  0.32977167972E+03  0.45902575502E+03  0.10566000000E+00 0.  1.
         13    1    1    2    0    0  0.29827280677E+03  0.32109041903E+02 -0.58462736271E+01  0.30005307515E+03  0.10566000000E+00 0. -1.
         -4    1    1    2    0  502  0.69120001163E+01  0.61792531613E+02  0.32731251091E+02  0.70266830772E+02  0.00000000000E+00 0. -1.
</event>
<event>
 5    1  0.2540860E-005  0.4234817E+02  0.7818608E-02  0.1326519E+00
         21   -1    0    0  501  502  0.00000000000E+00  0.00000000000E+00  0.20899785084E+03  0.20899785084E+03  0.00000000000E+00 0.  1.
         -4   -1    0    0    0  501 -0.00000000000E+00 -0.00000000000E+00 -0.20070263482E+02  0.20070263482E+02  0.00000000000E+00 0. -1.
        -13    1    1    2    0    0 -0.19187591317E+02 -0.44292537237E+02  0.34698798557E+02  0.59447542428E+02  0.10566000000E+00 0.  1.
         13    1    1    2    0    0 -0.89285163077E+01  0.37730197347E+02  0.63424896945E+02  0.74337170459E+02  0.10566000000E+00 0. -1.
         -4    1    1    2    0  502  0.28116107625E+02  0.65623398892E+01  0.90803891856E+02  0.95283401435E+02  0.00000000000E+00 0. -1.
</event>
<event>
 5    1  0.2540860E-005  0.1240815E+03  0.7818608E-02  0.1129911E+00
          4   -1    0    0  502    0 -0.00000000000E+00  0.00000000000E+00  0.11764338456E+03  0.11764338456E+03  0.00000000000E+00 0.  1.
         21   -1    0    0  501  502  0.00000000000E+00 -0.00000000000E+00 -0.23089322909E+03  0.23089322909E+03  0.00000000000E+00 0. -1.
        -13    1    1    2    0    0  0.11056311041E+03  0.48127645765E+02  0.42217689928E+02  0.12776077715E+03  0.10566000000E+00 0.  1.
         13    1    1    2    0    0 -0.12525371592E+03 -0.53804270640E+02 -0.11862308289E+03  0.18070650196E+03  0.10566000000E+00 0. -1.
          4    1    1    2  501    0  0.14690605513E+02  0.56766248745E+01 -0.36844451560E+02  0.40069334547E+02  0.00000000000E+00 0.  1.
</event>
<event>
 5    1  0.2540860E-005  0.6082270E+03  0.7818608E-02  0.9267932E-01
         21   -1    0    0  501  502  0.00000000000E+00  0.00000000000E+00  0.25456344266E+03  0.25456344266E+03  0.00000000000E+00 0.  1.
         -4   -1    0    0    0  501 -0.00000000000E+00 -0.00000000000E+00 -0.27848575013E+04  0.27848575013E+04  0.00000000000E+00 0. -1.
        -13    1    1    2    0    0 -0.36636029648E+03 -0.37731397277E+03 -0.10847008207E+04  0.12054715187E+04  0.10566000000E+00 0.  1.
         13    1    1    2    0    0  0.41353565011E+03  0.69409429524E+03 -0.10550846847E+04  0.13289026780E+04  0.10566000000E+00 0. -1.
         -4    1    1    2    0  502 -0.47175353631E+02 -0.31678032247E+03 -0.39050855325E+03  0.50504674720E+03  0.00000000000E+00 0. -1.
</event>
<event>
 5    1  0.2540860E-005  0.5025108E+03  0.7818608E-02  0.9472486E-01
         21   -1    0    0  501  502  0.00000000000E+00  0.00000000000E+00  0.14628951300E+03  0.14628951300E+03  0.00000000000E+00 0. -1.
          4   -1    0    0  502    0 -0.00000000000E+00 -0.00000000000E+00 -0.35976981979E+04  0.35976981979E+04  0.00000000000E+00 0.  1.
        -13    1    1    2    0    0 -0.68535179636E+03 -0.13795405214E+03 -0.21057389893E+04  0.22187553059E+04  0.10566000000E+00 0.  1.
         13    1    1    2    0    0  0.34518189782E+03  0.12814481575E+03 -0.82202539373E+03  0.90072048688E+03  0.10566000000E+00 0. -1.
          4    1    1    2  501    0  0.34016989853E+03  0.98092363904E+01 -0.52364430192E+03  0.62451191815E+03  0.00000000000E+00 0.  1.
</event>
<event>
 5    1  0.2540860E-005  0.2441466E+03  0.7818608E-02  0.1033471E+00
          4   -1    0    0  502    0 -0.00000000000E+00  0.00000000000E+00  0.12801020283E+04  0.12801020283E+04  0.00000000000E+00 0.  1.
         21   -1    0    0  501  502  0.00000000000E+00 -0.00000000000E+00 -0.10973870386E+04  0.10973870386E+04  0.00000000000E+00 0.  1.
        -13    1    1    2    0    0  0.92880483032E+02  0.22541220718E+03  0.10748519470E+04  0.11021543297E+04  0.10566000000E+00 0.  1.
         13    1    1    2    0    0 -0.10866560593E+03 -0.22139286107E+03  0.11214303680E+03  0.27092265448E+03  0.10566000000E+00 0. -1.
          4    1    1    2  501    0  0.15785122895E+02 -0.40193461069E+01 -0.10042799942E+04  0.10044120827E+04  0.00000000000E+00 0.  1.
</event>
<event>
 5    1  0.2540860E-005  0.4948889E+03  0.7818608E-02  0.9489245E-01
         21   -1    0    0  501  502  0.00000000000E+00  0.00000000000E+00  0.50695484159E+03  0.50695484159E+03  0.00000000000E+00 0.  1.
         -4   -1    0    0    0  501 -0.00000000000E+00 -0.00000000000E+00 -0.16724325062E+04  0.16724325062E+04  0.00000000000E+00 0. -1.
        -13    1    1    2    0    0 -0.28752687468E+03 -0.38727216351E+03 -0.92938241921E+03  0.10470927010E+04  0.10566000000E+00 0.  1.
         13    1    1    2    0    0  0.58867532119E+03  0.26472280457E+03  0.11296657936E+03  0.65526960577E+03  0.10566000000E+00 0. -1.
         -4    1    1    2    0  502 -0.30114844651E+03  0.12254935894E+03 -0.34906182475E+03  0.47702504096E+03  0.00000000000E+00 0. -1.
</event>
<event>
 5    1  0.2540860E-005  0.4742114E+03  0.7818608E-02  0.9701790E-01
         21   -1    0    0  501  502  0.00000000000E+00  0.00000000000E+00  0.18430281311E+03  0.18430281311E+03  0.00000000000E+00 0. -1.
          4   -1    0    0  502    0 -0.00000000000E+00 -0.00000000000E+00 -0.25012303068E+04  0.25012303068E+04  0.00000000000E+00 0.  1.
        -13    1    1    2    0    0 -0.35569725980E+03 -0.39171491539E+03 -0.75305030537E+03  0.92035095977E+03  0.10566000000E+00 0.  1.
         13    1    1    2    0    0 -0.42157403597E+02  0.26049974890E+03 -0.18037898924E+03  0.31964661234E+03  0.10566000000E+00 0. -1.
          4    1    1    2  501    0  0.39785466340E+03  0.13121516648E+03 -0.13834981991E+04  0.14455355478E+04  0.00000000000E+00 0.  1.
</event>
<event>
 5    1  0.2540860E-005  0.4810727E+03  0.7818608E-02  0.9673246E-01
         21   -1    0    0  501  502  0.00000000000E+00  0.00000000000E+00  0.26754383082E+03  0.26754383082E+03  0.00000000000E+00 0.  1.
          4   -1    0    0  502    0 -0.00000000000E+00 -0.00000000000E+00 -0.21362910051E+04  0.21362910051E+04  0.00000000000E+00 0.  1.
        -13    1    1    2    0    0  0.55952748820E+03 -0.10245377004E+03 -0.20013786877E+03  0.60301157760E+03  0.10566000000E+00 0.  1.
         13    1    1    2    0    0 -0.26244063354E+03 -0.95413445648E+02 -0.10511873298E+04  0.10876459098E+04  0.10566000000E+00 0. -1.
          4    1    1    2  501    0 -0.29708685465E+03  0.19786721569E+03 -0.61742197577E+03  0.71317734850E+03  0.00000000000E+00 0.  1.
</event>
<event>
 5    1  0.2540860E-005  0.3849776E+03  0.7818608E-02  0.9773462E-01
         21   -1    0    0  501  502  0.00000000000E+00  0.00000000000E+00  0.31277942500E+03  0.31277942500E+03  0.00000000000E+00 0. -1.
          4   -1    0    0  502    0 -0.00000000000E+00 -0.00000000000E+00 -0.15297452371E+04  0.15297452371E+04  0.00000000000E+00 0.  1.
        -13    1    1    2    0    0  0.42133662068E+03 -0.45170783952E+02 -0.10923678864E+04  0.11716793752E+04  0.10566000000E+00 0.  1.
         13    1    1    2    0    0 -0.30302923273E+03  0.11412198682E+03 -0.30468107612E+03  0.44461344230E+03  0.10566000000E+00 0. -1.
          4    1    1    2  501    0 -0.11830738795E+03 -0.68951202863E+02  0.18008315051E+03  0.22623184461E+03  0.00000000000E+00 0.  1.
</event>
<event>
 5    1  0.2540860E-005  0.5221939E+03  0.7818608E-02  0.9430611E-01
          4   -1    0    0  502    0 -0.00000000000E+00  0.00000000000E+00  0.24132243862E+04  0.24132243862E+04  0.00000000000E+00 0.  1.
         21   -1    0    0  501  502  0.00000000000E+00 -0.00000000000E+00 -0.18622518449E+03  0.18622518449E+03  0.00000000000E+00 0. -1.
        -13    1    1    2    0    0 -0.50034183261E+03 -0.11620495194E+03  0.87301490326E+03  0.10129168637E+04  0.10566000000E+00 0.  1.
         13    1    1    2    0    0  0.49747793829E+03  0.18181544012E+03  0.14061918273E+04  0.15026365561E+04  0.10566000000E+00 0. -1.
          4    1    1    2  501    0  0.28638943172E+01 -0.65610488175E+02 -0.52207528909E+02  0.83896150829E+02  0.00000000000E+00 0.  1.
</event>
<event>
 5    1  0.2540860E-005  0.5027696E+02  0.7818608E-02  0.1290665E+00
         21   -1    0    0  501  502  0.00000000000E+00  0.00000000000E+00  0.19917747069E+03  0.19917747069E+03  0.00000000000E+00 0. -1.
          4   -1    0    0  502    0 -0.00000000000E+00 -0.00000000000E+00 -0.19456022898E+02  0.19456022898E+02  0.00000000000E+00 0.  1.
        -13    1    1    2    0    0 -0.35053375932E+02 -0.43591542818E+02  0.45665445095E+02  0.72210150320E+02  0.10566000000E+00 0.  1.
         13    1    1    2    0    0  0.20160230006E+02  0.36771474788E+02  0.86587255702E+02  0.96207797221E+02  0.10566000000E+00 0. -1.
          4    1    1    2  501    0  0.14893145925E+02  0.68200680298E+01  0.47468746995E+02  0.50215546047E+02  0.00000000000E+00 0.  1.
</event>
<event>
 5    1  0.2540860E-005  0.4081946E+03  0.7818608E-02  0.9835561E-01
         21   -1    0    0  501  502  0.00000000000E+00  0.00000000000E+00  0.66556272931E+03  0.66556272931E+03  0.00000000000E+00 0. -1.
          4   -1    0    0  502    0 -0.00000000000E+00 -0.00000000000E+00 -0.99614296144E+03  0.99614296144E+03  0.00000000000E+00 0.  1.
        -13    1    1    2    0    0 -0.34364919948E+03 -0.96036442189E+02  0.27713870716E+03  0.45180044788E+03  0.10566000000E+00 0.  1.
         13    1    1    2    0    0 -0.23418251368E+03 -0.11593186219E+03 -0.52820526447E+03  0.58930676134E+03  0.10566000000E+00 0. -1.
          4    1    1    2  501    0  0.57783171316E+03  0.21196830438E+03 -0.79513674821E+02  0.62059848153E+03  0.00000000000E+00 0.  1.
</event>
<event>
 5    1  0.2540860E-005  0.7616145E+02  0.7818608E-02  0.1213695E+00
         21   -1    0    0  501  502  0.00000000000E+00  0.00000000000E+00  0.14936262874E+03  0.14936262874E+03  0.00000000000E+00 0.  1.
         -4   -1    0    0    0  501 -0.00000000000E+00 -0.00000000000E+00 -0.26099749136E+03  0.26099749136E+03  0.00000000000E+00 0. -1.
        -13    1    1    2    0    0  0.39091844302E+02 -0.60952992814E+02  0.16383490185E+02  0.74241966155E+02  0.10566000000E+00 0.  1.
         13    1    1    2    0    0 -0.11155752967E+03  0.69292731828E+02 -0.19631563174E+03  0.23619145526E+03  0.10566000000E+00 0. -1.
         -4    1    1    2    0  502  0.72465685365E+02 -0.83397390142E+01  0.68297278929E+02  0.99926698692E+02  0.00000000000E+00 0. -1.
</event>
<event>
 5    1  0.2540860E-005  0.4971082E+03  0.7818608E-02  0.9872192E-01
         -4   -1    0    0    0  501 -0.00000000000E+00  0.00000000000E+00  0.87202392037E+03  0.87202392037E+03  0.00000000000E+00 0. -1.
         21   -1    0    0  501  502  0.00000000000E+00 -0.00000000000E+00 -0.41827223694E+03  0.41827223694E+03  0.00000000000E+00 0. -1.
        -13    1    1    2    0    0 -0.91312031913E+01  0.12751642511E+03  0.22751311648E+03  0.26097135260E+03  0.10566000000E+00 0.  1.
         13    1    1    2    0    0  0.47875210512E+03 -0.21762515687E+03  0.12468328286E+03  0.54047221875E+03  0.10566000000E+00 0. -1.
         -4    1    1    2    0  502 -0.46962090192E+03  0.90108731761E+02  0.10155528409E+03  0.48885258595E+03  0.00000000000E+00 0. -1.
</event>
<event>
 5    1  0.2540860E-005  0.6878034E+03  0.7818608E-02  0.9140861E-01
         21   -1    0    0  501  502  0.00000000000E+00  0.00000000000E+00  0.33588640547E+04  0.33588640547E+04  0.00000000000E+00 0. -1.
          4   -1    0    0  502    0 -0.00000000000E+00 -0.00000000000E+00 -0.39139840187E+03  0.39139840187E+03  0.00000000000E+00 0.  1.
        -13    1    1    2    0    0 -0.54720017295E+03  0.38037688505E+03  0.27882877956E+03  0.72239885342E+03  0.10566000000E+00 0.  1.
         13    1    1    2    0    0  0.87820035319E+03  0.69913444728E+01  0.15779772290E+04  0.18059061121E+04  0.10566000000E+00 0. -1.
          4    1    1    2  501    0 -0.33100018024E+03 -0.38736822952E+03  0.11106596442E+04  0.12219574910E+04  0.00000000000E+00 0.  1.
</event>
<event>
 5    1  0.2540860E-005  0.2375821E+03  0.7818608E-02  0.1037037E+00
         21   -1    0    0  501  502  0.00000000000E+00  0.00000000000E+00  0.11952027972E+03  0.11952027972E+03  0.00000000000E+00 0. -1.
          4   -1    0    0  502    0 -0.00000000000E+00 -0.00000000000E+00 -0.89449822299E+03  0.89449822299E+03  0.00000000000E+00 0.  1.
        -13    1    1    2    0    0 -0.24017341287E+03  0.56581299985E+02 -0.60954075368E+03  0.65759003438E+03  0.10566000000E+00 0.  1.
         13    1    1    2    0    0  0.21594696881E+03 -0.40855012413E+02 -0.20957255029E+03  0.30368221940E+03  0.10566000000E+00 0. -1.
          4    1    1    2  501    0  0.24226444058E+02 -0.15726287572E+02  0.44135360700E+02  0.52746248934E+02  0.00000000000E+00 0.  1.
</event>
<event>
 5    1  0.2540860E-005  0.6623892E+03  0.7818608E-02  0.9179399E-01
         -4   -1    0    0    0  501 -0.00000000000E+00  0.00000000000E+00  0.22968752782E+04  0.22968752782E+04  0.00000000000E+00 0. -1.
         21   -1    0    0  501  502  0.00000000000E+00 -0.00000000000E+00 -0.55272265008E+03  0.55272265008E+03  0.00000000000E+00 0. -1.
        -13    1    1    2    0    0  0.58357925174E+03  0.52245767532E+03  0.12562192465E+04  0.14804099338E+04  0.10566000000E+00 0.  1.
         13    1    1    2    0    0 -0.60786912521E+03 -0.31468354679E+02  0.61097900664E+03  0.86243288924E+03  0.10566000000E+00 0. -1.
         -4    1    1    2    0  502  0.24289873464E+02 -0.49098932064E+03 -0.12304562497E+03  0.50675510531E+03  0.00000000000E+00 0. -1.
</event>
<event>
 5    1  0.2540860E-005  0.1568356E+03  0.7818608E-02  0.1094559E+00
         21   -1    0    0  501  502  0.00000000000E+00  0.00000000000E+00  0.33389268855E+03  0.33389268855E+03  0.00000000000E+00 0.  1.
         -4   -1    0    0    0  501 -0.00000000000E+00 -0.00000000000E+00 -0.44317123881E+03  0.44317123881E+03  0.00000000000E+00 0. -1.
        -13    1    1    2    0    0  0.16036117823E+03  0.35896580083E+02  0.21821949360E+03  0.27317399308E+03  0.10566000000E+00 0.  1.
         13    1    1    2    0    0 -0.15463969683E+03 -0.23456393675E+02 -0.40032076257E+03  0.42979106825E+03  0.10566000000E+00 0. -1.
         -4    1    1    2    0  502 -0.57214814049E+01 -0.12440186408E+02  0.72822718711E+02  0.74098866036E+02  0.00000000000E+00 0. -1.
</event>
<event>
 5    1  0.2540860E-005  0.5957306E+02  0.7818608E-02  0.1321603E+00
         -4   -1    0    0    0  501 -0.00000000000E+00  0.00000000000E+00  0.44236974689E+03  0.44236974689E+03  0.00000000000E+00 0. -1.
         21   -1    0    0  501  502  0.00000000000E+00 -0.00000000000E+00 -0.23470185340E+02  0.23470185340E+02  0.00000000000E+00 0. -1.
        -13    1    1    2    0    0  0.11807198387E+01 -0.16634755617E+02  0.53524809456E+02  0.56062693345E+02  0.10566000000E+00 0.  1.
         13    1    1    2    0    0 -0.59573154684E+02  0.25764828644E+02  0.33882514701E+03  0.34498591068E+03  0.10566000000E+00 0. -1.
         -4    1    1    2    0  502  0.58392434845E+02 -0.91300730275E+01  0.26549605080E+02  0.64791328205E+02  0.00000000000E+00 0. -1.
</event>
<event>
 5    1  0.2540860E-005  0.6502264E+02  0.7818608E-02  0.1240425E+00
          4   -1    0    0  502    0 -0.00000000000E+00  0.00000000000E+00  0.17123928724E+02  0.17123928724E+02  0.00000000000E+00 0.  1.
         21   -1    0    0  501  502  0.00000000000E+00 -0.00000000000E+00 -0.41702072493E+03  0.41702072493E+03  0.00000000000E+00 0. -1.
        -13    1    1    2    0    0  0.23702187315E+02 -0.76473851730E+02 -0.14598246639E+03  0.16649605203E+03  0.10566000000E+00 0.  1.
         13    1    1    2    0    0 -0.26167902073E+02  0.45060569911E+02 -0.13740684170E+03  0.14695531760E+03  0.10566000000E+00 0. -1.
          4    1    1    2  501    0  0.24657147578E+01  0.31413281819E+02 -0.11650748811E+03  0.12069328403E+03  0.00000000000E+00 0.  1.
</event>
<event>
 5    1  0.2540860E-005  0.7477605E+02  0.7818608E-02  0.1214726E+00
         21   -1    0    0  501  502  0.00000000000E+00  0.00000000000E+00  0.19011439478E+03  0.19011439478E+03  0.00000000000E+00 0.  1.
         -4   -1    0    0    0  501 -0.00000000000E+00 -0.00000000000E+00 -0.19884129692E+03  0.19884129692E+03  0.00000000000E+00 0. -1.
        -13    1    1    2    0    0  0.81807055042E+02  0.54287317376E+02  0.11759466663E+03  0.15319276701E+03  0.10566000000E+00 0.  1.
         13    1    1    2    0    0 -0.65191782526E+02 -0.33921436977E+02 -0.16976421920E+03  0.18498792847E+03  0.10566000000E+00 0. -1.
         -4    1    1    2    0  502 -0.16615272516E+02 -0.20365880399E+02  0.43442650426E+02  0.50774996221E+02  0.00000000000E+00 0. -1.
</event>
<event>
 5    1  0.2540860E-005  0.4974618E+03  0.7818608E-02  0.9823448E-01
         21   -1    0    0  501  502  0.00000000000E+00  0.00000000000E+00  0.30483832546E+03  0.30483832546E+03  0.00000000000E+00 0.  1.
          4   -1    0    0  502    0 -0.00000000000E+00 -0.00000000000E+00 -0.10999859384E+04  0.10999859384E+04  0.00000000000E+00 0.  1.
        -13    1    1    2    0    0 -0.47488923977E+03 -0.30506439294E+03 -0.27425691314E+03  0.62753560812E+03  0.10566000000E+00 0.  1.
         13    1    1    2    0    0  0.14596929614E+03  0.36350400242E+02 -0.11020056787E+03  0.18647402858E+03  0.10566000000E+00 0. -1.
          4    1    1    2  501    0  0.32891994363E+03  0.26871399269E+03 -0.41069013189E+03  0.59081462712E+03  0.00000000000E+00 0.  1.
</event>
<event>
 5    1  0.2540860E-005  0.3492993E+03  0.7818608E-02  0.9888122E-01
         -4   -1    0    0    0  501 -0.00000000000E+00  0.00000000000E+00  0.23533938334E+03  0.23533938334E+03  0.00000000000E+00 0. -1.
         21   -1    0    0  501  502  0.00000000000E+00 -0.00000000000E+00 -0.10622698043E+04  0.10622698043E+04  0.00000000000E+00 0.  1.
        -13    1    1    2    0    0 -0.35498878023E+03 -0.16111883898E+02 -0.82048366776E+02  0.36470340353E+03  0.10566000000E+00 0.  1.
         13    1    1    2    0    0  0.31090615900E+03  0.19981208201E+03 -0.53841276545E+03  0.65305116567E+03  0.10566000000E+00 0. -1.
         -4    1    1    2    0  502  0.44082621234E+02 -0.18370019811E+03 -0.20646928877E+03  0.27985461848E+03  0.00000000000E+00 0. -1.
</event>
<event>
 5    1  0.5821359E-005  0.4897544E+03  0.7818608E-02  0.1034505E+00
         21   -1    0    0  501  502  0.00000000000E+00  0.00000000000E+00  0.39771820449E+03  0.39771820449E+03  0.00000000000E+00 0.  1.
          4   -1    0    0  502    0 -0.00000000000E+00 -0.00000000000E+00 -0.74851465554E+03  0.74851465554E+03  0.00000000000E+00 0.  1.
        -13    1    1    2    0    0  0.42016454351E+03  0.22768771451E+03 -0.32799854924E+02  0.47901542836E+03  0.10566000000E+00 0.  1.
         13    1    1    2    0    0  0.27242629796E+02  0.10792274313E+02 -0.11901819406E+03  0.12257232862E+03  0.10566000000E+00 0. -1.
          4    1    1    2  501    0 -0.44740717330E+03 -0.23847998882E+03 -0.19897840207E+03  0.54464510305E+03  0.00000000000E+00 0.  1.
</event>
<event>
 5    1  0.2540860E-005  0.1033467E+03  0.7818608E-02  0.1203601E+00
         21   -1    0    0  501  502  0.00000000000E+00  0.00000000000E+00  0.83421504388E+03  0.83421504388E+03  0.00000000000E+00 0.  1.
          4   -1    0    0  502    0 -0.00000000000E+00 -0.00000000000E+00 -0.26015219894E+02  0.26015219894E+02  0.00000000000E+00 0.  1.
        -13    1    1    2    0    0  0.11373184155E+03 -0.55459242633E+02  0.20087546681E+03  0.23740603132E+03  0.10566000000E+00 0.  1.
         13    1    1    2    0    0 -0.36118756057E+02 -0.41020842057E+01  0.10647574701E+03  0.11250994400E+03  0.10566000000E+00 0. -1.
          4    1    1    2  501    0 -0.77613085495E+02  0.59561326839E+02  0.50084861016E+03  0.51031428845E+03  0.00000000000E+00 0.  1.
</event>
<event>
 5    1  0.2540860E-005  0.3991535E+03  0.7818608E-02  0.9916552E-01
         21   -1    0    0  501  502  0.00000000000E+00  0.00000000000E+00  0.20958604323E+03  0.20958604323E+03  0.00000000000E+00 0.  1.
          4   -1    0    0  502    0 -0.00000000000E+00 -0.00000000000E+00 -0.14603617011E+04  0.14603617011E+04  0.00000000000E+00 0.  1.
        -13    1    1    2    0    0  0.35893091143E+03 -0.31643362713E+03 -0.77927934767E+03  0.91446047068E+03  0.10566000000E+00 0.  1.
         13    1    1    2    0    0  0.35171592059E+01  0.21282637189E+03 -0.18485020406E+03  0.28191673254E+03  0.10566000000E+00 0. -1.
          4    1    1    2  501    0 -0.36244807064E+03  0.10360725525E+03 -0.28664610612E+03  0.47357054111E+03  0.00000000000E+00 0.  1.
</event>
<event>
 5    1  0.2540860E-005  0.4788010E+03  0.7818608E-02  0.9665251E-01
          4   -1    0    0  502    0 -0.00000000000E+00  0.00000000000E+00  0.44970963029E+03  0.44970963029E+03  0.00000000000E+00 0.  1.
         21   -1    0    0  501  502  0.00000000000E+00 -0.00000000000E+00 -0.10630689344E+04  0.10630689344E+04  0.00000000000E+00 0. -1.
        -13    1    1    2    0    0 -0.43083884005E+02  0.30127202021E+03  0.15729679305E+03  0.34258333802E+03  0.10566000000E+00 0.  1.
         13    1    1    2    0    0 -0.15561384459E+03  0.24624025416E+03 -0.32766366687E+03  0.43842151082E+03  0.10566000000E+00 0. -1.
          4    1    1    2  501    0  0.19869772859E+03 -0.54751227437E+03 -0.44299243033E+03  0.73177371589E+03  0.00000000000E+00 0.  1.
</event>
<event>
 5    1  0.2540860E-005  0.2611310E+02  0.7818608E-02  0.1439139E+00
          4   -1    0    0  502    0 -0.00000000000E+00  0.00000000000E+00  0.77651694549E+02  0.77651694549E+02  0.00000000000E+00 0.  1.
         21   -1    0    0  501  502  0.00000000000E+00 -0.00000000000E+00 -0.20027411955E+02  0.20027411955E+02  0.00000000000E+00 0.  1.
        -13    1    1    2    0    0  0.25476685194E+02 -0.22757173358E+02  0.26380732452E+02  0.43161378992E+02  0.10566000000E+00 0.  1.
         13    1    1    2    0    0 -0.20894430409E+02  0.23038617900E+01  0.63172668603E+01  0.21950034759E+02  0.10566000000E+00 0. -1.
          4    1    1    2  501    0 -0.45822547850E+01  0.20453311568E+02  0.24926283282E+02  0.32567692753E+02  0.00000000000E+00 0.  1.
</event>
<event>
 5    1  0.2540860E-005  0.4469050E+03  0.7818608E-02  0.9618031E-01
         21   -1    0    0  501  502  0.00000000000E+00  0.00000000000E+00  0.46022183608E+03  0.46022183608E+03  0.00000000000E+00 0. -1.
         -4   -1    0    0    0  501 -0.00000000000E+00 -0.00000000000E+00 -0.14489658517E+04  0.14489658517E+04  0.00000000000E+00 0. -1.
        -13    1    1    2    0    0  0.43613700892E+03 -0.14401767439E+03 -0.73042995813E+03  0.86283516153E+03  0.10566000000E+00 0.  1.
         13    1    1    2    0    0 -0.20277805218E+03 -0.38022718806E+03 -0.41467458852E+02  0.43291016885E+03  0.10566000000E+00 0. -1.
         -4    1    1    2    0  502 -0.23335895674E+03  0.52424486245E+03 -0.21684659863E+03  0.61344235738E+03  0.00000000000E+00 0. -1.
</event>
<event>
 5    1  0.2540860E-005  0.5439094E+03  0.7818608E-02  0.9444255E-01
         -4   -1    0    0    0  501 -0.00000000000E+00  0.00000000000E+00  0.15120176535E+04  0.15120176535E+04  0.00000000000E+00 0. -1.
         21   -1    0    0  501  502  0.00000000000E+00 -0.00000000000E+00 -0.10917875473E+04  0.10917875473E+04  0.00000000000E+00 0.  1.
        -13    1    1    2    0    0  0.20575765792E+03 -0.85441174364E+03  0.76997221034E+03  0.11684232355E+04  0.10566000000E+00 0.  1.
         13    1    1    2    0    0  0.12103589863E+03  0.34515467255E+03  0.35279886690E+03  0.50818155062E+03  0.10566000000E+00 0. -1.
         -4    1    1    2    0  502 -0.32679355655E+03  0.50925707109E+03 -0.70254097101E+03  0.92720041469E+03  0.00000000000E+00 0. -1.
</event>
<event>
 5    1  0.2540860E-005  0.3868443E+03  0.7818608E-02  0.9779565E-01
         21   -1    0    0  501  502  0.00000000000E+00  0.00000000000E+00  0.13891860117E+04  0.13891860117E+04  0.00000000000E+00 0.  1.
          4   -1    0    0  502    0 -0.00000000000E+00 -0.00000000000E+00 -0.48204971595E+03  0.48204971595E+03  0.00000000000E+00 0.  1.
        -13    1    1    2    0    0  0.78967736731E+02  0.30201941827E+03 -0.57590643854E+02  0.31744027136E+03  0.10566000000E+00 0.  1.
         13    1    1    2    0    0 -0.37125083395E+03  0.15396086584E+02 -0.11669956902E+03  0.38946504563E+03  0.10566000000E+00 0. -1.
          4    1    1    2  501    0  0.29228309722E+03 -0.31741550485E+03  0.10814265087E+04  0.11643304107E+04  0.00000000000E+00 0.  1.
</event>
<event>
 5    1  0.2540860E-005  0.2588307E+03  0.7818608E-02  0.1027431E+00
         -4   -1    0    0    0  501 -0.00000000000E+00  0.00000000000E+00  0.71443305211E+03  0.71443305211E+03  0.00000000000E+00 0. -1.
         21   -1    0    0  501  502  0.00000000000E+00 -0.00000000000E+00 -0.70311823824E+03  0.70311823824E+03  0.00000000000E+00 0. -1.
        -13    1    1    2    0    0  0.19971059531E+03 -0.14519773331E+03  0.27256685839E+03  0.36777630034E+03  0.10566000000E+00 0.  1.
         13    1    1    2    0    0  0.45781482665E+02 -0.24082386733E+03 -0.48280974255E+03  0.54147699664E+03  0.10566000000E+00 0. -1.
         -4    1    1    2    0  502 -0.24549207798E+03  0.38602160063E+03  0.22155769803E+03  0.50829799336E+03  0.00000000000E+00 0. -1.
</event>
<event>
 5    1  0.2540860E-005  0.3579136E+03  0.7818608E-02  0.9859149E-01
         -4   -1    0    0    0  501 -0.00000000000E+00  0.00000000000E+00  0.40922415050E+03  0.40922415050E+03  0.00000000000E+00 0. -1.
         21   -1    0    0  501  502  0.00000000000E+00 -0.00000000000E+00 -0.19596981817E+04  0.19596981817E+04  0.00000000000E+00 0. -1.
        -13    1    1    2    0    0  0.45298527049E+03 -0.45456418661E+02  0.15515867066E+02  0.45552463662E+03  0.10566000000E+00 0.  1.
         13    1    1    2    0    0 -0.26274047940E+03 -0.19843265669E+03 -0.12582209921E+02  0.32949416069E+03  0.10566000000E+00 0. -1.
         -4    1    1    2    0  502 -0.19024479109E+03  0.24388907535E+03 -0.15534076884E+04  0.15839035349E+04  0.00000000000E+00 0. -1.
</event>
<event>
 5    1  0.2540860E-005  0.4849671E+03  0.7818608E-02  0.9573920E-01
         21   -1    0    0  501  502  0.00000000000E+00  0.00000000000E+00  0.50537713136E+03  0.50537713136E+03  0.00000000000E+00 0.  1.
          4   -1    0    0  502    0 -0.00000000000E+00 -0.00000000000E+00 -0.17667680051E+04  0.17667680051E+04  0.00000000000E+00 0.  1.
        -13    1    1    2    0    0 -0.14056848375E+03  0.64474278014E+03 -0.10102889130E+03  0.66757741065E+03  0.10566000000E+00 0.  1.
         13    1    1    2    0    0 -0.15641954477E+03 -0.35442674266E+03 -0.11225692401E+04  0.11875382519E+04  0.10566000000E+00 0. -1.
          4    1    1    2  501    0  0.29698802852E+03 -0.29031603749E+03 -0.37792742383E+02  0.41702947388E+03  0.00000000000E+00 0.  1.
</event>
<event>
 5    1  0.2540860E-005  0.7326809E+02  0.7818608E-02  0.1218405E+00
         -4   -1    0    0    0  501 -0.00000000000E+00  0.00000000000E+00  0.32635289179E+03  0.32635289179E+03  0.00000000000E+00 0. -1.
         21   -1    0    0  501  502  0.00000000000E+00 -0.00000000000E+00 -0.93925271430E+02  0.93925271430E+02  0.00000000000E+00 0.  1.
        -13    1    1    2    0    0  0.20644716132E+02 -0.60413559094E+02 -0.48002372765E+02  0.79876413175E+02  0.10566000000E+00 0.  1.
         13    1    1    2    0    0 -0.33924051302E+02  0.65728645046E+02  0.30397921134E+03  0.31284895418E+03  0.10566000000E+00 0. -1.
         -4    1    1    2    0  502  0.13279335169E+02 -0.53150859513E+01 -0.23549218221E+02  0.27552795866E+02  0.00000000000E+00 0. -1.
</event>
<event>
 5    1  0.2540860E-005  0.4614929E+03  0.7818608E-02  0.9566617E-01
         21   -1    0    0  501  502  0.00000000000E+00  0.00000000000E+00  0.53975927500E+03  0.53975927500E+03  0.00000000000E+00 0.  1.
          4   -1    0    0  502    0 -0.00000000000E+00 -0.00000000000E+00 -0.12107954708E+04  0.12107954708E+04  0.00000000000E+00 0.  1.
        -13    1    1    2    0    0  0.49602447284E+03 -0.11565134716E+03 -0.61614700446E+03  0.79940768949E+03  0.10566000000E+00 0.  1.
         13    1    1    2    0    0 -0.21686758871E+03  0.44223814661E+03 -0.14233031388E+03  0.51270270017E+03  0.10566000000E+00 0. -1.
          4    1    1    2  501    0 -0.27915688413E+03 -0.32658679944E+03  0.87441122528E+02  0.43844435614E+03  0.00000000000E+00 0.  1.
</event>
<event>
 5    1  0.2540860E-005  0.5764571E+03  0.7818608E-02  0.9324505E-01
         21   -1    0    0  501  502  0.00000000000E+00  0.00000000000E+00  0.78310383009E+03  0.78310383009E+03  0.00000000000E+00 0.  1.
         -4   -1    0    0    0  501 -0.00000000000E+00 -0.00000000000E+00 -0.11245090419E+04  0.11245090419E+04  0.00000000000E+00 0. -1.
        -13    1    1    2    0    0 -0.52767402202E+03  0.47415283368E+03 -0.24154282859E+03  0.74940225007E+03  0.10566000000E+00 0.  1.
         13    1    1    2    0    0  0.49112080579E+03 -0.19111733701E+03 -0.45943655031E+03  0.69914765058E+03  0.10566000000E+00 0. -1.
         -4    1    1    2    0  502  0.36553216224E+02 -0.28303549667E+03  0.35957416710E+03  0.45906297132E+03  0.00000000000E+00 0. -1.
</event>
<event>
 5    1  0.2540860E-005  0.4698607E+03  0.7818608E-02  0.9786234E-01
         -4   -1    0    0    0  501 -0.00000000000E+00  0.00000000000E+00  0.24027328303E+04  0.24027328303E+04  0.00000000000E+00 0. -1.
         21   -1    0    0  501  502  0.00000000000E+00 -0.00000000000E+00 -0.15471480441E+03  0.15471480441E+03  0.00000000000E+00 0. -1.
        -13    1    1    2    0    0  0.19796004291E+03 -0.43507472745E+02  0.73967114918E+03  0.76693839314E+03  0.10566000000E+00 0.  1.
         13    1    1    2    0    0 -0.55980120981E+03 -0.13122777607E+01  0.64938795043E+03  0.85737030384E+03  0.10566000000E+00 0. -1.
         -4    1    1    2    0  502  0.36184116689E+03  0.44819750506E+02  0.85895892626E+03  0.93313893773E+03  0.00000000000E+00 0. -1.
</event>
<event>
 5    1  0.2540860E-005  0.1004000E+03  0.7818608E-02  0.1163895E+00
         21   -1    0    0  501  502  0.00000000000E+00  0.00000000000E+00  0.29301142084E+03  0.29301142084E+03  0.00000000000E+00 0.  1.
          4   -1    0    0  502    0 -0.00000000000E+00 -0.00000000000E+00 -0.10206974543E+03  0.10206974543E+03  0.00000000000E+00 0.  1.
        -13    1    1    2    0    0  0.76888929839E+02  0.82317026910E+02 -0.52882544174E+02  0.12443703264E+03  0.10566000000E+00 0.  1.
         13    1    1    2    0    0 -0.28026833033E+02 -0.53453640821E+02  0.11507749431E+03  0.12994474190E+03  0.10566000000E+00 0. -1.
          4    1    1    2  501    0 -0.48862096806E+02 -0.28863386088E+02  0.12874672528E+03  0.14069939173E+03  0.00000000000E+00 0.  1.
</event>
<event>
 5    1  0.2540860E-005  0.2033023E+03  0.7818608E-02  0.1057895E+00
         21   -1    0    0  501  502  0.00000000000E+00  0.00000000000E+00  0.17667636503E+03  0.17667636503E+03  0.00000000000E+00 0.  1.
         -4   -1    0    0    0  501 -0.00000000000E+00 -0.00000000000E+00 -0.11388745550E+04  0.11388745550E+04  0.00000000000E+00 0. -1.
        -13    1    1    2    0    0 -0.40670460978E+02 -0.20817974845E+03 -0.30139268744E+02  0.21424584184E+03  0.10566000000E+00 0.  1.
         13    1    1    2    0    0  0.17135546851E+02  0.20173096412E+03 -0.10045854369E+04  0.10247833527E+04  0.10566000000E+00 0. -1.
         -4    1    1    2    0  502  0.23534914128E+02  0.64487843337E+01  0.72526515636E+02  0.76521725495E+02  0.00000000000E+00 0. -1.
</event>
<event>
 5    1  0.2540860E-005  0.2186737E+03  0.7818608E-02  0.1048037E+00
          4   -1    0    0  502    0 -0.00000000000E+00  0.00000000000E+00  0.22067657994E+04  0.22067657994E+04  0.00000000000E+00 0.  1.
         21   -1    0    0  501  502  0.00000000000E+00 -0.00000000000E+00 -0.26759612137E+02  0.26759612137E+02  0.00000000000E+00 0. -1.
        -13    1    1    2    0    0 -0.14864063240E+03 -0.14952689636E+03  0.10688057205E+04  0.10894025930E+04  0.10566000000E+00 0.  1.
         13    1    1    2    0    0  0.14577383501E+03  0.17563009927E+03  0.10774466198E+04  0.11013569687E+04  0.10566000000E+00 0. -1.
          4    1    1    2  501    0  0.28667973951E+01 -0.26103202906E+02  0.33753846974E+02  0.42765849867E+02  0.00000000000E+00 0.  1.
</event>
<event>
 5    1  0.2540860E-005  0.4896754E+03  0.7818608E-02  0.9500893E-01
         21   -1    0    0  501  502  0.00000000000E+00  0.00000000000E+00  0.69013014627E+03  0.69013014627E+03  0.00000000000E+00 0.  1.
          4   -1    0    0  502    0 -0.00000000000E+00 -0.00000000000E+00 -0.16448290649E+04  0.16448290649E+04  0.00000000000E+00 0.  1.
        -13    1    1    2    0    0 -0.48079400958E+03 -0.72885749379E+02 -0.14079821736E+04  0.14895935769E+04  0.10566000000E+00 0.  1.
         13    1    1    2    0    0  0.51006350210E+03  0.93175517107E+02  0.14967400903E+03  0.53967469211E+03  0.10566000000E+00 0. -1.
          4    1    1    2  501    0 -0.29269492516E+02 -0.20289767728E+02  0.30360924595E+03  0.30569094212E+03  0.00000000000E+00 0.  1.
</event>
<event>
 5    1  0.2540860E-005  0.4307574E+03  0.7818608E-02  0.9940999E-01
         21   -1    0    0  501  502  0.00000000000E+00  0.00000000000E+00  0.14103141742E+03  0.14103141742E+03  0.00000000000E+00 0. -1.
         -4   -1    0    0    0  501 -0.00000000000E+00 -0.00000000000E+00 -0.20953886181E+04  0.20953886181E+04  0.00000000000E+00 0. -1.
        -13    1    1    2    0    0  0.12187895326E+03  0.97586849173E+02 -0.32436284797E+03  0.35998463952E+03  0.10566000000E+00 0.  1.
         13    1    1    2    0    0 -0.49577184642E+03  0.53335871266E+02 -0.11224865996E+04  0.12282551105E+04  0.10566000000E+00 0. -1.
         -4    1    1    2    0  502  0.37389289316E+03 -0.15092272044E+03 -0.50750775302E+03  0.64818028547E+03  0.00000000000E+00 0. -1.
</event>
<event>
 5    1  0.2540860E-005  0.4510330E+03  0.7818608E-02  0.9758730E-01
          4   -1    0    0  502    0 -0.00000000000E+00  0.00000000000E+00  0.15255922787E+04  0.15255922787E+04  0.00000000000E+00 0.  1.
         21   -1    0    0  501  502  0.00000000000E+00 -0.00000000000E+00 -0.42624265322E+03  0.42624265322E+03  0.00000000000E+00 0.  1.
        -13    1    1    2    0    0  0.36989697814E+03  0.29057090435E+03  0.33576570815E+03  0.57792200757E+03  0.10566000000E+00 0.  1.
         13    1    1    2    0    0  0.89974572249E+02 -0.23520826383E+03  0.86400747432E+03  0.89995959791E+03  0.10566000000E+00 0. -1.
          4    1    1    2  501    0 -0.45987155039E+03 -0.55362640525E+02 -0.10042355701E+03  0.47395332642E+03  0.00000000000E+00 0.  1.
</event>
<event>
 5    1  0.2540860E-005  0.4054327E+03  0.7818608E-02  0.9731725E-01
         -4   -1    0    0    0  501 -0.00000000000E+00  0.00000000000E+00  0.27069433535E+04  0.27069433535E+04  0.00000000000E+00 0. -1.
         21   -1    0    0  501  502  0.00000000000E+00 -0.00000000000E+00 -0.23385985835E+03  0.23385985835E+03  0.00000000000E+00 0. -1.
        -13    1    1    2    0    0 -0.14828761929E+03 -0.35051151075E+03  0.13174085624E+04  0.13712814696E+04  0.10566000000E+00 0.  1.
         13    1    1    2    0    0 -0.21357320849E+03  0.51109933032E+03  0.10018614032E+04  0.11447979399E+04  0.10566000000E+00 0. -1.
         -4    1    1    2    0  502  0.36186082777E+03 -0.16058781956E+03  0.15381352953E+03  0.42472380241E+03  0.00000000000E+00 0. -1.
</event>
<event>
 5    1  0.2540860E-005  0.4827213E+03  0.7818608E-02  0.9722294E-01
         21   -1    0    0  501  502  0.00000000000E+00  0.00000000000E+00  0.17056207665E+04  0.17056207665E+04  0.00000000000E+00 0. -1.
         -4   -1    0    0    0  501 -0.00000000000E+00 -0.00000000000E+00 -0.24829051658E+03  0.24829051658E+03  0.00000000000E+00 0. -1.
        -13    1    1    2    0    0 -0.19561620074E+03 -0.12653839156E+03  0.10485364614E+03  0.25548377797E+03  0.10566000000E+00 0.  1.
         13    1    1    2    0    0  0.44013179496E+03 -0.28448065608E+03  0.51949788145E+03  0.73791822081E+03  0.10566000000E+00 0. -1.
         -4    1    1    2    0  502 -0.24451559422E+03  0.41101904764E+03  0.83297872230E+03  0.96050928426E+03  0.00000000000E+00 0. -1.
</event>
<event>
 5    1  0.2540860E-005  0.3050206E+02  0.7818608E-02  0.1431482E+00
         -4   -1    0    0    0  501 -0.00000000000E+00  0.00000000000E+00  0.18789670858E+03  0.18789670858E+03  0.00000000000E+00 0. -1.
         21   -1    0    0  501  502  0.00000000000E+00 -0.00000000000E+00 -0.27322632051E+02  0.27322632051E+02  0.00000000000E+00 0. -1.
        -13    1    1    2    0    0  0.38187304672E+01  0.18109894494E+02  0.54330221287E+01  0.19289372059E+02  0.10566000000E+00 0.  1.
         13    1    1    2    0    0  0.88585512191E+01 -0.44677421558E+02  0.15976602250E+03  0.16613169185E+03  0.10566000000E+00 0. -1.
         -4    1    1    2    0  502 -0.12677281686E+02  0.26567527064E+02 -0.46249681085E+01  0.29798276716E+02  0.00000000000E+00 0. -1.
</event>
<event>
 5    1  0.2540860E-005  0.5002251E+03  0.7818608E-02  0.9925028E-01
          4   -1    0    0  502    0 -0.00000000000E+00  0.00000000000E+00  0.98396583135E+03  0.98396583135E+03  0.00000000000E+00 0.  1.
         21   -1    0    0  501  502  0.00000000000E+00 -0.00000000000E+00 -0.32089937360E+03  0.32089937360E+03  0.00000000000E+00 0.  1.
        -13    1    1    2    0    0 -0.39439219408E+03  0.23045978152E+03  0.33693880572E+03  0.56761314609E+03  0.10566000000E+00 0.  1.
         13    1    1    2    0    0 -0.45696121372E+02  0.94684435573E+02  0.10709816297E+02  0.10567870730E+03  0.10566000000E+00 0. -1.
          4    1    1    2  501    0  0.44008831545E+03 -0.32514421710E+03  0.31541783572E+03  0.63157335156E+03  0.00000000000E+00 0.  1.
</event>
<event>
 5    1  0.2540860E-005  0.4786287E+03  0.7818608E-02  0.9694312E-01
          4   -1    0    0  502    0 -0.00000000000E+00  0.00000000000E+00  0.24024883410E+04  0.24024883410E+04  0.00000000000E+00 0.  1.
         21   -1    0    0  501  502  0.00000000000E+00 -0.00000000000E+00 -0.19264351804E+03  0.19264351804E+03  0.00000000000E+00 0.  1.
        -13    1    1    2    0    0 -0.37148842403E+03  0.25894727583E+03  0.13651454706E+04  0.14382904811E+04  0.10566000000E+00 0.  1.
         13    1    1    2    0    0 -0.14259490392E+03 -0.22149235652E+03  0.19627122818E+03  0.32850354153E+03  0.10566000000E+00 0. -1.
          4    1    1    2  501    0  0.51408332795E+03 -0.37454919311E+02  0.64842812413E+03  0.82833783641E+03  0.00000000000E+00 0.  1.
</event>
<event>
 5    1  0.2540860E-005  0.1162810E+03  0.7818608E-02  0.1140115E+00
          4   -1    0    0  502    0 -0.00000000000E+00  0.00000000000E+00  0.14850331760E+04  0.14850331760E+04  0.00000000000E+00 0.  1.
         21   -1    0    0  501  502  0.00000000000E+00 -0.00000000000E+00 -0.61773155915E+02  0.61773155915E+02  0.00000000000E+00 0.  1.
        -13    1    1    2    0    0 -0.43373311272E+02 -0.16286727857E+03  0.79408731776E+02  0.18631358621E+03  0.10566000000E+00 0.  1.
         13    1    1    2    0    0  0.42851675063E+02  0.10059733746E+03  0.40262031300E+03  0.41720404835E+03  0.10566000000E+00 0. -1.
          4    1    1    2  501    0  0.52163620865E+00  0.62269941110E+02  0.94123097536E+03  0.94328869740E+03  0.00000000000E+00 0.  1.
</event>
<event>
 5    1  0.2540860E-005  0.3202853E+03  0.7818608E-02  0.1019217E+00
         21   -1    0    0  501  502  0.00000000000E+00  0.00000000000E+00  0.32228550134E+03  0.32228550134E+03  0.00000000000E+00 0.  1.
          4   -1    0    0  502    0 -0.00000000000E+00 -0.00000000000E+00 -0.13172469478E+04  0.13172469478E+04  0.00000000000E+00 0.  1.
        -13    1    1    2    0    0 -0.32242176002E+03  0.28903487252E+02 -0.69370640655E+03  0.76551929601E+03  0.10566000000E+00 0.  1.
         13    1    1    2    0    0  0.56971736067E+02  0.15861043868E+03 -0.47604141478E+03  0.50499355414E+03  0.10566000000E+00 0. -1.
          4    1    1    2  501    0  0.26545002395E+03 -0.18751392594E+03  0.17478637484E+03  0.36901959903E+03  0.00000000000E+00 0.  1.
</event>
<event>
 5    1  0.2540860E-005  0.3231716E+03  0.7818608E-02  0.1008552E+00
         21   -1    0    0  501  502  0.00000000000E+00  0.00000000000E+00  0.27624891579E+03  0.27624891579E+03  0.00000000000E+00 0. -1.
         -4   -1    0    0    0  501 -0.00000000000E+00 -0.00000000000E+00 -0.21836005113E+04  0.21836005113E+04  0.00000000000E+00 0. -1.
        -13    1    1    2    0    0  0.72414667741E+02 -0.21885356448E+03 -0.11553077195E+04  0.11780817903E+04  0.10566000000E+00 0.  1.
         13    1    1    2    0    0 -0.35531668201E+03  0.33368135233E+03 -0.83368358635E+03  0.96572331582E+03  0.10566000000E+00 0. -1.
         -4    1    1    2    0  502  0.28290201427E+03 -0.11482778785E+03  0.81639710288E+02  0.31604432100E+03  0.00000000000E+00 0. -1.
</event>
<event>
 5    1  0.2540860E-005  0.4988843E+03  0.7818608E-02  0.9520005E-01
         21   -1    0    0  501  502  0.00000000000E+00  0.00000000000E+00  0.46483062443E+03  0.46483062443E+03  0.00000000000E+00 0. -1.
         -4   -1    0    0    0  501 -0.00000000000E+00 -0.00000000000E+00 -0.18518848663E+04  0.18518848663E+04  0.00000000000E+00 0. -1.
        -13    1    1    2    0    0 -0.35046547235E+02 -0.43063485979E+03 -0.11151536842E+04  0.11959274198E+04  0.10566000000E+00 0.  1.
         13    1    1    2    0    0  0.34119425360E+03 -0.16343759507E+03 -0.24738107846E+03  0.45202076867E+03  0.10566000000E+00 0. -1.
         -4    1    1    2    0  502 -0.30614770636E+03  0.59407245486E+03 -0.24519479266E+02  0.66876730228E+03  0.00000000000E+00 0. -1.
</event>
<event>
 5    1  0.2540860E-005  0.3232006E+03  0.7818608E-02  0.9981638E-01
         -4   -1    0    0    0  501 -0.00000000000E+00  0.00000000000E+00  0.26758969676E+04  0.26758969676E+04  0.00000000000E+00 0. -1.
         21   -1    0    0  501  502  0.00000000000E+00 -0.00000000000E+00 -0.15952780347E+03  0.15952780347E+03  0.00000000000E+00 0. -1.
        -13    1    1    2    0    0 -0.37316171436E+02  0.25854503037E+03  0.66437471974E+03  0.71388501089E+03  0.10566000000E+00 0.  1.
         13    1    1    2    0    0 -0.13482044996E+02 -0.36843978067E+03  0.19381761164E+04  0.19729308926E+04  0.10566000000E+00 0. -1.
         -4    1    1    2    0  502  0.50798216432E+02  0.10989475030E+03 -0.86181672024E+02  0.14860886760E+03  0.00000000000E+00 0. -1.
</event>
<event>
 5    1  0.2540860E-005  0.4566161E+03  0.7818608E-02  0.9578493E-01
         21   -1    0    0  501  502  0.00000000000E+00  0.00000000000E+00  0.48037682693E+03  0.48037682693E+03  0.00000000000E+00 0. -1.
         -4   -1    0    0    0  501 -0.00000000000E+00 -0.00000000000E+00 -0.19840861136E+04  0.19840861136E+04  0.00000000000E+00 0. -1.
        -13    1    1    2    0    0  0.44591365488E+03 -0.25820312367E+02 -0.12530566053E+04  0.13302843844E+04  0.10566000000E+00 0.  1.
         13    1    1    2    0    0 -0.56962030630E+03 -0.66069231095E+01  0.24660031900E+03  0.62074364538E+03  0.10566000000E+00 0. -1.
         -4    1    1    2    0  502  0.12370665142E+03  0.32427235476E+02 -0.49725300040E+03  0.51343491078E+03  0.00000000000E+00 0. -1.
</event>
<event>
 5    1  0.2540860E-005  0.4893731E+03  0.7818608E-02  0.9647446E-01
          4   -1    0    0  502    0 -0.00000000000E+00  0.00000000000E+00  0.24258700080E+04  0.24258700080E+04  0.00000000000E+00 0.  1.
         21   -1    0    0  501  502  0.00000000000E+00 -0.00000000000E+00 -0.31389917016E+03  0.31389917016E+03  0.00000000000E+00 0.  1.
        -13    1    1    2    0    0 -0.58576562406E+03 -0.28102698954E+02  0.39839935748E+03  0.70896628074E+03  0.10566000000E+00 0.  1.
         13    1    1    2    0    0  0.17919124712E+03  0.22856823498E+03  0.15033014878E+04  0.15311003610E+04  0.10566000000E+00 0. -1.
          4    1    1    2  501    0  0.40657437694E+03 -0.20046553603E+03  0.21026999255E+03  0.49970253640E+03  0.00000000000E+00 0.  1.
</event>
<event>
 5    1  0.2540860E-005  0.5395467E+03  0.7818608E-02  0.9470138E-01
         21   -1    0    0  501  502  0.00000000000E+00  0.00000000000E+00  0.11574971996E+04  0.11574971996E+04  0.00000000000E+00 0.  1.
          4   -1    0    0  502    0 -0.00000000000E+00 -0.00000000000E+00 -0.67535436952E+03  0.67535436952E+03  0.00000000000E+00 0.  1.
        -13    1    1    2    0    0 -0.19804448156E+03 -0.89886640930E+02 -0.19945388453E+03  0.29509843800E+03  0.10566000000E+00 0.  1.
         13    1    1    2    0    0  0.13061576234E+03 -0.60541561412E+03  0.97093509465E+02  0.62690964575E+03  0.10566000000E+00 0. -1.
          4    1    1    2  501    0  0.67428719223E+02  0.69530225505E+03  0.58450320517E+03  0.91084348541E+03  0.00000000000E+00 0.  1.
</event>
<event>
 5    1  0.2540860E-005  0.3467996E+02  0.7818608E-02  0.1370844E+00
          4   -1    0    0  502    0 -0.00000000000E+00  0.00000000000E+00  0.29497398400E+02  0.29497398400E+02  0.00000000000E+00 0.  1.
         21   -1    0    0  501  502  0.00000000000E+00 -0.00000000000E+00 -0.17805329909E+03  0.17805329909E+03  0.00000000000E+00 0. -1.
        -13    1    1    2    0    0  0.10728398121E+02  0.33797303890E+02  0.14130709121E+02  0.38171250710E+02  0.10566000000E+00 0.  1.
         13    1    1    2    0    0  0.28872099124E+01 -0.30980645692E+02 -0.86302793910E+02  0.91740502448E+02  0.10566000000E+00 0. -1.
          4    1    1    2  501    0 -0.13615608033E+02 -0.28166581983E+01 -0.76383815900E+02  0.77638944332E+02  0.00000000000E+00 0.  1.
</event>
<event>
 5    1  0.2540860E-005  0.7018055E+02  0.7818608E-02  0.1226254E+00
         -4   -1    0    0    0  501 -0.00000000000E+00  0.00000000000E+00  0.75509725864E+02  0.75509725864E+02  0.00000000000E+00 0. -1.
         21   -1    0    0  501  502  0.00000000000E+00 -0.00000000000E+00 -0.37371346888E+03  0.37371346888E+03  0.00000000000E+00 0. -1.
        -13    1    1    2    0    0  0.41401349259E+02 -0.62295916668E+01 -0.18293906553E+03  0.18766883703E+03  0.10566000000E+00 0.  1.
         13    1    1    2    0    0 -0.66156728734E+02  0.31386932903E+02  0.52510632599E+02  0.90106770077E+02  0.10566000000E+00 0. -1.
         -4    1    1    2    0  502  0.24755379475E+02 -0.25157341236E+02 -0.16777531009E+03  0.17144758764E+03  0.00000000000E+00 0. -1.
</event>
<event>
 5    1  0.2540860E-005  0.4909770E+03  0.7818608E-02  0.9537592E-01
         -4   -1    0    0    0  501 -0.00000000000E+00  0.00000000000E+00  0.94965749163E+03  0.94965749163E+03  0.00000000000E+00 0. -1.
         21   -1    0    0  501  502  0.00000000000E+00 -0.00000000000E+00 -0.62016935322E+03  0.62016935322E+03  0.00000000000E+00 0.  1.
        -13    1    1    2    0    0  0.82828023536E+02  0.41723545679E+03  0.10524600238E+02  0.42550756310E+03  0.10566000000E+00 0.  1.
         13    1    1    2    0    0 -0.26104458191E+03  0.27672301438E+03  0.14421952005E+03  0.40684048663E+03  0.10566000000E+00 0. -1.
         -4    1    1    2    0  502  0.17821655838E+03 -0.69395847116E+03  0.17474401812E+03  0.73747879512E+03  0.00000000000E+00 0. -1.
</event>
<event>
 5    1  0.2540860E-005  0.3361179E+03  0.7818608E-02  0.9934221E-01
         21   -1    0    0  501  502  0.00000000000E+00  0.00000000000E+00  0.28741246355E+03  0.28741246355E+03  0.00000000000E+00 0. -1.
         -4   -1    0    0    0  501 -0.00000000000E+00 -0.00000000000E+00 -0.15334418613E+04  0.15334418613E+04  0.00000000000E+00 0. -1.
        -13    1    1    2    0    0 -0.32011754672E+03  0.67272966379E+02 -0.41273500544E+03  0.52664133108E+03  0.10566000000E+00 0.  1.
         13    1    1    2    0    0  0.27624692881E+03 -0.22060662635E+03 -0.10017114999E+04  0.10622643690E+04  0.10566000000E+00 0. -1.
         -4    1    1    2    0  502  0.43870617907E+02  0.15333365997E+03  0.16841710765E+03  0.23194862480E+03  0.00000000000E+00 0. -1.
</event>
<event>
 5    1  0.2540860E-005  0.3234415E+03  0.7818608E-02  0.1002194E+00
         21   -1    0    0  501  502  0.00000000000E+00  0.00000000000E+00  0.64767533571E+03  0.64767533571E+03  0.00000000000E+00 0.  1.
          4   -1    0    0  502    0 -0.00000000000E+00 -0.00000000000E+00 -0.13113779439E+04  0.13113779439E+04  0.00000000000E+00 0.  1.
        -13    1    1    2    0    0  0.12551820540E+03  0.55160726675E+03 -0.14002015133E+03  0.58277873208E+03  0.10566000000E+00 0.  1.
         13    1    1    2    0    0 -0.20827173082E+02 -0.28182147966E+03 -0.87593725153E+03  0.92039295810E+03  0.10566000000E+00 0. -1.
          4    1    1    2  501    0 -0.10469103231E+03 -0.26978578709E+03  0.35225479470E+03  0.45588158940E+03  0.00000000000E+00 0.  1.
</event>
<event>
 5    1  0.2540860E-005  0.8819332E+03  0.7818608E-02  0.8894214E-01
         21   -1    0    0  501  502  0.00000000000E+00  0.00000000000E+00  0.41996786781E+03  0.41996786781E+03  0.00000000000E+00 0.  1.
         -4   -1    0    0    0  501 -0.00000000000E+00 -0.00000000000E+00 -0.20488340665E+04  0.20488340665E+04  0.00000000000E+00 0. -1.
        -13    1    1    2    0    0  0.18220163933E+03 -0.87031391023E+03 -0.71751969928E+03  0.11425752797E+04  0.10566000000E+00 0.  1.
         13    1    1    2    0    0 -0.15676546156E+03  0.86205593961E+03 -0.94135768934E+03  0.12860288346E+04  0.10566000000E+00 0. -1.
         -4    1    1    2    0  502 -0.25436177765E+02  0.82579706188E+01  0.30011189909E+02  0.40197820063E+02  0.00000000000E+00 0. -1.
</event>
<event>
 5    1  0.2540860E-005  0.4643077E+03  0.7818608E-02  0.9559832E-01
         21   -1    0    0  501  502  0.00000000000E+00  0.00000000000E+00  0.34895826524E+03  0.34895826524E+03  0.00000000000E+00 0.  1.
          4   -1    0    0  502    0 -0.00000000000E+00 -0.00000000000E+00 -0.19275569897E+04  0.19275569897E+04  0.00000000000E+00 0.  1.
        -13    1    1    2    0    0 -0.45146407315E+03 -0.78260637422E+02 -0.10212738725E+04  0.11193502001E+04  0.10566000000E+00 0.  1.
         13    1    1    2    0    0  0.44334895754E+03  0.18196724873E+03 -0.77768257251E+03  0.91348813485E+03  0.10566000000E+00 0. -1.
          4    1    1    2  501    0  0.81151156107E+01 -0.10370661131E+03  0.22035772053E+03  0.24367691998E+03  0.00000000000E+00 0.  1.
</event>
<event>
 5    1  0.2540860E-005  0.8855850E+02  0.7818608E-02  0.1185013E+00
         21   -1    0    0  501  502  0.00000000000E+00  0.00000000000E+00  0.65439165098E+03  0.65439165098E+03  0.00000000000E+00 0.  1.
          4   -1    0    0  502    0 -0.00000000000E+00 -0.00000000000E+00 -0.96433078104E+02  0.96433078104E+02  0.00000000000E+00 0.  1.
        -13    1    1    2    0    0 -0.60457771933E+02  0.64054623143E+02 -0.62201875035E+02  0.10782959406E+03  0.10566000000E+00 0.  1.
         13    1    1    2    0    0  0.72832807021E+02 -0.58450743587E+02  0.18142460085E+03  0.20404902392E+03  0.10566000000E+00 0. -1.
          4    1    1    2  501    0 -0.12375035087E+02 -0.56038795554E+01  0.43873584706E+03  0.43894611111E+03  0.00000000000E+00 0.  1.
</event>
<event>
 5    1  0.2540860E-005  0.5090491E+03  0.7818608E-02  0.9936495E-01
          4   -1    0    0  502    0 -0.00000000000E+00  0.00000000000E+00  0.16966827588E+04  0.16966827588E+04  0.00000000000E+00 0.  1.
         21   -1    0    0  501  502  0.00000000000E+00 -0.00000000000E+00 -0.19015960163E+03  0.19015960163E+03  0.00000000000E+00 0.  1.
        -13    1    1    2    0    0  0.33528324508E+02 -0.49710301343E+03  0.57979847596E+03  0.76446179656E+03  0.10566000000E+00 0.  1.
         13    1    1    2    0    0 -0.92525374950E+02 -0.25707087744E+02  0.23061254543E+03  0.24980783944E+03  0.10566000000E+00 0. -1.
          4    1    1    2  501    0  0.58997050442E+02  0.52281010117E+03  0.69611213573E+03  0.87257272440E+03  0.00000000000E+00 0.  1.
</event>
<event>
 5    1  0.2540860E-005  0.4820046E+03  0.7818608E-02  0.9786520E-01
         21   -1    0    0  501  502  0.00000000000E+00  0.00000000000E+00  0.29671630247E+03  0.29671630247E+03  0.00000000000E+00 0. -1.
         -4   -1    0    0    0  501 -0.00000000000E+00 -0.00000000000E+00 -0.14783609797E+04  0.14783609797E+04  0.00000000000E+00 0. -1.
        -13    1    1    2    0    0 -0.18740274861E+03  0.77677878763E+01 -0.52581253039E+03  0.55826423582E+03  0.10566000000E+00 0.  1.
         13    1    1    2    0    0  0.18801726336E+02 -0.48239907650E+03 -0.15633350327E+03  0.50744709017E+03  0.10566000000E+00 0. -1.
         -4    1    1    2    0  502  0.16860102227E+03  0.47463128862E+03 -0.49949864355E+03  0.70936595616E+03  0.00000000000E+00 0. -1.
</event>
<event>
 5    1  0.4220459E-005  0.1182020E+04  0.7818608E-02  0.8620226E-01
          4   -1    0    0  502    0 -0.00000000000E+00  0.00000000000E+00  0.23684138280E+04  0.23684138280E+04  0.00000000000E+00 0.  1.
         21   -1    0    0  501  502  0.00000000000E+00 -0.00000000000E+00 -0.94307089028E+03  0.94307089028E+03  0.00000000000E+00 0. -1.
        -13    1    1    2    0    0  0.90232786693E+03 -0.81326282428E+03  0.28748752703E+03  0.12482952736E+04  0.10566000000E+00 0.  1.
         13    1    1    2    0    0 -0.69403213475E+03  0.94784777218E+03  0.13112947368E+04  0.17605652221E+04  0.10566000000E+00 0. -1.
          4    1    1    2  501    0 -0.20829573218E+03 -0.13458494789E+03 -0.17343932611E+03  0.30262422257E+03  0.00000000000E+00 0.  1.
</event>
<event>
 5    1  0.2540860E-005  0.5156059E+03  0.7818608E-02  0.9916459E-01
          4   -1    0    0  502    0 -0.00000000000E+00  0.00000000000E+00  0.18099531051E+04  0.18099531051E+04  0.00000000000E+00 0.  1.
         21   -1    0    0  501  502  0.00000000000E+00 -0.00000000000E+00 -0.18759627715E+03  0.18759627715E+03  0.00000000000E+00 0.  1.
        -13    1    1    2    0    0 -0.47965820451E+03  0.41086746671E+02  0.67930203093E+03  0.83259316254E+03  0.10566000000E+00 0.  1.
         13    1    1    2    0    0 -0.81571481777E+02 -0.55716408851E+02  0.51607668442E+02  0.11145217567E+03  0.10566000000E+00 0. -1.
          4    1    1    2  501    0  0.56122968629E+03  0.14629662180E+02  0.89144712857E+03  0.10535040440E+04  0.00000000000E+00 0.  1.
</event>
<event>
 5    1  0.2540860E-005  0.2704034E+03  0.7818608E-02  0.1042605E+00
         21   -1    0    0  501  502  0.00000000000E+00  0.00000000000E+00  0.91031306642E+03  0.91031306642E+03  0.00000000000E+00 0.  1.
          4   -1    0    0  502    0 -0.00000000000E+00 -0.00000000000E+00 -0.16272992693E+03  0.16272992693E+03  0.00000000000E+00 0.  1.
        -13    1    1    2    0    0  0.23817618489E+03 -0.23095651649E+02  0.15490804875E+03  0.28505757121E+03  0.10566000000E+00 0.  1.
         13    1    1    2    0    0  0.71524184977E+02  0.11581480265E+03  0.37318041932E+03  0.39723093293E+03  0.10566000000E+00 0. -1.
          4    1    1    2  501    0 -0.30970036987E+03 -0.92719151002E+02  0.21949467142E+03  0.39075448921E+03  0.00000000000E+00 0.  1.
</event>
<event>
 5    1  0.2540860E-005  0.1016985E+03  0.7818608E-02  0.1174700E+00
          4   -1    0    0  502    0 -0.00000000000E+00  0.00000000000E+00  0.48550850157E+03  0.48550850157E+03  0.00000000000E+00 0.  1.
         21   -1    0    0  501  502  0.00000000000E+00 -0.00000000000E+00 -0.59328559304E+03  0.59328559304E+03  0.00000000000E+00 0.  1.
        -13    1    1    2    0    0 -0.13830266409E+03  0.41913331383E+02  0.44000287387E+03  0.46312729828E+03  0.10566000000E+00 0.  1.
         13    1    1    2    0    0  0.39176972495E+02 -0.63427870155E+02 -0.18578060050E+02  0.76831538873E+02  0.10566000000E+00 0. -1.
          4    1    1    2  501    0  0.99125691594E+02  0.21514538773E+02 -0.52920190529E+03  0.53883525745E+03  0.00000000000E+00 0.  1.
</event>
<event>
 5    1  0.2540860E-005  0.2751101E+03  0.7818608E-02  0.1019089E+00
          4   -1    0    0  502    0 -0.00000000000E+00  0.00000000000E+00  0.19457467525E+04  0.19457467525E+04  0.00000000000E+00 0.  1.
         21   -1    0    0  501  502  0.00000000000E+00 -0.00000000000E+00 -0.33367755071E+03  0.33367755071E+03  0.00000000000E+00 0.  1.
        -13    1    1    2    0    0  0.17676688650E+03 -0.19076509602E+03 -0.18045769942E+03  0.31654833196E+03  0.10566000000E+00 0.  1.
         13    1    1    2    0    0  0.26953799253E+03  0.73007170972E+02  0.10672394674E+04  0.11031685584E+04  0.10566000000E+00 0. -1.
          4    1    1    2  501    0 -0.44630487903E+03  0.11775792504E+03  0.72528743381E+03  0.85970741279E+03  0.00000000000E+00 0.  1.
</event>
<event>
 5    1  0.2540860E-005  0.2625505E+02  0.7818608E-02  0.1437771E+00
         -4   -1    0    0    0  501 -0.00000000000E+00  0.00000000000E+00  0.17067352759E+03  0.17067352759E+03  0.00000000000E+00 0. -1.
         21   -1    0    0  501  502  0.00000000000E+00 -0.00000000000E+00 -0.95659838421E+01  0.95659838421E+01  0.00000000000E+00 0.  1.
        -13    1    1    2    0    0 -0.19536273786E+02 -0.22814917960E+02  0.50923370846E+02  0.59121800863E+02  0.10566000000E+00 0.  1.
         13    1    1    2    0    0  0.39500038498E+01  0.25670061938E+02  0.97264920346E+02  0.10067288863E+03  0.10566000000E+00 0. -1.
         -4    1    1    2    0  502  0.15586269937E+02 -0.28551439780E+01  0.12919252555E+02  0.20444821942E+02  0.00000000000E+00 0. -1.
</event>
<event>
 5    1  0.2540860E-005  0.7947940E+02  0.7818608E-02  0.1211366E+00
         -4   -1    0    0    0  501 -0.00000000000E+00  0.00000000000E+00  0.20143260311E+03  0.20143260311E+03  0.00000000000E+00 0. -1.
         21   -1    0    0  501  502  0.00000000000E+00 -0.00000000000E+00 -0.38241053694E+03  0.38241053694E+03  0.00000000000E+00 0.  1.
        -13    1    1    2    0    0 -0.67070432864E+02  0.23707501301E+01 -0.19626342891E+03  0.20742084783E+03  0.10566000000E+00 0.  1.
         13    1    1    2    0    0  0.37734070003E+02 -0.77332631851E+02  0.17642746330E+03  0.19629278376E+03  0.10566000000E+00 0. -1.
         -4    1    1    2    0  502  0.29336362861E+02  0.74961881721E+02 -0.16114196822E+03  0.18012950846E+03  0.00000000000E+00 0. -1.
</event>
<event>
 5    1  0.2540860E-005  0.4835102E+03  0.7818608E-02  0.9518595E-01
          4   -1    0    0  502    0 -0.00000000000E+00  0.00000000000E+00  0.15531267546E+04  0.15531267546E+04  0.00000000000E+00 0.  1.
         21   -1    0    0  501  502  0.00000000000E+00 -0.00000000000E+00 -0.76579318232E+03  0.76579318232E+03  0.00000000000E+00 0.  1.
        -13    1    1    2    0    0  0.20582630910E+03 -0.25496079495E+03 -0.27430515368E+02  0.32881897880E+03  0.10566000000E+00 0.  1.
         13    1    1    2    0    0  0.16444822009E+03 -0.44778201503E+03  0.10570053437E+04  0.11596604063E+04  0.10566000000E+00 0. -1.
          4    1    1    2  501    0 -0.37027452919E+03  0.70274280998E+03 -0.24224125610E+03  0.83044055182E+03  0.00000000000E+00 0.  1.
</event>
<event>
 5    1  0.2540860E-005  0.4928352E+03  0.7818608E-02  0.9858687E-01
          4   -1    0    0  502    0 -0.00000000000E+00  0.00000000000E+00  0.50519618726E+03  0.50519618726E+03  0.00000000000E+00 0.  1.
         21   -1    0    0  501  502  0.00000000000E+00 -0.00000000000E+00 -0.72589512321E+03  0.72589512321E+03  0.00000000000E+00 0.  1.
        -13    1    1    2    0    0 -0.12020260547E+03  0.52906671912E+03 -0.16404881114E+03  0.56680885953E+03  0.10566000000E+00 0.  1.
         13    1    1    2    0    0 -0.37172161328E+02 -0.13217703423E+03 -0.17385432857E+03  0.22153527187E+03  0.10566000000E+00 0. -1.
          4    1    1    2  501    0  0.15737476680E+03 -0.39688968489E+03  0.11720420376E+03  0.44274717907E+03  0.00000000000E+00 0.  1.
</event>
<event>
 5    1  0.2540860E-005  0.8189558E+03  0.7818608E-02  0.8966294E-01
         21   -1    0    0  501  502  0.00000000000E+00  0.00000000000E+00  0.38330697333E+03  0.38330697333E+03  0.00000000000E+00 0.  1.
         -4   -1    0    0    0  501 -0.00000000000E+00 -0.00000000000E+00 -0.32076230715E+04  0.32076230715E+04  0.00000000000E+00 0. -1.
        -13    1    1    2    0    0  0.14328754975E+03  0.76121744322E+03 -0.18854753271E+04  0.20383818431E+04  0.10566000000E+00 0.  1.
         13    1    1    2    0    0 -0.32204709084E+03 -0.92492214433E+03 -0.64990160469E+03  0.11754009566E+04  0.10566000000E+00 0. -1.
         -4    1    1    2    0  502  0.17875954109E+03  0.16370470110E+03 -0.28893916632E+03  0.37714724516E+03  0.00000000000E+00 0. -1.
</event>
<event>
 5    1  0.2540860E-005  0.4032938E+03  0.7818608E-02  0.1057000E+00
         21   -1    0    0  501  502  0.00000000000E+00  0.00000000000E+00  0.64961638178E+03  0.64961638178E+03  0.00000000000E+00 0. -1.
         -4   -1    0    0    0  501 -0.00000000000E+00 -0.00000000000E+00 -0.42589399396E+03  0.42589399396E+03  0.00000000000E+00 0. -1.
        -13    1    1    2    0    0  0.27580013102E+00 -0.26734699265E+02  0.34911188664E+02  0.43972974297E+02  0.10566000000E+00 0.  1.
         13    1    1    2    0    0  0.20006771553E+03 -0.32857823629E+03 -0.22894396384E+03  0.44766739652E+03  0.10566000000E+00 0. -1.
         -4    1    1    2    0  502 -0.20034351566E+03  0.35531293555E+03  0.41775516300E+03  0.58387000493E+03  0.00000000000E+00 0. -1.
</event>
<event>
 5    1  0.2540860E-005  0.4063131E+03  0.7818608E-02  0.9828845E-01
         21   -1    0    0  501  502  0.00000000000E+00  0.00000000000E+00  0.25839689329E+03  0.25839689329E+03  0.00000000000E+00 0.  1.
          4   -1    0    0  502    0 -0.00000000000E+00 -0.00000000000E+00 -0.20135241641E+04  0.20135241641E+04  0.00000000000E+00 0.  1.
        -13    1    1    2    0    0 -0.19850163367E+03  0.28690507969E+03 -0.10779818114E+03  0.36515460060E+03  0.10566000000E+00 0.  1.
         13    1    1    2    0    0 -0.16065946080E+03  0.21831508364E+03 -0.87740002032E+03  0.91831571092E+03  0.10566000000E+00 0. -1.
          4    1    1    2  501    0  0.35916109446E+03 -0.50522016333E+03 -0.76992906938E+03  0.98845074591E+03  0.00000000000E+00 0.  1.
</event>
<event>
 5    1  0.2540860E-005  0.4267869E+03  0.7818608E-02  0.9860546E-01
         -4   -1    0    0    0  501 -0.00000000000E+00  0.00000000000E+00  0.16199143551E+04  0.16199143551E+04  0.00000000000E+00 0. -1.
         21   -1    0    0  501  502  0.00000000000E+00 -0.00000000000E+00 -0.30261379548E+03  0.30261379548E+03  0.00000000000E+00 0. -1.
        -13    1    1    2    0    0  0.20741640806E+03  0.33495147531E+02  0.71021134689E+03  0.74063733342E+03  0.10566000000E+00 0.  1.
         13    1    1    2    0    0 -0.28604532570E+03 -0.43195148548E+03  0.57577424794E+03  0.77454503414E+03  0.10566000000E+00 0. -1.
         -4    1    1    2    0  502  0.78628917635E+02  0.39845633794E+03  0.31314964818E+02  0.40734578304E+03  0.00000000000E+00 0. -1.
</event>
<event>
 5    1  0.2540860E-005  0.5200153E+03  0.7818608E-02  0.9620045E-01
          4   -1    0    0  502    0 -0.00000000000E+00  0.00000000000E+00  0.16052185684E+04  0.16052185684E+04  0.00000000000E+00 0.  1.
         21   -1    0    0  501  502  0.00000000000E+00 -0.00000000000E+00 -0.53715023274E+03  0.53715023274E+03  0.00000000000E+00 0.  1.
        -13    1    1    2    0    0 -0.38857269511E+03 -0.33929694228E+03  0.31746474159E+01  0.51586940593E+03  0.10566000000E+00 0.  1.
         13    1    1    2    0    0  0.19220148295E+03 -0.18483444968E+03  0.10319230007E+04  0.10658190627E+04  0.10566000000E+00 0. -1.
          4    1    1    2  501    0  0.19637121216E+03  0.52413139195E+03  0.32970687503E+02  0.56068033248E+03  0.00000000000E+00 0.  1.
</event>
<event>
 5    1  0.2540860E-005  0.1179505E+03  0.7818608E-02  0.1137859E+00
         21   -1    0    0  501  502  0.00000000000E+00  0.00000000000E+00  0.25481918665E+03  0.25481918665E+03  0.00000000000E+00 0. -1.
          4   -1    0    0  502    0 -0.00000000000E+00 -0.00000000000E+00 -0.10814273182E+03  0.10814273182E+03  0.00000000000E+00 0.  1.
        -13    1    1    2    0    0  0.88488991578E+02 -0.11269898618E+03  0.16033314163E+03  0.21503044107E+03  0.10566000000E+00 0.  1.
         13    1    1    2    0    0 -0.73999990939E+02  0.83878210156E+02 -0.23314225576E+02  0.11425899123E+03  0.10566000000E+00 0. -1.
          4    1    1    2  501    0 -0.14489000639E+02  0.28820776027E+02  0.96575387726E+01  0.33672486179E+02  0.00000000000E+00 0.  1.
</event>
<event>
 5    1  0.2540860E-005  0.7262679E+03  0.7818608E-02  0.9089628E-01
          4   -1    0    0  502    0 -0.00000000000E+00  0.00000000000E+00  0.41935862308E+04  0.41935862308E+04  0.00000000000E+00 0.  1.
         21   -1    0    0  501  502  0.00000000000E+00 -0.00000000000E+00 -0.32883114506E+03  0.32883114506E+03  0.00000000000E+00 0. -1.
        -13    1    1    2    0    0 -0.35216820797E+03 -0.34469344524E+03  0.16120827000E+04  0.16857184405E+04  0.10566000000E+00 0.  1.
         13    1    1    2    0    0  0.27453942264E+03 -0.66028843641E+03  0.98220020677E+03  0.12149362005E+04  0.10566000000E+00 0. -1.
          4    1    1    2  501    0  0.77628785327E+02  0.10049818816E+04  0.12704721790E+04  0.16217627349E+04  0.00000000000E+00 0.  1.
</event>
<event>
 5    1  0.2540860E-005  0.4883907E+03  0.7818608E-02  0.9503786E-01
         21   -1    0    0  501  502  0.00000000000E+00  0.00000000000E+00  0.55920134639E+03  0.55920134639E+03  0.00000000000E+00 0. -1.
         -4   -1    0    0    0  501 -0.00000000000E+00 -0.00000000000E+00 -0.11326810926E+04  0.11326810926E+04  0.00000000000E+00 0. -1.
        -13    1    1    2    0    0 -0.16251387293E+03 -0.44373225679E+03 -0.79277492007E+03  0.92293074479E+03  0.10566000000E+00 0.  1.
         13    1    1    2    0    0  0.28620751338E+03  0.51844057173E+03  0.18520764152E+03  0.62048146529E+03  0.10566000000E+00 0. -1.
         -4    1    1    2    0  502 -0.12369364045E+03 -0.74708314934E+02  0.34087532349E+02  0.14847022890E+03  0.00000000000E+00 0. -1.
</event>
<event>
 5    1  0.2540860E-005  0.5984905E+03  0.7818608E-02  0.9301342E-01
         21   -1    0    0  501  502  0.00000000000E+00  0.00000000000E+00  0.41600079293E+03  0.41600079293E+03  0.00000000000E+00 0. -1.
         -4   -1    0    0    0  501 -0.00000000000E+00 -0.00000000000E+00 -0.31633946951E+04  0.31633946951E+04  0.00000000000E+00 0. -1.
        -13    1    1    2    0    0 -0.33579748315E+03 -0.53954615839E+03 -0.22122608012E+04  0.23017314940E+04  0.10566000000E+00 0.  1.
         13    1    1    2    0    0 -0.25990941928E+03  0.48189091748E+03 -0.35547545652E+03  0.65278983902E+03  0.10566000000E+00 0. -1.
         -4    1    1    2    0  502  0.59570690242E+03  0.57655240910E+02 -0.17965764445E+03  0.62487415502E+03  0.00000000000E+00 0. -1.
</event>
<event>
 5    1  0.2540860E-005  0.8829272E+03  0.7818608E-02  0.8893127E-01
          4   -1    0    0  502    0 -0.00000000000E+00  0.00000000000E+00  0.32911559169E+04  0.32911559169E+04  0.00000000000E+00 0.  1.
         21   -1    0    0  501  502  0.00000000000E+00 -0.00000000000E+00 -0.42426205058E+03  0.42426205058E+03  0.00000000000E+00 0. -1.
        -13    1    1    2    0    0 -0.78476801276E+03 -0.39442766833E+03  0.10068236067E+04  0.13360867508E+04  0.10566000000E+00 0.  1.
         13    1    1    2    0    0  0.78677952493E+03  0.40639542582E+03  0.20269838061E+04  0.22119770850E+04  0.10566000000E+00 0. -1.
          4    1    1    2  501    0 -0.20115121717E+01 -0.11967757490E+02 -0.16691354651E+03  0.16735413174E+03  0.00000000000E+00 0.  1.
</event>
<event>
 5    1  0.2540860E-005  0.2973100E+03  0.7818608E-02  0.1015097E+00
         21   -1    0    0  501  502  0.00000000000E+00  0.00000000000E+00  0.20324033930E+03  0.20324033930E+03  0.00000000000E+00 0. -1.
          4   -1    0    0  502    0 -0.00000000000E+00 -0.00000000000E+00 -0.18415144487E+04  0.18415144487E+04  0.00000000000E+00 0.  1.
        -13    1    1    2    0    0 -0.42719966655E+03 -0.61654969566E+02 -0.13267382699E+04  0.13951829050E+04  0.10566000000E+00 0.  1.
         13    1    1    2    0    0  0.16340894183E+03  0.17589796073E+03 -0.26633015083E+03  0.35857263597E+03  0.10566000000E+00 0. -1.
          4    1    1    2  501    0  0.26379072472E+03 -0.11424299117E+03 -0.45205688637E+02  0.29099924702E+03  0.00000000000E+00 0.  1.
</event>
<event>
 5    1  0.2540860E-005  0.2199765E+03  0.7818608E-02  0.1047242E+00
         21   -1    0    0  501  502  0.00000000000E+00  0.00000000000E+00  0.17541837110E+03  0.17541837110E+03  0.00000000000E+00 0.  1.
         -4   -1    0    0    0  501 -0.00000000000E+00 -0.00000000000E+00 -0.44522693154E+03  0.44522693154E+03  0.00000000000E+00 0. -1.
        -13    1    1    2    0    0 -0.70101067839E+02  0.17768575355E+03  0.50117199694E+02  0.19747944601E+03  0.10566000000E+00 0.  1.
         13    1    1    2    0    0  0.70845625925E+02 -0.21979058770E+03 -0.24143955096E+03  0.33409590402E+03  0.10566000000E+00 0. -1.
         -4    1    1    2    0  502 -0.74455808675E+00  0.42104834148E+02 -0.78486209179E+02  0.89069952603E+02  0.00000000000E+00 0. -1.
</event>
<event>
 5    1  0.2540860E-005  0.4257005E+03  0.7818608E-02  0.9753331E-01
         -4   -1    0    0    0  501 -0.00000000000E+00  0.00000000000E+00  0.32082830439E+04  0.32082830439E+04  0.00000000000E+00 0. -1.
         21   -1    0    0  501  502  0.00000000000E+00 -0.00000000000E+00 -0.15417306877E+03  0.15417306877E+03  0.00000000000E+00 0. -1.
        -13    1    1    2    0    0  0.28615560678E+03 -0.10594298050E+03  0.11429809599E+04  0.11830107490E+04  0.10566000000E+00 0.  1.
         13    1    1    2    0    0  0.20477744172E+02  0.44151540722E+03  0.38203307141E+03  0.58421269383E+03  0.10566000000E+00 0. -1.
         -4    1    1    2    0  502 -0.30663335096E+03 -0.33557242672E+03  0.15290959438E+04  0.15952326699E+04  0.00000000000E+00 0. -1.
</event>
<event>
 5    1  0.2540860E-005  0.4552970E+03  0.7818608E-02  0.1009327E+00
         -4   -1    0    0    0  501 -0.00000000000E+00  0.00000000000E+00  0.10248999981E+04  0.10248999981E+04  0.00000000000E+00 0. -1.
         21   -1    0    0  501  502  0.00000000000E+00 -0.00000000000E+00 -0.30116916605E+03  0.30116916605E+03  0.00000000000E+00 0.  1.
        -13    1    1    2    0    0 -0.55963607395E+02 -0.57735757420E+02 -0.23831916343E+02  0.83864858184E+02  0.10566000000E+00 0.  1.
         13    1    1    2    0    0  0.31009861114E+03 -0.33085589465E+03  0.13416974405E+03  0.47289354303E+03  0.10566000000E+00 0. -1.
         -4    1    1    2    0  502 -0.25413500374E+03  0.38859165207E+03  0.61339300437E+03  0.76931076295E+03  0.00000000000E+00 0. -1.
</event>
<event>
 5    1  0.2540860E-005  0.5065510E+03  0.7818608E-02  0.1025376E+00
          4   -1    0    0  502    0 -0.00000000000E+00  0.00000000000E+00  0.16287977385E+04  0.16287977385E+04  0.00000000000E+00 0.  1.
         21   -1    0    0  501  502  0.00000000000E+00 -0.00000000000E+00 -0.16975354408E+03  0.16975354408E+03  0.00000000000E+00 0.  1.
        -13    1    1    2    0    0  0.51274597866E+03 -0.10883555590E+03  0.75983102944E+03  0.92309090632E+03  0.10566000000E+00 0.  1.
         13    1    1    2    0    0 -0.34745253475E+02 -0.50812998739E+01  0.54499873833E+02  0.64832859410E+02  0.10566000000E+00 0. -1.
          4    1    1    2  501    0 -0.47800072518E+03  0.11391685577E+03  0.64471329116E+03  0.81062751686E+03  0.00000000000E+00 0.  1.
</event>
<event>
 5    1  0.2540860E-005  0.2644657E+03  0.7818608E-02  0.1023158E+00
         21   -1    0    0  501  502  0.00000000000E+00  0.00000000000E+00  0.47894799469E+03  0.47894799469E+03  0.00000000000E+00 0.  1.
          4   -1    0    0  502    0 -0.00000000000E+00 -0.00000000000E+00 -0.92660619186E+03  0.92660619186E+03  0.00000000000E+00 0.  1.
        -13    1    1    2    0    0  0.22757443542E+03  0.14907030337E+03 -0.59057444346E+03  0.65022324123E+03  0.10566000000E+00 0.  1.
         13    1    1    2    0    0 -0.20114346289E+03 -0.15120903069E+03 -0.25399078960E+03  0.35753908317E+03  0.10566000000E+00 0. -1.
          4    1    1    2  501    0 -0.26430972533E+02  0.21387273180E+01  0.39690703589E+03  0.39779186216E+03  0.00000000000E+00 0.  1.
</event>
<event>
 5    1  0.2540860E-005  0.3505149E+03  0.7818608E-02  0.1015040E+00
         -4   -1    0    0    0  501 -0.00000000000E+00  0.00000000000E+00  0.68569548453E+03  0.68569548453E+03  0.00000000000E+00 0. -1.
         21   -1    0    0  501  502  0.00000000000E+00 -0.00000000000E+00 -0.47294890790E+03  0.47294890790E+03  0.00000000000E+00 0. -1.
        -13    1    1    2    0    0  0.16407478632E+02  0.14585840987E+03  0.34563045411E+02  0.15079289226E+03  0.10566000000E+00 0.  1.
         13    1    1    2    0    0 -0.23186769618E+03 -0.39848303915E+03  0.39849124457E+03  0.60938218236E+03  0.10566000000E+00 0. -1.
         -4    1    1    2    0  502  0.21546021754E+03  0.25262462929E+03 -0.22030771335E+03  0.39846931780E+03  0.00000000000E+00 0. -1.
</event>
<event>
 5    1  0.2540860E-005  0.4350367E+03  0.7818608E-02  0.9820807E-01
          4   -1    0    0  502    0 -0.00000000000E+00  0.00000000000E+00  0.18513289358E+04  0.18513289358E+04  0.00000000000E+00 0.  1.
         21   -1    0    0  501  502  0.00000000000E+00 -0.00000000000E+00 -0.22683967983E+03  0.22683967983E+03  0.00000000000E+00 0.  1.
        -13    1    1    2    0    0 -0.41531257245E+02  0.58815459959E+03  0.90796357823E+03  0.10826119106E+04  0.10566000000E+00 0.  1.
         13    1    1    2    0    0  0.97785908949E+02 -0.20480106190E+03  0.50607483041E+03  0.55463258477E+03  0.10566000000E+00 0. -1.
          4    1    1    2  501    0 -0.56254651704E+02 -0.38335353769E+03  0.21045084728E+03  0.44092412025E+03  0.00000000000E+00 0.  1.
</event>
<event>
 5    1  0.2540860E-005  0.4353625E+03  0.7818608E-02  0.9778636E-01
          4   -1    0    0  502    0 -0.00000000000E+00  0.00000000000E+00  0.26656626039E+04  0.26656626039E+04  0.00000000000E+00 0.  1.
         21   -1    0    0  501  502  0.00000000000E+00 -0.00000000000E+00 -0.18569922105E+03  0.18569922105E+03  0.00000000000E+00 0.  1.
        -13    1    1    2    0    0 -0.52582182505E+03  0.97970766139E+01  0.10721178596E+04  0.11941613335E+04  0.10566000000E+00 0.  1.
         13    1    1    2    0    0  0.15626157952E+03 -0.20968347286E+03  0.11145134321E+04  0.11447816567E+04  0.10566000000E+00 0. -1.
          4    1    1    2  501    0  0.36956024553E+03  0.19988639625E+03  0.29333209113E+03  0.51241883471E+03  0.00000000000E+00 0.  1.
</event>
<event>
 5    1  0.2540860E-005  0.4507659E+03  0.7818608E-02  0.9957947E-01
          4   -1    0    0  502    0 -0.00000000000E+00  0.00000000000E+00  0.51107849657E+03  0.51107849657E+03  0.00000000000E+00 0.  1.
         21   -1    0    0  501  502  0.00000000000E+00 -0.00000000000E+00 -0.55412486943E+03  0.55412486943E+03  0.00000000000E+00 0.  1.
        -13    1    1    2    0    0 -0.48168359542E+03  0.13479614670E+02  0.15713414431E+02  0.48212831141E+03  0.10566000000E+00 0.  1.
         13    1    1    2    0    0  0.57980657602E+02 -0.11502804787E+03  0.42715333588E+02  0.13571226673E+03  0.10566000000E+00 0. -1.
          4    1    1    2  501    0  0.42370293782E+03  0.10154843320E+03 -0.10147512087E+03  0.44736278786E+03  0.00000000000E+00 0.  1.
</event>
<event>
 5    1  0.2540860E-005  0.5032244E+03  0.7818608E-02  0.9664650E-01
         -4   -1    0    0    0  501 -0.00000000000E+00  0.00000000000E+00  0.96851291467E+03  0.96851291467E+03  0.00000000000E+00 0. -1.
         21   -1    0    0  501  502  0.00000000000E+00 -0.00000000000E+00 -0.42914581679E+03  0.42914581679E+03  0.00000000000E+00 0. -1.
        -13    1    1    2    0    0 -0.15069313232E+03 -0.20127073622E+03  0.10339379266E+03  0.27186139283E+03  0.10566000000E+00 0.  1.
         13    1    1    2    0    0  0.75450876092E+01 -0.39419611634E+03  0.30757812335E+03  0.50005181692E+03  0.10566000000E+00 0. -1.
         -4    1    1    2    0  502  0.14314804471E+03  0.59546685256E+03  0.12839518188E+03  0.62574552170E+03  0.00000000000E+00 0. -1.
</event>
<event>
 5    1  0.2540860E-005  0.4911183E+03  0.7818608E-02  0.9513921E-01
         -4   -1    0    0    0  501 -0.00000000000E+00  0.00000000000E+00  0.36483991352E+04  0.36483991352E+04  0.00000000000E+00 0. -1.
         21   -1    0    0  501  502  0.00000000000E+00 -0.00000000000E+00 -0.20831056504E+03  0.20831056504E+03  0.00000000000E+00 0.  1.
        -13    1    1    2    0    0  0.47808789022E+03  0.16521478575E+03  0.17816091237E+04  0.18520245779E+04  0.10566000000E+00 0.  1.
         13    1    1    2    0    0 -0.12670710869E+02 -0.50884386398E+03  0.52005552373E+03  0.72769525473E+03  0.10566000000E+00 0. -1.
         -4    1    1    2    0  502 -0.46541717935E+03  0.34362907823E+03  0.11384239228E+04  0.12769898677E+04  0.00000000000E+00 0. -1.
</event>
<event>
 5    1  0.2540860E-005  0.1937693E+03  0.7818608E-02  0.1064493E+00
          4   -1    0    0  502    0 -0.00000000000E+00  0.00000000000E+00  0.14871598658E+04  0.14871598658E+04  0.00000000000E+00 0.  1.
         21   -1    0    0  501  502  0.00000000000E+00 -0.00000000000E+00 -0.40324783035E+02  0.40324783035E+02  0.00000000000E+00 0. -1.
        -13    1    1    2    0    0 -0.67838231842E+02  0.18873132192E+03  0.11531416192E+04  0.11704516832E+04  0.10566000000E+00 0.  1.
         13    1    1    2    0    0  0.52407568626E+02 -0.16556795353E+03  0.26671800404E+03  0.31827316150E+03  0.10566000000E+00 0. -1.
          4    1    1    2  501    0  0.15430663216E+02 -0.23163368384E+02  0.26975459555E+02  0.38759804184E+02  0.00000000000E+00 0.  1.
</event>
<event>
 5    1  0.2540860E-005  0.2559221E+03  0.7818608E-02  0.1027369E+00
         -4   -1    0    0    0  501 -0.00000000000E+00  0.00000000000E+00  0.12917237335E+03  0.12917237335E+03  0.00000000000E+00 0. -1.
         21   -1    0    0  501  502  0.00000000000E+00 -0.00000000000E+00 -0.73198159079E+03  0.73198159079E+03  0.00000000000E+00 0.  1.
        -13    1    1    2    0    0  0.14699180608E+03 -0.19726613249E+03 -0.49406073365E+03  0.55192077129E+03  0.10566000000E+00 0.  1.
         13    1    1    2    0    0 -0.13679193290E+03  0.22051886254E+03 -0.81523023450E+02  0.27200480907E+03  0.10566000000E+00 0. -1.
         -4    1    1    2    0  502 -0.10199873181E+02 -0.23252730051E+02 -0.27225460344E+02  0.37228383778E+02  0.00000000000E+00 0. -1.
</event>
<event>
 5    1  0.2540860E-005  0.1871962E+03  0.7818608E-02  0.1084797E+00
         21   -1    0    0  501  502  0.00000000000E+00  0.00000000000E+00  0.39226100750E+03  0.39226100750E+03  0.00000000000E+00 0. -1.
         -4   -1    0    0    0  501 -0.00000000000E+00 -0.00000000000E+00 -0.80043751951E+03  0.80043751951E+03  0.00000000000E+00 0. -1.
        -13    1    1    2    0    0 -0.19392726108E+02 -0.11920335282E+03 -0.62341620976E+02  0.13591175821E+03  0.10566000000E+00 0.  1.
         13    1    1    2    0    0 -0.89245594728E+02  0.26774516267E+03 -0.64585238057E+03  0.70482448664E+03  0.10566000000E+00 0. -1.
         -4    1    1    2    0  502  0.10863832084E+03 -0.14854180985E+03  0.30001748954E+03  0.35196228215E+03  0.00000000000E+00 0. -1.
</event>
<event>
 5    1  0.2540860E-005  0.3618380E+02  0.7818608E-02  0.1361178E+00
         21   -1    0    0  501  502  0.00000000000E+00  0.00000000000E+00  0.38933893262E+02  0.38933893262E+02  0.00000000000E+00 0. -1.
          4   -1    0    0  502    0 -0.00000000000E+00 -0.00000000000E+00 -0.84979966089E+02  0.84979966089E+02  0.00000000000E+00 0.  1.
        -13    1    1    2    0    0  0.22560769729E+02 -0.31534392197E+02 -0.67840217279E+02  0.78139058521E+02  0.10566000000E+00 0.  1.
         13    1    1    2    0    0 -0.18754201324E+02  0.17369232475E+02  0.14600886811E+02  0.29438195661E+02  0.10566000000E+00 0. -1.
          4    1    1    2  501    0 -0.38065684056E+01  0.14165159722E+02  0.71932576415E+01  0.16336605170E+02  0.00000000000E+00 0.  1.
</event>
<event>
 5    1  0.2540860E-005  0.4674827E+03  0.7818608E-02  0.9552241E-01
          4   -1    0    0  502    0 -0.00000000000E+00  0.00000000000E+00  0.21332101216E+04  0.21332101216E+04  0.00000000000E+00 0.  1.
         21   -1    0    0  501  502  0.00000000000E+00 -0.00000000000E+00 -0.14004613619E+03  0.14004613619E+03  0.00000000000E+00 0. -1.
        -13    1    1    2    0    0 -0.41311615327E+03  0.20782433371E+03  0.11487123326E+04  0.12383036558E+04  0.10566000000E+00 0.  1.
         13    1    1    2    0    0  0.47166354185E+03 -0.11031954594E+03  0.69492502767E+03  0.84708777832E+03  0.10566000000E+00 0. -1.
          4    1    1    2  501    0 -0.58547388578E+02 -0.97504787769E+02  0.14952662520E+03  0.18786482372E+03  0.00000000000E+00 0.  1.
</event>
<event>
 5    1  0.2540860E-005  0.4556725E+02  0.7818608E-02  0.1310970E+00
         21   -1    0    0  501  502  0.00000000000E+00  0.00000000000E+00  0.20467701566E+03  0.20467701566E+03  0.00000000000E+00 0.  1.
         -4   -1    0    0    0  501 -0.00000000000E+00 -0.00000000000E+00 -0.31800878330E+02  0.31800878330E+02  0.00000000000E+00 0. -1.
        -13    1    1    2    0    0 -0.47037541076E+02  0.65289298572E+01  0.66759775091E+02  0.81927015873E+02  0.10566000000E+00 0.  1.
         13    1    1    2    0    0  0.41975014141E+02  0.21349805715E+02  0.25316820838E+01  0.47160752692E+02  0.10566000000E+00 0. -1.
         -4    1    1    2    0  502  0.50625269344E+01 -0.27878735573E+02  0.10358468015E+03  0.10739012542E+03  0.00000000000E+00 0. -1.
</event>
<event>
 5    1  0.2540860E-005  0.7067065E+03  0.7818608E-02  0.9113306E-01
          4   -1    0    0  502    0 -0.00000000000E+00  0.00000000000E+00  0.32827097233E+04  0.32827097233E+04  0.00000000000E+00 0.  1.
         21   -1    0    0  501  502  0.00000000000E+00 -0.00000000000E+00 -0.34075762944E+03  0.34075762944E+03  0.00000000000E+00 0.  1.
        -13    1    1    2    0    0 -0.78418487995E+03 -0.24605707182E+03  0.94962676272E+03  0.12558984864E+04  0.10566000000E+00 0.  1.
         13    1    1    2    0    0  0.55806386933E+03  0.37753559767E+03  0.19952955323E+04  0.21059849672E+04  0.10566000000E+00 0. -1.
          4    1    1    2  501    0  0.22612101062E+03 -0.13147852585E+03 -0.29702011111E+01  0.26158389916E+03  0.00000000000E+00 0.  1.
</event>
<event>
 5    1  0.2540860E-005  0.7966160E+03  0.7818608E-02  0.8993509E-01
         21   -1    0    0  501  502  0.00000000000E+00  0.00000000000E+00  0.11578552021E+04  0.11578552021E+04  0.00000000000E+00 0. -1.
          4   -1    0    0  502    0 -0.00000000000E+00 -0.00000000000E+00 -0.71222416268E+03  0.71222416268E+03  0.00000000000E+00 0.  1.
        -13    1    1    2    0    0 -0.24977131771E+03  0.74392150231E+03  0.60519283983E+02  0.78706258179E+03  0.10566000000E+00 0.  1.
         13    1    1    2    0    0  0.28913636231E+03 -0.75687190607E+03  0.12521584691E+03  0.81983775083E+03  0.10566000000E+00 0. -1.
          4    1    1    2  501    0 -0.39365044604E+02  0.12950403756E+02  0.25989590850E+03  0.26317903213E+03  0.00000000000E+00 0.  1.
</event>
<event>
 5    1  0.2540860E-005  0.4612691E+03  0.7818608E-02  0.9942077E-01
         -4   -1    0    0    0  501 -0.00000000000E+00  0.00000000000E+00  0.18803071191E+04  0.18803071191E+04  0.00000000000E+00 0. -1.
         21   -1    0    0  501  502  0.00000000000E+00 -0.00000000000E+00 -0.18586786589E+03  0.18586786589E+03  0.00000000000E+00 0. -1.
        -13    1    1    2    0    0 -0.87690609020E+02 -0.91451645486E+02  0.44647012384E+03  0.46409980502E+03  0.10566000000E+00 0.  1.
         13    1    1    2    0    0 -0.35769889559E+03  0.25779764509E+03  0.93251965108E+03  0.10315042591E+04  0.10566000000E+00 0. -1.
         -4    1    1    2    0  502  0.44538950461E+03 -0.16634599960E+03  0.31544947829E+03  0.57057092088E+03  0.00000000000E+00 0. -1.
</event>
<event>
 5    1  0.2540860E-005  0.1563325E+03  0.7818608E-02  0.1095029E+00
         -4   -1    0    0    0  501 -0.00000000000E+00  0.00000000000E+00  0.55561998300E+03  0.55561998300E+03  0.00000000000E+00 0. -1.
         21   -1    0    0  501  502  0.00000000000E+00 -0.00000000000E+00 -0.14984528882E+03  0.14984528882E+03  0.00000000000E+00 0. -1.
        -13    1    1    2    0    0 -0.11162577264E+03 -0.71177436783E+02 -0.15312823510E+02  0.13327053069E+03  0.10566000000E+00 0.  1.
         13    1    1    2    0    0  0.85029165111E+02  0.13912489795E+03  0.46102768467E+03  0.48901148590E+03  0.10566000000E+00 0. -1.
         -4    1    1    2    0  502  0.26596607526E+02 -0.67947461172E+02 -0.39940166981E+02  0.83183255227E+02  0.00000000000E+00 0. -1.
</event>
<event>
 5    1  0.2540860E-005  0.3837490E+03  0.7818608E-02  0.9777188E-01
         21   -1    0    0  501  502  0.00000000000E+00  0.00000000000E+00  0.68288649626E+02  0.68288649626E+02  0.00000000000E+00 0.  1.
         -4   -1    0    0    0  501 -0.00000000000E+00 -0.00000000000E+00 -0.28833911070E+04  0.28833911070E+04  0.00000000000E+00 0. -1.
        -13    1    1    2    0    0 -0.29105276086E+03  0.24536604693E+03 -0.83704476296E+03  0.91954344810E+03  0.10566000000E+00 0.  1.
         13    1    1    2    0    0  0.30383662946E+03 -0.23680453141E+03 -0.19795453020E+04  0.20166786302E+04  0.10566000000E+00 0. -1.
         -4    1    1    2    0  502 -0.12783868605E+02 -0.85615155206E+01  0.14876075745E+01  0.15457678377E+02  0.00000000000E+00 0. -1.
</event>
<event>
 5    1  0.2540860E-005  0.3459035E+03  0.7818608E-02  0.9899789E-01
          4   -1    0    0  502    0 -0.00000000000E+00  0.00000000000E+00  0.24690823037E+04  0.24690823037E+04  0.00000000000E+00 0.  1.
         21   -1    0    0  501  502  0.00000000000E+00 -0.00000000000E+00 -0.19294825813E+03  0.19294825813E+03  0.00000000000E+00 0.  1.
        -13    1    1    2    0    0 -0.39652366517E+02 -0.36960863003E+03  0.18890240514E+04  0.19252518608E+04  0.10566000000E+00 0.  1.
         13    1    1    2    0    0 -0.17396281555E+03  0.26921882408E+03  0.38470300188E+03  0.50073770304E+03  0.10566000000E+00 0. -1.
          4    1    1    2  501    0  0.21361518207E+03  0.10038980595E+03  0.24069923449E+01  0.23604099805E+03  0.00000000000E+00 0.  1.
</event>
<event>
 5    1  0.2540860E-005  0.4955000E+03  0.7818608E-02  0.9749753E-01
         21   -1    0    0  501  502  0.00000000000E+00  0.00000000000E+00  0.11491170524E+03  0.11491170524E+03  0.00000000000E+00 0. -1.
         -4   -1    0    0    0  501 -0.00000000000E+00 -0.00000000000E+00 -0.33553739517E+04  0.33553739517E+04  0.00000000000E+00 0. -1.
        -13    1    1    2    0    0 -0.29465801883E+02  0.19367112953E+03 -0.82670302096E+03  0.84959674901E+03  0.10566000000E+00 0.  1.
         13    1    1    2    0    0 -0.23504798756E+03  0.31572520031E+03 -0.14152126530E+04  0.14689305031E+04  0.10566000000E+00 0. -1.
         -4    1    1    2    0  502  0.26451378944E+03 -0.50939632984E+03 -0.99854657259E+03  0.11517584049E+04  0.00000000000E+00 0. -1.
</event>
<event>
 5    1  0.2540860E-005  0.4161590E+03  0.7818608E-02  0.9852229E-01
          4   -1    0    0  502    0 -0.00000000000E+00  0.00000000000E+00  0.16476850073E+04  0.16476850073E+04  0.00000000000E+00 0.  1.
         21   -1    0    0  501  502  0.00000000000E+00 -0.00000000000E+00 -0.27104630259E+03  0.27104630259E+03  0.00000000000E+00 0.  1.
        -13    1    1    2    0    0  0.36363314832E+03 -0.39118828270E+03  0.41782780511E+03  0.67811313582E+03  0.10566000000E+00 0.  1.
         13    1    1    2    0    0 -0.22786402092E+03  0.48969291616E+02  0.81110594306E+03  0.84392704991E+03  0.10566000000E+00 0. -1.
          4    1    1    2  501    0 -0.13576912740E+03  0.34221899109E+03  0.14770495656E+03  0.39669112418E+03  0.00000000000E+00 0.  1.
</event>
<event>
 5    1  0.2540860E-005  0.4203206E+03  0.7818608E-02  0.9672127E-01
         -4   -1    0    0    0  501 -0.00000000000E+00  0.00000000000E+00  0.20188783644E+04  0.20188783644E+04  0.00000000000E+00 0. -1.
         21   -1    0    0  501  502  0.00000000000E+00 -0.00000000000E+00 -0.16982588744E+03  0.16982588744E+03  0.00000000000E+00 0.  1.
        -13    1    1    2    0    0 -0.28801345757E+03  0.32470502135E+03  0.27680342549E+03  0.51478660643E+03  0.10566000000E+00 0.  1.
         13    1    1    2    0    0  0.26340984761E+03 -0.32364389134E+03  0.15898156762E+04  0.16436678532E+04  0.10566000000E+00 0. -1.
         -4    1    1    2    0  502  0.24603609963E+02 -0.10611300157E+01 -0.17566624766E+02  0.30249792161E+02  0.00000000000E+00 0. -1.
</event>
<event>
 5    1  0.2540860E-005  0.3799570E+03  0.7818608E-02  0.9788784E-01
         -4   -1    0    0    0  501 -0.00000000000E+00  0.00000000000E+00  0.19971352699E+04  0.19971352699E+04  0.00000000000E+00 0. -1.
         21   -1    0    0  501  502  0.00000000000E+00 -0.00000000000E+00 -0.27091813885E+03  0.27091813885E+03  0.00000000000E+00 0.  1.
        -13    1    1    2    0    0  0.37557803432E+03 -0.60449335752E+02  0.69854162700E+03  0.79540769287E+03  0.10566000000E+00 0.  1.
         13    1    1    2    0    0 -0.28879465362E+03  0.29675517780E+03  0.11280384640E+04  0.12016392033E+04  0.10566000000E+00 0. -1.
         -4    1    1    2    0  502 -0.86783380705E+02 -0.23630584204E+03 -0.10036295992E+03  0.27100651260E+03  0.00000000000E+00 0. -1.
</event>
<event>
 5    1  0.2540860E-005  0.4582499E+03  0.7818608E-02  0.9697032E-01
         21   -1    0    0  501  502  0.00000000000E+00  0.00000000000E+00  0.32013743526E+03  0.32013743526E+03  0.00000000000E+00 0.  1.
          4   -1    0    0  502    0 -0.00000000000E+00 -0.00000000000E+00 -0.18206100024E+04  0.18206100024E+04  0.00000000000E+00 0.  1.
        -13    1    1    2    0    0 -0.51561382830E+03  0.15898599534E+03 -0.28300923038E+02  0.54031020725E+03  0.10566000000E+00 0.  1.
         13    1    1    2    0    0  0.20772095238E+03 -0.21272739440E+03 -0.90847152235E+03  0.95588778445E+03  0.10566000000E+00 0. -1.
          4    1    1    2  501    0  0.30789287593E+03  0.53741399062E+02 -0.56370012179E+03  0.64454944599E+03  0.00000000000E+00 0.  1.
</event>
<event>
 5    1  0.2540860E-005  0.4323339E+03  0.7818608E-02  0.9707578E-01
         21   -1    0    0  501  502  0.00000000000E+00  0.00000000000E+00  0.91944877824E+03  0.91944877824E+03  0.00000000000E+00 0. -1.
         -4   -1    0    0    0  501 -0.00000000000E+00 -0.00000000000E+00 -0.58955235259E+03  0.58955235259E+03  0.00000000000E+00 0. -1.
        -13    1    1    2    0    0 -0.58099447770E+02  0.33631655043E+03 -0.11543781188E+03  0.36029191984E+03  0.10566000000E+00 0.  1.
         13    1    1    2    0    0  0.28859608192E+03  0.25112392090E+03  0.33415492006E+03  0.50794728458E+03  0.10566000000E+00 0. -1.
         -4    1    1    2    0  502 -0.23049663415E+03 -0.58744047133E+03  0.11117931747E+03  0.64076192641E+03  0.00000000000E+00 0. -1.
</event>
<event>
 5    1  0.2540860E-005  0.1609410E+03  0.7818608E-02  0.1098813E+00
         21   -1    0    0  501  502  0.00000000000E+00  0.00000000000E+00  0.57187961526E+03  0.57187961526E+03  0.00000000000E+00 0.  1.
          4   -1    0    0  502    0 -0.00000000000E+00 -0.00000000000E+00 -0.68008313688E+03  0.68008313688E+03  0.00000000000E+00 0.  1.
        -13    1    1    2    0    0 -0.13252744592E+03  0.63161354621E+02 -0.56613178077E+03  0.58485732021E+03  0.10566000000E+00 0.  1.
         13    1    1    2    0    0  0.18593529130E+02 -0.20198771800E+03  0.32638638144E+02  0.20545084428E+03  0.10566000000E+00 0. -1.
          4    1    1    2  501    0  0.11393391679E+03  0.13882636338E+03  0.42528962101E+03  0.46165458765E+03  0.00000000000E+00 0.  1.
</event>
<event>
 5    1  0.2540860E-005  0.7121069E+03  0.7818608E-02  0.9105598E-01
         -4   -1    0    0    0  501 -0.00000000000E+00  0.00000000000E+00  0.30352636017E+04  0.30352636017E+04  0.00000000000E+00 0. -1.
         21   -1    0    0  501  502  0.00000000000E+00 -0.00000000000E+00 -0.89575198834E+03  0.89575198834E+03  0.00000000000E+00 0. -1.
        -13    1    1    2    0    0  0.35675915517E+03 -0.73574181242E+03  0.74488524656E+03  0.11060954530E+04  0.10566000000E+00 0.  1.
         13    1    1    2    0    0 -0.35565814881E+03  0.58045462054E+03  0.20454862726E+04  0.21557908961E+04  0.10566000000E+00 0. -1.
         -4    1    1    2    0  502 -0.11010063570E+01  0.15528719188E+03 -0.65085990577E+03  0.66912924097E+03  0.00000000000E+00 0. -1.
</event>
<event>
 5    1  0.2540860E-005  0.1612286E+03  0.7818608E-02  0.1130652E+00
         21   -1    0    0  501  502  0.00000000000E+00  0.00000000000E+00  0.12363251599E+03  0.12363251599E+03  0.00000000000E+00 0. -1.
         -4   -1    0    0    0  501 -0.00000000000E+00 -0.00000000000E+00 -0.68724767587E+03  0.68724767587E+03  0.00000000000E+00 0. -1.
        -13    1    1    2    0    0  0.50731950717E+02 -0.22491969771E+02  0.27350196287E+02  0.61868117223E+02  0.10566000000E+00 0.  1.
         13    1    1    2    0    0  0.11123349503E+03  0.65075776040E+02 -0.56503696843E+03  0.57954683495E+03  0.10566000000E+00 0. -1.
         -4    1    1    2    0  502 -0.16196544575E+03 -0.42583806269E+02 -0.25928387735E+02  0.16946523969E+03  0.00000000000E+00 0. -1.
</event>
<event>
 5    1  0.2540860E-005  0.3199666E+03  0.7818608E-02  0.1005150E+00
         21   -1    0    0  501  502  0.00000000000E+00  0.00000000000E+00  0.90265751417E+02  0.90265751417E+02  0.00000000000E+00 0. -1.
         -4   -1    0    0    0  501 -0.00000000000E+00 -0.00000000000E+00 -0.27524175158E+04  0.27524175158E+04  0.00000000000E+00 0. -1.
        -13    1    1    2    0    0  0.26510537295E+03 -0.43628760835E+01 -0.11340215321E+04  0.11646049716E+04  0.10566000000E+00 0.  1.
         13    1    1    2    0    0 -0.16776556599E+03  0.31932804152E+03 -0.72033986865E+03  0.80560860271E+03  0.10566000000E+00 0. -1.
         -4    1    1    2    0  502 -0.97339806958E+02 -0.31496516544E+03 -0.80779036366E+03  0.87246969293E+03  0.00000000000E+00 0. -1.
</event>
<event>
 5    1  0.2540860E-005  0.4972755E+03  0.7818608E-02  0.9897490E-01
         -4   -1    0    0    0  501 -0.00000000000E+00  0.00000000000E+00  0.22355318403E+04  0.22355318403E+04  0.00000000000E+00 0. -1.
         21   -1    0    0  501  502  0.00000000000E+00 -0.00000000000E+00 -0.14928780007E+03  0.14928780007E+03  0.00000000000E+00 0. -1.
        -13    1    1    2    0    0  0.47414105066E+02  0.10731100951E+03  0.92590644089E+02  0.14945497201E+03  0.10566000000E+00 0.  1.
         13    1    1    2    0    0  0.43461375575E+03 -0.24603195489E+03  0.11517299478E+04  0.12553496419E+04  0.10566000000E+00 0. -1.
         -4    1    1    2    0  502 -0.48202786082E+03  0.13872094539E+03  0.84192344839E+03  0.98001502654E+03  0.00000000000E+00 0. -1.
</event>
<event>
 5    1  0.2540860E-005  0.4767077E+03  0.7818608E-02  0.9755851E-01
         21   -1    0    0  501  502  0.00000000000E+00  0.00000000000E+00  0.29068538939E+03  0.29068538939E+03  0.00000000000E+00 0. -1.
         -4   -1    0    0    0  501 -0.00000000000E+00 -0.00000000000E+00 -0.20488784181E+04  0.20488784181E+04  0.00000000000E+00 0. -1.
        -13    1    1    2    0    0  0.20654473520E+03 -0.61186992161E+02 -0.11237920174E+04  0.11442521947E+04  0.10566000000E+00 0.  1.
         13    1    1    2    0    0 -0.25416204033E+03 -0.42171387206E+03 -0.47605459605E+03  0.68488606514E+03  0.10566000000E+00 0. -1.
         -4    1    1    2    0  502  0.47617305126E+02  0.48290086422E+03 -0.15834641525E+03  0.51042554759E+03  0.00000000000E+00 0. -1.
</event>
<event>
 5    1  0.2540860E-005  0.3738118E+03  0.7818608E-02  0.9807882E-01
         21   -1    0    0  501  502  0.00000000000E+00  0.00000000000E+00  0.24059135746E+03  0.24059135746E+03  0.00000000000E+00 0. -1.
         -4   -1    0    0    0  501 -0.00000000000E+00 -0.00000000000E+00 -0.29400257866E+04  0.29400257866E+04  0.00000000000E+00 0. -1.
        -13    1    1    2    0    0 -0.18073721856E+03 -0.31287197850E+03 -0.16891786754E+04  0.17273909302E+04  0.10566000000E+00 0.  1.
         13    1    1    2    0    0  0.30184290603E+03  0.27482573597E+03 -0.11757815931E+04  0.12446287362E+04  0.10566000000E+00 0. -1.
         -4    1    1    2    0  502 -0.12110568747E+03  0.38046242523E+02  0.16552583950E+03  0.20859747757E+03  0.00000000000E+00 0. -1.
</event>
<event>
 5    1  0.2540860E-005  0.5032005E+03  0.7818608E-02  0.9688832E-01
         21   -1    0    0  501  502  0.00000000000E+00  0.00000000000E+00  0.14218232548E+04  0.14218232548E+04  0.00000000000E+00 0.  1.
          4   -1    0    0  502    0 -0.00000000000E+00 -0.00000000000E+00 -0.29591830634E+03  0.29591830634E+03  0.00000000000E+00 0.  1.
        -13    1    1    2    0    0  0.25039381346E+03 -0.31165981393E+03  0.22696591698E+03  0.45971995831E+03  0.10566000000E+00 0.  1.
         13    1    1    2    0    0 -0.41806274278E+01 -0.23102528817E+03  0.78577608354E+02  0.24405862640E+03  0.10566000000E+00 0. -1.
          4    1    1    2  501    0 -0.24621318603E+03  0.54268510210E+03  0.82036142309E+03  0.10139629764E+04  0.00000000000E+00 0.  1.
</event>
<event>
 5    1  0.2540860E-005  0.2428299E+02  0.7818608E-02  0.1457743E+00
          4   -1    0    0  502    0 -0.00000000000E+00  0.00000000000E+00  0.43099113985E+02  0.43099113985E+02  0.00000000000E+00 0.  1.
         21   -1    0    0  501  502  0.00000000000E+00 -0.00000000000E+00 -0.26955959206E+03  0.26955959206E+03  0.00000000000E+00 0.  1.
        -13    1    1    2    0    0 -0.65148382160E+00 -0.25866526335E+02  0.26669665421E+02  0.37158899789E+02  0.10566000000E+00 0.  1.
         13    1    1    2    0    0 -0.18255041983E+02  0.18215908382E+02 -0.46755895257E+01  0.26209505478E+02  0.10566000000E+00 0. -1.
          4    1    1    2  501    0  0.18906525804E+02  0.76506179528E+01 -0.24845455397E+03  0.24929030078E+03  0.00000000000E+00 0.  1.
</event>
<event>
 5    1  0.2540860E-005  0.2443673E+03  0.7818608E-02  0.1033354E+00
          4   -1    0    0  502    0 -0.00000000000E+00  0.00000000000E+00  0.14549169712E+04  0.14549169712E+04  0.00000000000E+00 0.  1.
         21   -1    0    0  501  502  0.00000000000E+00 -0.00000000000E+00 -0.16412517091E+03  0.16412517091E+03  0.00000000000E+00 0. -1.
        -13    1    1    2    0    0 -0.24428017574E+03 -0.75417366264E+02  0.13291760201E+04  0.13535396141E+04  0.10566000000E+00 0.  1.
         13    1    1    2    0    0  0.16400160509E+03  0.31108003978E+02 -0.22396845417E+01  0.16694089294E+03  0.10566000000E+00 0. -1.
          4    1    1    2  501    0  0.80278570644E+02  0.44309362287E+02 -0.36144535217E+02  0.98561635117E+02  0.00000000000E+00 0.  1.
</event>
<event>
 5    1  0.2540860E-005  0.4318975E+03  0.7818608E-02  0.9859278E-01
         21   -1    0    0  501  502  0.00000000000E+00  0.00000000000E+00  0.63928645649E+03  0.63928645649E+03  0.00000000000E+00 0.  1.
          4   -1    0    0  502    0 -0.00000000000E+00 -0.00000000000E+00 -0.11452266464E+04  0.11452266464E+04  0.00000000000E+00 0.  1.
        -13    1    1    2    0    0  0.26130358475E+03 -0.28321118910E+03  0.25359138956E+03  0.46129897579E+03  0.10566000000E+00 0.  1.
         13    1    1    2    0    0  0.18997658856E+03 -0.73229460088E+02 -0.71838022320E+03  0.74667517320E+03  0.10566000000E+00 0. -1.
          4    1    1    2  501    0 -0.45128017332E+03  0.35644064919E+03 -0.41151356254E+02  0.57653895389E+03  0.00000000000E+00 0.  1.
</event>
<event>
 5    1  0.2540860E-005  0.3847545E+02  0.7818608E-02  0.1347432E+00
          4   -1    0    0  502    0 -0.00000000000E+00  0.00000000000E+00  0.19071716435E+03  0.19071716435E+03  0.00000000000E+00 0.  1.
         21   -1    0    0  501  502  0.00000000000E+00 -0.00000000000E+00 -0.26827862842E+02  0.26827862842E+02  0.00000000000E+00 0. -1.
        -13    1    1    2    0    0 -0.15261655135E+02 -0.36171356999E+02  0.16898793752E+03  0.17348838398E+03  0.10566000000E+00 0.  1.
         13    1    1    2    0    0  0.19749834478E+02  0.26495950815E+02 -0.29659317285E+01  0.33179802389E+02  0.10566000000E+00 0. -1.
          4    1    1    2  501    0 -0.44881793433E+01  0.96754061836E+01 -0.21327042872E+01  0.10876840819E+02  0.00000000000E+00 0.  1.
</event>
<event>
 5    1  0.2540860E-005  0.5645865E+03  0.7818608E-02  0.9348664E-01
         -4   -1    0    0    0  501 -0.00000000000E+00  0.00000000000E+00  0.21153695434E+04  0.21153695434E+04  0.00000000000E+00 0. -1.
         21   -1    0    0  501  502  0.00000000000E+00 -0.00000000000E+00 -0.62003431960E+03  0.62003431960E+03  0.00000000000E+00 0. -1.
        -13    1    1    2    0    0 -0.59137141525E+03  0.12605442813E+03  0.14415196778E+04  0.15631982799E+04  0.10566000000E+00 0.  1.
         13    1    1    2    0    0  0.42952238123E+03  0.41483629367E+03  0.10110994573E+03  0.60564169177E+03  0.10566000000E+00 0. -1.
         -4    1    1    2    0  502  0.16184903402E+03 -0.54089072180E+03 -0.47294399701E+02  0.56656389136E+03  0.00000000000E+00 0. -1.
</event>
<event>
 5    1  0.2540860E-005  0.1831857E+03  0.7818608E-02  0.1072317E+00
          4   -1    0    0  502    0 -0.00000000000E+00  0.00000000000E+00  0.15367451917E+03  0.15367451917E+03  0.00000000000E+00 0.  1.
         21   -1    0    0  501  502  0.00000000000E+00 -0.00000000000E+00 -0.48537734598E+03  0.48537734598E+03  0.00000000000E+00 0. -1.
        -13    1    1    2    0    0  0.21347309788E+02 -0.22241261974E+03 -0.30600398529E+03  0.37889514543E+03  0.10566000000E+00 0.  1.
         13    1    1    2    0    0  0.39979384090E+02  0.16849833330E+03 -0.38764546848E+02  0.17746194165E+03  0.10566000000E+00 0. -1.
          4    1    1    2  501    0 -0.61326693878E+02  0.53914286436E+02  0.13065705328E+02  0.82694778068E+02  0.00000000000E+00 0.  1.
</event>
<event>
 5    1  0.2540860E-005  0.1574036E+03  0.7818608E-02  0.1094031E+00
         -4   -1    0    0    0  501 -0.00000000000E+00  0.00000000000E+00  0.26965196886E+03  0.26965196886E+03  0.00000000000E+00 0. -1.
         21   -1    0    0  501  502  0.00000000000E+00 -0.00000000000E+00 -0.14336964495E+03  0.14336964495E+03  0.00000000000E+00 0. -1.
        -13    1    1    2    0    0 -0.96564714125E+01 -0.13424866522E+03  0.30233734360E+01  0.13462950458E+03  0.10566000000E+00 0.  1.
         13    1    1    2    0    0 -0.12105076248E+02  0.17099623904E+03  0.15018286172E+03  0.22790601079E+03  0.10566000000E+00 0. -1.
         -4    1    1    2    0  502  0.21761547660E+02 -0.36747573826E+02 -0.26923911251E+02  0.50486098440E+02  0.00000000000E+00 0. -1.
</event>
<event>
 5    1  0.2540860E-005  0.1730438E+03  0.7818608E-02  0.1119434E+00
          4   -1    0    0  502    0 -0.00000000000E+00  0.00000000000E+00  0.27644331405E+03  0.27644331405E+03  0.00000000000E+00 0.  1.
         21   -1    0    0  501  502  0.00000000000E+00 -0.00000000000E+00 -0.20418689727E+03  0.20418689727E+03  0.00000000000E+00 0.  1.
        -13    1    1    2    0    0 -0.60644396159E+02  0.18946586628E+03  0.32442756372E+02  0.20156289558E+03  0.10566000000E+00 0.  1.
         13    1    1    2    0    0  0.53324211906E+02 -0.27550637830E+02  0.91074524084E+02  0.10907377926E+03  0.10566000000E+00 0. -1.
          4    1    1    2  501    0  0.73201842527E+01 -0.16191522845E+03 -0.51260863681E+02  0.16999353648E+03  0.00000000000E+00 0.  1.
</event>
<event>
 5    1  0.2540860E-005  0.3629165E+02  0.7818608E-02  0.1360506E+00
         -4   -1    0    0    0  501 -0.00000000000E+00  0.00000000000E+00  0.10872222746E+02  0.10872222746E+02  0.00000000000E+00 0. -1.
         21   -1    0    0  501  502  0.00000000000E+00 -0.00000000000E+00 -0.32362862401E+03  0.32362862401E+03  0.00000000000E+00 0.  1.
        -13    1    1    2    0    0  0.43615921009E+01  0.30415421105E+02 -0.14957186243E+03  0.15269536509E+03  0.10566000000E+00 0.  1.
         13    1    1    2    0    0 -0.16537159060E+02 -0.34313864263E+02 -0.31296030659E+02  0.49298799270E+02  0.10566000000E+00 0. -1.
         -4    1    1    2    0  502  0.12175566959E+02  0.38984431580E+01 -0.13188850818E+03  0.13250668239E+03  0.00000000000E+00 0. -1.
</event>
<event>
 5    1  0.2540860E-005  0.1326652E+03  0.7818608E-02  0.1119588E+00
         -4   -1    0    0    0  501 -0.00000000000E+00  0.00000000000E+00  0.10951513723E+03  0.10951513723E+03  0.00000000000E+00 0. -1.
         21   -1    0    0  501  502  0.00000000000E+00 -0.00000000000E+00 -0.76568784542E+03  0.76568784542E+03  0.00000000000E+00 0.  1.
        -13    1    1    2    0    0  0.10991640296E+03 -0.27050434424E+01 -0.44631309697E+03  0.45965674649E+03  0.10566000000E+00 0.  1.
         13    1    1    2    0    0 -0.13374835534E+03  0.18057942450E+02  0.57491027424E+02  0.14669676629E+03  0.10566000000E+00 0. -1.
         -4    1    1    2    0  502  0.23831952381E+02 -0.15352899008E+02 -0.26735063865E+03  0.26884946987E+03  0.00000000000E+00 0. -1.
</event>
<event>
 5    1  0.2540860E-005  0.1153039E+03  0.7818608E-02  0.1141455E+00
         -4   -1    0    0    0  501 -0.00000000000E+00  0.00000000000E+00  0.16778648806E+03  0.16778648806E+03  0.00000000000E+00 0. -1.
         21   -1    0    0  501  502  0.00000000000E+00 -0.00000000000E+00 -0.23594328810E+03  0.23594328810E+03  0.00000000000E+00 0.  1.
        -13    1    1    2    0    0  0.11383767354E+03 -0.55284730814E+02 -0.33541127659E+02  0.13092148711E+03  0.10566000000E+00 0.  1.
         13    1    1    2    0    0 -0.10411143443E+03  0.40718227693E+02  0.92127367109E+02  0.14486071855E+03  0.10566000000E+00 0. -1.
         -4    1    1    2    0  502 -0.97262391102E+01  0.14566503122E+02 -0.12674303948E+03  0.12794757050E+03  0.00000000000E+00 0. -1.
</event>
<event>
 5    1  0.2540860E-005  0.4931963E+03  0.7818608E-02  0.9651603E-01
          4   -1    0    0  502    0 -0.00000000000E+00  0.00000000000E+00  0.14073489003E+04  0.14073489003E+04  0.00000000000E+00 0.  1.
         21   -1    0    0  501  502  0.00000000000E+00 -0.00000000000E+00 -0.36737824943E+03  0.36737824943E+03  0.00000000000E+00 0. -1.
        -13    1    1    2    0    0  0.32580600245E+03  0.52787359197E+03  0.42216906501E+03  0.75035112510E+03  0.10566000000E+00 0.  1.
         13    1    1    2    0    0 -0.13196454107E+03 -0.24651146826E+03 -0.40654544863E+02  0.28255149489E+03  0.10566000000E+00 0. -1.
          4    1    1    2  501    0 -0.19384146138E+03 -0.28136212371E+03  0.65845613070E+03  0.74182452970E+03  0.00000000000E+00 0.  1.
</event>
<event>
 5    1  0.2540860E-005  0.5604310E+03  0.7818608E-02  0.9410275E-01
         21   -1    0    0  501  502  0.00000000000E+00  0.00000000000E+00  0.15170720418E+04  0.15170720418E+04  0.00000000000E+00 0. -1.
         -4   -1    0    0    0  501 -0.00000000000E+00 -0.00000000000E+00 -0.68352617909E+03  0.68352617909E+03  0.00000000000E+00 0. -1.
        -13    1    1    2    0    0 -0.60582654657E+03 -0.13965804069E+03 -0.17014440719E+03  0.64457684051E+03  0.10566000000E+00 0.  1.
         13    1    1    2    0    0 -0.11260744333E+03 -0.17381162906E+03 -0.77034698546E+02  0.22096441938E+03  0.10566000000E+00 0. -1.
         -4    1    1    2    0  502  0.71843398990E+03  0.31346966975E+03  0.10807249685E+04  0.13350569610E+04  0.00000000000E+00 0. -1.
</event>
<event>
 5    1  0.2540860E-005  0.4856474E+03  0.7818608E-02  0.9928250E-01
         21   -1    0    0  501  502  0.00000000000E+00  0.00000000000E+00  0.25053720264E+03  0.25053720264E+03  0.00000000000E+00 0.  1.
          4   -1    0    0  502    0 -0.00000000000E+00 -0.00000000000E+00 -0.12937031113E+04  0.12937031113E+04  0.00000000000E+00 0.  1.
        -13    1    1    2    0    0  0.49530135059E+03  0.27324537580E+01 -0.55595931400E+03  0.74459496653E+03  0.10566000000E+00 0.  1.
         13    1    1    2    0    0 -0.24231661350E+02  0.11105098139E+03 -0.21655627629E+03  0.24457335473E+03  0.10566000000E+00 0. -1.
          4    1    1    2  501    0 -0.47106968924E+03 -0.11378343515E+03 -0.27065031840E+03  0.55507199271E+03  0.00000000000E+00 0.  1.
</event>
<event>
 5    1  0.2540860E-005  0.5000936E+03  0.7818608E-02  0.9841548E-01
         -4   -1    0    0    0  501 -0.00000000000E+00  0.00000000000E+00  0.23252245070E+04  0.23252245070E+04  0.00000000000E+00 0. -1.
         21   -1    0    0  501  502  0.00000000000E+00 -0.00000000000E+00 -0.16719065012E+03  0.16719065012E+03  0.00000000000E+00 0. -1.
        -13    1    1    2    0    0  0.95246249612E+02  0.10157906805E+03  0.72606845027E+03  0.73930072418E+03  0.10566000000E+00 0.  1.
         13    1    1    2    0    0  0.45508062971E+03 -0.41192248103E+02  0.68243208209E+03  0.82128480971E+03  0.10566000000E+00 0. -1.
         -4    1    1    2    0  502 -0.55032687932E+03 -0.60386819945E+02  0.74953332450E+03  0.93182962319E+03  0.00000000000E+00 0. -1.
</event>
<event>
 5    1  0.2540860E-005  0.4745405E+03  0.7818608E-02  0.9694490E-01
         21   -1    0    0  501  502  0.00000000000E+00  0.00000000000E+00  0.38124224464E+03  0.38124224464E+03  0.00000000000E+00 0.  1.
          4   -1    0    0  502    0 -0.00000000000E+00 -0.00000000000E+00 -0.11856345533E+04  0.11856345533E+04  0.00000000000E+00 0.  1.
        -13    1    1    2    0    0  0.19574467608E+03 -0.43161463231E+03 -0.67949497823E+02  0.47877376124E+03  0.10566000000E+00 0.  1.
         13    1    1    2    0    0 -0.25491187850E+03 -0.89368229175E+02 -0.31819606635E+03  0.41739129602E+03  0.10566000000E+00 0. -1.
          4    1    1    2  501    0  0.59167202418E+02  0.52098286148E+03 -0.41824674446E+03  0.67071174066E+03  0.00000000000E+00 0.  1.
</event>
<event>
 5    1  0.2540860E-005  0.4494396E+03  0.7818608E-02  0.9692899E-01
          4   -1    0    0  502    0 -0.00000000000E+00  0.00000000000E+00  0.18166155707E+04  0.18166155707E+04  0.00000000000E+00 0.  1.
         21   -1    0    0  501  502  0.00000000000E+00 -0.00000000000E+00 -0.25428625610E+03  0.25428625610E+03  0.00000000000E+00 0.  1.
        -13    1    1    2    0    0  0.11294226135E+03  0.40533527812E+03  0.94820451656E+03  0.10373738277E+04  0.10566000000E+00 0.  1.
         13    1    1    2    0    0 -0.31690495801E+03  0.42375692998E+02  0.35399749509E+03  0.47701015656E+03  0.10566000000E+00 0. -1.
          4    1    1    2  501    0  0.20396269666E+03 -0.44771097112E+03  0.26012730296E+03  0.55651784251E+03  0.00000000000E+00 0.  1.
</event>
<event>
 5    1  0.2540860E-005  0.4921250E+03  0.7818608E-02  0.9867102E-01
         -4   -1    0    0    0  501 -0.00000000000E+00  0.00000000000E+00  0.72387873468E+03  0.72387873468E+03  0.00000000000E+00 0. -1.
         21   -1    0    0  501  502  0.00000000000E+00 -0.00000000000E+00 -0.60110337831E+03  0.60110337831E+03  0.00000000000E+00 0. -1.
        -13    1    1    2    0    0 -0.47262739722E+02 -0.12543457201E+03  0.28795132136E+03  0.31762174526E+03  0.10566000000E+00 0.  1.
         13    1    1    2    0    0 -0.36306168812E+03 -0.23905056879E+03 -0.16910607031E+01  0.43469740588E+03  0.10566000000E+00 0. -1.
         -4    1    1    2    0  502  0.41032442785E+03  0.36448514081E+03 -0.16348490429E+03  0.57266296186E+03  0.00000000000E+00 0. -1.
</event>
<event>
 5    1  0.2540860E-005  0.6817354E+02  0.7818608E-02  0.1261369E+00
         -4   -1    0    0    0  501 -0.00000000000E+00  0.00000000000E+00  0.10456602487E+03  0.10456602487E+03  0.00000000000E+00 0. -1.
         21   -1    0    0  501  502  0.00000000000E+00 -0.00000000000E+00 -0.23222991837E+03  0.23222991837E+03  0.00000000000E+00 0. -1.
        -13    1    1    2    0    0  0.60972089852E+02  0.35074138174E+02 -0.24780990664E+02  0.74578144063E+02  0.10566000000E+00 0.  1.
         13    1    1    2    0    0  0.71870716601E+01 -0.36474334259E+02  0.68409104717E+02  0.77857869422E+02  0.10566000000E+00 0. -1.
         -4    1    1    2    0  502 -0.68159161512E+02  0.14001960854E+01 -0.17129200756E+03  0.18435992976E+03  0.00000000000E+00 0. -1.
</event>
<event>
 5    1  0.2540860E-005  0.4081666E+03  0.7818608E-02  0.9920982E-01
          4   -1    0    0  502    0 -0.00000000000E+00  0.00000000000E+00  0.81579029913E+03  0.81579029913E+03  0.00000000000E+00 0.  1.
         21   -1    0    0  501  502  0.00000000000E+00 -0.00000000000E+00 -0.49827847048E+03  0.49827847048E+03  0.00000000000E+00 0.  1.
        -13    1    1    2    0    0 -0.14504797243E+03 -0.35031130198E+03 -0.10614068548E+03  0.39372932184E+03  0.10566000000E+00 0.  1.
         13    1    1    2    0    0  0.66576046830E+02 -0.18450246982E+03 -0.49136652660E+02  0.20220769812E+03  0.10566000000E+00 0. -1.
          4    1    1    2  501    0  0.78471925600E+02  0.53481377180E+03  0.47278916679E+03  0.71813174964E+03  0.00000000000E+00 0.  1.
</event>
<event>
 5    1  0.2540860E-005  0.1072821E+03  0.7818608E-02  0.1153039E+00
         -4   -1    0    0    0  501 -0.00000000000E+00  0.00000000000E+00  0.52361066165E+03  0.52361066165E+03  0.00000000000E+00 0. -1.
         21   -1    0    0  501  502  0.00000000000E+00 -0.00000000000E+00 -0.26649608493E+03  0.26649608493E+03  0.00000000000E+00 0. -1.
        -13    1    1    2    0    0 -0.94293326389E+02 -0.42437866491E+02  0.11255709794E+03  0.15284408845E+03  0.10566000000E+00 0.  1.
         13    1    1    2    0    0  0.10301833207E+03  0.35205120500E+02  0.38319311190E+03  0.39835806685E+03  0.10566000000E+00 0. -1.
         -4    1    1    2    0  502 -0.87250056791E+01  0.72327459918E+01 -0.23863563312E+03  0.23890459128E+03  0.00000000000E+00 0. -1.
</event>
<event>
 5    1  0.2540860E-005  0.1807843E+03  0.7818608E-02  0.1074173E+00
          4   -1    0    0  502    0 -0.00000000000E+00  0.00000000000E+00  0.21391717912E+03  0.21391717912E+03  0.00000000000E+00 0.  1.
         21   -1    0    0  501  502  0.00000000000E+00 -0.00000000000E+00 -0.27383258758E+03  0.27383258758E+03  0.00000000000E+00 0. -1.
        -13    1    1    2    0    0 -0.10336022845E+03 -0.12298286537E+03  0.43131525629E+02  0.16633839505E+03  0.10566000000E+00 0.  1.
         13    1    1    2    0    0  0.14683963388E+03  0.16583040244E+03 -0.25859932652E+02  0.22300302180E+03  0.10566000000E+00 0. -1.
          4    1    1    2  501    0 -0.43479405433E+02 -0.42847537066E+02 -0.77187001441E+02  0.98408349854E+02  0.00000000000E+00 0.  1.
</event>
<event>
 5    1  0.6007472E-005  0.8903601E+03  0.7818608E-02  0.8885047E-01
          4   -1    0    0  502    0 -0.00000000000E+00  0.00000000000E+00  0.15827772300E+04  0.15827772300E+04  0.00000000000E+00 0.  1.
         21   -1    0    0  501  502  0.00000000000E+00 -0.00000000000E+00 -0.10670762989E+04  0.10670762989E+04  0.00000000000E+00 0.  1.
        -13    1    1    2    0    0 -0.76221470341E+03  0.33634539323E+03  0.20422113718E+03  0.85779121100E+03  0.10566000000E+00 0.  1.
         13    1    1    2    0    0  0.90743645473E+03 -0.21601656602E+03  0.82482672429E+03  0.12451679455E+04  0.10566000000E+00 0. -1.
          4    1    1    2  501    0 -0.14522175132E+03 -0.12032882722E+03 -0.51334693033E+03  0.54689437243E+03  0.00000000000E+00 0.  1.
</event>
<event>
 5    1  0.2540860E-005  0.1428757E+03  0.7818608E-02  0.1108358E+00
         21   -1    0    0  501  502  0.00000000000E+00  0.00000000000E+00  0.11269902325E+03  0.11269902325E+03  0.00000000000E+00 0. -1.
         -4   -1    0    0    0  501 -0.00000000000E+00 -0.00000000000E+00 -0.37772219685E+03  0.37772219685E+03  0.00000000000E+00 0. -1.
        -13    1    1    2    0    0 -0.23247369692E+02 -0.13712173582E+03 -0.15187366935E+03  0.20593307951E+03  0.10566000000E+00 0.  1.
         13    1    1    2    0    0  0.32258113182E+02  0.14320655538E+03 -0.17114871207E+03  0.22547859361E+03  0.10566000000E+00 0. -1.
         -4    1    1    2    0  502 -0.90107434900E+01 -0.60848195555E+01  0.57999207822E+02  0.59009546984E+02  0.00000000000E+00 0. -1.
</event>
<event>
 5    1  0.2540860E-005  0.4749622E+03  0.7818608E-02  0.9839126E-01
         21   -1    0    0  501  502  0.00000000000E+00  0.00000000000E+00  0.24371905711E+03  0.24371905711E+03  0.00000000000E+00 0.  1.
          4   -1    0    0  502    0 -0.00000000000E+00 -0.00000000000E+00 -0.19467231047E+04  0.19467231047E+04  0.00000000000E+00 0.  1.
        -13    1    1    2    0    0  0.51393488669E+01 -0.48839603611E+03 -0.64942162326E+03  0.81259187598E+03  0.10566000000E+00 0.  1.
         13    1    1    2    0    0  0.15894441576E+03  0.39923300322E+02 -0.83803991934E+03  0.85391341176E+03  0.10566000000E+00 0. -1.
          4    1    1    2  501    0 -0.16408376462E+03  0.44847273579E+03 -0.21554250502E+03  0.52393687409E+03  0.00000000000E+00 0.  1.
</event>
<event>
 5    1  0.2540860E-005  0.3672937E+03  0.7818608E-02  0.9828568E-01
         21   -1    0    0  501  502  0.00000000000E+00  0.00000000000E+00  0.29421401801E+03  0.29421401801E+03  0.00000000000E+00 0. -1.
         -4   -1    0    0    0  501 -0.00000000000E+00 -0.00000000000E+00 -0.16433852736E+04  0.16433852736E+04  0.00000000000E+00 0. -1.
        -13    1    1    2    0    0  0.11729241756E+03  0.29771348686E+03 -0.43137286801E+03  0.53709719222E+03  0.10566000000E+00 0.  1.
         13    1    1    2    0    0 -0.40038080077E+03 -0.42451321396E+03 -0.19716762437E+03  0.61594751214E+03  0.10566000000E+00 0. -1.
         -4    1    1    2    0  502  0.28308838321E+03  0.12679972710E+03 -0.72063076325E+03  0.78455458729E+03  0.00000000000E+00 0. -1.
</event>
<event>
 5    1  0.2540860E-005  0.4601132E+03  0.7818608E-02  0.9941854E-01
         21   -1    0    0  501  502  0.00000000000E+00  0.00000000000E+00  0.36583014607E+03  0.36583014607E+03  0.00000000000E+00 0. -1.
         -4   -1    0    0    0  501 -0.00000000000E+00 -0.00000000000E+00 -0.13448080510E+04  0.13448080510E+04  0.00000000000E+00 0. -1.
        -13    1    1    2    0    0 -0.55296406362E+02 -0.11516465565E+03 -0.70568011472E+03  0.71715062988E+03  0.10566000000E+00 0.  1.
         13    1    1    2    0    0 -0.42417810453E+03  0.30314915943E+02 -0.27523870281E+03  0.50655938762E+03  0.10566000000E+00 0. -1.
         -4    1    1    2    0  502  0.47947451089E+03  0.84849739702E+02  0.19409125955E+01  0.48692817958E+03  0.00000000000E+00 0. -1.
</event>
<event>
 5    1  0.2540860E-005  0.5825418E+02  0.7818608E-02  0.1261408E+00
         21   -1    0    0  501  502  0.00000000000E+00  0.00000000000E+00  0.21539057690E+03  0.21539057690E+03  0.00000000000E+00 0.  1.
          4   -1    0    0  502    0 -0.00000000000E+00 -0.00000000000E+00 -0.40575124758E+03  0.40575124758E+03  0.00000000000E+00 0.  1.
        -13    1    1    2    0    0 -0.37967828737E+02 -0.40028588777E+02 -0.27685440159E+03  0.28229809561E+03  0.10566000000E+00 0.  1.
         13    1    1    2    0    0  0.35772174834E+02  0.61370783980E+02 -0.11556377661E+03  0.13565035660E+03  0.10566000000E+00 0. -1.
          4    1    1    2  501    0  0.21956539033E+01 -0.21342195203E+02  0.20205750752E+03  0.20319337228E+03  0.00000000000E+00 0.  1.
</event>
<event>
 5    1  0.2540860E-005  0.3365668E+03  0.7818608E-02  0.1027920E+00
         -4   -1    0    0    0  501 -0.00000000000E+00  0.00000000000E+00  0.14651769519E+04  0.14651769519E+04  0.00000000000E+00 0. -1.
         21   -1    0    0  501  502  0.00000000000E+00 -0.00000000000E+00 -0.22535392814E+03  0.22535392814E+03  0.00000000000E+00 0. -1.
        -13    1    1    2    0    0  0.48000702583E+02 -0.99650299944E+02  0.25765007320E+03  0.28038869647E+03  0.10566000000E+00 0.  1.
         13    1    1    2    0    0 -0.33038259576E+03 -0.77538061826E+02 -0.33642364927E+02  0.34102291785E+03  0.10566000000E+00 0. -1.
         -4    1    1    2    0  502  0.28238189318E+03  0.17718836177E+03  0.10158153155E+04  0.10691192657E+04  0.00000000000E+00 0. -1.
</event>
<event>
 5    1  0.2540860E-005  0.1953903E+02  0.7818608E-02  0.1516369E+00
         21   -1    0    0  501  502  0.00000000000E+00  0.00000000000E+00  0.64712075362E+02  0.64712075362E+02  0.00000000000E+00 0.  1.
          4   -1    0    0  502    0 -0.00000000000E+00 -0.00000000000E+00 -0.35190684230E+02  0.35190684230E+02  0.00000000000E+00 0.  1.
        -13    1    1    2    0    0  0.10161940791E+02  0.16723892553E+02 -0.16940771000E+02  0.25883479459E+02  0.10566000000E+00 0.  1.
         13    1    1    2    0    0 -0.21677843611E+02 -0.76822351338E+01 -0.22930685869E+01  0.23113090833E+02  0.10566000000E+00 0. -1.
          4    1    1    2  501    0  0.11515902820E+02 -0.90416574194E+01  0.48755230719E+02  0.50906189300E+02  0.00000000000E+00 0.  1.
</event>
<event>
 5    1  0.2540860E-005  0.4869564E+03  0.7818608E-02  0.9507028E-01
         -4   -1    0    0    0  501 -0.00000000000E+00  0.00000000000E+00  0.19055074945E+04  0.19055074945E+04  0.00000000000E+00 0. -1.
         21   -1    0    0  501  502  0.00000000000E+00 -0.00000000000E+00 -0.53271436016E+03  0.53271436016E+03  0.00000000000E+00 0.  1.
        -13    1    1    2    0    0  0.23998367217E+03  0.41376360791E+03  0.12328012659E+04  0.13223431697E+04  0.10566000000E+00 0.  1.
         13    1    1    2    0    0 -0.28892722534E+03 -0.41772530067E+03  0.52340576414E+03  0.72933323896E+03  0.10566000000E+00 0. -1.
         -4    1    1    2    0  502  0.48943553168E+02  0.39616927608E+01 -0.38341389569E+03  0.38654544599E+03  0.00000000000E+00 0. -1.
</event>
<event>
 5    1  0.2540860E-005  0.2540016E+02  0.7818608E-02  0.1446170E+00
         -4   -1    0    0    0  501 -0.00000000000E+00  0.00000000000E+00  0.18475265014E+03  0.18475265014E+03  0.00000000000E+00 0. -1.
         21   -1    0    0  501  502  0.00000000000E+00 -0.00000000000E+00 -0.18286168635E+02  0.18286168635E+02  0.00000000000E+00 0. -1.
        -13    1    1    2    0    0 -0.17624969190E+02  0.11212975785E+02  0.67130316379E+02  0.70305482759E+02  0.10566000000E+00 0.  1.
         13    1    1    2    0    0  0.34563800322E+02 -0.47532851593E+01  0.10737582288E+03  0.11290185347E+03  0.10566000000E+00 0. -1.
         -4    1    1    2    0  502 -0.16938831132E+02 -0.64596906254E+01 -0.80396577591E+01  0.19831482546E+02  0.00000000000E+00 0. -1.
</event>
<event>
 5    1  0.2540860E-005  0.4151293E+02  0.7818608E-02  0.1351901E+00
         21   -1    0    0  501  502  0.00000000000E+00  0.00000000000E+00  0.33735022422E+03  0.33735022422E+03  0.00000000000E+00 0.  1.
          4   -1    0    0  502    0 -0.00000000000E+00 -0.00000000000E+00 -0.11443229046E+02  0.11443229046E+02  0.00000000000E+00 0.  1.
        -13    1    1    2    0    0 -0.19782116844E+02 -0.37020261027E+02  0.10325255774E+03  0.11145821511E+03  0.10566000000E+00 0.  1.
         13    1    1    2    0    0  0.27326424445E+02 -0.72259006335E+01  0.38332991286E+02  0.47627476291E+02  0.10566000000E+00 0. -1.
          4    1    1    2  501    0 -0.75443076005E+01  0.44246161660E+02  0.18432144615E+03  0.18970776186E+03  0.00000000000E+00 0.  1.
</event>
<event>
 5    1  0.2540860E-005  0.2723846E+03  0.7818608E-02  0.1019404E+00
         21   -1    0    0  501  502  0.00000000000E+00  0.00000000000E+00  0.10420319624E+03  0.10420319624E+03  0.00000000000E+00 0. -1.
          4   -1    0    0  502    0 -0.00000000000E+00 -0.00000000000E+00 -0.16943921041E+04  0.16943921041E+04  0.00000000000E+00 0.  1.
        -13    1    1    2    0    0  0.15694088440E+03 -0.29399594071E+03 -0.74456162633E+03  0.81574265606E+03  0.10566000000E+00 0.  1.
         13    1    1    2    0    0  0.78923657525E+02  0.24737468170E+03 -0.46719625425E+03  0.53450493731E+03  0.10566000000E+00 0. -1.
          4    1    1    2  501    0 -0.23586454192E+03  0.46621259010E+02 -0.37843102726E+03  0.44834770694E+03  0.00000000000E+00 0.  1.
</event>
<event>
 5    1  0.2540860E-005  0.3460993E+02  0.7818608E-02  0.1401524E+00
          4   -1    0    0  502    0 -0.00000000000E+00  0.00000000000E+00  0.42226022142E+02  0.42226022142E+02  0.00000000000E+00 0.  1.
         21   -1    0    0  501  502  0.00000000000E+00 -0.00000000000E+00 -0.47638940088E+03  0.47638940088E+03  0.00000000000E+00 0.  1.
        -13    1    1    2    0    0  0.20025105022E+01  0.17028627402E+02  0.38270299555E+02  0.41935798449E+02  0.10566000000E+00 0.  1.
         13    1    1    2    0    0 -0.12779085927E+02  0.16246276415E+02 -0.77802103014E+02  0.80501086527E+02  0.10566000000E+00 0. -1.
          4    1    1    2  501    0  0.10776575425E+02 -0.33274903816E+02 -0.39463157527E+03  0.39617853804E+03  0.00000000000E+00 0.  1.
</event>
<event>
 5    1  0.2540860E-005  0.4531771E+03  0.7818608E-02  0.9737766E-01
          4   -1    0    0  502    0 -0.00000000000E+00  0.00000000000E+00  0.33819621465E+04  0.33819621465E+04  0.00000000000E+00 0.  1.
         21   -1    0    0  501  502  0.00000000000E+00 -0.00000000000E+00 -0.13015121832E+03  0.13015121832E+03  0.00000000000E+00 0.  1.
        -13    1    1    2    0    0 -0.19348739194E+03  0.61392310130E+03  0.16682936067E+04  0.17881673620E+04  0.10566000000E+00 0.  1.
         13    1    1    2    0    0  0.93724274208E+02 -0.24989283677E+03  0.94738093780E+03  0.98425673577E+03  0.10566000000E+00 0. -1.
          4    1    1    2  501    0  0.99763117736E+02 -0.36403026454E+03  0.63613638365E+03  0.73968926704E+03  0.00000000000E+00 0.  1.
</event>
<event>
 5    1  0.2540860E-005  0.3678168E+02  0.7818608E-02  0.1399303E+00
         -4   -1    0    0    0  501 -0.00000000000E+00  0.00000000000E+00  0.41883909677E+02  0.41883909677E+02  0.00000000000E+00 0. -1.
         21   -1    0    0  501  502  0.00000000000E+00 -0.00000000000E+00 -0.57469305681E+02  0.57469305681E+02  0.00000000000E+00 0. -1.
        -13    1    1    2    0    0  0.68536892550E+01  0.16505519470E+02  0.76517505471E+00  0.17888596543E+02  0.10566000000E+00 0.  1.
         13    1    1    2    0    0 -0.37081897426E+02 -0.28076645830E+02 -0.35132029080E+01  0.46644602223E+02  0.10566000000E+00 0. -1.
         -4    1    1    2    0  502  0.30228208171E+02  0.11571126361E+02 -0.12837368151E+02  0.34820016593E+02  0.00000000000E+00 0. -1.
</event>
<event>
 5    1  0.2540860E-005  0.4493485E+03  0.7818608E-02  0.9841465E-01
          4   -1    0    0  502    0 -0.00000000000E+00  0.00000000000E+00  0.10349074275E+04  0.10349074275E+04  0.00000000000E+00 0.  1.
         21   -1    0    0  501  502  0.00000000000E+00 -0.00000000000E+00 -0.39713572841E+03  0.39713572841E+03  0.00000000000E+00 0. -1.
        -13    1    1    2    0    0 -0.45217297996E+03 -0.17876574899E+03 -0.11529672188E+03  0.49971085845E+03  0.10566000000E+00 0.  1.
         13    1    1    2    0    0  0.95484286461E+02  0.16658139388E+03  0.24034003930E+03  0.30761982284E+03  0.10566000000E+00 0. -1.
          4    1    1    2  501    0  0.35668869350E+03  0.12184355107E+02  0.51272838171E+03  0.62471247466E+03  0.00000000000E+00 0.  1.
</event>
<event>
 5    1  0.2540860E-005  0.4398693E+03  0.7818608E-02  0.9822007E-01
         21   -1    0    0  501  502  0.00000000000E+00  0.00000000000E+00  0.71509177498E+03  0.71509177498E+03  0.00000000000E+00 0. -1.
         -4   -1    0    0    0  501 -0.00000000000E+00 -0.00000000000E+00 -0.67144861207E+03  0.67144861207E+03  0.00000000000E+00 0. -1.
        -13    1    1    2    0    0 -0.14469680128E+03  0.16393059014E+03 -0.24293336841E+03  0.32684405354E+03  0.10566000000E+00 0.  1.
         13    1    1    2    0    0  0.43533969258E+03  0.17149090120E+03 -0.91387375154E+02  0.47674043318E+03  0.10566000000E+00 0. -1.
         -4    1    1    2    0  502 -0.29064289130E+03 -0.33542149134E+03  0.37796390648E+03  0.58295590032E+03  0.00000000000E+00 0. -1.
</event>
<event>
 5    1  0.2540860E-005  0.8688931E+02  0.7818608E-02  0.1188284E+00
         -4   -1    0    0    0  501 -0.00000000000E+00  0.00000000000E+00  0.17146009147E+03  0.17146009147E+03  0.00000000000E+00 0. -1.
         21   -1    0    0  501  502  0.00000000000E+00 -0.00000000000E+00 -0.15601613066E+03  0.15601613066E+03  0.00000000000E+00 0. -1.
        -13    1    1    2    0    0  0.69774709782E+02 -0.63673835051E+02  0.21497759203E+02  0.96876375913E+02  0.10566000000E+00 0.  1.
         13    1    1    2    0    0 -0.61997139279E+02  0.56297836485E+02  0.96338068580E+02  0.12764844806E+03  0.10566000000E+00 0. -1.
         -4    1    1    2    0  502 -0.77775705028E+01  0.73759985660E+01 -0.10239186698E+03  0.10295139815E+03  0.00000000000E+00 0. -1.
</event>
<event>
 5    1  0.2540860E-005  0.1481524E+03  0.7818608E-02  0.1102948E+00
         -4   -1    0    0    0  501 -0.00000000000E+00  0.00000000000E+00  0.19061435073E+03  0.19061435073E+03  0.00000000000E+00 0. -1.
         21   -1    0    0  501  502  0.00000000000E+00 -0.00000000000E+00 -0.42399649939E+03  0.42399649939E+03  0.00000000000E+00 0. -1.
        -13    1    1    2    0    0  0.90083912390E+02  0.11209560539E+03  0.44800580891E+02  0.15062416550E+03  0.10566000000E+00 0.  1.
         13    1    1    2    0    0 -0.88323071458E+02 -0.12558897736E+03  0.29211836533E+02  0.15629107058E+03  0.10566000000E+00 0. -1.
         -4    1    1    2    0  502 -0.17608409322E+01  0.13493371969E+02 -0.30739456608E+03  0.30769561404E+03  0.00000000000E+00 0. -1.
</event>
<event>
 5    1  0.2540860E-005  0.4881869E+03  0.7818608E-02  0.9984337E-01
         21   -1    0    0  501  502  0.00000000000E+00  0.00000000000E+00  0.33455753711E+03  0.33455753711E+03  0.00000000000E+00 0.  1.
          4   -1    0    0  502    0 -0.00000000000E+00 -0.00000000000E+00 -0.86338316232E+03  0.86338316232E+03  0.00000000000E+00 0.  1.
        -13    1    1    2    0    0 -0.21208858913E+03  0.43597035690E+03 -0.26967568088E+03  0.55477626639E+03  0.10566000000E+00 0.  1.
         13    1    1    2    0    0  0.82796631114E+02  0.42253856867E+02 -0.48464129934E+02  0.10483059476E+03  0.10566000000E+00 0. -1.
          4    1    1    2  501    0  0.12929195801E+03 -0.47822421377E+03 -0.21068581439E+03  0.53833383827E+03  0.00000000000E+00 0.  1.
</event>
<event>
 5    1  0.2540860E-005  0.4467820E+03  0.7818608E-02  0.9727587E-01
         21   -1    0    0  501  502  0.00000000000E+00  0.00000000000E+00  0.26409526722E+03  0.26409526722E+03  0.00000000000E+00 0. -1.
         -4   -1    0    0    0  501 -0.00000000000E+00 -0.00000000000E+00 -0.17030284299E+04  0.17030284299E+04  0.00000000000E+00 0. -1.
        -13    1    1    2    0    0 -0.15675713869E+03  0.24219872635E+03 -0.42159346187E+03  0.51085622423E+03  0.10566000000E+00 0.  1.
         13    1    1    2    0    0 -0.28027906301E+03 -0.38636060026E+03 -0.83392347686E+03  0.96086380045E+03  0.10566000000E+00 0. -1.
         -4    1    1    2    0  502  0.43703620170E+03  0.14416187392E+03 -0.18341622399E+03  0.49540367249E+03  0.00000000000E+00 0. -1.
</event>
<event>
 5    1  0.2540860E-005  0.2524669E+02  0.7818608E-02  0.1447719E+00
         -4   -1    0    0    0  501 -0.00000000000E+00  0.00000000000E+00  0.24763153034E+02  0.24763153034E+02  0.00000000000E+00 0. -1.
         21   -1    0    0  501  502  0.00000000000E+00 -0.00000000000E+00 -0.15802751868E+03  0.15802751868E+03  0.00000000000E+00 0.  1.
        -13    1    1    2    0    0 -0.27940089910E+02  0.25454109129E+02 -0.10290934551E+03  0.10963076599E+03  0.10566000000E+00 0.  1.
         13    1    1    2    0    0  0.19057285723E+02 -0.15220241752E+02  0.13069168881E+02  0.27670385566E+02  0.10566000000E+00 0. -1.
         -4    1    1    2    0  502  0.88828041870E+01 -0.10233867377E+02 -0.43424189025E+02  0.45489520158E+02  0.00000000000E+00 0. -1.
</event>
<event>
 5    1  0.2540860E-005  0.4746933E+03  0.7818608E-02  0.9824933E-01
         21   -1    0    0  501  502  0.00000000000E+00  0.00000000000E+00  0.10030466129E+04  0.10030466129E+04  0.00000000000E+00 0. -1.
         -4   -1    0    0    0  501 -0.00000000000E+00 -0.00000000000E+00 -0.53071219354E+03  0.53071219354E+03  0.00000000000E+00 0. -1.
        -13    1    1    2    0    0  0.16276936984E+03  0.56378024291E+02 -0.24397021026E+03  0.29865335096E+03  0.10566000000E+00 0.  1.
         13    1    1    2    0    0 -0.44426282409E+03 -0.36811814468E+03  0.33122355896E+03  0.66527399054E+03  0.10566000000E+00 0. -1.
         -4    1    1    2    0  502  0.28149345425E+03  0.31174012039E+03  0.38508107064E+03  0.56983146492E+03  0.00000000000E+00 0. -1.
</event>
<event>
 5    1  0.2540860E-005  0.3285087E+03  0.7818608E-02  0.9961871E-01
         21   -1    0    0  501  502  0.00000000000E+00  0.00000000000E+00  0.80865675861E+03  0.80865675861E+03  0.00000000000E+00 0. -1.
         -4   -1    0    0    0  501 -0.00000000000E+00 -0.00000000000E+00 -0.39945776451E+03  0.39945776451E+03  0.00000000000E+00 0. -1.
        -13    1    1    2    0    0 -0.33651014942E+03 -0.14696011101E+01  0.29121927908E+03  0.44502799919E+03  0.10566000000E+00 0.  1.
         13    1    1    2    0    0  0.32610847444E+03  0.21612891510E+02 -0.23931410889E+03  0.40507420068E+03  0.10566000000E+00 0. -1.
         -4    1    1    2    0  502  0.10401674980E+02 -0.20143290400E+02  0.35729382391E+03  0.35801232325E+03  0.00000000000E+00 0. -1.
</event>
<event>
 5    1  0.2540860E-005  0.3625721E+03  0.7818608E-02  0.1020254E+00
         -4   -1    0    0    0  501 -0.00000000000E+00  0.00000000000E+00  0.15586170646E+04  0.15586170646E+04  0.00000000000E+00 0. -1.
         21   -1    0    0  501  502  0.00000000000E+00 -0.00000000000E+00 -0.21285228108E+03  0.21285228108E+03  0.00000000000E+00 0. -1.
        -13    1    1    2    0    0  0.33186483993E+02 -0.10742669103E+03  0.30188519871E+03  0.32214363416E+03  0.10566000000E+00 0.  1.
         13    1    1    2    0    0  0.34981531803E+03 -0.56978103431E+02  0.33079416044E+02  0.35596561622E+03  0.10566000000E+00 0. -1.
         -4    1    1    2    0  502 -0.38300180203E+03  0.16440479446E+03  0.10108001687E+04  0.10933600953E+04  0.00000000000E+00 0. -1.
</event>
<event>
 5    1  0.2540860E-005  0.5191907E+03  0.7818608E-02  0.9436874E-01
         -4   -1    0    0    0  501 -0.00000000000E+00  0.00000000000E+00  0.20513418831E+04  0.20513418831E+04  0.00000000000E+00 0. -1.
         21   -1    0    0  501  502  0.00000000000E+00 -0.00000000000E+00 -0.46785077976E+03  0.46785077976E+03  0.00000000000E+00 0.  1.
        -13    1    1    2    0    0  0.44728639233E+03  0.43728646853E+03  0.51883134997E+02  0.62767542821E+03  0.10566000000E+00 0.  1.
         13    1    1    2    0    0 -0.49901392613E+03 -0.12413448050E+03  0.14840053109E+04  0.15705718836E+04  0.10566000000E+00 0. -1.
         -4    1    1    2    0  502  0.51727533798E+02 -0.31315198803E+03  0.47602657477E+02  0.32094535105E+03  0.00000000000E+00 0. -1.
</event>
<event>
 5    1  0.2540860E-005  0.3548473E+03  0.7818608E-02  0.9946291E-01
          4   -1    0    0  502    0 -0.00000000000E+00  0.00000000000E+00  0.24303309001E+04  0.24303309001E+04  0.00000000000E+00 0.  1.
         21   -1    0    0  501  502  0.00000000000E+00 -0.00000000000E+00 -0.21705838577E+03  0.21705838577E+03  0.00000000000E+00 0.  1.
        -13    1    1    2    0    0 -0.10804414799E+03 -0.26775494806E+03  0.11137969557E+04  0.11506128453E+04  0.10566000000E+00 0.  1.
         13    1    1    2    0    0 -0.24442940742E+03  0.12478806230E+03  0.10817273093E+04  0.11159981087E+04  0.10566000000E+00 0. -1.
          4    1    1    2  501    0  0.35247355542E+03  0.14296688576E+03  0.17748249361E+02  0.38077833190E+03  0.00000000000E+00 0.  1.
</event>
<event>
 5    1  0.2540860E-005  0.2017486E+03  0.7818608E-02  0.1083392E+00
         -4   -1    0    0    0  501 -0.00000000000E+00  0.00000000000E+00  0.90246795069E+02  0.90246795069E+02  0.00000000000E+00 0. -1.
         21   -1    0    0  501  502  0.00000000000E+00 -0.00000000000E+00 -0.10595682093E+04  0.10595682093E+04  0.00000000000E+00 0. -1.
        -13    1    1    2    0    0 -0.94971073920E+02 -0.32364822888E+02 -0.31030938330E+02  0.10502341139E+03  0.10566000000E+00 0.  1.
         13    1    1    2    0    0 -0.40448909210E+02  0.19323141928E+03 -0.21650532200E+03  0.29300010456E+03  0.10566000000E+00 0. -1.
         -4    1    1    2    0  502  0.13541998313E+03 -0.16086659639E+03 -0.72178515386E+03  0.75179148838E+03  0.00000000000E+00 0. -1.
</event>
<event>
 5    1  0.2943501E-005  0.7697435E+03  0.7818608E-02  0.9027514E-01
         21   -1    0    0  501  502  0.00000000000E+00  0.00000000000E+00  0.10334103645E+04  0.10334103645E+04  0.00000000000E+00 0. -1.
          4   -1    0    0  502    0 -0.00000000000E+00 -0.00000000000E+00 -0.11477508424E+04  0.11477508424E+04  0.00000000000E+00 0.  1.
        -13    1    1    2    0    0 -0.38385964876E+03  0.63698387245E+03  0.19721683456E+03  0.76940962738E+03  0.10566000000E+00 0.  1.
         13    1    1    2    0    0  0.79205331982E+03 -0.33035599551E+03 -0.12032913704E+03  0.86658101617E+03  0.10566000000E+00 0. -1.
          4    1    1    2  501    0 -0.40819367106E+03 -0.30662787694E+03 -0.19122817546E+03  0.54517056331E+03  0.00000000000E+00 0.  1.
</event>
<event>
 5    1  0.2540860E-005  0.4136112E+03  0.7818608E-02  0.9811221E-01
         21   -1    0    0  501  502  0.00000000000E+00  0.00000000000E+00  0.19856591398E+03  0.19856591398E+03  0.00000000000E+00 0.  1.
          4   -1    0    0  502    0 -0.00000000000E+00 -0.00000000000E+00 -0.23198164171E+04  0.23198164171E+04  0.00000000000E+00 0.  1.
        -13    1    1    2    0    0 -0.25335285935E+03 -0.27320348698E+03 -0.27935276913E+03  0.46568851975E+03  0.10566000000E+00 0.  1.
         13    1    1    2    0    0 -0.27162407219E+03 -0.25633005360E+02 -0.35467019595E+03  0.44746803977E+03  0.10566000000E+00 0. -1.
          4    1    1    2  501    0  0.52497693155E+03  0.29883649234E+03 -0.14872275380E+04  0.16052257716E+04  0.00000000000E+00 0.  1.
</event>
<event>
 5    1  0.2540860E-005  0.1530096E+03  0.7818608E-02  0.1098181E+00
         21   -1    0    0  501  502  0.00000000000E+00  0.00000000000E+00  0.12896582345E+04  0.12896582345E+04  0.00000000000E+00 0.  1.
          4   -1    0    0  502    0 -0.00000000000E+00 -0.00000000000E+00 -0.57349738988E+02  0.57349738988E+02  0.00000000000E+00 0.  1.
        -13    1    1    2    0    0 -0.80333725927E+02  0.19958919459E+03  0.76895792130E+03  0.79848960545E+03  0.10566000000E+00 0.  1.
         13    1    1    2    0    0 -0.31560472235E+02 -0.14222932548E+03  0.14199993545E+03  0.20344344980E+03  0.10566000000E+00 0. -1.
          4    1    1    2  501    0  0.11189419816E+03 -0.57359869105E+02  0.32135063879E+03  0.34507491826E+03  0.00000000000E+00 0.  1.
</event>
<event>
 5    1  0.2540860E-005  0.2987403E+03  0.7818608E-02  0.1007827E+00
         21   -1    0    0  501  502  0.00000000000E+00  0.00000000000E+00  0.27344910412E+03  0.27344910412E+03  0.00000000000E+00 0.  1.
         -4   -1    0    0    0  501 -0.00000000000E+00 -0.00000000000E+00 -0.45750651935E+03  0.45750651935E+03  0.00000000000E+00 0. -1.
        -13    1    1    2    0    0  0.28373907757E+03 -0.27474603538E+02 -0.37692552667E+01  0.28509110198E+03  0.10566000000E+00 0.  1.
         13    1    1    2    0    0 -0.30671761675E+03 -0.15916991479E+01 -0.23034644077E+03  0.38358535409E+03  0.10566000000E+00 0. -1.
         -4    1    1    2    0  502  0.22978539179E+02  0.29066302686E+02  0.50058280812E+02  0.62279167404E+02  0.00000000000E+00 0. -1.
</event>
<event>
 5    1  0.2540860E-005  0.2308255E+03  0.7818608E-02  0.1040838E+00
          4   -1    0    0  502    0 -0.00000000000E+00  0.00000000000E+00  0.19059227780E+04  0.19059227780E+04  0.00000000000E+00 0.  1.
         21   -1    0    0  501  502  0.00000000000E+00 -0.00000000000E+00 -0.27722587623E+03  0.27722587623E+03  0.00000000000E+00 0.  1.
        -13    1    1    2    0    0 -0.22847490783E+03 -0.28323106052E+02  0.96177121994E+03  0.98894229989E+03  0.10566000000E+00 0.  1.
         13    1    1    2    0    0  0.22778367558E+03  0.42315120467E+02  0.91594584451E+03  0.94479244997E+03  0.10566000000E+00 0. -1.
          4    1    1    2  501    0  0.69123224804E+00 -0.13992014415E+02 -0.24902016268E+03  0.24941390437E+03  0.00000000000E+00 0.  1.
</event>
<event>
 5    1  0.2540860E-005  0.1113823E+03  0.7818608E-02  0.1146984E+00
         21   -1    0    0  501  502  0.00000000000E+00  0.00000000000E+00  0.40142059371E+03  0.40142059371E+03  0.00000000000E+00 0.  1.
         -4   -1    0    0    0  501 -0.00000000000E+00 -0.00000000000E+00 -0.56761353358E+02  0.56761353358E+02  0.00000000000E+00 0. -1.
        -13    1    1    2    0    0  0.87390652561E+02 -0.87540063102E+02  0.23743324294E+03  0.26772176755E+03  0.10566000000E+00 0.  1.
         13    1    1    2    0    0 -0.91033615928E+02  0.58701446730E+02  0.37013111113E+02  0.11446816429E+03  0.10566000000E+00 0. -1.
         -4    1    1    2    0  502  0.36429633676E+01  0.28838616371E+02  0.70212886298E+02  0.75992015229E+02  0.00000000000E+00 0. -1.
</event>
<event>
 5    1  0.2540860E-005  0.2815159E+03  0.7818608E-02  0.1027022E+00
          4   -1    0    0  502    0 -0.00000000000E+00  0.00000000000E+00  0.94617974175E+03  0.94617974175E+03  0.00000000000E+00 0.  1.
         21   -1    0    0  501  502  0.00000000000E+00 -0.00000000000E+00 -0.11252394336E+04  0.11252394336E+04  0.00000000000E+00 0.  1.
        -13    1    1    2    0    0 -0.22957309055E+03 -0.13881976408E+03 -0.87188161879E+03  0.91222382076E+03  0.10566000000E+00 0.  1.
         13    1    1    2    0    0 -0.19335291600E+03  0.19735231566E+02  0.69308806652E+03  0.71982352602E+03  0.10566000000E+00 0. -1.
          4    1    1    2  501    0  0.42292600656E+03  0.11908453251E+03 -0.26613955422E+00  0.43937182856E+03  0.00000000000E+00 0.  1.
</event>
<event>
 5    1  0.2540860E-005  0.4876426E+03  0.7818608E-02  0.9651270E-01
         21   -1    0    0  501  502  0.00000000000E+00  0.00000000000E+00  0.14346723043E+03  0.14346723043E+03  0.00000000000E+00 0. -1.
         -4   -1    0    0    0  501 -0.00000000000E+00 -0.00000000000E+00 -0.31916432661E+04  0.31916432661E+04  0.00000000000E+00 0. -1.
        -13    1    1    2    0    0 -0.28947731517E+03 -0.88644785833E+01 -0.42839874068E+03  0.51710848684E+03  0.10566000000E+00 0.  1.
         13    1    1    2    0    0  0.18600650522E+03  0.48591115586E+03 -0.10143785200E+04  0.11400315190E+04  0.10566000000E+00 0. -1.
         -4    1    1    2    0  502  0.10347080995E+03 -0.47704667728E+03 -0.16053987750E+04  0.16779704907E+04  0.00000000000E+00 0. -1.
</event>
<event>
 5    1  0.2540860E-005  0.3831277E+03  0.7818608E-02  0.9787570E-01
         21   -1    0    0  501  502  0.00000000000E+00  0.00000000000E+00  0.67887978094E+03  0.67887978094E+03  0.00000000000E+00 0. -1.
          4   -1    0    0  502    0 -0.00000000000E+00 -0.00000000000E+00 -0.80965891587E+03  0.80965891587E+03  0.00000000000E+00 0.  1.
        -13    1    1    2    0    0  0.21201045404E+03 -0.32381463563E+03  0.23450946588E+03  0.45254729214E+03  0.10566000000E+00 0.  1.
         13    1    1    2    0    0 -0.33729591983E+03 -0.15723390899E+03  0.65911190750E+02  0.37793562402E+03  0.10566000000E+00 0. -1.
          4    1    1    2  501    0  0.12528546579E+03  0.48104854462E+03 -0.43119979155E+03  0.65805578065E+03  0.00000000000E+00 0.  1.
</event>
<event>
 5    1  0.2540860E-005  0.2215346E+03  0.7818608E-02  0.1046298E+00
         21   -1    0    0  501  502  0.00000000000E+00  0.00000000000E+00  0.11670411232E+03  0.11670411232E+03  0.00000000000E+00 0.  1.
          4   -1    0    0  502    0 -0.00000000000E+00 -0.00000000000E+00 -0.22272403752E+04  0.22272403752E+04  0.00000000000E+00 0.  1.
        -13    1    1    2    0    0  0.15987686193E+03  0.16380634275E+03 -0.10328446285E+04  0.10579041388E+04  0.10566000000E+00 0.  1.
         13    1    1    2    0    0 -0.16341016044E+03 -0.14137129990E+03 -0.11706108099E+04  0.11903858217E+04  0.10566000000E+00 0. -1.
          4    1    1    2  501    0  0.35332985120E+01 -0.22435042851E+02  0.92919175633E+02  0.95654527056E+02  0.00000000000E+00 0.  1.
</event>
<event>
 5    1  0.2540860E-005  0.4964776E+03  0.7818608E-02  0.9656786E-01
          4   -1    0    0  502    0 -0.00000000000E+00  0.00000000000E+00  0.81833164897E+03  0.81833164897E+03  0.00000000000E+00 0.  1.
         21   -1    0    0  501  502  0.00000000000E+00 -0.00000000000E+00 -0.84757229038E+03  0.84757229038E+03  0.00000000000E+00 0.  1.
        -13    1    1    2    0    0  0.78801878378E+02  0.45908172634E+03 -0.25052879016E+03  0.52889550325E+03  0.10566000000E+00 0.  1.
         13    1    1    2    0    0 -0.25418227112E+03  0.88517370367E+02  0.44496510500E+03  0.52003644838E+03  0.10566000000E+00 0. -1.
          4    1    1    2  501    0  0.17538039274E+03 -0.54759909671E+03 -0.22367695624E+03  0.61697198772E+03  0.00000000000E+00 0.  1.
</event>
<event>
 5    1  0.2540860E-005  0.3278301E+03  0.7818608E-02  0.1007159E+00
         21   -1    0    0  501  502  0.00000000000E+00  0.00000000000E+00  0.92989142907E+03  0.92989142907E+03  0.00000000000E+00 0. -1.
         -4   -1    0    0    0  501 -0.00000000000E+00 -0.00000000000E+00 -0.78608094781E+03  0.78608094781E+03  0.00000000000E+00 0. -1.
        -13    1    1    2    0    0  0.22279995515E+03  0.60957830210E+02 -0.60982442515E+03  0.65210544987E+03  0.10566000000E+00 0.  1.
         13    1    1    2    0    0 -0.62895674917E+02 -0.35702002872E+03  0.19477979810E+03  0.41153170928E+03  0.10566000000E+00 0. -1.
         -4    1    1    2    0  502 -0.15990428023E+03  0.29606219851E+03  0.55885510830E+03  0.65233521774E+03  0.00000000000E+00 0. -1.
</event>
<event>
 5    1  0.2540860E-005  0.4542749E+03  0.7818608E-02  0.9675456E-01
          4   -1    0    0  502    0 -0.00000000000E+00  0.00000000000E+00  0.15214307720E+04  0.15214307720E+04  0.00000000000E+00 0.  1.
         21   -1    0    0  501  502  0.00000000000E+00 -0.00000000000E+00 -0.35089653928E+03  0.35089653928E+03  0.00000000000E+00 0. -1.
        -13    1    1    2    0    0  0.56505030504E+03 -0.33833663259E+03  0.47111485624E+03  0.80975474257E+03  0.10566000000E+00 0.  1.
         13    1    1    2    0    0 -0.19130792654E+03  0.26776128252E+03  0.57478772362E+03  0.66232602663E+03  0.10566000000E+00 0. -1.
          4    1    1    2  501    0 -0.37374237850E+03  0.70575350067E+02  0.12463165282E+03  0.40024654204E+03  0.00000000000E+00 0.  1.
</event>
<event>
 5    1  0.2540860E-005  0.6635320E+03  0.7818608E-02  0.9177628E-01
         21   -1    0    0  501  502  0.00000000000E+00  0.00000000000E+00  0.77986426884E+03  0.77986426884E+03  0.00000000000E+00 0.  1.
         -4   -1    0    0    0  501 -0.00000000000E+00 -0.00000000000E+00 -0.11932580670E+04  0.11932580670E+04  0.00000000000E+00 0. -1.
        -13    1    1    2    0    0  0.63257942753E+02 -0.62347273990E+03 -0.47802170502E+03  0.78817801692E+03  0.10566000000E+00 0.  1.
         13    1    1    2    0    0  0.27232026857E+03  0.76017645578E+03 -0.37879893686E+02  0.80836963705E+03  0.10566000000E+00 0. -1.
         -4    1    1    2    0  502 -0.33557821132E+03 -0.13670371588E+03  0.10250780055E+03  0.37657468187E+03  0.00000000000E+00 0. -1.
</event>
<event>
 5    1  0.2540860E-005  0.4779737E+03  0.7818608E-02  0.9527601E-01
         21   -1    0    0  501  502  0.00000000000E+00  0.00000000000E+00  0.22262089313E+03  0.22262089313E+03  0.00000000000E+00 0.  1.
          4   -1    0    0  502    0 -0.00000000000E+00 -0.00000000000E+00 -0.23571324946E+04  0.23571324946E+04  0.00000000000E+00 0.  1.
        -13    1    1    2    0    0 -0.32508511535E+03  0.56838361269E+03 -0.13468097151E+04  0.14975435497E+04  0.10566000000E+00 0.  1.
         13    1    1    2    0    0  0.16101292862E+03 -0.33194044967E+03 -0.68242287662E+03  0.77576453838E+03  0.10566000000E+00 0. -1.
          4    1    1    2  501    0  0.16407218673E+03 -0.23644316302E+03 -0.10527900978E+03  0.30644529968E+03  0.00000000000E+00 0.  1.
</event>
<event>
 5    1  0.2540860E-005  0.1734748E+03  0.7818608E-02  0.1080017E+00
         -4   -1    0    0    0  501 -0.00000000000E+00  0.00000000000E+00  0.13518535937E+04  0.13518535937E+04  0.00000000000E+00 0. -1.
         21   -1    0    0  501  502  0.00000000000E+00 -0.00000000000E+00 -0.20931887153E+03  0.20931887153E+03  0.00000000000E+00 0. -1.
        -13    1    1    2    0    0 -0.23791664891E+01  0.18183244758E+03  0.64033738819E+03  0.66565808138E+03  0.10566000000E+00 0.  1.
         13    1    1    2    0    0  0.14442702926E+02 -0.16644862942E+03  0.68835115724E+03  0.70833683000E+03  0.10566000000E+00 0. -1.
         -4    1    1    2    0  502 -0.12063536436E+02 -0.15383818159E+02 -0.18615382323E+03  0.18717755388E+03  0.00000000000E+00 0. -1.
</event>
<event>
 5    1  0.2540860E-005  0.3751789E+02  0.7818608E-02  0.1353039E+00
         21   -1    0    0  501  502  0.00000000000E+00  0.00000000000E+00  0.20001698428E+03  0.20001698428E+03  0.00000000000E+00 0. -1.
          4   -1    0    0  502    0 -0.00000000000E+00 -0.00000000000E+00 -0.13223386398E+02  0.13223386398E+02  0.00000000000E+00 0.  1.
        -13    1    1    2    0    0  0.40120525397E+02 -0.43403478963E+01  0.28943256754E+02  0.49661035566E+02  0.10566000000E+00 0.  1.
         13    1    1    2    0    0 -0.27795127477E+02  0.26006814159E+01  0.13158423516E+03  0.13451302822E+03  0.10566000000E+00 0. -1.
          4    1    1    2  501    0 -0.12325397920E+02  0.17396664804E+01  0.26266105967E+02  0.29066306886E+02  0.00000000000E+00 0.  1.
</event>
<event>
 5    1  0.2540860E-005  0.4813294E+03  0.7818608E-02  0.9519860E-01
         -4   -1    0    0    0  501 -0.00000000000E+00  0.00000000000E+00  0.97511317791E+03  0.97511317791E+03  0.00000000000E+00 0. -1.
         21   -1    0    0  501  502  0.00000000000E+00 -0.00000000000E+00 -0.59245182315E+03  0.59245182315E+03  0.00000000000E+00 0.  1.
        -13    1    1    2    0    0 -0.37810693356E+03 -0.31793533297E+03 -0.37624131760E+03  0.62097123073E+03  0.10566000000E+00 0.  1.
         13    1    1    2    0    0  0.36887351431E+03  0.30652712983E+03  0.78309697256E+03  0.91829593840E+03  0.10566000000E+00 0. -1.
         -4    1    1    2    0  502  0.92334192524E+01  0.11408203143E+02 -0.24194300197E+02  0.28297831932E+02  0.00000000000E+00 0. -1.
</event>
<event>
 5    1  0.2883225E-005  0.4511120E+03  0.7818608E-02  0.9976713E-01
         21   -1    0    0  501  502  0.00000000000E+00  0.00000000000E+00  0.10317250425E+04  0.10317250425E+04  0.00000000000E+00 0.  1.
          4   -1    0    0  502    0 -0.00000000000E+00 -0.00000000000E+00 -0.57791758007E+03  0.57791758007E+03  0.00000000000E+00 0.  1.
        -13    1    1    2    0    0  0.18714679445E+01  0.36682090294E+03  0.17666493474E+02  0.36725085893E+03  0.10566000000E+00 0.  1.
         13    1    1    2    0    0 -0.24824564069E+02  0.11822407973E+03 -0.32096448168E+03  0.34294518756E+03  0.10566000000E+00 0. -1.
          4    1    1    2  501    0  0.22953096125E+02 -0.48504498267E+03  0.75710545068E+03  0.89944657612E+03  0.00000000000E+00 0.  1.
</event>
<event>
 5    1  0.2540860E-005  0.4106210E+03  0.7818608E-02  0.9835062E-01
          4   -1    0    0  502    0 -0.00000000000E+00  0.00000000000E+00  0.13944874313E+04  0.13944874313E+04  0.00000000000E+00 0.  1.
         21   -1    0    0  501  502  0.00000000000E+00 -0.00000000000E+00 -0.30170573215E+03  0.30170573215E+03  0.00000000000E+00 0.  1.
        -13    1    1    2    0    0 -0.39113660105E+03 -0.37434060250E+02  0.50432279906E+02  0.39614716403E+03  0.10566000000E+00 0.  1.
         13    1    1    2    0    0 -0.86666129177E+02  0.24209132331E+03  0.34196692941E+03  0.42785583874E+03  0.10566000000E+00 0. -1.
          4    1    1    2  501    0  0.47780273022E+03 -0.20465726306E+03  0.70038248982E+03  0.87219016068E+03  0.00000000000E+00 0.  1.
</event>
<event>
 5    1  0.2540860E-005  0.2228751E+03  0.7818608E-02  0.1045493E+00
          4   -1    0    0  502    0 -0.00000000000E+00  0.00000000000E+00  0.45760466236E+03  0.45760466236E+03  0.00000000000E+00 0.  1.
         21   -1    0    0  501  502  0.00000000000E+00 -0.00000000000E+00 -0.22636422498E+03  0.22636422498E+03  0.00000000000E+00 0.  1.
        -13    1    1    2    0    0  0.16342173343E+03 -0.16812427672E+03  0.20103565769E+03  0.30884912531E+03  0.10566000000E+00 0.  1.
         13    1    1    2    0    0 -0.13305783228E+03  0.16423459834E+03  0.14499232163E+03  0.25632045279E+03  0.10566000000E+00 0. -1.
          4    1    1    2  501    0 -0.30363901154E+02  0.38896783805E+01 -0.11478754193E+03  0.11879930923E+03  0.00000000000E+00 0.  1.
</event>
<event>
 5    1  0.2540860E-005  0.4473275E+03  0.7818608E-02  0.9659926E-01
         21   -1    0    0  501  502  0.00000000000E+00  0.00000000000E+00  0.32931745581E+03  0.32931745581E+03  0.00000000000E+00 0.  1.
          4   -1    0    0  502    0 -0.00000000000E+00 -0.00000000000E+00 -0.15148269515E+04  0.15148269515E+04  0.00000000000E+00 0.  1.
        -13    1    1    2    0    0  0.14354083058E+03 -0.62898089230E+03 -0.70912806039E+03  0.95868845311E+03  0.10566000000E+00 0.  1.
         13    1    1    2    0    0  0.11217498435E+03  0.34622329411E+03 -0.20752363255E+03  0.41895091089E+03  0.10566000000E+00 0. -1.
          4    1    1    2  501    0 -0.25571581493E+03  0.28275759819E+03 -0.26885780275E+03  0.46650504332E+03  0.00000000000E+00 0.  1.
</event>
<event>
 5    1  0.2540860E-005  0.4271747E+03  0.7818608E-02  0.9951053E-01
          4   -1    0    0  502    0 -0.00000000000E+00  0.00000000000E+00  0.20283427525E+04  0.20283427525E+04  0.00000000000E+00 0.  1.
         21   -1    0    0  501  502  0.00000000000E+00 -0.00000000000E+00 -0.18774898767E+03  0.18774898767E+03  0.00000000000E+00 0.  1.
        -13    1    1    2    0    0  0.20497361055E+02 -0.35299445822E+03  0.14390242661E+04  0.14818286267E+04  0.10566000000E+00 0.  1.
         13    1    1    2    0    0 -0.12725033444E+03 -0.88235214622E+02  0.59643171339E+02  0.16593799976E+03  0.10566000000E+00 0. -1.
          4    1    1    2  501    0  0.10675297338E+03  0.44122967284E+03  0.34192632742E+03  0.56832511374E+03  0.00000000000E+00 0.  1.
</event>
<event>
 5    1  0.2540860E-005  0.4083017E+03  0.7818608E-02  0.9885514E-01
          4   -1    0    0  502    0 -0.00000000000E+00  0.00000000000E+00  0.10346339092E+04  0.10346339092E+04  0.00000000000E+00 0.  1.
         21   -1    0    0  501  502  0.00000000000E+00 -0.00000000000E+00 -0.37857610753E+03  0.37857610753E+03  0.00000000000E+00 0.  1.
        -13    1    1    2    0    0  0.24632060114E+03 -0.28136636647E+03 -0.38522679167E+02  0.37593201340E+03  0.10566000000E+00 0.  1.
         13    1    1    2    0    0  0.22044274822E+03 -0.88696086646E+01  0.20760833299E+03  0.30294373453E+03  0.10566000000E+00 0. -1.
          4    1    1    2  501    0 -0.46676334936E+03  0.29023597513E+03  0.48697214786E+03  0.73433426881E+03  0.00000000000E+00 0.  1.
</event>
<event>
 5    1  0.2540860E-005  0.2298684E+03  0.7818608E-02  0.1041388E+00
         -4   -1    0    0    0  501 -0.00000000000E+00  0.00000000000E+00  0.12189458292E+04  0.12189458292E+04  0.00000000000E+00 0. -1.
         21   -1    0    0  501  502  0.00000000000E+00 -0.00000000000E+00 -0.57388202851E+03  0.57388202851E+03  0.00000000000E+00 0. -1.
        -13    1    1    2    0    0  0.22775858165E+03 -0.24084862814E+02  0.70719783089E+03  0.74335915634E+03  0.10566000000E+00 0.  1.
         13    1    1    2    0    0 -0.24097678780E+03  0.14060393047E+03 -0.51280669583E+03  0.58378934212E+03  0.10566000000E+00 0. -1.
         -4    1    1    2    0  502  0.13218206147E+02 -0.11651906766E+03  0.45067266560E+03  0.46567935923E+03  0.00000000000E+00 0. -1.
</event>
<event>
 5    1  0.2540860E-005  0.4830792E+03  0.7818608E-02  0.9908651E-01
          4   -1    0    0  502    0 -0.00000000000E+00  0.00000000000E+00  0.61443503019E+03  0.61443503019E+03  0.00000000000E+00 0.  1.
         21   -1    0    0  501  502  0.00000000000E+00 -0.00000000000E+00 -0.57104294047E+03  0.57104294047E+03  0.00000000000E+00 0.  1.
        -13    1    1    2    0    0 -0.54469767765E+03  0.41618595378E+02  0.76485467267E+02  0.55161372842E+03  0.10566000000E+00 0.  1.
         13    1    1    2    0    0  0.10550439220E+03  0.63774764626E+02  0.10460280220E+03  0.16167917234E+03  0.10566000000E+00 0. -1.
          4    1    1    2  501    0  0.43919328545E+03 -0.10539336000E+03 -0.13769617975E+03  0.47218506990E+03  0.00000000000E+00 0.  1.
</event>
<event>
 5    1  0.2540860E-005  0.2438409E+02  0.7818608E-02  0.1489039E+00
          4   -1    0    0  502    0 -0.00000000000E+00  0.00000000000E+00  0.66038455571E+02  0.66038455571E+02  0.00000000000E+00 0.  1.
         21   -1    0    0  501  502  0.00000000000E+00 -0.00000000000E+00 -0.30383303471E+02  0.30383303471E+02  0.00000000000E+00 0.  1.
        -13    1    1    2    0    0 -0.22152771974E+02  0.19341890666E+01 -0.28725879563E+01  0.22422072141E+02  0.10566000000E+00 0.  1.
         13    1    1    2    0    0 -0.18039055241E+01  0.14838926873E+02  0.41970291441E+02  0.44552938776E+02  0.10566000000E+00 0. -1.
          4    1    1    2  501    0  0.23956677498E+02 -0.16773115940E+02 -0.34425513856E+01  0.29446748125E+02  0.00000000000E+00 0.  1.
</event>
<event>
 5    1  0.2540860E-005  0.1364061E+03  0.7818608E-02  0.1133451E+00
          4   -1    0    0  502    0 -0.00000000000E+00  0.00000000000E+00  0.35920909974E+02  0.35920909974E+02  0.00000000000E+00 0.  1.
         21   -1    0    0  501  502  0.00000000000E+00 -0.00000000000E+00 -0.96264862161E+03  0.96264862161E+03  0.00000000000E+00 0.  1.
        -13    1    1    2    0    0  0.14064241176E+03 -0.89554666967E+02 -0.44785734365E+03  0.47788757861E+03  0.10566000000E+00 0.  1.
         13    1    1    2    0    0 -0.84100500776E+02 -0.14280746284E+02 -0.22507867024E+03  0.24070158476E+03  0.10566000000E+00 0. -1.
          4    1    1    2  501    0 -0.56541910981E+02  0.10383541325E+03 -0.25379169774E+03  0.27998036822E+03  0.00000000000E+00 0.  1.
</event>
<event>
 5    1  0.2540860E-005  0.1652817E+03  0.7818608E-02  0.1086946E+00
         21   -1    0    0  501  502  0.00000000000E+00  0.00000000000E+00  0.74412942089E+02  0.74412942089E+02  0.00000000000E+00 0. -1.
         -4   -1    0    0    0  501 -0.00000000000E+00 -0.00000000000E+00 -0.60128207641E+03  0.60128207641E+03  0.00000000000E+00 0. -1.
        -13    1    1    2    0    0  0.13723437996E+03 -0.91312997411E+02 -0.14837892928E+03  0.22178290367E+03  0.10566000000E+00 0.  1.
         13    1    1    2    0    0 -0.12985224645E+03  0.10286452087E+03 -0.39740594822E+03  0.43055105900E+03  0.10566000000E+00 0. -1.
         -4    1    1    2    0  502 -0.73821335119E+01 -0.11551523458E+02  0.18915743183E+02  0.23361055831E+02  0.00000000000E+00 0. -1.
</event>
<event>
 5    1  0.2540860E-005  0.6997166E+02  0.7818608E-02  0.1232035E+00
          4   -1    0    0  502    0 -0.00000000000E+00  0.00000000000E+00  0.34663630194E+03  0.34663630194E+03  0.00000000000E+00 0.  1.
         21   -1    0    0  501  502  0.00000000000E+00 -0.00000000000E+00 -0.18076575849E+03  0.18076575849E+03  0.00000000000E+00 0.  1.
        -13    1    1    2    0    0  0.16058864327E+02  0.57083014317E+02  0.26757298302E+03  0.27406508360E+03  0.10566000000E+00 0.  1.
         13    1    1    2    0    0 -0.65469677111E+02 -0.10662698503E+03  0.55869000992E+01  0.12524702461E+03  0.10566000000E+00 0. -1.
          4    1    1    2  501    0  0.49410812784E+02  0.49543970713E+02 -0.10728933966E+03  0.12808995222E+03  0.00000000000E+00 0.  1.
</event>
<event>
 5    1  0.2540860E-005  0.4227739E+03  0.7818608E-02  0.9770220E-01
         21   -1    0    0  501  502  0.00000000000E+00  0.00000000000E+00  0.45797507091E+03  0.45797507091E+03  0.00000000000E+00 0. -1.
         -4   -1    0    0    0  501 -0.00000000000E+00 -0.00000000000E+00 -0.97970268707E+03  0.97970268707E+03  0.00000000000E+00 0. -1.
        -13    1    1    2    0    0 -0.20831182409E+02  0.29319556263E+03 -0.19270377640E+03  0.35147166700E+03  0.10566000000E+00 0.  1.
         13    1    1    2    0    0  0.41908635103E+03  0.15254009360E+02  0.92416079136E+02  0.42942612551E+03  0.10566000000E+00 0. -1.
         -4    1    1    2    0  502 -0.39825516862E+03 -0.30844957199E+03 -0.42143991890E+03  0.65677996546E+03  0.00000000000E+00 0. -1.
</event>
<event>
 5    1  0.2540860E-005  0.2004986E+03  0.7818608E-02  0.1059795E+00
         21   -1    0    0  501  502  0.00000000000E+00  0.00000000000E+00  0.13931286991E+03  0.13931286991E+03  0.00000000000E+00 0. -1.
          4   -1    0    0  502    0 -0.00000000000E+00 -0.00000000000E+00 -0.32837387698E+03  0.32837387698E+03  0.00000000000E+00 0.  1.
        -13    1    1    2    0    0 -0.18898326607E+03  0.67643213499E+02 -0.13223771751E+03  0.24036868407E+03  0.10566000000E+00 0.  1.
         13    1    1    2    0    0  0.19212811118E+03 -0.56899103702E+02 -0.67901114649E+02  0.21156864523E+03  0.10566000000E+00 0. -1.
          4    1    1    2  501    0 -0.31448451101E+01 -0.10744109798E+02  0.11077825078E+02  0.15749417594E+02  0.00000000000E+00 0.  1.
</event>
<event>
 5    1  0.2540860E-005  0.1203858E+03  0.7818608E-02  0.1134640E+00
          4   -1    0    0  502    0 -0.00000000000E+00  0.00000000000E+00  0.51499327751E+03  0.51499327751E+03  0.00000000000E+00 0.  1.
         21   -1    0    0  501  502  0.00000000000E+00 -0.00000000000E+00 -0.82731047789E+02  0.82731047789E+02  0.00000000000E+00 0. -1.
        -13    1    1    2    0    0  0.10068284659E+03  0.59219683210E+02  0.66209456064E+02  0.13426730694E+03  0.10566000000E+00 0.  1.
         13    1    1    2    0    0 -0.11184481459E+03 -0.47546406289E+02  0.40417672323E+03  0.42205302755E+03  0.10566000000E+00 0. -1.
          4    1    1    2  501    0  0.11161967997E+02 -0.11673276921E+02 -0.38123949573E+02  0.41403990806E+02  0.00000000000E+00 0.  1.
</event>
<event>
 5    1  0.2540860E-005  0.1724011E+03  0.7818608E-02  0.1080901E+00
         21   -1    0    0  501  502  0.00000000000E+00  0.00000000000E+00  0.13769718157E+04  0.13769718157E+04  0.00000000000E+00 0. -1.
         -4   -1    0    0    0  501 -0.00000000000E+00 -0.00000000000E+00 -0.14589165777E+03  0.14589165777E+03  0.00000000000E+00 0. -1.
        -13    1    1    2    0    0  0.25346475347E+02  0.17967216263E+03  0.18342044436E+03  0.25800697744E+03  0.10566000000E+00 0.  1.
         13    1    1    2    0    0 -0.12987212740E+02 -0.16926504150E+03 -0.42158074589E+02  0.17491894233E+03  0.10566000000E+00 0. -1.
         -4    1    1    2    0  502 -0.12359262607E+02 -0.10407121125E+02  0.10898177881E+04  0.10899375537E+04  0.00000000000E+00 0. -1.
</event>
<event>
 5    1  0.2540860E-005  0.4558974E+03  0.7818608E-02  0.9580256E-01
         21   -1    0    0  501  502  0.00000000000E+00  0.00000000000E+00  0.41362622508E+03  0.41362622508E+03  0.00000000000E+00 0.  1.
          4   -1    0    0  502    0 -0.00000000000E+00 -0.00000000000E+00 -0.12742222012E+04  0.12742222012E+04  0.00000000000E+00 0.  1.
        -13    1    1    2    0    0  0.31864661226E+03  0.45410492067E+03 -0.75317373405E+03  0.93542376884E+03  0.10566000000E+00 0.  1.
         13    1    1    2    0    0 -0.35890112964E+03 -0.98488881102E+02 -0.12898814817E+03  0.39388835232E+03  0.10566000000E+00 0. -1.
          4    1    1    2  501    0  0.40254517383E+02 -0.35561603957E+03  0.21565906133E+02  0.35853630510E+03  0.00000000000E+00 0.  1.
</event>
<event>
 5    1  0.2540860E-005  0.1719384E+03  0.7818608E-02  0.1081284E+00
         -4   -1    0    0    0  501 -0.00000000000E+00  0.00000000000E+00  0.29045296070E+03  0.29045296070E+03  0.00000000000E+00 0. -1.
         21   -1    0    0  501  502  0.00000000000E+00 -0.00000000000E+00 -0.20821948861E+04  0.20821948861E+04  0.00000000000E+00 0. -1.
        -13    1    1    2    0    0 -0.32122573141E+02 -0.14921176205E+03  0.14208748598E+03  0.20853027232E+03  0.10566000000E+00 0.  1.
         13    1    1    2    0    0  0.36167471211E+02  0.25385403742E+03 -0.30858797940E+02  0.25826775808E+03  0.10566000000E+00 0. -1.
         -4    1    1    2    0  502 -0.40448980702E+01 -0.10464227538E+03 -0.19029706134E+04  0.19058498164E+04  0.00000000000E+00 0. -1.
</event>
<event>
 5    1  0.2540860E-005  0.8065151E+03  0.7818608E-02  0.9180287E-01
         21   -1    0    0  501  502  0.00000000000E+00  0.00000000000E+00  0.99964042147E+03  0.99964042147E+03  0.00000000000E+00 0. -1.
         -4   -1    0    0    0  501 -0.00000000000E+00 -0.00000000000E+00 -0.12104711646E+04  0.12104711646E+04  0.00000000000E+00 0. -1.
        -13    1    1    2    0    0  0.35248270979E+03  0.97394488963E+02  0.20309007880E+02  0.36625430256E+03  0.10566000000E+00 0.  1.
         13    1    1    2    0    0 -0.16266261629E+03 -0.87136051991E+03 -0.48124862789E+03  0.10086270547E+04  0.10566000000E+00 0. -1.
         -4    1    1    2    0  502 -0.18982009350E+03  0.77396603094E+03  0.25010887684E+03  0.83523022888E+03  0.00000000000E+00 0. -1.
</event>
<event>
 5    1  0.2540860E-005  0.2503169E+03  0.7818608E-02  0.1030229E+00
          4   -1    0    0  502    0 -0.00000000000E+00  0.00000000000E+00  0.12132465959E+04  0.12132465959E+04  0.00000000000E+00 0.  1.
         21   -1    0    0  501  502  0.00000000000E+00 -0.00000000000E+00 -0.75564764620E+02  0.75564764620E+02  0.00000000000E+00 0. -1.
        -13    1    1    2    0    0 -0.13073348826E+03 -0.22691350865E+03  0.82705190163E+03  0.86752282075E+03  0.10566000000E+00 0.  1.
         13    1    1    2    0    0  0.95563499902E+02  0.19970738264E+03  0.18664559983E+03  0.28957211933E+03  0.10566000000E+00 0. -1.
          4    1    1    2  501    0  0.35169988355E+02  0.27206126005E+02  0.12398432986E+03  0.13171642048E+03  0.00000000000E+00 0.  1.
</event>
<event>
 5    1  0.2540860E-005  0.7292152E+02  0.7818608E-02  0.1219264E+00
          4   -1    0    0  502    0 -0.00000000000E+00  0.00000000000E+00  0.36339034669E+03  0.36339034669E+03  0.00000000000E+00 0.  1.
         21   -1    0    0  501  502  0.00000000000E+00 -0.00000000000E+00 -0.32742585263E+02  0.32742585263E+02  0.00000000000E+00 0.  1.
        -13    1    1    2    0    0  0.54754181703E+02  0.58541321919E+02  0.27895487115E+03  0.29024289498E+03  0.10566000000E+00 0.  1.
         13    1    1    2    0    0 -0.48790653002E+02 -0.30993206103E+02  0.51928927736E+02  0.77702840004E+02  0.10566000000E+00 0. -1.
          4    1    1    2  501    0 -0.59635287010E+01 -0.27548115816E+02 -0.23603744878E+00  0.28187196974E+02  0.00000000000E+00 0.  1.
</event>
<event>
 5    1  0.2540860E-005  0.4803486E+03  0.7818608E-02  0.9821900E-01
         21   -1    0    0  501  502  0.00000000000E+00  0.00000000000E+00  0.13120785401E+03  0.13120785401E+03  0.00000000000E+00 0.  1.
          4   -1    0    0  502    0 -0.00000000000E+00 -0.00000000000E+00 -0.27437468980E+04  0.27437468980E+04  0.00000000000E+00 0.  1.
        -13    1    1    2    0    0 -0.51239488022E+03  0.11792653055E+03 -0.70326741898E+03  0.87808897820E+03  0.10566000000E+00 0.  1.
         13    1    1    2    0    0  0.14763491047E+03  0.80102967951E+02 -0.62608184064E+03  0.64822143949E+03  0.10566000000E+00 0. -1.
          4    1    1    2  501    0  0.36475996975E+03 -0.19802949850E+03 -0.12831897843E+04  0.13486443343E+04  0.00000000000E+00 0.  1.
</event>
<event>
 5    1  0.2540860E-005  0.4992309E+03  0.7818608E-02  0.9788938E-01
         21   -1    0    0  501  502  0.00000000000E+00  0.00000000000E+00  0.30595776998E+03  0.30595776998E+03  0.00000000000E+00 0.  1.
          4   -1    0    0  502    0 -0.00000000000E+00 -0.00000000000E+00 -0.18023404900E+04  0.18023404900E+04  0.00000000000E+00 0.  1.
        -13    1    1    2    0    0  0.46069906120E+03  0.36181375301E+03 -0.29844142488E+03  0.65743449264E+03  0.10566000000E+00 0.  1.
         13    1    1    2    0    0 -0.15778475971E+03 -0.55972946893E+02 -0.92752365366E+03  0.94251214339E+03  0.10566000000E+00 0. -1.
          4    1    1    2  501    0 -0.30291430150E+03 -0.30584080611E+03 -0.27041764144E+03  0.50835162392E+03  0.00000000000E+00 0.  1.
</event>
<event>
 5    1  0.2540860E-005  0.4791226E+03  0.7818608E-02  0.9664561E-01
         -4   -1    0    0    0  501 -0.00000000000E+00  0.00000000000E+00  0.18981217020E+04  0.18981217020E+04  0.00000000000E+00 0. -1.
         21   -1    0    0  501  502  0.00000000000E+00 -0.00000000000E+00 -0.23207845828E+03  0.23207845828E+03  0.00000000000E+00 0. -1.
        -13    1    1    2    0    0  0.45291528141E+02 -0.28786708957E+03  0.29440386957E+03  0.41423717043E+03  0.10566000000E+00 0.  1.
         13    1    1    2    0    0 -0.31088793096E+03 -0.20730523379E+03  0.92679497411E+03  0.99928759662E+03  0.10566000000E+00 0. -1.
         -4    1    1    2    0  502  0.26559640282E+03  0.49517232337E+03  0.44484440005E+03  0.71667539324E+03  0.00000000000E+00 0. -1.
</event>
<event>
 5    1  0.2540860E-005  0.4255566E+03  0.7818608E-02  0.9658012E-01
         21   -1    0    0  501  502  0.00000000000E+00  0.00000000000E+00  0.20172995110E+03  0.20172995110E+03  0.00000000000E+00 0.  1.
         -4   -1    0    0    0  501 -0.00000000000E+00 -0.00000000000E+00 -0.14835875185E+04  0.14835875185E+04  0.00000000000E+00 0. -1.
        -13    1    1    2    0    0  0.50313492440E+01  0.42537104803E+03 -0.22626803741E+03  0.48183304048E+03  0.10566000000E+00 0.  1.
         13    1    1    2    0    0 -0.42221583531E+02 -0.42390009856E+03 -0.10786336217E+04  0.11597087809E+04  0.10566000000E+00 0. -1.
         -4    1    1    2    0  502  0.37190234287E+02 -0.14709494697E+01  0.23044091621E+02  0.43775648222E+02  0.00000000000E+00 0. -1.
</event>
<event>
 5    1  0.2540860E-005  0.4802870E+03  0.7818608E-02  0.9772560E-01
         -4   -1    0    0    0  501 -0.00000000000E+00  0.00000000000E+00  0.27966170551E+04  0.27966170551E+04  0.00000000000E+00 0. -1.
         21   -1    0    0  501  502  0.00000000000E+00 -0.00000000000E+00 -0.15291688564E+03  0.15291688564E+03  0.00000000000E+00 0. -1.
        -13    1    1    2    0    0  0.55841936548E+02 -0.19087577566E+03  0.10170661926E+04  0.10363279090E+04  0.10566000000E+00 0.  1.
         13    1    1    2    0    0 -0.34334664633E+03 -0.28310200431E+03  0.60746757217E+03  0.75302757373E+03  0.10566000000E+00 0. -1.
         -4    1    1    2    0  502  0.28750470978E+03  0.47397777997E+03  0.10191664047E+04  0.11601784580E+04  0.00000000000E+00 0. -1.
</event>
<event>
 5    1  0.2540860E-005  0.3616225E+03  0.7818608E-02  0.9846940E-01
          4   -1    0    0  502    0 -0.00000000000E+00  0.00000000000E+00  0.15591799212E+04  0.15591799212E+04  0.00000000000E+00 0.  1.
         21   -1    0    0  501  502  0.00000000000E+00 -0.00000000000E+00 -0.35704030237E+03  0.35704030237E+03  0.00000000000E+00 0.  1.
        -13    1    1    2    0    0 -0.15263320902E+03 -0.60577184694E+03  0.10664705905E+03  0.63374287642E+03  0.10566000000E+00 0.  1.
         13    1    1    2    0    0  0.16892553323E+03  0.28033488346E+03  0.67811171492E+03  0.75296679325E+03  0.10566000000E+00 0. -1.
          4    1    1    2  501    0 -0.16292324209E+02  0.32543696348E+03  0.41738084485E+03  0.52951055389E+03  0.00000000000E+00 0.  1.
</event>
<event>
 5    1  0.2540860E-005  0.5574659E+03  0.7818608E-02  0.9424358E-01
         21   -1    0    0  501  502  0.00000000000E+00  0.00000000000E+00  0.80475954505E+03  0.80475954505E+03  0.00000000000E+00 0.  1.
          4   -1    0    0  502    0 -0.00000000000E+00 -0.00000000000E+00 -0.15087719218E+04  0.15087719218E+04  0.00000000000E+00 0.  1.
        -13    1    1    2    0    0  0.25232621500E+03  0.19929896955E+03 -0.22196563104E+03  0.39071389861E+03  0.10566000000E+00 0.  1.
         13    1    1    2    0    0 -0.39863399495E+03  0.48530159810E+03 -0.90749359954E+03  0.11036173918E+04  0.10566000000E+00 0. -1.
          4    1    1    2  501    0  0.14630777995E+03 -0.68460056765E+03  0.42544685382E+03  0.81920017647E+03  0.00000000000E+00 0.  1.
</event>
<event>
 5    1  0.2540860E-005  0.3022491E+03  0.7818608E-02  0.1014294E+00
         -4   -1    0    0    0  501 -0.00000000000E+00  0.00000000000E+00  0.79502668914E+03  0.79502668914E+03  0.00000000000E+00 0. -1.
         21   -1    0    0  501  502  0.00000000000E+00 -0.00000000000E+00 -0.77248395326E+03  0.77248395326E+03  0.00000000000E+00 0. -1.
        -13    1    1    2    0    0 -0.34054524065E+03  0.42565543917E+02  0.32157774665E+03  0.47031387898E+03  0.10566000000E+00 0.  1.
         13    1    1    2    0    0 -0.23068619850E+03 -0.72915468256E+02 -0.44527991901E+03  0.50676129008E+03  0.10566000000E+00 0. -1.
         -4    1    1    2    0  502  0.57123143915E+03  0.30349924338E+02  0.14624490824E+03  0.59043547333E+03  0.00000000000E+00 0. -1.
</event>
<event>
 5    1  0.2540860E-005  0.1671220E+03  0.7818608E-02  0.1085353E+00
         21   -1    0    0  501  502  0.00000000000E+00  0.00000000000E+00  0.13202154226E+03  0.13202154226E+03  0.00000000000E+00 0. -1.
         -4   -1    0    0    0  501 -0.00000000000E+00 -0.00000000000E+00 -0.40401233717E+03  0.40401233717E+03  0.00000000000E+00 0. -1.
        -13    1    1    2    0    0 -0.16053017533E+03 -0.24455076050E+02 -0.86834742596E+02  0.18414198767E+03  0.10566000000E+00 0.  1.
         13    1    1    2    0    0  0.16883185252E+03  0.18101395047E+02 -0.24114883627E+03  0.29493156380E+03  0.10566000000E+00 0. -1.
         -4    1    1    2    0  502 -0.83016771923E+01  0.63536810029E+01  0.55992783949E+02  0.56960327956E+02  0.00000000000E+00 0. -1.
</event>
<event>
 5    1  0.2540860E-005  0.1421656E+03  0.7818608E-02  0.1109106E+00
         21   -1    0    0  501  502  0.00000000000E+00  0.00000000000E+00  0.20737657823E+03  0.20737657823E+03  0.00000000000E+00 0.  1.
         -4   -1    0    0    0  501 -0.00000000000E+00 -0.00000000000E+00 -0.25878743196E+03  0.25878743196E+03  0.00000000000E+00 0. -1.
        -13    1    1    2    0    0 -0.63199666256E+02  0.89443174949E+02  0.42047998391E+02  0.11731293489E+03  0.10566000000E+00 0.  1.
         13    1    1    2    0    0  0.72736993350E+02 -0.13527712017E+03 -0.18835246928E+03  0.24303751416E+03  0.10566000000E+00 0. -1.
         -4    1    1    2    0  502 -0.95373270941E+01  0.45833945221E+02  0.94893617157E+02  0.10581356113E+03  0.00000000000E+00 0. -1.
</event>
<event>
 5    1  0.2540860E-005  0.1045972E+04  0.7818608E-02  0.8732556E-01
         -4   -1    0    0    0  501 -0.00000000000E+00  0.00000000000E+00  0.40580068192E+04  0.40580068192E+04  0.00000000000E+00 0. -1.
         21   -1    0    0  501  502  0.00000000000E+00 -0.00000000000E+00 -0.36730014341E+03  0.36730014341E+03  0.00000000000E+00 0. -1.
        -13    1    1    2    0    0  0.18090205543E+03 -0.99896192354E+03  0.16285023809E+04  0.19190285288E+04  0.10566000000E+00 0.  1.
         13    1    1    2    0    0 -0.28048728079E+03  0.10376273124E+04  0.21257004266E+04  0.23820045905E+04  0.10566000000E+00 0. -1.
         -4    1    1    2    0  502  0.99585225367E+02 -0.38665388847E+02 -0.63496131742E+02  0.12427384340E+03  0.00000000000E+00 0. -1.
</event>
<event>
 5    1  0.2540860E-005  0.3119306E+03  0.7818608E-02  0.1002499E+00
         21   -1    0    0  501  502  0.00000000000E+00  0.00000000000E+00  0.15313461596E+03  0.15313461596E+03  0.00000000000E+00 0. -1.
          4   -1    0    0  502    0 -0.00000000000E+00 -0.00000000000E+00 -0.12773650216E+04  0.12773650216E+04  0.00000000000E+00 0.  1.
        -13    1    1    2    0    0  0.60888740912E+02 -0.30162098937E+03 -0.91932250748E+03  0.96945167179E+03  0.10566000000E+00 0.  1.
         13    1    1    2    0    0 -0.84228600098E+02  0.31494207597E+03 -0.24844296653E+03  0.40988643192E+03  0.10566000000E+00 0. -1.
          4    1    1    2  501    0  0.23339859186E+02 -0.13321086599E+02  0.43535068330E+02  0.51161533885E+02  0.00000000000E+00 0.  1.
</event>
<event>
 5    1  0.2540860E-005  0.2313916E+03  0.7818608E-02  0.1040514E+00
         21   -1    0    0  501  502  0.00000000000E+00  0.00000000000E+00  0.11725354158E+03  0.11725354158E+03  0.00000000000E+00 0. -1.
          4   -1    0    0  502    0 -0.00000000000E+00 -0.00000000000E+00 -0.82604160749E+03  0.82604160749E+03  0.00000000000E+00 0.  1.
        -13    1    1    2    0    0 -0.56609564511E+02 -0.21692752832E+03 -0.49504467081E+03  0.54344404734E+03  0.10566000000E+00 0.  1.
         13    1    1    2    0    0  0.16853601703E+02  0.24987329535E+03 -0.23554374154E+03  0.34380455635E+03  0.10566000000E+00 0. -1.
          4    1    1    2  501    0  0.39755962808E+02 -0.32945767038E+02  0.21800346436E+02  0.56046545382E+02  0.00000000000E+00 0.  1.
</event>
<event>
 5    1  0.2540860E-005  0.1496007E+03  0.7818608E-02  0.1171669E+00
         21   -1    0    0  501  502  0.00000000000E+00  0.00000000000E+00  0.25650981643E+03  0.25650981643E+03  0.00000000000E+00 0. -1.
         -4   -1    0    0    0  501 -0.00000000000E+00 -0.00000000000E+00 -0.12892813338E+04  0.12892813338E+04  0.00000000000E+00 0. -1.
        -13    1    1    2    0    0  0.25110569175E+02  0.17874160985E+01 -0.82038397913E+02  0.85814016552E+02  0.10566000000E+00 0.  1.
         13    1    1    2    0    0 -0.14248150350E+03  0.47000219219E+02  0.22880583759E+03  0.27360943318E+03  0.10566000000E+00 0. -1.
         -4    1    1    2    0  502  0.11737093433E+03 -0.48787635317E+02 -0.11795389570E+04  0.11863677005E+04  0.00000000000E+00 0. -1.
</event>
<event>
 5    1  0.2540860E-005  0.7696481E+02  0.7818608E-02  0.1209555E+00
         -4   -1    0    0    0  501 -0.00000000000E+00  0.00000000000E+00  0.62398912552E+03  0.62398912552E+03  0.00000000000E+00 0. -1.
         21   -1    0    0  501  502  0.00000000000E+00 -0.00000000000E+00 -0.14176369476E+02  0.14176369476E+02  0.00000000000E+00 0.  1.
        -13    1    1    2    0    0  0.33950334014E+02 -0.58940276536E+02  0.14533671067E+03  0.16046604629E+03  0.10566000000E+00 0.  1.
         13    1    1    2    0    0 -0.50735713128E+02  0.63991040935E+02  0.44046176242E+03  0.44796823685E+03  0.10566000000E+00 0. -1.
         -4    1    1    2    0  502  0.16785379114E+02 -0.50507643994E+01  0.24014282942E+02  0.29731211853E+02  0.00000000000E+00 0. -1.
</event>
<event>
 5    1  0.2540860E-005  0.5143938E+03  0.7818608E-02  0.9446970E-01
         21   -1    0    0  501  502  0.00000000000E+00  0.00000000000E+00  0.48948925855E+03  0.48948925855E+03  0.00000000000E+00 0.  1.
          4   -1    0    0  502    0 -0.00000000000E+00 -0.00000000000E+00 -0.15833415011E+04  0.15833415011E+04  0.00000000000E+00 0.  1.
        -13    1    1    2    0    0 -0.35463364409E+03 -0.35827462024E+03 -0.62009571127E+03  0.79915231798E+03  0.10566000000E+00 0.  1.
         13    1    1    2    0    0  0.53805705139E+03  0.15749790171E+03 -0.71607372934E+03  0.90943530645E+03  0.10566000000E+00 0. -1.
          4    1    1    2  501    0 -0.18342340730E+03  0.20077671853E+03  0.24231719809E+03  0.36424313519E+03  0.00000000000E+00 0.  1.
</event>
<event>
 5    1  0.2540860E-005  0.1312797E+03  0.7818608E-02  0.1121196E+00
         -4   -1    0    0    0  501 -0.00000000000E+00  0.00000000000E+00  0.22878211446E+03  0.22878211446E+03  0.00000000000E+00 0. -1.
         21   -1    0    0  501  502  0.00000000000E+00 -0.00000000000E+00 -0.29293220787E+03  0.29293220787E+03  0.00000000000E+00 0.  1.
        -13    1    1    2    0    0 -0.38008420619E+02  0.69680547377E+02 -0.13818884473E+03  0.15936181065E+03  0.10566000000E+00 0.  1.
         13    1    1    2    0    0  0.10595161593E+03 -0.91938948107E+02  0.18388752601E+03  0.23128585881E+03  0.10566000000E+00 0. -1.
         -4    1    1    2    0  502 -0.67943195314E+02  0.22258400729E+02 -0.10984877469E+03  0.13106665287E+03  0.00000000000E+00 0. -1.
</event>
<event>
 5    1  0.2540860E-005  0.4672216E+03  0.7818608E-02  0.9604144E-01
         21   -1    0    0  501  502  0.00000000000E+00  0.00000000000E+00  0.77486781200E+03  0.77486781200E+03  0.00000000000E+00 0. -1.
         -4   -1    0    0    0  501 -0.00000000000E+00 -0.00000000000E+00 -0.77308612284E+03  0.77308612284E+03  0.00000000000E+00 0. -1.
        -13    1    1    2    0    0 -0.51573403843E+02 -0.38555188781E+03 -0.20602027847E+03  0.44017546556E+03  0.10566000000E+00 0.  1.
         13    1    1    2    0    0  0.29534341407E+03 -0.12004492897E+03 -0.23234410733E+03  0.39448993977E+03  0.10566000000E+00 0. -1.
         -4    1    1    2    0  502 -0.24377001023E+03  0.50559681678E+03  0.44014607496E+03  0.71328852950E+03  0.00000000000E+00 0. -1.
</event>
<event>
 5    1  0.2540860E-005  0.3653579E+03  0.7818608E-02  0.9867420E-01
         -4   -1    0    0    0  501 -0.00000000000E+00  0.00000000000E+00  0.26308904248E+04  0.26308904248E+04  0.00000000000E+00 0. -1.
         21   -1    0    0  501  502  0.00000000000E+00 -0.00000000000E+00 -0.25185968872E+03  0.25185968872E+03  0.00000000000E+00 0. -1.
        -13    1    1    2    0    0  0.31087917926E+03 -0.10213889922E+03  0.14659243777E+04  0.15020028333E+04  0.10566000000E+00 0.  1.
         13    1    1    2    0    0  0.29012567848E+03  0.14642659513E+03  0.51099512495E+02  0.32897542221E+03  0.10566000000E+00 0. -1.
         -4    1    1    2    0  502 -0.60100485774E+03 -0.44287695913E+02  0.86200684587E+03  0.10517718580E+04  0.00000000000E+00 0. -1.
</event>
<event>
 5    1  0.2540860E-005  0.9789363E+03  0.7818608E-02  0.8794638E-01
          4   -1    0    0  502    0 -0.00000000000E+00  0.00000000000E+00  0.49879005584E+04  0.49879005584E+04  0.00000000000E+00 0.  1.
         21   -1    0    0  501  502  0.00000000000E+00 -0.00000000000E+00 -0.23755630594E+03  0.23755630594E+03  0.00000000000E+00 0. -1.
        -13    1    1    2    0    0  0.92235346626E+03 -0.36139877952E+03  0.13806908167E+04  0.16993093117E+04  0.10566000000E+00 0.  1.
         13    1    1    2    0    0 -0.91613077291E+03  0.33060098083E+03  0.33508615488E+04  0.34895366070E+04  0.10566000000E+00 0. -1.
          4    1    1    2  501    0 -0.62226933492E+01  0.30797798692E+02  0.18791886975E+02  0.36610945534E+02  0.00000000000E+00 0.  1.
</event>
<event>
 5    1  0.2540860E-005  0.2767926E+03  0.7818608E-02  0.1017373E+00
         21   -1    0    0  501  502  0.00000000000E+00  0.00000000000E+00  0.53830469095E+03  0.53830469095E+03  0.00000000000E+00 0.  1.
          4   -1    0    0  502    0 -0.00000000000E+00 -0.00000000000E+00 -0.28282599886E+03  0.28282599886E+03  0.00000000000E+00 0.  1.
        -13    1    1    2    0    0  0.20127084370E+03  0.19748846908E+03 -0.42983005584E+01  0.28201087655E+03  0.10566000000E+00 0.  1.
         13    1    1    2    0    0 -0.21665339496E+03 -0.16578010664E+03 -0.41650531632E+01  0.27283529122E+03  0.10566000000E+00 0. -1.
          4    1    1    2  501    0  0.15382551253E+02 -0.31708362435E+02  0.26394204581E+03  0.26628452204E+03  0.00000000000E+00 0.  1.
</event>
<event>
 5    1  0.2540860E-005  0.2741025E+03  0.7818608E-02  0.1029992E+00
          4   -1    0    0  502    0 -0.00000000000E+00  0.00000000000E+00  0.26006386287E+04  0.26006386287E+04  0.00000000000E+00 0.  1.
         21   -1    0    0  501  502  0.00000000000E+00 -0.00000000000E+00 -0.32003111473E+03  0.32003111473E+03  0.00000000000E+00 0.  1.
        -13    1    1    2    0    0 -0.15991025180E+03 -0.15911914640E+03 -0.19885289525E+03  0.30072026286E+03  0.10566000000E+00 0.  1.
         13    1    1    2    0    0 -0.26596561045E+03  0.19104358527E+03  0.16991107461E+04  0.17303793504E+04  0.10566000000E+00 0. -1.
          4    1    1    2  501    0  0.42587586225E+03 -0.31924438873E+02  0.78034966312E+03  0.88957013021E+03  0.00000000000E+00 0.  1.
</event>
<event>
 5    1  0.2540860E-005  0.3963011E+03  0.7818608E-02  0.9739789E-01
          4   -1    0    0  502    0 -0.00000000000E+00  0.00000000000E+00  0.82054881321E+03  0.82054881321E+03  0.00000000000E+00 0.  1.
         21   -1    0    0  501  502  0.00000000000E+00 -0.00000000000E+00 -0.51903477407E+03  0.51903477407E+03  0.00000000000E+00 0.  1.
        -13    1    1    2    0    0 -0.39567291230E+03  0.28139373988E+03  0.34635454559E+03  0.59640671759E+03  0.10566000000E+00 0.  1.
         13    1    1    2    0    0  0.12913158903E+03 -0.32613156695E+03  0.17757758382E+03  0.39315464602E+03  0.10566000000E+00 0. -1.
          4    1    1    2  501    0  0.26654132327E+03  0.44737827072E+02 -0.22241809027E+03  0.35002222367E+03  0.00000000000E+00 0.  1.
</event>
<event>
 5    1  0.2540860E-005  0.1747082E+02  0.7818608E-02  0.1548423E+00
         -4   -1    0    0    0  501 -0.00000000000E+00  0.00000000000E+00  0.12278134428E+03  0.12278134428E+03  0.00000000000E+00 0. -1.
         21   -1    0    0  501  502  0.00000000000E+00 -0.00000000000E+00 -0.10403144893E+02  0.10403144893E+02  0.00000000000E+00 0.  1.
        -13    1    1    2    0    0  0.82503106569E+01 -0.25394646107E+02  0.59871274644E+02  0.65555597536E+02  0.10566000000E+00 0.  1.
         13    1    1    2    0    0 -0.46520748145E+01  0.13606856047E+02  0.53370479536E+02  0.55273932206E+02  0.10566000000E+00 0. -1.
         -4    1    1    2    0  502 -0.35982358423E+01  0.11787790060E+02 -0.86355479219E+00  0.12354959432E+02  0.00000000000E+00 0. -1.
</event>
<event>
 5    1  0.2540860E-005  0.6742184E+03  0.7818608E-02  0.9161241E-01
          4   -1    0    0  502    0 -0.00000000000E+00  0.00000000000E+00  0.21226280607E+04  0.21226280607E+04  0.00000000000E+00 0.  1.
         21   -1    0    0  501  502  0.00000000000E+00 -0.00000000000E+00 -0.47222878736E+03  0.47222878736E+03  0.00000000000E+00 0.  1.
        -13    1    1    2    0    0  0.53042632178E+03 -0.45659459981E+03  0.62001696661E+03  0.93501431083E+03  0.10566000000E+00 0.  1.
         13    1    1    2    0    0 -0.71851762614E+03  0.40515368792E+02  0.95695142308E+03  0.11973575537E+04  0.10566000000E+00 0. -1.
          4    1    1    2  501    0  0.18809130436E+03  0.41607923102E+03  0.73430883611E+02  0.46248498346E+03  0.00000000000E+00 0.  1.
</event>
<event>
 5    1  0.2540860E-005  0.4533365E+03  0.7818608E-02  0.9737474E-01
         21   -1    0    0  501  502  0.00000000000E+00  0.00000000000E+00  0.51896845638E+03  0.51896845638E+03  0.00000000000E+00 0.  1.
         -4   -1    0    0    0  501 -0.00000000000E+00 -0.00000000000E+00 -0.82754595024E+03  0.82754595024E+03  0.00000000000E+00 0. -1.
        -13    1    1    2    0    0  0.88310585511E+02 -0.25184432467E+03 -0.10747509776E+02  0.26709519560E+03  0.10566000000E+00 0.  1.
         13    1    1    2    0    0  0.29061525506E+03 -0.10399458481E+03 -0.44280556699E+03  0.53976743275E+03  0.10566000000E+00 0. -1.
         -4    1    1    2    0  502 -0.37892584057E+03  0.35583890948E+03  0.14497558289E+03  0.53965177827E+03  0.00000000000E+00 0. -1.
</event>
<event>
 5    1  0.2540860E-005  0.4829982E+03  0.7818608E-02  0.9703152E-01
          4   -1    0    0  502    0 -0.00000000000E+00  0.00000000000E+00  0.14252403542E+04  0.14252403542E+04  0.00000000000E+00 0.  1.
         21   -1    0    0  501  502  0.00000000000E+00 -0.00000000000E+00 -0.30095014880E+03  0.30095014880E+03  0.00000000000E+00 0.  1.
        -13    1    1    2    0    0 -0.35790551103E+03  0.18084817327E+03  0.63025518508E+03  0.74701005755E+03  0.10566000000E+00 0.  1.
         13    1    1    2    0    0 -0.18324199161E+03 -0.16795164998E+03  0.33084302516E+03  0.41381457524E+03  0.10566000000E+00 0. -1.
          4    1    1    2  501    0  0.54114750263E+03 -0.12896523287E+02  0.16319199517E+03  0.56536587022E+03  0.00000000000E+00 0.  1.
</event>
<event>
 5    1  0.2540860E-005  0.4492920E+03  0.7818608E-02  0.9611949E-01
         -4   -1    0    0    0  501 -0.00000000000E+00  0.00000000000E+00  0.24560799341E+04  0.24560799341E+04  0.00000000000E+00 0. -1.
         21   -1    0    0  501  502  0.00000000000E+00 -0.00000000000E+00 -0.27820970945E+03  0.27820970945E+03  0.00000000000E+00 0. -1.
        -13    1    1    2    0    0 -0.40559921036E+03 -0.22056708043E+03  0.10855565198E+04  0.11796582239E+04  0.10566000000E+00 0.  1.
         13    1    1    2    0    0 -0.13288143518E+03  0.20091012224E+03  0.97348700011E+03  0.10028456031E+04  0.10566000000E+00 0. -1.
         -4    1    1    2    0  502  0.53848064554E+03  0.19656958191E+02  0.11882670476E+03  0.55178581659E+03  0.00000000000E+00 0. -1.
</event>
<event>
 5    1  0.2540860E-005  0.4733903E+03  0.7818608E-02  0.1012386E+00
         -4   -1    0    0    0  501 -0.00000000000E+00  0.00000000000E+00  0.11109318150E+04  0.11109318150E+04  0.00000000000E+00 0. -1.
         21   -1    0    0  501  502  0.00000000000E+00 -0.00000000000E+00 -0.26666719551E+03  0.26666719551E+03  0.00000000000E+00 0. -1.
        -13    1    1    2    0    0 -0.10293427490E+02 -0.64027135748E+02  0.10951036955E+03  0.12727121028E+03  0.10566000000E+00 0.  1.
         13    1    1    2    0    0  0.47622880303E+03 -0.13069561115E+01  0.14896162521E+03  0.49898412592E+03  0.10566000000E+00 0. -1.
         -4    1    1    2    0  502 -0.46593537554E+03  0.65334091860E+02  0.58579262469E+03  0.75134367428E+03  0.00000000000E+00 0. -1.
</event>
<event>
 5    1  0.2540860E-005  0.4885912E+02  0.7818608E-02  0.1368584E+00
         21   -1    0    0  501  502  0.00000000000E+00  0.00000000000E+00  0.19170271760E+03  0.19170271760E+03  0.00000000000E+00 0. -1.
         -4   -1    0    0    0  501 -0.00000000000E+00 -0.00000000000E+00 -0.10830238069E+03  0.10830238069E+03  0.00000000000E+00 0. -1.
        -13    1    1    2    0    0  0.11676521449E+02  0.54851037077E+01  0.15959986360E+02  0.20522179331E+02  0.10566000000E+00 0.  1.
         13    1    1    2    0    0  0.50425029367E+01  0.40750175165E+02 -0.98338718686E+02  0.10656696659E+03  0.10566000000E+00 0. -1.
         -4    1    1    2    0  502 -0.16719024386E+02 -0.46235278872E+02  0.16577906923E+03  0.17291595237E+03  0.00000000000E+00 0. -1.
</event>
<event>
 5    1  0.2540860E-005  0.2699289E+03  0.7818608E-02  0.1020553E+00
         21   -1    0    0  501  502  0.00000000000E+00  0.00000000000E+00  0.53850950879E+02  0.53850950879E+02  0.00000000000E+00 0. -1.
          4   -1    0    0  502    0 -0.00000000000E+00 -0.00000000000E+00 -0.23687708038E+04  0.23687708038E+04  0.00000000000E+00 0.  1.
        -13    1    1    2    0    0  0.28423284732E+03 -0.37248268806E+02 -0.17279307279E+04  0.17515479887E+04  0.10566000000E+00 0.  1.
         13    1    1    2    0    0 -0.23197352070E+03 -0.36424502960E+02 -0.43139401280E+03  0.49116113870E+03  0.10566000000E+00 0. -1.
          4    1    1    2  501    0 -0.52259326618E+02  0.73672771766E+02 -0.15559511217E+03  0.17991262727E+03  0.00000000000E+00 0.  1.
</event>
<event>
 5    1  0.2558732E-005  0.3610391E+03  0.7818608E-02  0.9926575E-01
         21   -1    0    0  501  502  0.00000000000E+00  0.00000000000E+00  0.12264816825E+04  0.12264816825E+04  0.00000000000E+00 0.  1.
         -4   -1    0    0    0  501 -0.00000000000E+00 -0.00000000000E+00 -0.64835418559E+03  0.64835418559E+03  0.00000000000E+00 0. -1.
        -13    1    1    2    0    0  0.40154536218E+03  0.44634419876E+03  0.80093315310E+02  0.60570353472E+03  0.10566000000E+00 0.  1.
         13    1    1    2    0    0 -0.16265942480E+03 -0.17563637920E+03 -0.30555604549E+03  0.38816328300E+03  0.10566000000E+00 0. -1.
         -4    1    1    2    0  502 -0.23888593738E+03 -0.27070781956E+03  0.80359022710E+03  0.88096905039E+03  0.00000000000E+00 0. -1.
</event>
<event>
 5    1  0.2540860E-005  0.4325615E+03  0.7818608E-02  0.1007499E+00
         -4   -1    0    0    0  501 -0.00000000000E+00  0.00000000000E+00  0.57519028754E+03  0.57519028754E+03  0.00000000000E+00 0. -1.
         21   -1    0    0  501  502  0.00000000000E+00 -0.00000000000E+00 -0.59361961619E+03  0.59361961619E+03  0.00000000000E+00 0. -1.
        -13    1    1    2    0    0  0.55748719761E+02  0.82361251149E+02  0.11149589008E+03  0.14940763071E+03  0.10566000000E+00 0.  1.
         13    1    1    2    0    0  0.28440718763E+03 -0.34592920089E+03  0.18665680152E+03  0.48517546632E+03  0.10566000000E+00 0. -1.
         -4    1    1    2    0  502 -0.34015590739E+03  0.26356794974E+03 -0.31658202024E+03  0.53422680670E+03  0.00000000000E+00 0. -1.
</event>
<event>
 5    1  0.2540860E-005  0.1122755E+03  0.7818608E-02  0.1145703E+00
         21   -1    0    0  501  502  0.00000000000E+00  0.00000000000E+00  0.92836742308E+02  0.92836742308E+02  0.00000000000E+00 0. -1.
          4   -1    0    0  502    0 -0.00000000000E+00 -0.00000000000E+00 -0.27234377166E+03  0.27234377166E+03  0.00000000000E+00 0.  1.
        -13    1    1    2    0    0 -0.82795334586E+02  0.73538622168E+02 -0.17986401745E+03  0.21122043537E+03  0.10566000000E+00 0.  1.
         13    1    1    2    0    0  0.79682900431E+02 -0.85841793097E+02 -0.30129280027E+02  0.12093784661E+03  0.10566000000E+00 0. -1.
          4    1    1    2  501    0  0.31124341555E+01  0.12303170929E+02  0.30486268128E+02  0.33022231990E+02  0.00000000000E+00 0.  1.
</event>
<event>
 5    1  0.2540860E-005  0.1267313E+03  0.7818608E-02  0.1126630E+00
          4   -1    0    0  502    0 -0.00000000000E+00  0.00000000000E+00  0.14924787176E+03  0.14924787176E+03  0.00000000000E+00 0.  1.
         21   -1    0    0  501  502  0.00000000000E+00 -0.00000000000E+00 -0.36912951383E+03  0.36912951383E+03  0.00000000000E+00 0.  1.
        -13    1    1    2    0    0  0.55532148014E+02 -0.11362514265E+03  0.47154596332E+02  0.13497429246E+03  0.10566000000E+00 0.  1.
         13    1    1    2    0    0 -0.73500038865E+02  0.10493751944E+03 -0.13213931275E+02  0.12879735185E+03  0.10566000000E+00 0. -1.
          4    1    1    2  501    0  0.17967890851E+02  0.86876232107E+01 -0.25382230713E+03  0.25460574128E+03  0.00000000000E+00 0.  1.
</event>
<event>
 5    1  0.2540860E-005  0.2037104E+03  0.7818608E-02  0.1057622E+00
          4   -1    0    0  502    0 -0.00000000000E+00  0.00000000000E+00  0.67237750864E+02  0.67237750864E+02  0.00000000000E+00 0.  1.
         21   -1    0    0  501  502  0.00000000000E+00 -0.00000000000E+00 -0.77182665294E+03  0.77182665294E+03  0.00000000000E+00 0. -1.
        -13    1    1    2    0    0  0.20628836557E+03 -0.11628613096E+02 -0.24146196513E+03  0.31779554148E+03  0.10566000000E+00 0.  1.
         13    1    1    2    0    0 -0.20028174041E+03 -0.54946990585E+00 -0.32006643104E+03  0.37756537036E+03  0.10566000000E+00 0. -1.
          4    1    1    2  501    0 -0.60066251675E+01  0.12178083002E+02 -0.14306050591E+03  0.14370349196E+03  0.00000000000E+00 0.  1.
</event>
<event>
 5    1  0.2540860E-005  0.4110522E+03  0.7818608E-02  0.9939228E-01
         -4   -1    0    0    0  501 -0.00000000000E+00  0.00000000000E+00  0.18242893837E+04  0.18242893837E+04  0.00000000000E+00 0. -1.
         21   -1    0    0  501  502  0.00000000000E+00 -0.00000000000E+00 -0.31215605130E+03  0.31215605130E+03  0.00000000000E+00 0. -1.
        -13    1    1    2    0    0  0.62385666135E+02  0.16963272048E+03  0.97665531640E+03  0.99323856622E+03  0.10566000000E+00 0.  1.
         13    1    1    2    0    0  0.64892500848E+02 -0.44064246970E+03 -0.85764924204E+02  0.45357739820E+03  0.10566000000E+00 0. -1.
         -4    1    1    2    0  502 -0.12727816698E+03  0.27100974922E+03  0.62124294022E+03  0.68962947061E+03  0.00000000000E+00 0. -1.
</event>
<event>
 5    1  0.2540860E-005  0.2634126E+03  0.7818608E-02  0.1049132E+00
         21   -1    0    0  501  502  0.00000000000E+00  0.00000000000E+00  0.37568072896E+03  0.37568072896E+03  0.00000000000E+00 0.  1.
          4   -1    0    0  502    0 -0.00000000000E+00 -0.00000000000E+00 -0.88150337611E+03  0.88150337611E+03  0.00000000000E+00 0.  1.
        -13    1    1    2    0    0  0.13641301086E+02 -0.25616924303E+03 -0.70282793838E+03  0.74818172144E+03  0.10566000000E+00 0.  1.
         13    1    1    2    0    0  0.11840064558E+03  0.25355494227E+02 -0.63519581190E+02  0.13673464199E+03  0.10566000000E+00 0. -1.
          4    1    1    2  501    0 -0.13204194667E+03  0.23081374880E+03  0.26052487242E+03  0.37226774164E+03  0.00000000000E+00 0.  1.
</event>
<event>
 5    1  0.2540860E-005  0.8887187E+02  0.7818608E-02  0.1184408E+00
          4   -1    0    0  502    0 -0.00000000000E+00  0.00000000000E+00  0.31878080496E+03  0.31878080496E+03  0.00000000000E+00 0.  1.
         21   -1    0    0  501  502  0.00000000000E+00 -0.00000000000E+00 -0.47313606089E+02  0.47313606089E+02  0.00000000000E+00 0. -1.
        -13    1    1    2    0    0 -0.66460645289E+02 -0.61537721486E+02  0.91026521804E+02  0.12841241129E+03  0.10566000000E+00 0.  1.
         13    1    1    2    0    0  0.86555541226E+02  0.28117026586E+02  0.17637916053E+03  0.19847430144E+03  0.10566000000E+00 0. -1.
          4    1    1    2  501    0 -0.20094895937E+02  0.33420694900E+02  0.40615165374E+01  0.39207698312E+02  0.00000000000E+00 0.  1.
</event>
<event>
 5    1  0.2540860E-005  0.4415452E+03  0.7818608E-02  0.9644836E-01
         21   -1    0    0  501  502  0.00000000000E+00  0.00000000000E+00  0.27890039992E+03  0.27890039992E+03  0.00000000000E+00 0. -1.
         -4   -1    0    0    0  501 -0.00000000000E+00 -0.00000000000E+00 -0.20421687434E+04  0.20421687434E+04  0.00000000000E+00 0. -1.
        -13    1    1    2    0    0  0.14147244078E+03 -0.37314040614E+03 -0.95001897494E+03  0.10304291718E+04  0.10566000000E+00 0.  1.
         13    1    1    2    0    0  0.32770236482E+03  0.96450099265E+02 -0.62875144162E+03  0.71555562192E+03  0.10566000000E+00 0. -1.
         -4    1    1    2    0  502 -0.46917480560E+03  0.27669030688E+03 -0.18449792693E+03  0.57508434961E+03  0.00000000000E+00 0. -1.
</event>
<event>
 5    1  0.2540860E-005  0.4794255E+03  0.7818608E-02  0.9636127E-01
          4   -1    0    0  502    0 -0.00000000000E+00  0.00000000000E+00  0.39581968341E+03  0.39581968341E+03  0.00000000000E+00 0.  1.
         21   -1    0    0  501  502  0.00000000000E+00 -0.00000000000E+00 -0.11756149593E+04  0.11756149593E+04  0.00000000000E+00 0.  1.
        -13    1    1    2    0    0  0.26085314102E+03 -0.44022674806E+03 -0.14082505521E+03  0.53073124858E+03  0.10566000000E+00 0.  1.
         13    1    1    2    0    0  0.20143986924E+03  0.25052697773E+03 -0.26348325579E+03  0.41565036357E+03  0.10566000000E+00 0. -1.
          4    1    1    2  501    0 -0.46229301026E+03  0.18969977033E+03 -0.37548696485E+03  0.62505303052E+03  0.00000000000E+00 0.  1.
</event>
<event>
 5    1  0.2540860E-005  0.4377917E+03  0.7818608E-02  0.9856622E-01
         21   -1    0    0  501  502  0.00000000000E+00  0.00000000000E+00  0.69405700136E+03  0.69405700136E+03  0.00000000000E+00 0. -1.
         -4   -1    0    0    0  501 -0.00000000000E+00 -0.00000000000E+00 -0.51150655685E+03  0.51150655685E+03  0.00000000000E+00 0. -1.
        -13    1    1    2    0    0  0.35677510784E+02  0.19399471896E+03  0.79504200091E+01  0.19740834861E+03  0.10566000000E+00 0.  1.
         13    1    1    2    0    0 -0.42587526869E+03 -0.31669545768E+03 -0.64078131126E+02  0.53457625785E+03  0.10566000000E+00 0. -1.
         -4    1    1    2    0  502  0.39019775791E+03  0.12270073872E+03  0.23867815563E+03  0.47357895175E+03  0.00000000000E+00 0. -1.
</event>
<event>
 5    1  0.2540860E-005  0.6185091E+03  0.7818608E-02  0.9250398E-01
         21   -1    0    0  501  502  0.00000000000E+00  0.00000000000E+00  0.86180942445E+03  0.86180942445E+03  0.00000000000E+00 0.  1.
         -4   -1    0    0    0  501 -0.00000000000E+00 -0.00000000000E+00 -0.10339499135E+04  0.10339499135E+04  0.00000000000E+00 0. -1.
        -13    1    1    2    0    0 -0.70524333369E+02  0.66303799401E+03  0.47492079998E+02  0.66846733049E+03  0.10566000000E+00 0.  1.
         13    1    1    2    0    0 -0.22036344120E+03 -0.57902512536E+03 -0.51400344922E+03  0.80500291862E+03  0.10566000000E+00 0. -1.
         -4    1    1    2    0  502  0.29088777457E+03 -0.84012868654E+02  0.29437088014E+03  0.42228908886E+03  0.00000000000E+00 0. -1.
</event>
<event>
 5    1  0.2540860E-005  0.3041476E+03  0.7818608E-02  0.1021263E+00
         -4   -1    0    0    0  501 -0.00000000000E+00  0.00000000000E+00  0.20304729989E+04  0.20304729989E+04  0.00000000000E+00 0. -1.
         21   -1    0    0  501  502  0.00000000000E+00 -0.00000000000E+00 -0.18008698627E+03  0.18008698627E+03  0.00000000000E+00 0. -1.
        -13    1    1    2    0    0 -0.11742252016E+03 -0.14233787645E+03  0.44508353074E+03  0.48181685297E+03  0.10566000000E+00 0.  1.
         13    1    1    2    0    0 -0.28775893450E+03  0.64141049505E+02  0.34092787324E+02  0.29678545774E+03  0.10566000000E+00 0. -1.
         -4    1    1    2    0  502  0.40518145466E+03  0.78196826942E+02  0.13712096945E+04  0.14319576744E+04  0.00000000000E+00 0. -1.
</event>
<event>
 5    1  0.2540860E-005  0.2455569E+03  0.7818608E-02  0.1032721E+00
         21   -1    0    0  501  502  0.00000000000E+00  0.00000000000E+00  0.25785591231E+03  0.25785591231E+03  0.00000000000E+00 0.  1.
          4   -1    0    0  502    0 -0.00000000000E+00 -0.00000000000E+00 -0.44350912679E+03  0.44350912679E+03  0.00000000000E+00 0.  1.
        -13    1    1    2    0    0  0.71002802869E+01 -0.25653517478E+03 -0.22243141942E+03  0.33961221619E+03  0.10566000000E+00 0.  1.
         13    1    1    2    0    0 -0.41443683533E+02  0.22748204513E+03 -0.73520823109E+02  0.24263343207E+03  0.10566000000E+00 0. -1.
          4    1    1    2  501    0  0.34343403247E+02  0.29053129642E+02  0.11029902804E+03  0.11911939084E+03  0.00000000000E+00 0.  1.
</event>
<event>
 5    1  0.2540860E-005  0.1682416E+03  0.7818608E-02  0.1084394E+00
          4   -1    0    0  502    0 -0.00000000000E+00  0.00000000000E+00  0.92184850340E+02  0.92184850340E+02  0.00000000000E+00 0.  1.
         21   -1    0    0  501  502  0.00000000000E+00 -0.00000000000E+00 -0.53028999335E+03  0.53028999335E+03  0.00000000000E+00 0. -1.
        -13    1    1    2    0    0 -0.13550917403E+03 -0.85567185625E+02 -0.20941792993E+03  0.26370506260E+03  0.10566000000E+00 0.  1.
         13    1    1    2    0    0  0.10603522929E+03  0.14125906191E+03 -0.73559946968E+02  0.19133392115E+03  0.10566000000E+00 0. -1.
          4    1    1    2  501    0  0.29473944741E+02 -0.55691876281E+02 -0.15512726611E+03  0.16743585994E+03  0.00000000000E+00 0.  1.
</event>
<event>
 5    1  0.2540860E-005  0.4514906E+03  0.7818608E-02  0.9591145E-01
         -4   -1    0    0    0  501 -0.00000000000E+00  0.00000000000E+00  0.98659871741E+03  0.98659871741E+03  0.00000000000E+00 0. -1.
         21   -1    0    0  501  502  0.00000000000E+00 -0.00000000000E+00 -0.61826294969E+03  0.61826294969E+03  0.00000000000E+00 0. -1.
        -13    1    1    2    0    0  0.18181195887E+03 -0.47335795150E+03  0.22156212918E+03  0.55336527438E+03  0.10566000000E+00 0.  1.
         13    1    1    2    0    0  0.51291215659E+02  0.34325602837E+03 -0.34662216915E+03  0.49051241485E+03  0.10566000000E+00 0. -1.
         -4    1    1    2    0  502 -0.23310317453E+03  0.13010192313E+03  0.49339580770E+03  0.56098397788E+03  0.00000000000E+00 0. -1.
</event>
<event>
 5    1  0.2540860E-005  0.4504952E+03  0.7818608E-02  0.9756925E-01
         21   -1    0    0  501  502  0.00000000000E+00  0.00000000000E+00  0.42965283188E+03  0.42965283188E+03  0.00000000000E+00 0.  1.
          4   -1    0    0  502    0 -0.00000000000E+00 -0.00000000000E+00 -0.94360718207E+03  0.94360718207E+03  0.00000000000E+00 0.  1.
        -13    1    1    2    0    0 -0.28018634495E+02  0.41382071871E+03 -0.45407046861E+03  0.61498994523E+03  0.10566000000E+00 0.  1.
         13    1    1    2    0    0 -0.25358866596E+03 -0.19119735722E+02 -0.96558431334E+02  0.27202264175E+03  0.10566000000E+00 0. -1.
          4    1    1    2  501    0  0.28160730046E+03 -0.39470098298E+03  0.36674549758E+02  0.48624742697E+03  0.00000000000E+00 0.  1.
</event>
<event>
 5    1  0.2540860E-005  0.3008635E+03  0.7818608E-02  0.1006950E+00
          4   -1    0    0  502    0 -0.00000000000E+00  0.00000000000E+00  0.10865326477E+04  0.10865326477E+04  0.00000000000E+00 0.  1.
         21   -1    0    0  501  502  0.00000000000E+00 -0.00000000000E+00 -0.25215581902E+03  0.25215581902E+03  0.00000000000E+00 0.  1.
        -13    1    1    2    0    0  0.13478631648E+03  0.26595688009E+03  0.58571380969E+03  0.65723746942E+03  0.10566000000E+00 0.  1.
         13    1    1    2    0    0 -0.12842183820E+03 -0.27635764757E+03  0.41488801728E+03  0.51477936628E+03  0.10566000000E+00 0. -1.
          4    1    1    2  501    0 -0.63644782839E+01  0.10400767475E+02 -0.16622499827E+03  0.16667163105E+03  0.00000000000E+00 0.  1.
</event>
<event>
 5    1  0.2540860E-005  0.1648264E+02  0.7818608E-02  0.1603874E+00
         -4   -1    0    0    0  501 -0.00000000000E+00  0.00000000000E+00  0.71084081574E+02  0.71084081574E+02  0.00000000000E+00 0. -1.
         21   -1    0    0  501  502  0.00000000000E+00 -0.00000000000E+00 -0.43574633207E+02  0.43574633207E+02  0.00000000000E+00 0. -1.
        -13    1    1    2    0    0 -0.60522052985E+01 -0.79683474077E+01  0.21089378224E+01  0.10226560133E+02  0.10566000000E+00 0.  1.
         13    1    1    2    0    0  0.19336505487E+02 -0.17767437238E+01  0.61638426139E+02  0.64624794031E+02  0.10566000000E+00 0. -1.
         -4    1    1    2    0  502 -0.13284300189E+02  0.97450911315E+01 -0.36237915594E+02  0.39807360616E+02  0.00000000000E+00 0. -1.
</event>
<event>
 5    1  0.2540860E-005  0.4650848E+03  0.7818608E-02  0.9663666E-01
          4   -1    0    0  502    0 -0.00000000000E+00  0.00000000000E+00  0.83052955950E+03  0.83052955950E+03  0.00000000000E+00 0.  1.
         21   -1    0    0  501  502  0.00000000000E+00 -0.00000000000E+00 -0.67523409714E+03  0.67523409714E+03  0.00000000000E+00 0.  1.
        -13    1    1    2    0    0 -0.43942269916E+03 -0.27969996293E+02  0.14560838904E+03  0.46376334844E+03  0.10566000000E+00 0.  1.
         13    1    1    2    0    0  0.20883368318E+02  0.31891932663E+03  0.31424516547E+03  0.44821388550E+03  0.10566000000E+00 0. -1.
          4    1    1    2  501    0  0.41853933084E+03 -0.29094933034E+03 -0.30455809215E+03  0.59378642270E+03  0.00000000000E+00 0.  1.
</event>
<event>
 5    1  0.2540860E-005  0.2090310E+03  0.7818608E-02  0.1054115E+00
         -4   -1    0    0    0  501 -0.00000000000E+00  0.00000000000E+00  0.11835859896E+04  0.11835859896E+04  0.00000000000E+00 0. -1.
         21   -1    0    0  501  502  0.00000000000E+00 -0.00000000000E+00 -0.44033680948E+02  0.44033680948E+02  0.00000000000E+00 0.  1.
        -13    1    1    2    0    0 -0.16545591428E+03 -0.14285807393E+03  0.45046121603E+03  0.50069891868E+03  0.10566000000E+00 0.  1.
         13    1    1    2    0    0  0.14971346410E+03  0.13763891953E+03  0.67558869701E+03  0.70553433098E+03  0.10566000000E+00 0. -1.
         -4    1    1    2    0  502  0.15742450187E+02  0.52191543986E+01  0.13502395583E+02  0.21386420856E+02  0.00000000000E+00 0. -1.
</event>
<event>
 5    1  0.2540860E-005  0.4744673E+03  0.7818608E-02  0.9781541E-01
         21   -1    0    0  501  502  0.00000000000E+00  0.00000000000E+00  0.42740422112E+03  0.42740422112E+03  0.00000000000E+00 0.  1.
          4   -1    0    0  502    0 -0.00000000000E+00 -0.00000000000E+00 -0.11994903735E+04  0.11994903735E+04  0.00000000000E+00 0.  1.
        -13    1    1    2    0    0  0.54703398827E+03  0.10385922291E+03 -0.37255394011E+02  0.55805098159E+03  0.10566000000E+00 0.  1.
         13    1    1    2    0    0 -0.14138909773E+03 -0.14149232015E+03 -0.61121749175E+03  0.64311568710E+03  0.10566000000E+00 0. -1.
          4    1    1    2  501    0 -0.40564489055E+03  0.37633097241E+02 -0.12361326664E+03  0.42572792594E+03  0.00000000000E+00 0.  1.
</event>
<event>
 5    1  0.2540860E-005  0.3856272E+03  0.7818608E-02  0.9869787E-01
          4   -1    0    0  502    0 -0.00000000000E+00  0.00000000000E+00  0.70855715767E+03  0.70855715767E+03  0.00000000000E+00 0.  1.
         21   -1    0    0  501  502  0.00000000000E+00 -0.00000000000E+00 -0.62227815276E+03  0.62227815276E+03  0.00000000000E+00 0.  1.
        -13    1    1    2    0    0 -0.18311435445E+03  0.56602325398E+03  0.19340413175E+03  0.62555444223E+03  0.10566000000E+00 0.  1.
         13    1    1    2    0    0  0.15885774072E+03 -0.22580237201E+03  0.11410279486E+03  0.29873391497E+03  0.10566000000E+00 0. -1.
          4    1    1    2  501    0  0.24256613729E+02 -0.34022088197E+03 -0.22122792169E+03  0.40654695323E+03  0.00000000000E+00 0.  1.
</event>
<event>
 5    1  0.2540860E-005  0.4401267E+03  0.7818608E-02  0.9631331E-01
         -4   -1    0    0    0  501 -0.00000000000E+00  0.00000000000E+00  0.12596790161E+04  0.12596790161E+04  0.00000000000E+00 0. -1.
         21   -1    0    0  501  502  0.00000000000E+00 -0.00000000000E+00 -0.49960995920E+03  0.49960995920E+03  0.00000000000E+00 0.  1.
        -13    1    1    2    0    0  0.50493066441E+02 -0.41956773915E+03  0.55690196897E+03  0.69908973079E+03  0.10566000000E+00 0.  1.
         13    1    1    2    0    0 -0.44018618781E+03  0.14164419116E+02 -0.50508133901E+02  0.44330079344E+03  0.10566000000E+00 0. -1.
         -4    1    1    2    0  502  0.38969312137E+03  0.40540332003E+03  0.25367522179E+03  0.61689845103E+03  0.00000000000E+00 0. -1.
</event>
<event>
 5    1  0.2540860E-005  0.4917557E+03  0.7818608E-02  0.9842734E-01
         21   -1    0    0  501  502  0.00000000000E+00  0.00000000000E+00  0.10458771659E+03  0.10458771659E+03  0.00000000000E+00 0.  1.
          4   -1    0    0  502    0 -0.00000000000E+00 -0.00000000000E+00 -0.33765810253E+04  0.33765810253E+04  0.00000000000E+00 0.  1.
        -13    1    1    2    0    0 -0.51111933766E+03 -0.86646596289E+02 -0.13818338172E+04  0.14758778132E+04  0.10566000000E+00 0.  1.
         13    1    1    2    0    0  0.79465202902E+02 -0.12231962691E+03 -0.81601830856E+03  0.82895277348E+03  0.10566000000E+00 0. -1.
          4    1    1    2  501    0  0.43165413476E+03  0.20896622320E+03 -0.10741411830E+04  0.11763381553E+04  0.00000000000E+00 0.  1.
</event>
<event>
 5    1  0.2540860E-005  0.4953469E+03  0.7818608E-02  0.9634148E-01
         21   -1    0    0  501  502  0.00000000000E+00  0.00000000000E+00  0.32088168948E+03  0.32088168948E+03  0.00000000000E+00 0. -1.
         -4   -1    0    0    0  501 -0.00000000000E+00 -0.00000000000E+00 -0.16816141530E+04  0.16816141530E+04  0.00000000000E+00 0. -1.
        -13    1    1    2    0    0 -0.23676550654E+03 -0.17344885931E+03 -0.70914995535E+03  0.76748686127E+03  0.10566000000E+00 0.  1.
         13    1    1    2    0    0  0.37642566783E+03  0.48008316624E+03 -0.14575339023E+03  0.62723216741E+03  0.10566000000E+00 0. -1.
         -4    1    1    2    0  502 -0.13966016129E+03 -0.30663430693E+03 -0.50582911796E+03  0.60777681382E+03  0.00000000000E+00 0. -1.
</event>
<event>
 5    1  0.2540860E-005  0.3413850E+03  0.7818608E-02  0.1044781E+00
          4   -1    0    0  502    0 -0.00000000000E+00  0.00000000000E+00  0.10404040790E+04  0.10404040790E+04  0.00000000000E+00 0.  1.
         21   -1    0    0  501  502  0.00000000000E+00 -0.00000000000E+00 -0.29005853277E+03  0.29005853277E+03  0.00000000000E+00 0.  1.
        -13    1    1    2    0    0 -0.34776548805E+03 -0.31161197020E+02 -0.63861178883E+02  0.35495086450E+03  0.10566000000E+00 0.  1.
         13    1    1    2    0    0  0.51765166701E+02  0.36528344062E+02 -0.37635541338E+02  0.73691231088E+02  0.10566000000E+00 0. -1.
          4    1    1    2  501    0  0.29600032135E+03 -0.53671470414E+01  0.85184226650E+03  0.90182051623E+03  0.00000000000E+00 0.  1.
</event>
<event>
 5    1  0.2540860E-005  0.3908490E+03  0.7818608E-02  0.1016116E+00
          4   -1    0    0  502    0 -0.00000000000E+00  0.00000000000E+00  0.59993465719E+03  0.59993465719E+03  0.00000000000E+00 0.  1.
         21   -1    0    0  501  502  0.00000000000E+00 -0.00000000000E+00 -0.56219138280E+03  0.56219138280E+03  0.00000000000E+00 0.  1.
        -13    1    1    2    0    0  0.21963792438E+03  0.29951071734E+03 -0.30449800412E+03  0.48027755861E+03  0.10566000000E+00 0.  1.
         13    1    1    2    0    0  0.73842714253E+02  0.70808214628E+02  0.12573047453E+03  0.16209476579E+03  0.10566000000E+00 0. -1.
          4    1    1    2  501    0 -0.29348063863E+03 -0.37031893197E+03  0.21651080398E+03  0.51975371559E+03  0.00000000000E+00 0.  1.
</event>
<event>
 5    1  0.2540860E-005  0.3117834E+03  0.7818608E-02  0.1002556E+00
         21   -1    0    0  501  502  0.00000000000E+00  0.00000000000E+00  0.81119346873E+02  0.81119346873E+02  0.00000000000E+00 0. -1.
          4   -1    0    0  502    0 -0.00000000000E+00 -0.00000000000E+00 -0.20073793685E+04  0.20073793685E+04  0.00000000000E+00 0.  1.
        -13    1    1    2    0    0 -0.17044049746E+03  0.26544237807E+03 -0.12400403944E+04  0.12795349976E+04  0.10566000000E+00 0.  1.
         13    1    1    2    0    0  0.14124922291E+03 -0.27222989992E+03 -0.70822724012E+03  0.77178124893E+03  0.10566000000E+00 0. -1.
          4    1    1    2  501    0  0.29191274549E+02  0.67875218530E+01  0.22007612888E+02  0.37182468822E+02  0.00000000000E+00 0.  1.
</event>
<event>
 5    1  0.2540860E-005  0.1790401E+03  0.7818608E-02  0.1075540E+00
         -4   -1    0    0    0  501 -0.00000000000E+00  0.00000000000E+00  0.47315782660E+02  0.47315782660E+02  0.00000000000E+00 0. -1.
         21   -1    0    0  501  502  0.00000000000E+00 -0.00000000000E+00 -0.12977595389E+04  0.12977595389E+04  0.00000000000E+00 0.  1.
        -13    1    1    2    0    0 -0.19600816570E+03  0.70450993119E+02 -0.86346025064E+03  0.88822641204E+03  0.10566000000E+00 0.  1.
         13    1    1    2    0    0  0.16650962320E+03 -0.42022961081E+02 -0.19194544294E+03  0.25755474778E+03  0.10566000000E+00 0. -1.
         -4    1    1    2    0  502  0.29498542499E+02 -0.28428032038E+02 -0.19503806268E+03  0.19929416176E+03  0.00000000000E+00 0. -1.
</event>
<event>
 5    1  0.2540860E-005  0.3112395E+03  0.7818608E-02  0.1079998E+00
         21   -1    0    0  501  502  0.00000000000E+00  0.00000000000E+00  0.55545222804E+02  0.55545222804E+02  0.00000000000E+00 0.  1.
          4   -1    0    0  502    0 -0.00000000000E+00 -0.00000000000E+00 -0.19855927985E+04  0.19855927985E+04  0.00000000000E+00 0.  1.
        -13    1    1    2    0    0  0.16827569236E+03 -0.26901241718E+03 -0.11057740971E+04  0.11504002582E+04  0.10566000000E+00 0.  1.
         13    1    1    2    0    0 -0.29548063367E+02 -0.54848673777E+01 -0.71997892363E+02  0.78018456071E+02  0.10566000000E+00 0. -1.
          4    1    1    2  501    0 -0.13872762899E+03  0.27449728456E+03 -0.75227558624E+03  0.81271930698E+03  0.00000000000E+00 0.  1.
</event>
<event>
 5    1  0.2540860E-005  0.4966395E+03  0.7818608E-02  0.9495219E-01
         -4   -1    0    0    0  501 -0.00000000000E+00  0.00000000000E+00  0.35845710720E+04  0.35845710720E+04  0.00000000000E+00 0. -1.
         21   -1    0    0  501  502  0.00000000000E+00 -0.00000000000E+00 -0.24740646773E+03  0.24740646773E+03  0.00000000000E+00 0.  1.
        -13    1    1    2    0    0  0.39459597026E+02  0.47751675299E+03  0.21692014781E+04  0.22214892241E+04  0.10566000000E+00 0.  1.
         13    1    1    2    0    0  0.47604590823E+03 -0.26695698072E+03  0.49312263280E+03  0.73556487031E+03  0.10566000000E+00 0. -1.
         -4    1    1    2    0  502 -0.51550550525E+03 -0.21055977228E+03  0.67484049343E+03  0.87492344535E+03  0.00000000000E+00 0. -1.
</event>
<event>
 5    1  0.2540860E-005  0.1505510E+03  0.7818608E-02  0.1100569E+00
         21   -1    0    0  501  502  0.00000000000E+00  0.00000000000E+00  0.15570728509E+04  0.15570728509E+04  0.00000000000E+00 0.  1.
         -4   -1    0    0    0  501 -0.00000000000E+00 -0.00000000000E+00 -0.36893026122E+02  0.36893026122E+02  0.00000000000E+00 0. -1.
        -13    1    1    2    0    0  0.12646318866E+03  0.41040155806E+02  0.63018124192E+03  0.64405406706E+03  0.10566000000E+00 0.  1.
         13    1    1    2    0    0 -0.14131158193E+03 -0.67373897757E+02  0.17710560593E+03  0.23637811257E+03  0.10566000000E+00 0. -1.
         -4    1    1    2    0  502  0.14848393272E+02  0.26333741951E+02  0.71289297696E+03  0.71353369741E+03  0.00000000000E+00 0. -1.
</event>
<event>
 5    1  0.2540860E-005  0.3042425E+03  0.7818608E-02  0.1005570E+00
          4   -1    0    0  502    0 -0.00000000000E+00  0.00000000000E+00  0.18504844071E+04  0.18504844071E+04  0.00000000000E+00 0.  1.
         21   -1    0    0  501  502  0.00000000000E+00 -0.00000000000E+00 -0.13221676832E+03  0.13221676832E+03  0.00000000000E+00 0.  1.
        -13    1    1    2    0    0  0.30612762188E+03  0.59713563548E+02  0.13952720735E+04  0.14297076627E+04  0.10566000000E+00 0.  1.
         13    1    1    2    0    0 -0.27974719059E+03 -0.47396705110E+02  0.38863431683E+03  0.48118767823E+03  0.10566000000E+00 0. -1.
          4    1    1    2  501    0 -0.26380431290E+02 -0.12316858438E+02 -0.65638751567E+02  0.71805834472E+02  0.00000000000E+00 0.  1.
</event>
<event>
 5    1  0.2540860E-005  0.3169206E+02  0.7818608E-02  0.1391815E+00
         -4   -1    0    0    0  501 -0.00000000000E+00  0.00000000000E+00  0.37246103022E+01  0.37246103022E+01  0.00000000000E+00 0. -1.
         21   -1    0    0  501  502  0.00000000000E+00 -0.00000000000E+00 -0.39588519535E+03  0.39588519535E+03  0.00000000000E+00 0.  1.
        -13    1    1    2    0    0  0.12421183502E+02 -0.26368175336E+02 -0.15032067163E+03  0.15312048182E+03  0.10566000000E+00 0.  1.
         13    1    1    2    0    0 -0.44781418087E+01  0.34953090969E+02 -0.16128531923E+03  0.16509008961E+03  0.10566000000E+00 0. -1.
         -4    1    1    2    0  502 -0.79430416936E+01 -0.85849156332E+01 -0.80554594185E+02  0.81399234223E+02  0.00000000000E+00 0. -1.
</event>
<event>
 5    1  0.2540860E-005  0.4239661E+03  0.7818608E-02  0.9662276E-01
         21   -1    0    0  501  502  0.00000000000E+00  0.00000000000E+00  0.17984461432E+03  0.17984461432E+03  0.00000000000E+00 0. -1.
         -4   -1    0    0    0  501 -0.00000000000E+00 -0.00000000000E+00 -0.26799180340E+04  0.26799180340E+04  0.00000000000E+00 0. -1.
        -13    1    1    2    0    0  0.24012449069E+03 -0.26484357101E+03 -0.86632506536E+03  0.93718782438E+03  0.10566000000E+00 0.  1.
         13    1    1    2    0    0 -0.42924709852E+03  0.26173572622E+03 -0.16573813382E+04  0.17319559964E+04  0.10566000000E+00 0. -1.
         -4    1    1    2    0  502  0.18912260783E+03  0.31078447884E+01  0.23632983892E+02  0.19061882756E+03  0.00000000000E+00 0. -1.
</event>
<event>
 5    1  0.2540860E-005  0.3231196E+03  0.7818608E-02  0.1002544E+00
         -4   -1    0    0    0  501 -0.00000000000E+00  0.00000000000E+00  0.34902930202E+03  0.34902930202E+03  0.00000000000E+00 0. -1.
         21   -1    0    0  501  502  0.00000000000E+00 -0.00000000000E+00 -0.13737707948E+04  0.13737707948E+04  0.00000000000E+00 0.  1.
        -13    1    1    2    0    0 -0.26917141994E+03  0.77894774035E+02 -0.46243881843E+03  0.54071297477E+03  0.10566000000E+00 0.  1.
         13    1    1    2    0    0 -0.84255274214E+02 -0.37856799503E+02  0.26549719598E+03  0.28110649359E+03  0.10566000000E+00 0. -1.
         -4    1    1    2    0  502  0.35342669415E+03 -0.40037974532E+02 -0.82779987033E+03  0.90098062846E+03  0.00000000000E+00 0. -1.
</event>
<event>
 5    1  0.2540860E-005  0.2936385E+03  0.7818608E-02  0.1009966E+00
          4   -1    0    0  502    0 -0.00000000000E+00  0.00000000000E+00  0.29352459445E+04  0.29352459445E+04  0.00000000000E+00 0.  1.
         21   -1    0    0  501  502  0.00000000000E+00 -0.00000000000E+00 -0.51224098140E+02  0.51224098140E+02  0.00000000000E+00 0. -1.
        -13    1    1    2    0    0  0.25710357305E+03  0.14263181197E+03  0.13219579936E+04  0.13542595870E+04  0.10566000000E+00 0.  1.
         13    1    1    2    0    0 -0.26580871682E+03 -0.12475229006E+03  0.15790125829E+04  0.16060816156E+04  0.10566000000E+00 0. -1.
          4    1    1    2  501    0  0.87051437682E+01 -0.17879521906E+02 -0.16948730090E+02  0.26128840068E+02  0.00000000000E+00 0.  1.
</event>
<event>
 5    1  0.2540860E-005  0.2143059E+03  0.7818608E-02  0.1087720E+00
         -4   -1    0    0    0  501 -0.00000000000E+00  0.00000000000E+00  0.12751588097E+04  0.12751588097E+04  0.00000000000E+00 0. -1.
         21   -1    0    0  501  502  0.00000000000E+00 -0.00000000000E+00 -0.13627906288E+03  0.13627906288E+03  0.00000000000E+00 0. -1.
        -13    1    1    2    0    0  0.21244227841E+02  0.71106629492E+02  0.20701699271E+02  0.77045710400E+02  0.10566000000E+00 0.  1.
         13    1    1    2    0    0 -0.50852574123E+01 -0.22117530222E+03  0.15874135428E+02  0.22180255521E+03  0.10566000000E+00 0. -1.
         -4    1    1    2    0  502 -0.16158970429E+02  0.15006867273E+03  0.11023039121E+04  0.11125896070E+04  0.00000000000E+00 0. -1.
</event>
<event>
 5    1  0.2540860E-005  0.4515870E+03  0.7818608E-02  0.9764508E-01
         -4   -1    0    0    0  501 -0.00000000000E+00  0.00000000000E+00  0.13348592538E+04  0.13348592538E+04  0.00000000000E+00 0. -1.
         21   -1    0    0  501  502  0.00000000000E+00 -0.00000000000E+00 -0.69693346127E+03  0.69693346127E+03  0.00000000000E+00 0. -1.
        -13    1    1    2    0    0  0.11428661899E+03 -0.21780241180E+03  0.91514288567E+03  0.94762114488E+03  0.10566000000E+00 0.  1.
         13    1    1    2    0    0 -0.32013578040E+03  0.54398032013E+03 -0.42399706760E+02  0.63261303565E+03  0.10566000000E+00 0. -1.
         -4    1    1    2    0  502  0.20584916141E+03 -0.32617790832E+03 -0.23481738640E+03  0.45155853451E+03  0.00000000000E+00 0. -1.
</event>
<event>
 5    1  0.2540860E-005  0.8962264E+02  0.7818608E-02  0.1182970E+00
          4   -1    0    0  502    0 -0.00000000000E+00  0.00000000000E+00  0.14970632142E+03  0.14970632142E+03  0.00000000000E+00 0.  1.
         21   -1    0    0  501  502  0.00000000000E+00 -0.00000000000E+00 -0.10137512689E+03  0.10137512689E+03  0.00000000000E+00 0. -1.
        -13    1    1    2    0    0  0.98729676712E+02  0.50948666272E+01  0.71576985445E+02  0.12205237703E+03  0.10566000000E+00 0.  1.
         13    1    1    2    0    0 -0.76241649672E+02  0.23251063626E+02  0.94443825356E+01  0.80265862170E+02  0.10566000000E+00 0. -1.
          4    1    1    2  501    0 -0.22488027041E+02 -0.28345930253E+02 -0.32690173449E+02  0.48763209105E+02  0.00000000000E+00 0.  1.
</event>
<event>
 5    1  0.2540860E-005  0.3001565E+03  0.7818608E-02  0.1020239E+00
          4   -1    0    0  502    0 -0.00000000000E+00  0.00000000000E+00  0.48403343128E+03  0.48403343128E+03  0.00000000000E+00 0.  1.
         21   -1    0    0  501  502  0.00000000000E+00 -0.00000000000E+00 -0.52131876269E+03  0.52131876269E+03  0.00000000000E+00 0.  1.
        -13    1    1    2    0    0 -0.23353915815E+03  0.45871415482E+02  0.25073431531E+03  0.34570570315E+03  0.10566000000E+00 0.  1.
         13    1    1    2    0    0  0.19770559917E+02  0.19728206435E+03  0.36095836373E+02  0.20152917536E+03  0.10566000000E+00 0. -1.
          4    1    1    2  501    0  0.21376859824E+03 -0.24315347983E+03 -0.32411548309E+03  0.45811731546E+03  0.00000000000E+00 0.  1.
</event>
<event>
 5    1  0.2540860E-005  0.6130255E+02  0.7818608E-02  0.1251583E+00
          4   -1    0    0  502    0 -0.00000000000E+00  0.00000000000E+00  0.53992761119E+02  0.53992761119E+02  0.00000000000E+00 0.  1.
         21   -1    0    0  501  502  0.00000000000E+00 -0.00000000000E+00 -0.17374892207E+03  0.17374892207E+03  0.00000000000E+00 0. -1.
        -13    1    1    2    0    0 -0.59312044026E+02  0.20314981336E+02  0.12867793295E+02  0.64001627335E+02  0.10566000000E+00 0.  1.
         13    1    1    2    0    0  0.59448728947E+02 -0.36463761829E+01 -0.45275526705E+02  0.74815318720E+02  0.10566000000E+00 0. -1.
          4    1    1    2  501    0 -0.13668492052E+00 -0.16668605153E+02 -0.87348427542E+02  0.88924737135E+02  0.00000000000E+00 0.  1.
</event>
<event>
 5    1  0.2540860E-005  0.2449141E+03  0.7818608E-02  0.1033062E+00
          4   -1    0    0  502    0 -0.00000000000E+00  0.00000000000E+00  0.14100845136E+04  0.14100845136E+04  0.00000000000E+00 0.  1.
         21   -1    0    0  501  502  0.00000000000E+00 -0.00000000000E+00 -0.85805813107E+02  0.85805813107E+02  0.00000000000E+00 0. -1.
        -13    1    1    2    0    0  0.13096709143E+03 -0.20246834571E+03  0.10031668385E+04  0.10317410175E+04  0.10566000000E+00 0.  1.
         13    1    1    2    0    0 -0.13240078831E+03  0.21924469518E+03  0.34820184204E+03  0.43225309609E+03  0.10566000000E+00 0. -1.
          4    1    1    2  501    0  0.14336968730E+01 -0.16776349473E+02 -0.27089980113E+02  0.31896213112E+02  0.00000000000E+00 0.  1.
</event>
<event>
 5    1  0.2540860E-005  0.7272267E+02  0.7818608E-02  0.1247389E+00
          4   -1    0    0  502    0 -0.00000000000E+00  0.00000000000E+00  0.17591079282E+02  0.17591079282E+02  0.00000000000E+00 0.  1.
         21   -1    0    0  501  502  0.00000000000E+00 -0.00000000000E+00 -0.12841025830E+04  0.12841025830E+04  0.00000000000E+00 0.  1.
        -13    1    1    2    0    0 -0.68952888832E+02  0.80195755919E+02 -0.18863932387E+03  0.21626526725E+03  0.10566000000E+00 0.  1.
         13    1    1    2    0    0  0.13650756386E+02 -0.37706254331E+02 -0.16142288839E+03  0.16632938654E+03  0.10566000000E+00 0. -1.
          4    1    1    2  501    0  0.55302132446E+02 -0.42489501588E+02 -0.91644929150E+03  0.91909900854E+03  0.00000000000E+00 0.  1.
</event>
<event>
 5    1  0.2626101E-005  0.2937292E+03  0.7818608E-02  0.1037020E+00
          4   -1    0    0  502    0 -0.00000000000E+00  0.00000000000E+00  0.26714379689E+03  0.26714379689E+03  0.00000000000E+00 0.  1.
         21   -1    0    0  501  502  0.00000000000E+00 -0.00000000000E+00 -0.12567211171E+04  0.12567211171E+04  0.00000000000E+00 0.  1.
        -13    1    1    2    0    0  0.16591011048E+03  0.70791114714E+02  0.15799601475E+03  0.23979219863E+03  0.10566000000E+00 0.  1.
         13    1    1    2    0    0  0.10799998831E+03  0.64485098424E+02 -0.35353483850E+02  0.13066064969E+03  0.10566000000E+00 0. -1.
          4    1    1    2  501    0 -0.27391009879E+03 -0.13527621314E+03 -0.11122198511E+04  0.11534120657E+04  0.00000000000E+00 0.  1.
</event>
<event>
 5    1  0.2540860E-005  0.1352212E+03  0.7818608E-02  0.1116677E+00
         21   -1    0    0  501  502  0.00000000000E+00  0.00000000000E+00  0.87724646348E+03  0.87724646348E+03  0.00000000000E+00 0. -1.
          4   -1    0    0  502    0 -0.00000000000E+00 -0.00000000000E+00 -0.35656439039E+02  0.35656439039E+02  0.00000000000E+00 0.  1.
        -13    1    1    2    0    0 -0.11361707372E+03  0.67311780751E+02  0.23663826901E+03  0.27099335193E+03  0.10566000000E+00 0.  1.
         13    1    1    2    0    0  0.10213014699E+03 -0.96371179675E+02  0.25957615998E+03  0.29512330506E+03  0.10566000000E+00 0. -1.
          4    1    1    2  501    0  0.11486926728E+02  0.29059398924E+02  0.34537559545E+03  0.34678624552E+03  0.00000000000E+00 0.  1.
</event>
<event>
 5    1  0.2540860E-005  0.4298176E+03  0.7818608E-02  0.9842050E-01
         -4   -1    0    0    0  501 -0.00000000000E+00  0.00000000000E+00  0.48183925984E+03  0.48183925984E+03  0.00000000000E+00 0. -1.
         21   -1    0    0  501  502  0.00000000000E+00 -0.00000000000E+00 -0.78611156470E+03  0.78611156470E+03  0.00000000000E+00 0. -1.
        -13    1    1    2    0    0 -0.16792480871E+03 -0.14050780711E+03  0.23133127678E+02  0.22017342709E+03  0.10566000000E+00 0.  1.
         13    1    1    2    0    0  0.25768498922E+03 -0.30525527097E+03  0.11258838797E+03  0.41504034791E+03  0.10566000000E+00 0. -1.
         -4    1    1    2    0  502 -0.89760180510E+02  0.44576307808E+03 -0.43999382050E+03  0.63273704954E+03  0.00000000000E+00 0. -1.
</event>
<event>
 5    1  0.2540860E-005  0.4555081E+03  0.7818608E-02  0.9898792E-01
          4   -1    0    0  502    0 -0.00000000000E+00  0.00000000000E+00  0.39716996227E+03  0.39716996227E+03  0.00000000000E+00 0.  1.
         21   -1    0    0  501  502  0.00000000000E+00 -0.00000000000E+00 -0.85965072154E+03  0.85965072154E+03  0.00000000000E+00 0.  1.
        -13    1    1    2    0    0  0.17679676512E+03 -0.47215306762E+03 -0.41516326631E+03  0.65310501780E+03  0.10566000000E+00 0.  1.
         13    1    1    2    0    0 -0.34909772850E+02  0.14791395659E+03 -0.17102453935E+03  0.22879387015E+03  0.10566000000E+00 0. -1.
          4    1    1    2  501    0 -0.14188699227E+03  0.32423911102E+03  0.12370704638E+03  0.37492179587E+03  0.00000000000E+00 0.  1.
</event>
<event>
 5    1  0.2540860E-005  0.2959307E+03  0.7818608E-02  0.1022080E+00
         21   -1    0    0  501  502  0.00000000000E+00  0.00000000000E+00  0.18951627066E+03  0.18951627066E+03  0.00000000000E+00 0.  1.
          4   -1    0    0  502    0 -0.00000000000E+00 -0.00000000000E+00 -0.24878889506E+04  0.24878889506E+04  0.00000000000E+00 0.  1.
        -13    1    1    2    0    0  0.34164386869E+03 -0.31637473681E+03 -0.11898161450E+04  0.12776838330E+04  0.10566000000E+00 0.  1.
         13    1    1    2    0    0 -0.16690254503E+03  0.10131080610E+03 -0.11054907338E+04  0.11225997117E+04  0.10566000000E+00 0. -1.
          4    1    1    2  501    0 -0.17474132366E+03  0.21506393071E+03 -0.30658011414E+01  0.27712167657E+03  0.00000000000E+00 0.  1.
</event>
<event>
 5    1  0.2540860E-005  0.2882680E+03  0.7818608E-02  0.1012269E+00
          4   -1    0    0  502    0 -0.00000000000E+00  0.00000000000E+00  0.93719111134E+03  0.93719111134E+03  0.00000000000E+00 0.  1.
         21   -1    0    0  501  502  0.00000000000E+00 -0.00000000000E+00 -0.44647184823E+03  0.44647184823E+03  0.00000000000E+00 0.  1.
        -13    1    1    2    0    0  0.21505133147E+03 -0.21106328247E+03  0.79780871400E+03  0.85281506769E+03  0.10566000000E+00 0.  1.
         13    1    1    2    0    0 -0.20657281758E+03  0.10916631596E+03 -0.30083324876E+02  0.23557298466E+03  0.10566000000E+00 0. -1.
          4    1    1    2  501    0 -0.84785138904E+01  0.10189696651E+03 -0.27700612601E+03  0.29527490721E+03  0.00000000000E+00 0.  1.
</event>
<event>
 5    1  0.2540860E-005  0.3374599E+03  0.7818608E-02  0.9929426E-01
          4   -1    0    0  502    0 -0.00000000000E+00  0.00000000000E+00  0.16758520077E+04  0.16758520077E+04  0.00000000000E+00 0.  1.
         21   -1    0    0  501  502  0.00000000000E+00 -0.00000000000E+00 -0.12583977507E+03  0.12583977507E+03  0.00000000000E+00 0. -1.
        -13    1    1    2    0    0 -0.29906912991E+03  0.11100209289E+03  0.10713795076E+04  0.11178630818E+04  0.10566000000E+00 0.  1.
         13    1    1    2    0    0  0.36755449884E+03 -0.15537917511E+03  0.43848571847E+03  0.59288172019E+03  0.10566000000E+00 0. -1.
          4    1    1    2  501    0 -0.68485368934E+02  0.44377082212E+02  0.40147006563E+02  0.90946980817E+02  0.00000000000E+00 0.  1.
</event>
<event>
 5    1  0.2540860E-005  0.5550607E+03  0.7818608E-02  0.9371027E-01
         21   -1    0    0  501  502  0.00000000000E+00  0.00000000000E+00  0.97151499853E+03  0.97151499853E+03  0.00000000000E+00 0.  1.
         -4   -1    0    0    0  501 -0.00000000000E+00 -0.00000000000E+00 -0.10635679769E+04  0.10635679769E+04  0.00000000000E+00 0. -1.
        -13    1    1    2    0    0  0.75678241932E+03  0.15505733071E+03 -0.90845411724E+02  0.77782729831E+03  0.10566000000E+00 0.  1.
         13    1    1    2    0    0 -0.27484268159E+03 -0.43042339791E+03 -0.33387056991E+03  0.61014127029E+03  0.10566000000E+00 0. -1.
         -4    1    1    2    0  502 -0.48193973773E+03  0.27536606720E+03  0.33266300327E+03  0.64711440682E+03  0.00000000000E+00 0. -1.
</event>
<event>
 5    1  0.2540860E-005  0.8292822E+02  0.7818608E-02  0.1196380E+00
         21   -1    0    0  501  502  0.00000000000E+00  0.00000000000E+00  0.15348764755E+03  0.15348764755E+03  0.00000000000E+00 0.  1.
         -4   -1    0    0    0  501 -0.00000000000E+00 -0.00000000000E+00 -0.18617455017E+03  0.18617455017E+03  0.00000000000E+00 0. -1.
        -13    1    1    2    0    0  0.57041556624E+02  0.14604101702E+02 -0.21695474059E+02  0.62751284666E+02  0.10566000000E+00 0.  1.
         13    1    1    2    0    0 -0.95375787482E+02 -0.56915236313E+02 -0.11398605066E+03  0.15914997918E+03  0.10566000000E+00 0. -1.
         -4    1    1    2    0  502  0.38334230858E+02  0.42311134611E+02  0.10299462209E+03  0.11776093388E+03  0.00000000000E+00 0. -1.
</event>
<event>
 5    1  0.2540860E-005  0.1861695E+03  0.7818608E-02  0.1070054E+00
         21   -1    0    0  501  502  0.00000000000E+00  0.00000000000E+00  0.32267732737E+03  0.32267732737E+03  0.00000000000E+00 0. -1.
         -4   -1    0    0    0  501 -0.00000000000E+00 -0.00000000000E+00 -0.43006792788E+03  0.43006792788E+03  0.00000000000E+00 0. -1.
        -13    1    1    2    0    0 -0.69787724664E+02 -0.15346883865E+03 -0.88999911243E+01  0.16882604051E+03  0.10566000000E+00 0.  1.
         13    1    1    2    0    0  0.76645907493E+02  0.17618266317E+03 -0.31345285822E+03  0.36765150813E+03  0.10566000000E+00 0. -1.
         -4    1    1    2    0  502 -0.68581828297E+01 -0.22713824518E+02  0.21496224884E+03  0.21626770661E+03  0.00000000000E+00 0. -1.
</event>
<event>
 5    1  0.2540860E-005  0.3950099E+03  0.7818608E-02  0.9743569E-01
         -4   -1    0    0    0  501 -0.00000000000E+00  0.00000000000E+00  0.16052355311E+04  0.16052355311E+04  0.00000000000E+00 0. -1.
         21   -1    0    0  501  502  0.00000000000E+00 -0.00000000000E+00 -0.32407889465E+03  0.32407889465E+03  0.00000000000E+00 0. -1.
        -13    1    1    2    0    0 -0.24257303606E+03  0.23540817112E+03  0.52593348428E+03  0.62519175131E+03  0.10566000000E+00 0.  1.
         13    1    1    2    0    0  0.13382370894E+03 -0.49166130469E+03  0.86578118563E+03  0.10045977783E+04  0.10566000000E+00 0. -1.
         -4    1    1    2    0  502  0.10874932712E+03  0.25625313356E+03 -0.11055803351E+03  0.29952489610E+03  0.00000000000E+00 0. -1.
</event>
<event>
 5    1  0.2540860E-005  0.2809392E+03  0.7818608E-02  0.1028683E+00
         21   -1    0    0  501  502  0.00000000000E+00  0.00000000000E+00  0.72543819833E+02  0.72543819833E+02  0.00000000000E+00 0.  1.
          4   -1    0    0  502    0 -0.00000000000E+00 -0.00000000000E+00 -0.21664064700E+04  0.21664064700E+04  0.00000000000E+00 0.  1.
        -13    1    1    2    0    0 -0.29078229600E+03 -0.24467221401E+03 -0.87913720562E+03  0.95775835858E+03  0.10566000000E+00 0.  1.
         13    1    1    2    0    0  0.17699422968E+03  0.56295482716E+02 -0.61096507354E+03  0.63857221280E+03  0.10566000000E+00 0. -1.
          4    1    1    2  501    0  0.11378806631E+03  0.18837673129E+03 -0.60376037098E+03  0.64261971841E+03  0.00000000000E+00 0.  1.
</event>
<event>
 5    1  0.2540860E-005  0.3009071E+03  0.7818608E-02  0.1006932E+00
         21   -1    0    0  501  502  0.00000000000E+00  0.00000000000E+00  0.14308025202E+03  0.14308025202E+03  0.00000000000E+00 0.  1.
          4   -1    0    0  502    0 -0.00000000000E+00 -0.00000000000E+00 -0.18726861731E+04  0.18726861731E+04  0.00000000000E+00 0.  1.
        -13    1    1    2    0    0 -0.23790043443E+03  0.19929569704E+03 -0.12209525917E+04  0.12597780098E+04  0.10566000000E+00 0.  1.
         13    1    1    2    0    0  0.20590625757E+03 -0.19789174807E+03 -0.59712227754E+03  0.66190147028E+03  0.10566000000E+00 0. -1.
          4    1    1    2  501    0  0.31994176858E+02 -0.14039489654E+01  0.88468948206E+02  0.94086945014E+02  0.00000000000E+00 0.  1.
</event>
<event>
 5    1  0.2540860E-005  0.4906460E+03  0.7818608E-02  0.9501188E-01
          4   -1    0    0  502    0 -0.00000000000E+00  0.00000000000E+00  0.22716504016E+04  0.22716504016E+04  0.00000000000E+00 0.  1.
         21   -1    0    0  501  502  0.00000000000E+00 -0.00000000000E+00 -0.30627684359E+03  0.30627684359E+03  0.00000000000E+00 0.  1.
        -13    1    1    2    0    0  0.13796245054E+03 -0.17450132114E+03  0.68959618870E+03  0.72458765064E+03  0.10566000000E+00 0.  1.
         13    1    1    2    0    0  0.43827414847E+03 -0.21061273199E+03  0.99132097899E+03  0.11041554450E+04  0.10566000000E+00 0. -1.
          4    1    1    2  501    0 -0.57623659900E+03  0.38511405314E+03  0.28445639029E+03  0.74918414955E+03  0.00000000000E+00 0.  1.
</event>
<event>
 5    1  0.2540860E-005  0.2961031E+03  0.7818608E-02  0.1041484E+00
         21   -1    0    0  501  502  0.00000000000E+00  0.00000000000E+00  0.94275409165E+03  0.94275409165E+03  0.00000000000E+00 0.  1.
          4   -1    0    0  502    0 -0.00000000000E+00 -0.00000000000E+00 -0.52405828875E+03  0.52405828875E+03  0.00000000000E+00 0.  1.
        -13    1    1    2    0    0  0.25952419677E+03 -0.13891242362E+03  0.79568780283E+03  0.84839174966E+03  0.10566000000E+00 0.  1.
         13    1    1    2    0    0 -0.35767863332E+02 -0.10109067903E+03 -0.23995658469E+03  0.26282663323E+03  0.10566000000E+00 0. -1.
          4    1    1    2  501    0 -0.22375633344E+03  0.24000310265E+03 -0.13703541523E+03  0.35559399751E+03  0.00000000000E+00 0.  1.
</event>
<event>
 5    1  0.2540860E-005  0.5405048E+02  0.7818608E-02  0.1276122E+00
         21   -1    0    0  501  502  0.00000000000E+00  0.00000000000E+00  0.86782650920E+02  0.86782650920E+02  0.00000000000E+00 0.  1.
          4   -1    0    0  502    0 -0.00000000000E+00 -0.00000000000E+00 -0.64359274416E+02  0.64359274416E+02  0.00000000000E+00 0.  1.
        -13    1    1    2    0    0  0.71576392695E+01  0.64159602883E+02 -0.89720265551E+01  0.65178177840E+02  0.10566000000E+00 0.  1.
         13    1    1    2    0    0 -0.36278600956E+01 -0.45967083234E+02 -0.37183330657E+01  0.46259823549E+02  0.10566000000E+00 0. -1.
          4    1    1    2  501    0 -0.35297791739E+01 -0.18192519649E+02  0.35113736124E+02  0.39703923947E+02  0.00000000000E+00 0.  1.
</event>
<event>
 5    1  0.2540860E-005  0.4298097E+03  0.7818608E-02  0.9646704E-01
          4   -1    0    0  502    0 -0.00000000000E+00  0.00000000000E+00  0.10486422233E+04  0.10486422233E+04  0.00000000000E+00 0.  1.
         21   -1    0    0  501  502  0.00000000000E+00 -0.00000000000E+00 -0.50345655740E+03  0.50345655740E+03  0.00000000000E+00 0.  1.
        -13    1    1    2    0    0  0.11876438924E+03  0.56619709062E+03 -0.42258566029E+02  0.58006027544E+03  0.10566000000E+00 0.  1.
         13    1    1    2    0    0  0.65753875956E+02 -0.36024118942E+03  0.52615944781E+02  0.36995369381E+03  0.10566000000E+00 0. -1.
          4    1    1    2  501    0 -0.18451826520E+03 -0.20595590120E+03  0.53482828710E+03  0.60208481140E+03  0.00000000000E+00 0.  1.
</event>
<event>
 5    1  0.2540860E-005  0.4802545E+03  0.7818608E-02  0.9715296E-01
          4   -1    0    0  502    0 -0.00000000000E+00  0.00000000000E+00  0.32236266047E+04  0.32236266047E+04  0.00000000000E+00 0.  1.
         21   -1    0    0  501  502  0.00000000000E+00 -0.00000000000E+00 -0.12509624459E+03  0.12509624459E+03  0.00000000000E+00 0.  1.
        -13    1    1    2    0    0  0.54580600138E+03 -0.28919044173E+03  0.13265174414E+04  0.14632784547E+04  0.10566000000E+00 0.  1.
         13    1    1    2    0    0 -0.17583574809E+03  0.16685031485E+03  0.86377044185E+03  0.89713801906E+03  0.10566000000E+00 0. -1.
          4    1    1    2  501    0 -0.36997025329E+03  0.12234012688E+03  0.90824247693E+03  0.98830637550E+03  0.00000000000E+00 0.  1.
</event>
<event>
 5    1  0.2540860E-005  0.4970225E+03  0.7818608E-02  0.9673655E-01
         21   -1    0    0  501  502  0.00000000000E+00  0.00000000000E+00  0.37001235701E+03  0.37001235701E+03  0.00000000000E+00 0.  1.
          4   -1    0    0  502    0 -0.00000000000E+00 -0.00000000000E+00 -0.14567155359E+04  0.14567155359E+04  0.00000000000E+00 0.  1.
        -13    1    1    2    0    0 -0.86396244349E+02  0.49772834270E+03 -0.29016449913E+03  0.58257468353E+03  0.10566000000E+00 0.  1.
         13    1    1    2    0    0 -0.23562500544E+03 -0.91740257433E+02 -0.66219562457E+03  0.70882894579E+03  0.10566000000E+00 0. -1.
          4    1    1    2  501    0  0.32202124979E+03 -0.40598808527E+03 -0.13434305517E+03  0.53532426357E+03  0.00000000000E+00 0.  1.
</event>
<event>
 5    1  0.2540860E-005  0.6516611E+03  0.7818608E-02  0.9196214E-01
         21   -1    0    0  501  502  0.00000000000E+00  0.00000000000E+00  0.13445912504E+04  0.13445912504E+04  0.00000000000E+00 0.  1.
          4   -1    0    0  502    0 -0.00000000000E+00 -0.00000000000E+00 -0.18365597205E+04  0.18365597205E+04  0.00000000000E+00 0.  1.
        -13    1    1    2    0    0 -0.53940251441E+02  0.63468154438E+03 -0.49067689047E+03  0.80404852808E+03  0.10566000000E+00 0.  1.
         13    1    1    2    0    0  0.65512843681E+02 -0.65702309748E+03 -0.10973890568E+04  0.12807162201E+04  0.10566000000E+00 0. -1.
          4    1    1    2  501    0 -0.11572592241E+02  0.22341553095E+02  0.10960974772E+04  0.10963862227E+04  0.00000000000E+00 0.  1.
</event>
<event>
 5    1  0.2540860E-005  0.4872738E+03  0.7818608E-02  0.9664169E-01
         21   -1    0    0  501  502  0.00000000000E+00  0.00000000000E+00  0.51393283838E+03  0.51393283838E+03  0.00000000000E+00 0.  1.
          4   -1    0    0  502    0 -0.00000000000E+00 -0.00000000000E+00 -0.19148830805E+04  0.19148830805E+04  0.00000000000E+00 0.  1.
        -13    1    1    2    0    0 -0.13945119663E+03  0.34881957771E+03 -0.92893352532E+02  0.38697664031E+03  0.10566000000E+00 0.  1.
         13    1    1    2    0    0  0.62604691587E+02  0.27025264631E+03 -0.13857066771E+04  0.14132016298E+04  0.10566000000E+00 0. -1.
          4    1    1    2  501    0  0.76846505038E+02 -0.61907222402E+03  0.77649787596E+02  0.62863764873E+03  0.00000000000E+00 0.  1.
</event>
<event>
 5    1  0.2540860E-005  0.3114757E+03  0.7818608E-02  0.1002678E+00
         21   -1    0    0  501  502  0.00000000000E+00  0.00000000000E+00  0.47633319516E+03  0.47633319516E+03  0.00000000000E+00 0. -1.
          4   -1    0    0  502    0 -0.00000000000E+00 -0.00000000000E+00 -0.27363240546E+03  0.27363240546E+03  0.00000000000E+00 0.  1.
        -13    1    1    2    0    0 -0.31208356839E+03 -0.29056536888E+02 -0.11690736081E+02  0.31365127206E+03  0.10566000000E+00 0.  1.
         13    1    1    2    0    0  0.30242901226E+03  0.68767458717E+02  0.11839087275E+03  0.33197692804E+03  0.10566000000E+00 0. -1.
          4    1    1    2  501    0  0.96545561287E+01 -0.39710921829E+02  0.96000653030E+02  0.10433740053E+03  0.00000000000E+00 0.  1.
</event>
<event>
 5    1  0.2540860E-005  0.1862139E+03  0.7818608E-02  0.1070021E+00
         21   -1    0    0  501  502  0.00000000000E+00  0.00000000000E+00  0.19565371192E+03  0.19565371192E+03  0.00000000000E+00 0. -1.
         -4   -1    0    0    0  501 -0.00000000000E+00 -0.00000000000E+00 -0.14907474208E+04  0.14907474208E+04  0.00000000000E+00 0. -1.
        -13    1    1    2    0    0  0.10297778591E+03 -0.16496878836E+03 -0.35774725010E+03  0.40718820175E+03  0.10566000000E+00 0.  1.
         13    1    1    2    0    0 -0.15539225304E+03  0.52204151214E+02  0.12716191986E+03  0.20746611949E+03  0.10566000000E+00 0. -1.
         -4    1    1    2    0  502  0.52414467134E+02  0.11276463714E+03 -0.10645083787E+04  0.10717468115E+04  0.00000000000E+00 0. -1.
</event>
<event>
 5    1  0.2540860E-005  0.4019395E+03  0.7818608E-02  0.9723462E-01
         21   -1    0    0  501  502  0.00000000000E+00  0.00000000000E+00  0.75019880866E+03  0.75019880866E+03  0.00000000000E+00 0. -1.
          4   -1    0    0  502    0 -0.00000000000E+00 -0.00000000000E+00 -0.30183810663E+03  0.30183810663E+03  0.00000000000E+00 0.  1.
        -13    1    1    2    0    0 -0.39458819610E+03 -0.49860032285E+02  0.47392473167E+02  0.40053954236E+03  0.10566000000E+00 0.  1.
         13    1    1    2    0    0  0.40238920905E+03  0.70462737667E+02  0.21012165174E+03  0.45938349193E+03  0.10566000000E+00 0. -1.
          4    1    1    2  501    0 -0.78010129522E+01 -0.20602705382E+02  0.19084657713E+03  0.19211388100E+03  0.00000000000E+00 0.  1.
</event>
<event>
 5    1  0.2540860E-005  0.3521277E+03  0.7818608E-02  0.9878513E-01
         21   -1    0    0  501  502  0.00000000000E+00  0.00000000000E+00  0.76826241793E+03  0.76826241793E+03  0.00000000000E+00 0. -1.
          4   -1    0    0  502    0 -0.00000000000E+00 -0.00000000000E+00 -0.19367179940E+03  0.19367179940E+03  0.00000000000E+00 0.  1.
        -13    1    1    2    0    0 -0.33239911249E+03 -0.14052417514E+03  0.16789547064E+03  0.39802652425E+03  0.10566000000E+00 0.  1.
         13    1    1    2    0    0  0.31646055013E+03  0.12594684387E+03  0.29638230314E+03  0.45150013073E+03  0.10566000000E+00 0. -1.
          4    1    1    2  501    0  0.15938562356E+02  0.14577331275E+02  0.11031284474E+03  0.11240756234E+03  0.00000000000E+00 0.  1.
</event>
<event>
 5    1  0.2540860E-005  0.4965195E+03  0.7818608E-02  0.9548147E-01
         21   -1    0    0  501  502  0.00000000000E+00  0.00000000000E+00  0.19758859914E+03  0.19758859914E+03  0.00000000000E+00 0.  1.
         -4   -1    0    0    0  501 -0.00000000000E+00 -0.00000000000E+00 -0.27695593756E+04  0.27695593756E+04  0.00000000000E+00 0. -1.
        -13    1    1    2    0    0  0.18909144551E+03 -0.34788402394E+03 -0.85674878963E+03  0.94382062309E+03  0.10566000000E+00 0.  1.
         13    1    1    2    0    0 -0.44174105997E+03 -0.17305733616E+03 -0.96834574115E+03  0.10783216084E+04  0.10566000000E+00 0. -1.
         -4    1    1    2    0  502  0.25264961445E+03  0.52094136011E+03 -0.74687624570E+03  0.94500574324E+03  0.00000000000E+00 0. -1.
</event>
<event>
 5    1  0.2540860E-005  0.4986134E+03  0.7818608E-02  0.9527181E-01
          4   -1    0    0  502    0 -0.00000000000E+00  0.00000000000E+00  0.38129820715E+03  0.38129820715E+03  0.00000000000E+00 0.  1.
         21   -1    0    0  501  502  0.00000000000E+00 -0.00000000000E+00 -0.17288040976E+04  0.17288040976E+04  0.00000000000E+00 0.  1.
        -13    1    1    2    0    0 -0.30453601592E+03 -0.55135296714E+03 -0.39335771425E+03  0.74260526654E+03  0.10566000000E+00 0.  1.
         13    1    1    2    0    0 -0.11987601183E+03  0.40428217761E+03 -0.77817909745E+03  0.88508590330E+03  0.10566000000E+00 0. -1.
          4    1    1    2  501    0  0.42441202776E+03  0.14707078952E+03 -0.17596907878E+03  0.48241113495E+03  0.00000000000E+00 0.  1.
</event>
<event>
 5    1  0.2540860E-005  0.4466863E+03  0.7818608E-02  0.9935321E-01
         21   -1    0    0  501  502  0.00000000000E+00  0.00000000000E+00  0.75693195591E+03  0.75693195591E+03  0.00000000000E+00 0.  1.
          4   -1    0    0  502    0 -0.00000000000E+00 -0.00000000000E+00 -0.48613470535E+03  0.48613470535E+03  0.00000000000E+00 0.  1.
        -13    1    1    2    0    0  0.30111283277E+03  0.22887658883E+03 -0.16542852589E+03  0.41281962080E+03  0.10566000000E+00 0.  1.
         13    1    1    2    0    0  0.13486003199E+03 -0.46595866972E+02 -0.50984554567E+02  0.15151844447E+03  0.10566000000E+00 0. -1.
          4    1    1    2  501    0 -0.43597286476E+03 -0.18228072186E+03  0.48721033102E+03  0.67872859599E+03  0.00000000000E+00 0.  1.
</event>
<event>
 5    1  0.2540860E-005  0.7792764E+03  0.7818608E-02  0.9015286E-01
         21   -1    0    0  501  502  0.00000000000E+00  0.00000000000E+00  0.14712939947E+04  0.14712939947E+04  0.00000000000E+00 0.  1.
          4   -1    0    0  502    0 -0.00000000000E+00 -0.00000000000E+00 -0.59436900421E+03  0.59436900421E+03  0.00000000000E+00 0.  1.
        -13    1    1    2    0    0 -0.95007298980E+02 -0.90791668918E+03  0.27905272320E+03  0.95457295941E+03  0.10566000000E+00 0.  1.
         13    1    1    2    0    0 -0.25907656508E+02  0.64984928754E+03  0.44092157686E+03  0.78573987508E+03  0.10566000000E+00 0. -1.
          4    1    1    2  501    0  0.12091495549E+03  0.25806740164E+03  0.15695069038E+03  0.32535016438E+03  0.00000000000E+00 0.  1.
</event>
<event>
 5    1  0.2540860E-005  0.2370172E+03  0.7818608E-02  0.1037349E+00
         21   -1    0    0  501  502  0.00000000000E+00  0.00000000000E+00  0.35714211274E+03  0.35714211274E+03  0.00000000000E+00 0. -1.
         -4   -1    0    0    0  501 -0.00000000000E+00 -0.00000000000E+00 -0.76724660022E+03  0.76724660022E+03  0.00000000000E+00 0. -1.
        -13    1    1    2    0    0 -0.16889925850E+03  0.15975431078E+03 -0.44160510909E+03  0.49906260416E+03  0.10566000000E+00 0.  1.
         13    1    1    2    0    0  0.19497263622E+03 -0.14980595608E+03 -0.24518624537E+03  0.34723545245E+03  0.10566000000E+00 0. -1.
         -4    1    1    2    0  502 -0.26073377728E+02 -0.99483546949E+01  0.27668686698E+03  0.27809065635E+03  0.00000000000E+00 0. -1.
</event>
<event>
 5    1  0.2540860E-005  0.2995149E+03  0.7818608E-02  0.1007506E+00
          4   -1    0    0  502    0 -0.00000000000E+00  0.00000000000E+00  0.27308171939E+03  0.27308171939E+03  0.00000000000E+00 0.  1.
         21   -1    0    0  501  502  0.00000000000E+00 -0.00000000000E+00 -0.64103291835E+03  0.64103291835E+03  0.00000000000E+00 0. -1.
        -13    1    1    2    0    0  0.55147288478E+02 -0.30677548367E+03  0.10702027767E+03  0.32955389818E+03  0.10566000000E+00 0.  1.
         13    1    1    2    0    0 -0.20331190927E+02  0.24741776467E+03 -0.44487256612E+03  0.50945119379E+03  0.10566000000E+00 0. -1.
          4    1    1    2  501    0 -0.34816097552E+02  0.59357718996E+02 -0.30098910509E+02  0.75109545778E+02  0.00000000000E+00 0.  1.
</event>
<event>
 5    1  0.2540860E-005  0.8618782E+02  0.7818608E-02  0.1189683E+00
         -4   -1    0    0    0  501 -0.00000000000E+00  0.00000000000E+00  0.50992091271E+03  0.50992091271E+03  0.00000000000E+00 0. -1.
         21   -1    0    0  501  502  0.00000000000E+00 -0.00000000000E+00 -0.19520958848E+02  0.19520958848E+02  0.00000000000E+00 0.  1.
        -13    1    1    2    0    0  0.46890148539E+02 -0.68086556305E+02  0.19905322247E+03  0.21553807487E+03  0.10566000000E+00 0.  1.
         13    1    1    2    0    0 -0.34236171001E+02  0.85028568846E+02  0.19794187448E+03  0.21813520982E+03  0.10566000000E+00 0. -1.
         -4    1    1    2    0  502 -0.12653977538E+02 -0.16942012541E+02  0.93404856904E+02  0.95768586862E+02  0.00000000000E+00 0. -1.
</event>
<event>
 5    1  0.2540860E-005  0.4157038E+03  0.7818608E-02  0.9883952E-01
         21   -1    0    0  501  502  0.00000000000E+00  0.00000000000E+00  0.29773357325E+03  0.29773357325E+03  0.00000000000E+00 0.  1.
          4   -1    0    0  502    0 -0.00000000000E+00 -0.00000000000E+00 -0.12933173240E+04  0.12933173240E+04  0.00000000000E+00 0.  1.
        -13    1    1    2    0    0 -0.33790052151E+03  0.39557930803E+03 -0.71019272320E+03  0.88035985065E+03  0.10566000000E+00 0.  1.
         13    1    1    2    0    0  0.20878979616E+03 -0.23809457906E+02 -0.23283964929E+03  0.31364690770E+03  0.10566000000E+00 0. -1.
          4    1    1    2  501    0  0.12911072536E+03 -0.37176985013E+03 -0.52551378243E+02  0.39704413888E+03  0.00000000000E+00 0.  1.
</event>
<event>
 5    1  0.2540860E-005  0.4551619E+03  0.7818608E-02  0.9815574E-01
         -4   -1    0    0    0  501 -0.00000000000E+00  0.00000000000E+00  0.64755816091E+03  0.64755816091E+03  0.00000000000E+00 0. -1.
         21   -1    0    0  501  502  0.00000000000E+00 -0.00000000000E+00 -0.66764265010E+03  0.66764265010E+03  0.00000000000E+00 0. -1.
        -13    1    1    2    0    0  0.14460867415E+03  0.14063014886E+03 -0.20299138944E+03  0.28617131714E+03  0.10566000000E+00 0.  1.
         13    1    1    2    0    0 -0.51559446950E+03 -0.28634317952E+03  0.21832131376E+03  0.62888336013E+03  0.10566000000E+00 0. -1.
         -4    1    1    2    0  502  0.37098579535E+03  0.14571303067E+03 -0.35414413519E+02  0.40014613374E+03  0.00000000000E+00 0. -1.
</event>
<event>
 5    1  0.2540860E-005  0.6361986E+03  0.7818608E-02  0.9232542E-01
         21   -1    0    0  501  502  0.00000000000E+00  0.00000000000E+00  0.12912492764E+04  0.12912492764E+04  0.00000000000E+00 0. -1.
          4   -1    0    0  502    0 -0.00000000000E+00 -0.00000000000E+00 -0.10662501038E+04  0.10662501038E+04  0.00000000000E+00 0.  1.
        -13    1    1    2    0    0  0.15951227055E+03  0.54250418562E+03  0.82114906391E+02  0.57139988177E+03  0.10566000000E+00 0.  1.
         13    1    1    2    0    0 -0.73794718168E+03 -0.24506149426E+03 -0.45644765424E+03  0.90164607865E+03  0.10566000000E+00 0. -1.
          4    1    1    2  501    0  0.57843491112E+03 -0.29744269136E+03  0.59933192045E+03  0.88445341987E+03  0.00000000000E+00 0.  1.
</event>
<event>
 5    1  0.2540860E-005  0.6033915E+03  0.7818608E-02  0.9549902E-01
         21   -1    0    0  501  502  0.00000000000E+00  0.00000000000E+00  0.41587649937E+03  0.41587649937E+03  0.00000000000E+00 0. -1.
         -4   -1    0    0    0  501 -0.00000000000E+00 -0.00000000000E+00 -0.24617431145E+04  0.24617431145E+04  0.00000000000E+00 0. -1.
        -13    1    1    2    0    0 -0.46676122935E+03 -0.50843291226E+03 -0.12433902285E+04  0.14221073599E+04  0.10566000000E+00 0.  1.
         13    1    1    2    0    0  0.18735992815E+03 -0.26371953389E+02 -0.83019655598E+03  0.85148432477E+03  0.10566000000E+00 0. -1.
         -4    1    1    2    0  502  0.27940130120E+03  0.53480486565E+03  0.27720169414E+02  0.60402792918E+03  0.00000000000E+00 0. -1.
</event>
<event>
 5    1  0.2540860E-005  0.1888330E+03  0.7818608E-02  0.1076525E+00
          4   -1    0    0  502    0 -0.00000000000E+00  0.00000000000E+00  0.58351419036E+03  0.58351419036E+03  0.00000000000E+00 0.  1.
         21   -1    0    0  501  502  0.00000000000E+00 -0.00000000000E+00 -0.39540846005E+03  0.39540846005E+03  0.00000000000E+00 0. -1.
        -13    1    1    2    0    0  0.32705686403E+03  0.87308566714E+00  0.37227423493E+03  0.49553513674E+03  0.10566000000E+00 0.  1.
         13    1    1    2    0    0 -0.14765413212E+03 -0.14957574751E+02  0.76241736079E+02  0.16684809036E+03  0.10566000000E+00 0. -1.
          4    1    1    2  501    0 -0.17940273191E+03  0.14084489083E+02 -0.26041024070E+03  0.31653942331E+03  0.00000000000E+00 0.  1.
</event>
<event>
 5    1  0.2540860E-005  0.3272026E+03  0.7818608E-02  0.9966698E-01
         21   -1    0    0  501  502  0.00000000000E+00  0.00000000000E+00  0.85181970511E+02  0.85181970511E+02  0.00000000000E+00 0.  1.
         -4   -1    0    0    0  501 -0.00000000000E+00 -0.00000000000E+00 -0.21399016877E+04  0.21399016877E+04  0.00000000000E+00 0. -1.
        -13    1    1    2    0    0 -0.10548059115E+03  0.31258791934E+03 -0.37656584278E+03  0.50063879947E+03  0.10566000000E+00 0.  1.
         13    1    1    2    0    0  0.11686256345E+03 -0.30494641544E+03 -0.16792326651E+04  0.17106932892E+04  0.10566000000E+00 0. -1.
         -4    1    1    2    0  502 -0.11381972300E+02 -0.76415038999E+01  0.10787906935E+01  0.13751569534E+02  0.00000000000E+00 0. -1.
</event>
<event>
 5    1  0.2540860E-005  0.7415460E+02  0.7818608E-02  0.1216231E+00
         21   -1    0    0  501  502  0.00000000000E+00  0.00000000000E+00  0.20698327369E+03  0.20698327369E+03  0.00000000000E+00 0.  1.
          4   -1    0    0  502    0 -0.00000000000E+00 -0.00000000000E+00 -0.26325581721E+03  0.26325581721E+03  0.00000000000E+00 0.  1.
        -13    1    1    2    0    0 -0.73137661824E+02  0.19229632998E+02 -0.23991171532E+03  0.25154828299E+03  0.10566000000E+00 0.  1.
         13    1    1    2    0    0  0.62165888792E+02  0.53282482071E+01  0.43663885298E+02  0.76154671568E+02  0.10566000000E+00 0. -1.
          4    1    1    2  501    0  0.10971773031E+02 -0.24557881205E+02  0.13997528650E+03  0.14253613635E+03  0.00000000000E+00 0.  1.
</event>
<event>
 5    1  0.2540860E-005  0.3916782E+03  0.7818608E-02  0.9891126E-01
         -4   -1    0    0    0  501 -0.00000000000E+00  0.00000000000E+00  0.71084193569E+03  0.71084193569E+03  0.00000000000E+00 0. -1.
         21   -1    0    0  501  502  0.00000000000E+00 -0.00000000000E+00 -0.99519814839E+03  0.99519814839E+03  0.00000000000E+00 0. -1.
        -13    1    1    2    0    0  0.33747128172E+03  0.39221559577E+03  0.71022710781E+02  0.52226829902E+03  0.10566000000E+00 0.  1.
         13    1    1    2    0    0  0.14481930299E+03 -0.28089585049E+03  0.24916913590E+03  0.40244301310E+03  0.10566000000E+00 0. -1.
         -4    1    1    2    0  502 -0.48229058471E+03 -0.11131974528E+03 -0.60454805939E+03  0.78132877196E+03  0.00000000000E+00 0. -1.
</event>
<event>
 5    1  0.2540860E-005  0.4922648E+03  0.7818608E-02  0.9522942E-01
          4   -1    0    0  502    0 -0.00000000000E+00  0.00000000000E+00  0.22240061412E+04  0.22240061412E+04  0.00000000000E+00 0.  1.
         21   -1    0    0  501  502  0.00000000000E+00 -0.00000000000E+00 -0.33830699419E+03  0.33830699419E+03  0.00000000000E+00 0. -1.
        -13    1    1    2    0    0  0.26524510622E+03 -0.14095664857E+03  0.77103968661E+03  0.82748169324E+03  0.10566000000E+00 0.  1.
         13    1    1    2    0    0 -0.23640523503E+03 -0.46064288399E+03  0.99372226902E+03  0.11205191925E+04  0.10566000000E+00 0. -1.
          4    1    1    2  501    0 -0.28839871190E+02  0.60159953256E+03  0.12093719135E+03  0.61431224959E+03  0.00000000000E+00 0.  1.
</event>
<event>
 5    1  0.2540860E-005  0.4516161E+03  0.7818608E-02  0.1008614E+00
         -4   -1    0    0    0  501 -0.00000000000E+00  0.00000000000E+00  0.11431057149E+04  0.11431057149E+04  0.00000000000E+00 0. -1.
         21   -1    0    0  501  502  0.00000000000E+00 -0.00000000000E+00 -0.26579794609E+03  0.26579794609E+03  0.00000000000E+00 0. -1.
        -13    1    1    2    0    0 -0.12422451769E+02 -0.83382570341E+02  0.34745800858E+03  0.35753887793E+03  0.10566000000E+00 0.  1.
         13    1    1    2    0    0 -0.29361324644E+03  0.38106800372E+03  0.27329654489E+03  0.55327441162E+03  0.10566000000E+00 0. -1.
         -4    1    1    2    0  502  0.30603569821E+03 -0.29768543338E+03  0.25655321537E+03  0.49809037146E+03  0.00000000000E+00 0. -1.
</event>
<event>
 5    1  0.2540860E-005  0.3492697E+03  0.7818608E-02  0.9888224E-01
          4   -1    0    0  502    0 -0.00000000000E+00  0.00000000000E+00  0.22117909851E+04  0.22117909851E+04  0.00000000000E+00 0.  1.
         21   -1    0    0  501  502  0.00000000000E+00 -0.00000000000E+00 -0.40172115077E+03  0.40172115077E+03  0.00000000000E+00 0.  1.
        -13    1    1    2    0    0 -0.32784453363E+03 -0.10685273826E+03  0.16663911069E+04  0.17016929447E+04  0.10566000000E+00 0.  1.
         13    1    1    2    0    0  0.34841208703E+03  0.10955694396E+03  0.46418351561E+03  0.59064376208E+03  0.10566000000E+00 0. -1.
          4    1    1    2  501    0 -0.20567553402E+02 -0.27042056970E+01 -0.32050478817E+03  0.32117542904E+03  0.00000000000E+00 0.  1.
</event>
<event>
 5    1  0.2540860E-005  0.3758921E+03  0.7818608E-02  0.1016840E+00
         21   -1    0    0  501  502  0.00000000000E+00  0.00000000000E+00  0.16483393345E+03  0.16483393345E+03  0.00000000000E+00 0.  1.
          4   -1    0    0  502    0 -0.00000000000E+00 -0.00000000000E+00 -0.20179208614E+04  0.20179208614E+04  0.00000000000E+00 0.  1.
        -13    1    1    2    0    0 -0.99127684122E+02 -0.27137730210E+03 -0.15811537571E+04  0.16073329315E+04  0.10566000000E+00 0.  1.
         13    1    1    2    0    0 -0.79775333743E+02 -0.79177612432E+02 -0.76848466721E+02  0.13615761523E+03  0.10566000000E+00 0. -1.
          4    1    1    2  501    0  0.17890301786E+03  0.35055491453E+03 -0.19508470413E+03  0.43926424814E+03  0.00000000000E+00 0.  1.
</event>
<event>
 5    1  0.2540860E-005  0.4082858E+03  0.7818608E-02  0.9826164E-01
         21   -1    0    0  501  502  0.00000000000E+00  0.00000000000E+00  0.42199896712E+03  0.42199896712E+03  0.00000000000E+00 0.  1.
          4   -1    0    0  502    0 -0.00000000000E+00 -0.00000000000E+00 -0.11451668054E+04  0.11451668054E+04  0.00000000000E+00 0.  1.
        -13    1    1    2    0    0 -0.24341520200E+03  0.41367900602E+03 -0.35461592994E+03  0.59676942743E+03  0.10566000000E+00 0.  1.
         13    1    1    2    0    0 -0.12232522768E+03 -0.24024212047E+03 -0.48002444756E+03  0.55054810797E+03  0.10566000000E+00 0. -1.
          4    1    1    2  501    0  0.36574042967E+03 -0.17343688555E+03  0.11147253926E+03  0.41984823708E+03  0.00000000000E+00 0.  1.
</event>
<event>
 5    1  0.2540860E-005  0.4760149E+03  0.7818608E-02  0.9814034E-01
          4   -1    0    0  502    0 -0.00000000000E+00  0.00000000000E+00  0.15094658315E+04  0.15094658315E+04  0.00000000000E+00 0.  1.
         21   -1    0    0  501  502  0.00000000000E+00 -0.00000000000E+00 -0.27351680357E+03  0.27351680357E+03  0.00000000000E+00 0.  1.
        -13    1    1    2    0    0 -0.16426684954E+03  0.53870130757E+03  0.54844678957E+03  0.78611486997E+03  0.10566000000E+00 0.  1.
         13    1    1    2    0    0 -0.62869987423E+02 -0.16575317885E+03  0.48334400799E+03  0.51482831395E+03  0.10566000000E+00 0. -1.
          4    1    1    2  501    0  0.22713683697E+03 -0.37294812871E+03  0.20415823034E+03  0.48203945112E+03  0.00000000000E+00 0.  1.
</event>
<event>
 5    1  0.2540860E-005  0.4818927E+03  0.7818608E-02  0.9747215E-01
         21   -1    0    0  501  502  0.00000000000E+00  0.00000000000E+00  0.13346312288E+04  0.13346312288E+04  0.00000000000E+00 0. -1.
         -4   -1    0    0    0  501 -0.00000000000E+00 -0.00000000000E+00 -0.49419358765E+03  0.49419358765E+03  0.00000000000E+00 0. -1.
        -13    1    1    2    0    0  0.13576401046E+03  0.16650622982E+03 -0.25762667138E+03  0.33545149288E+03  0.10566000000E+00 0.  1.
         13    1    1    2    0    0  0.11972131191E+03  0.33515845391E+03  0.14060533554E+03  0.38266728799E+03  0.10566000000E+00 0. -1.
         -4    1    1    2    0  502 -0.25548532238E+03 -0.50166468373E+03  0.95745897702E+03  0.11107060356E+04  0.00000000000E+00 0. -1.
</event>
<event>
 5    1  0.2540860E-005  0.6374390E+02  0.7818608E-02  0.1244165E+00
         -4   -1    0    0    0  501 -0.00000000000E+00  0.00000000000E+00  0.54292288509E+02  0.54292288509E+02  0.00000000000E+00 0. -1.
         21   -1    0    0  501  502  0.00000000000E+00 -0.00000000000E+00 -0.16950412477E+03  0.16950412477E+03  0.00000000000E+00 0.  1.
        -13    1    1    2    0    0 -0.26847526155E+02  0.63362980532E+02 -0.82441146065E+02  0.10738813105E+03  0.10566000000E+00 0.  1.
         13    1    1    2    0    0  0.35333869968E+02 -0.51822674010E+02  0.16698349758E+02  0.64906994670E+02  0.10566000000E+00 0. -1.
         -4    1    1    2    0  502 -0.84863438121E+01 -0.11540306521E+02 -0.49469039950E+02  0.51501287551E+02  0.00000000000E+00 0. -1.
</event>
<event>
 5    1  0.2540860E-005  0.2167381E+03  0.7818608E-02  0.1049230E+00
         21   -1    0    0  501  502  0.00000000000E+00  0.00000000000E+00  0.15317135888E+03  0.15317135888E+03  0.00000000000E+00 0. -1.
          4   -1    0    0  502    0 -0.00000000000E+00 -0.00000000000E+00 -0.40804711989E+03  0.40804711989E+03  0.00000000000E+00 0.  1.
        -13    1    1    2    0    0  0.21138547511E+03  0.48395998451E+02 -0.23290689131E+03  0.31823202689E+03  0.10566000000E+00 0.  1.
         13    1    1    2    0    0 -0.21562100441E+03 -0.26634978820E+02 -0.30178471234E+02  0.21934582496E+03  0.10566000000E+00 0. -1.
          4    1    1    2  501    0  0.42355292958E+01 -0.21761019631E+02  0.82096015353E+01  0.23640626920E+02  0.00000000000E+00 0.  1.
</event>
<event>
 5    1  0.2540860E-005  0.5885809E+03  0.7818608E-02  0.9302472E-01
          4   -1    0    0  502    0 -0.00000000000E+00  0.00000000000E+00  0.16491717154E+04  0.16491717154E+04  0.00000000000E+00 0.  1.
         21   -1    0    0  501  502  0.00000000000E+00 -0.00000000000E+00 -0.12889481179E+04  0.12889481179E+04  0.00000000000E+00 0. -1.
        -13    1    1    2    0    0 -0.15328949816E+03  0.37019336397E+03  0.19887239727E+03  0.44731536809E+03  0.10566000000E+00 0.  1.
         13    1    1    2    0    0  0.66569060976E+03 -0.51407752103E+03  0.11162201782E+04  0.13976291293E+04  0.10566000000E+00 0. -1.
          4    1    1    2  501    0 -0.51240111160E+03  0.14388415706E+03 -0.95486897801E+03  0.10931753359E+04  0.00000000000E+00 0.  1.
</event>
<event>
 5    1  0.2540860E-005  0.4979706E+03  0.7818608E-02  0.9482431E-01
         21   -1    0    0  501  502  0.00000000000E+00  0.00000000000E+00  0.46072472831E+03  0.46072472831E+03  0.00000000000E+00 0.  1.
          4   -1    0    0  502    0 -0.00000000000E+00 -0.00000000000E+00 -0.12475954660E+04  0.12475954660E+04  0.00000000000E+00 0.  1.
        -13    1    1    2    0    0  0.67675912277E+03  0.16950424102E+03 -0.25311725921E+03  0.74216100413E+03  0.10566000000E+00 0.  1.
         13    1    1    2    0    0 -0.32056654777E+03 -0.28577612194E+03 -0.31124517958E+03  0.53038144424E+03  0.10566000000E+00 0. -1.
          4    1    1    2  501    0 -0.35619257500E+03  0.11627188091E+03 -0.22250829887E+03  0.43577774592E+03  0.00000000000E+00 0.  1.
</event>
<event>
 5    1  0.2540860E-005  0.3361060E+03  0.7818608E-02  0.9934264E-01
         21   -1    0    0  501  502  0.00000000000E+00  0.00000000000E+00  0.71580940493E+03  0.71580940493E+03  0.00000000000E+00 0. -1.
         -4   -1    0    0    0  501 -0.00000000000E+00 -0.00000000000E+00 -0.18399885730E+04  0.18399885730E+04  0.00000000000E+00 0. -1.
        -13    1    1    2    0    0  0.26169184570E+03 -0.17880796920E+03  0.11471366308E+03  0.33706697794E+03  0.10566000000E+00 0.  1.
         13    1    1    2    0    0 -0.27278023240E+03  0.19876154685E+03 -0.17120610799E+04  0.17450124240E+04  0.10566000000E+00 0. -1.
         -4    1    1    2    0  502  0.11088386702E+02 -0.19953577651E+02  0.47316824873E+03  0.47371857594E+03  0.00000000000E+00 0. -1.
</event>
<event>
 5    1  0.2540860E-005  0.4372962E+03  0.7818608E-02  0.9627133E-01
         21   -1    0    0  501  502  0.00000000000E+00  0.00000000000E+00  0.53585892138E+03  0.53585892138E+03  0.00000000000E+00 0.  1.
          4   -1    0    0  502    0 -0.00000000000E+00 -0.00000000000E+00 -0.14606841233E+04  0.14606841233E+04  0.00000000000E+00 0.  1.
        -13    1    1    2    0    0 -0.67410167307E+03  0.14029872924E+03 -0.22472697374E+03  0.72429208400E+03  0.10566000000E+00 0.  1.
         13    1    1    2    0    0  0.36457653157E+03 -0.15140274374E+03 -0.84322377507E+03  0.93105595116E+03  0.10566000000E+00 0. -1.
          4    1    1    2  501    0  0.30952514149E+03  0.11104014505E+02  0.14312554688E+03  0.34119500952E+03  0.00000000000E+00 0.  1.
</event>
<event>
 5    1  0.2540860E-005  0.2190146E+03  0.7818608E-02  0.1047828E+00
         -4   -1    0    0    0  501 -0.00000000000E+00  0.00000000000E+00  0.14424044583E+03  0.14424044583E+03  0.00000000000E+00 0. -1.
         21   -1    0    0  501  502  0.00000000000E+00 -0.00000000000E+00 -0.61174426815E+03  0.61174426815E+03  0.00000000000E+00 0. -1.
        -13    1    1    2    0    0  0.10843736634E+03 -0.18918446838E+03 -0.27204228780E+02  0.21974873543E+03  0.10566000000E+00 0.  1.
         13    1    1    2    0    0 -0.99821364689E+02  0.19739434587E+03 -0.20800325156E+03  0.30363497239E+03  0.10566000000E+00 0. -1.
         -4    1    1    2    0  502 -0.86160016534E+01 -0.82098774914E+01 -0.23229634198E+03  0.23260100617E+03  0.00000000000E+00 0. -1.
</event>
<event>
 5    1  0.2540860E-005  0.3063737E+03  0.7818608E-02  0.1043957E+00
         -4   -1    0    0    0  501 -0.00000000000E+00  0.00000000000E+00  0.12922634498E+04  0.12922634498E+04  0.00000000000E+00 0. -1.
         21   -1    0    0  501  502  0.00000000000E+00 -0.00000000000E+00 -0.30690254332E+03  0.30690254332E+03  0.00000000000E+00 0. -1.
        -13    1    1    2    0    0  0.88336689630E+02 -0.16427766561E+02  0.23223973057E+02  0.92804128882E+02  0.10566000000E+00 0.  1.
         13    1    1    2    0    0 -0.50592842075E+01  0.31183248557E+03  0.11190230539E+04  0.11616702208E+04  0.10566000000E+00 0. -1.
         -4    1    1    2    0  502 -0.83277405423E+02 -0.29540471901E+03 -0.15688612051E+03  0.34469164347E+03  0.00000000000E+00 0. -1.
</event>
<event>
 5    1  0.2540860E-005  0.1778590E+03  0.7818608E-02  0.1076475E+00
         21   -1    0    0  501  502  0.00000000000E+00  0.00000000000E+00  0.19272070971E+03  0.19272070971E+03  0.00000000000E+00 0. -1.
         -4   -1    0    0    0  501 -0.00000000000E+00 -0.00000000000E+00 -0.60693320981E+03  0.60693320981E+03  0.00000000000E+00 0. -1.
        -13    1    1    2    0    0  0.12280979936E+03  0.11694812575E+03 -0.33208244944E+03  0.37287782896E+03  0.10566000000E+00 0.  1.
         13    1    1    2    0    0 -0.42159254981E+02 -0.23740048298E+03 -0.13023975961E+03  0.27404159948E+03  0.10566000000E+00 0. -1.
         -4    1    1    2    0  502 -0.80650544374E+02  0.12045235722E+03  0.48109708963E+02  0.15273449108E+03  0.00000000000E+00 0. -1.
</event>
<event>
 5    1  0.2540860E-005  0.4330283E+03  0.7818608E-02  0.9687721E-01
          4   -1    0    0  502    0 -0.00000000000E+00  0.00000000000E+00  0.23845600335E+04  0.23845600335E+04  0.00000000000E+00 0.  1.
         21   -1    0    0  501  502  0.00000000000E+00 -0.00000000000E+00 -0.22547477081E+03  0.22547477081E+03  0.00000000000E+00 0.  1.
        -13    1    1    2    0    0  0.80687941595E+01 -0.35031195333E+03  0.47928279288E+03  0.59371337934E+03  0.10566000000E+00 0.  1.
         13    1    1    2    0    0 -0.20372052397E+03 -0.30164070789E+03  0.27804124415E+03  0.45803505669E+03  0.10566000000E+00 0. -1.
          4    1    1    2  501    0  0.19565172981E+03  0.65195266122E+03  0.14017612257E+04  0.15582863683E+04  0.00000000000E+00 0.  1.
</event>
<event>
 5    1  0.2540860E-005  0.3702176E+03  0.7818608E-02  0.9978200E-01
         21   -1    0    0  501  502  0.00000000000E+00  0.00000000000E+00  0.35734181402E+03  0.35734181402E+03  0.00000000000E+00 0.  1.
          4   -1    0    0  502    0 -0.00000000000E+00 -0.00000000000E+00 -0.11818940995E+04  0.11818940995E+04  0.00000000000E+00 0.  1.
        -13    1    1    2    0    0 -0.50993027884E+03  0.48181552340E+02 -0.61088645469E+03  0.79720299984E+03  0.10566000000E+00 0.  1.
         13    1    1    2    0    0  0.19414873587E+03  0.98012389000E+02 -0.31209509715E+03  0.38039915991E+03  0.10566000000E+00 0. -1.
          4    1    1    2  501    0  0.31578154297E+03 -0.14619394134E+03  0.98429266386E+02  0.36163375375E+03  0.00000000000E+00 0.  1.
</event>
<event>
 5    1  0.2540860E-005  0.5079553E+03  0.7818608E-02  0.9524987E-01
         -4   -1    0    0    0  501 -0.00000000000E+00  0.00000000000E+00  0.15819393850E+04  0.15819393850E+04  0.00000000000E+00 0. -1.
         21   -1    0    0  501  502  0.00000000000E+00 -0.00000000000E+00 -0.49373899818E+03  0.49373899818E+03  0.00000000000E+00 0. -1.
        -13    1    1    2    0    0 -0.41696602119E+03 -0.39006580187E+03  0.13085570190E+03  0.58577744793E+03  0.10566000000E+00 0.  1.
         13    1    1    2    0    0 -0.15338134846E+03  0.20346457185E+03  0.84084106919E+03  0.87859967269E+03  0.10566000000E+00 0. -1.
         -4    1    1    2    0  502  0.57034736965E+03  0.18660123002E+03  0.11650361571E+03  0.61130126254E+03  0.00000000000E+00 0. -1.
</event>
<event>
 5    1  0.2540860E-005  0.1247510E+03  0.7818608E-02  0.1129074E+00
         21   -1    0    0  501  502  0.00000000000E+00  0.00000000000E+00  0.62967802044E+02  0.62967802044E+02  0.00000000000E+00 0.  1.
          4   -1    0    0  502    0 -0.00000000000E+00 -0.00000000000E+00 -0.63792977863E+03  0.63792977863E+03  0.00000000000E+00 0.  1.
        -13    1    1    2    0    0  0.12340032144E+03  0.37404688638E+02 -0.48011795288E+03  0.49713178324E+03  0.10566000000E+00 0.  1.
         13    1    1    2    0    0 -0.11408122074E+03 -0.13204740135E+02 -0.12107696959E+03  0.16687879978E+03  0.10566000000E+00 0. -1.
          4    1    1    2  501    0 -0.93191007006E+01 -0.24199948503E+02  0.26232945889E+02  0.36886997648E+02  0.00000000000E+00 0.  1.
</event>
<event>
 5    1  0.2540860E-005  0.7278630E+02  0.7818608E-02  0.1219601E+00
         -4   -1    0    0    0  501 -0.00000000000E+00  0.00000000000E+00  0.73821462357E+02  0.73821462357E+02  0.00000000000E+00 0. -1.
         21   -1    0    0  501  502  0.00000000000E+00 -0.00000000000E+00 -0.82400585728E+03  0.82400585728E+03  0.00000000000E+00 0. -1.
        -13    1    1    2    0    0 -0.66293905348E+02 -0.11641601934E+02 -0.83945687263E+01  0.67829851319E+02  0.10566000000E+00 0.  1.
         13    1    1    2    0    0  0.77635553310E+02  0.62232404537E+01  0.96253490935E+01  0.78477171004E+02  0.10566000000E+00 0. -1.
         -4    1    1    2    0  502 -0.11341647963E+02  0.54183614799E+01 -0.75141517529E+03  0.75152029731E+03  0.00000000000E+00 0. -1.
</event>
<event>
 5    1  0.2540860E-005  0.2666097E+03  0.7818608E-02  0.1022128E+00
         21   -1    0    0  501  502  0.00000000000E+00  0.00000000000E+00  0.53947134352E+02  0.53947134352E+02  0.00000000000E+00 0.  1.
         -4   -1    0    0    0  501 -0.00000000000E+00 -0.00000000000E+00 -0.16679701458E+04  0.16679701458E+04  0.00000000000E+00 0. -1.
        -13    1    1    2    0    0 -0.91476652028E+02 -0.25581768612E+03 -0.46881156905E+03  0.54184404107E+03  0.10566000000E+00 0.  1.
         13    1    1    2    0    0  0.79813330203E+02  0.25221511534E+03 -0.11300856676E+04  0.11606361442E+04  0.10566000000E+00 0. -1.
         -4    1    1    2    0  502  0.11663321825E+02  0.36025707840E+01 -0.15125774813E+02  0.19437094843E+02  0.00000000000E+00 0. -1.
</event>
<event>
 5    1  0.2540860E-005  0.6976134E+02  0.7818608E-02  0.1227355E+00
          4   -1    0    0  502    0 -0.00000000000E+00  0.00000000000E+00  0.43804285464E+02  0.43804285464E+02  0.00000000000E+00 0.  1.
         21   -1    0    0  501  502  0.00000000000E+00 -0.00000000000E+00 -0.36166397526E+03  0.36166397526E+03  0.00000000000E+00 0. -1.
        -13    1    1    2    0    0 -0.64765783589E+02 -0.14974664072E+02 -0.22311780182E+01  0.66511928309E+02  0.10566000000E+00 0.  1.
         13    1    1    2    0    0  0.92433270096E+02  0.21202869104E+02 -0.25361764830E+03  0.27076815502E+03  0.10566000000E+00 0. -1.
          4    1    1    2  501    0 -0.27667486506E+02 -0.62282050317E+01 -0.62010863478E+02  0.68188177398E+02  0.00000000000E+00 0.  1.
</event>
<event>
 5    1  0.2540860E-005  0.2158455E+03  0.7818608E-02  0.1049784E+00
         21   -1    0    0  501  502  0.00000000000E+00  0.00000000000E+00  0.42395515444E+03  0.42395515444E+03  0.00000000000E+00 0.  1.
          4   -1    0    0  502    0 -0.00000000000E+00 -0.00000000000E+00 -0.86749783357E+03  0.86749783357E+03  0.00000000000E+00 0.  1.
        -13    1    1    2    0    0  0.15473684496E+03 -0.15512231350E+03 -0.81747071274E+03  0.84632428813E+03  0.10566000000E+00 0.  1.
         13    1    1    2    0    0 -0.13366648489E+03  0.99514613555E+02  0.19461566938E+03  0.25621310940E+03  0.10566000000E+00 0. -1.
          4    1    1    2  501    0 -0.21070360074E+02  0.55607699948E+02  0.17931236422E+03  0.18891559049E+03  0.00000000000E+00 0.  1.
</event>
<event>
 5    1  0.2540860E-005  0.5121185E+03  0.7818608E-02  0.9451799E-01
         21   -1    0    0  501  502  0.00000000000E+00  0.00000000000E+00  0.30813089180E+03  0.30813089180E+03  0.00000000000E+00 0. -1.
         -4   -1    0    0    0  501 -0.00000000000E+00 -0.00000000000E+00 -0.33764291176E+04  0.33764291176E+04  0.00000000000E+00 0. -1.
        -13    1    1    2    0    0 -0.46375827116E+03 -0.24665157563E+03 -0.13028841117E+04  0.14047831696E+04  0.10566000000E+00 0.  1.
         13    1    1    2    0    0  0.45249150032E+03  0.22221211685E+03 -0.19903700454E+04  0.20532169178E+04  0.10566000000E+00 0. -1.
         -4    1    1    2    0  502  0.11266770844E+02  0.24439458788E+02  0.22495593127E+03  0.22655992206E+03  0.00000000000E+00 0. -1.
</event>
<event>
 5    1  0.2540860E-005  0.2192069E+03  0.7818608E-02  0.1047711E+00
         21   -1    0    0  501  502  0.00000000000E+00  0.00000000000E+00  0.38179444881E+03  0.38179444881E+03  0.00000000000E+00 0.  1.
          4   -1    0    0  502    0 -0.00000000000E+00 -0.00000000000E+00 -0.82762794592E+03  0.82762794592E+03  0.00000000000E+00 0.  1.
        -13    1    1    2    0    0  0.79790279050E+02  0.21216844334E+03 -0.34605572967E+03  0.41368649504E+03  0.10566000000E+00 0.  1.
         13    1    1    2    0    0 -0.80408197808E+02 -0.19789877768E+03 -0.42211301345E+03  0.47308436010E+03  0.10566000000E+00 0. -1.
          4    1    1    2  501    0  0.61791875793E+00 -0.14269665663E+02  0.32233524600E+03  0.32265153959E+03  0.00000000000E+00 0.  1.
</event>
<event>
 5    1  0.2540860E-005  0.4324529E+03  0.7818608E-02  0.9747809E-01
         -4   -1    0    0    0  501 -0.00000000000E+00  0.00000000000E+00  0.15121405517E+04  0.15121405517E+04  0.00000000000E+00 0. -1.
         21   -1    0    0  501  502  0.00000000000E+00 -0.00000000000E+00 -0.31084189020E+03  0.31084189020E+03  0.00000000000E+00 0. -1.
        -13    1    1    2    0    0  0.29321060870E+03  0.45108559549E+02  0.43155712488E+03  0.52368769931E+03  0.10566000000E+00 0.  1.
         13    1    1    2    0    0 -0.15707312322E+03 -0.43514752181E+03  0.44653120725E+02  0.46477870447E+03  0.10566000000E+00 0. -1.
         -4    1    1    2    0  502 -0.13613748549E+03  0.39003896226E+03  0.72508841593E+03  0.83451603816E+03  0.00000000000E+00 0. -1.
</event>
<event>
 5    1  0.2540860E-005  0.4420205E+03  0.7818608E-02  0.9660025E-01
          4   -1    0    0  502    0 -0.00000000000E+00  0.00000000000E+00  0.24378968457E+04  0.24378968457E+04  0.00000000000E+00 0.  1.
         21   -1    0    0  501  502  0.00000000000E+00 -0.00000000000E+00 -0.29788335114E+03  0.29788335114E+03  0.00000000000E+00 0.  1.
        -13    1    1    2    0    0  0.21130819057E+03 -0.10946527958E+02  0.93774600305E+03  0.96132125498E+03  0.10566000000E+00 0.  1.
         13    1    1    2    0    0 -0.82201035746E+02 -0.47146109443E+03  0.11813835346E+04  0.12746370624E+04  0.10566000000E+00 0. -1.
          4    1    1    2  501    0 -0.12910715482E+03  0.48240762238E+03  0.20883956939E+02  0.49982187949E+03  0.00000000000E+00 0.  1.
</event>
<event>
 5    1  0.2540860E-005  0.3888377E+03  0.7818608E-02  0.9839405E-01
         -4   -1    0    0    0  501 -0.00000000000E+00  0.00000000000E+00  0.11106481156E+04  0.11106481156E+04  0.00000000000E+00 0. -1.
         21   -1    0    0  501  502  0.00000000000E+00 -0.00000000000E+00 -0.96167958475E+03  0.96167958475E+03  0.00000000000E+00 0. -1.
        -13    1    1    2    0    0  0.19044598615E+03  0.22971733272E+03  0.79170244832E+03  0.84606885324E+03  0.10566000000E+00 0.  1.
         13    1    1    2    0    0 -0.39282658486E+03 -0.49489989651E+03 -0.18219395317E+03  0.65759659449E+03  0.10566000000E+00 0. -1.
         -4    1    1    2    0  502  0.20238059872E+03  0.26518256380E+03 -0.46053996428E+03  0.56866225264E+03  0.00000000000E+00 0. -1.
</event>
<event>
 5    1  0.2540860E-005  0.1350639E+03  0.7818608E-02  0.1116854E+00
         21   -1    0    0  501  502  0.00000000000E+00  0.00000000000E+00  0.13803406149E+03  0.13803406149E+03  0.00000000000E+00 0.  1.
         -4   -1    0    0    0  501 -0.00000000000E+00 -0.00000000000E+00 -0.30836882361E+03  0.30836882361E+03  0.00000000000E+00 0. -1.
        -13    1    1    2    0    0 -0.13431002356E+03  0.38912059405E+02 -0.41460280859E+02  0.14585025488E+03  0.10566000000E+00 0.  1.
         13    1    1    2    0    0  0.10489166730E+03 -0.87453443008E+02 -0.17878034608E+03  0.22497286474E+03  0.10566000000E+00 0. -1.
         -4    1    1    2    0  502  0.29418356262E+02  0.48541383603E+02  0.49905864816E+02  0.75579765482E+02  0.00000000000E+00 0. -1.
</event>
<event>
 5    1  0.2540860E-005  0.3781784E+03  0.7818608E-02  0.9988812E-01
          4   -1    0    0  502    0 -0.00000000000E+00  0.00000000000E+00  0.11143162685E+03  0.11143162685E+03  0.00000000000E+00 0.  1.
         21   -1    0    0  501  502  0.00000000000E+00 -0.00000000000E+00 -0.22352643714E+04  0.22352643714E+04  0.00000000000E+00 0.  1.
        -13    1    1    2    0    0 -0.41820740236E+03  0.83426951246E+02 -0.11366550242E+04  0.12140190043E+04  0.10566000000E+00 0.  1.
         13    1    1    2    0    0  0.98079324580E+02 -0.17089563393E+03 -0.54706135481E+03  0.58146453778E+03  0.10566000000E+00 0. -1.
          4    1    1    2  501    0  0.32012807778E+03  0.87468682688E+02 -0.44011636557E+03  0.55121245621E+03  0.00000000000E+00 0.  1.
</event>
<event>
 5    1  0.2540860E-005  0.1565574E+03  0.7818608E-02  0.1094819E+00
         21   -1    0    0  501  502  0.00000000000E+00  0.00000000000E+00  0.36581261267E+03  0.36581261267E+03  0.00000000000E+00 0. -1.
          4   -1    0    0  502    0 -0.00000000000E+00 -0.00000000000E+00 -0.35977895513E+03  0.35977895513E+03  0.00000000000E+00 0.  1.
        -13    1    1    2    0    0  0.15479447892E+03 -0.14127973981E+02 -0.30441548420E+03  0.34180364032E+03  0.10566000000E+00 0.  1.
         13    1    1    2    0    0 -0.16828281129E+03  0.72224495624E+01  0.15915247233E+03  0.23173430684E+03  0.10566000000E+00 0. -1.
          4    1    1    2  501    0  0.13488332374E+02  0.69055244183E+01  0.15129666940E+03  0.15205362064E+03  0.00000000000E+00 0.  1.
</event>
<event>
 5    1  0.2540860E-005  0.3452284E+03  0.7818608E-02  0.9902125E-01
         21   -1    0    0  501  502  0.00000000000E+00  0.00000000000E+00  0.50306953179E+03  0.50306953179E+03  0.00000000000E+00 0. -1.
         -4   -1    0    0    0  501 -0.00000000000E+00 -0.00000000000E+00 -0.10517135132E+04  0.10517135132E+04  0.00000000000E+00 0. -1.
        -13    1    1    2    0    0 -0.25771862373E+03 -0.19972349078E+03 -0.35324023794E+03  0.48071513254E+03  0.10566000000E+00 0.  1.
         13    1    1    2    0    0  0.26503016768E+03  0.41674769022E+03  0.26828889895E+03  0.56204854910E+03  0.10566000000E+00 0. -1.
         -4    1    1    2    0  502 -0.73115439570E+01 -0.21702419944E+03 -0.46369264241E+03  0.51201936335E+03  0.00000000000E+00 0. -1.
</event>
<event>
 5    1  0.2540860E-005  0.1784032E+03  0.7818608E-02  0.1076043E+00
          4   -1    0    0  502    0 -0.00000000000E+00  0.00000000000E+00  0.10209496047E+04  0.10209496047E+04  0.00000000000E+00 0.  1.
         21   -1    0    0  501  502  0.00000000000E+00 -0.00000000000E+00 -0.10626517197E+03  0.10626517197E+03  0.00000000000E+00 0. -1.
        -13    1    1    2    0    0 -0.31756305131E+02  0.13589850874E+03  0.32159463434E+03  0.35057094517E+03  0.10566000000E+00 0.  1.
         13    1    1    2    0    0  0.38555025540E+02 -0.23272091552E+03  0.63006715195E+03  0.67277792892E+03  0.10566000000E+00 0. -1.
          4    1    1    2  501    0 -0.67987204087E+01  0.96822406774E+02 -0.36977353522E+02  0.10386590262E+03  0.00000000000E+00 0.  1.
</event>
<event>
 5    1  0.2540860E-005  0.1035510E+03  0.7818608E-02  0.1158810E+00
         -4   -1    0    0    0  501 -0.00000000000E+00  0.00000000000E+00  0.30748524359E+03  0.30748524359E+03  0.00000000000E+00 0. -1.
         21   -1    0    0  501  502  0.00000000000E+00 -0.00000000000E+00 -0.16079448092E+03  0.16079448092E+03  0.00000000000E+00 0. -1.
        -13    1    1    2    0    0  0.95093819941E+02 -0.36185125842E+02  0.19836435441E+03  0.22293637251E+03  0.10566000000E+00 0.  1.
         13    1    1    2    0    0 -0.86764572792E+02  0.72318671451E+02  0.59841680682E+02  0.12782456432E+03  0.10566000000E+00 0. -1.
         -4    1    1    2    0  502 -0.83292471492E+01 -0.36133545609E+02 -0.11151527242E+03  0.11751878769E+03  0.00000000000E+00 0. -1.
</event>
<event>
 5    1  0.2540860E-005  0.4215665E+03  0.7818608E-02  0.9747170E-01
          4   -1    0    0  502    0 -0.00000000000E+00  0.00000000000E+00  0.16635624177E+04  0.16635624177E+04  0.00000000000E+00 0.  1.
         21   -1    0    0  501  502  0.00000000000E+00 -0.00000000000E+00 -0.33058068994E+03  0.33058068994E+03  0.00000000000E+00 0.  1.
        -13    1    1    2    0    0 -0.14497389666E+03 -0.22504124665E+03  0.17813936384E+03  0.32155036545E+03  0.10566000000E+00 0.  1.
         13    1    1    2    0    0 -0.43177013040E+03 -0.21681233631E+03  0.47708734362E+03  0.67900322480E+03  0.10566000000E+00 0. -1.
          4    1    1    2  501    0  0.57674402707E+03  0.44185358296E+03  0.67775502028E+03  0.99358951738E+03  0.00000000000E+00 0.  1.
</event>
<event>
 5    1  0.2540860E-005  0.4637298E+03  0.7818608E-02  0.9927555E-01
         21   -1    0    0  501  502  0.00000000000E+00  0.00000000000E+00  0.25921883910E+03  0.25921883910E+03  0.00000000000E+00 0. -1.
         -4   -1    0    0    0  501 -0.00000000000E+00 -0.00000000000E+00 -0.16693724370E+04  0.16693724370E+04  0.00000000000E+00 0. -1.
        -13    1    1    2    0    0  0.12091563282E+03  0.50028197402E+02 -0.68086513102E+03  0.69332586033E+03  0.10566000000E+00 0.  1.
         13    1    1    2    0    0 -0.39839958596E+03 -0.37208032511E+03 -0.54849149940E+03  0.77331037398E+03  0.10566000000E+00 0. -1.
         -4    1    1    2    0  502  0.27748395314E+03  0.32205212771E+03 -0.18079696753E+03  0.46195504184E+03  0.00000000000E+00 0. -1.
</event>
<event>
 5    1  0.2540860E-005  0.4613089E+03  0.7818608E-02  0.9567062E-01
         21   -1    0    0  501  502  0.00000000000E+00  0.00000000000E+00  0.69589201582E+03  0.69589201582E+03  0.00000000000E+00 0. -1.
          4   -1    0    0  502    0 -0.00000000000E+00 -0.00000000000E+00 -0.52135628380E+03  0.52135628380E+03  0.00000000000E+00 0.  1.
        -13    1    1    2    0    0  0.24034878462E+03  0.41939226269E+03 -0.90869441684E+01  0.48346664000E+03  0.10566000000E+00 0.  1.
         13    1    1    2    0    0 -0.21324484976E+03 -0.39006396980E+03 -0.93099774441E+02  0.45419252048E+03  0.10566000000E+00 0. -1.
          4    1    1    2  501    0 -0.27103934853E+02 -0.29328292884E+02  0.27672245063E+03  0.27958913915E+03  0.00000000000E+00 0.  1.
</event>
<event>
 5    1  0.2540860E-005  0.1544282E+03  0.7818608E-02  0.1096825E+00
          4   -1    0    0  502    0 -0.00000000000E+00  0.00000000000E+00  0.47871512849E+03  0.47871512849E+03  0.00000000000E+00 0.  1.
         21   -1    0    0  501  502  0.00000000000E+00 -0.00000000000E+00 -0.19978443951E+03  0.19978443951E+03  0.00000000000E+00 0. -1.
        -13    1    1    2    0    0  0.13238574112E+03 -0.79744541548E+02  0.39966523080E+03  0.42850610758E+03  0.10566000000E+00 0.  1.
         13    1    1    2    0    0 -0.12356182148E+03  0.92456456017E+02 -0.29077008602E+02  0.15703886009E+03  0.10566000000E+00 0. -1.
          4    1    1    2  501    0 -0.88239196461E+01 -0.12711914469E+02 -0.91657533219E+02  0.92954600333E+02  0.00000000000E+00 0.  1.
</event>
<event>
 5    1  0.2540860E-005  0.7732652E+02  0.7818608E-02  0.1208719E+00
         21   -1    0    0  501  502  0.00000000000E+00  0.00000000000E+00  0.35798751625E+03  0.35798751625E+03  0.00000000000E+00 0.  1.
         -4   -1    0    0    0  501 -0.00000000000E+00 -0.00000000000E+00 -0.64490359404E+02  0.64490359404E+02  0.00000000000E+00 0. -1.
        -13    1    1    2    0    0  0.46778448278E+02 -0.67190127133E+02  0.17778815786E+03  0.19573292172E+03  0.10566000000E+00 0.  1.
         13    1    1    2    0    0 -0.31268994000E+02  0.70207779132E+02 -0.28278129402E+02  0.81893504034E+02  0.10566000000E+00 0. -1.
         -4    1    1    2    0  502 -0.15509454278E+02 -0.30176519988E+01  0.14398712839E+03  0.14485144990E+03  0.00000000000E+00 0. -1.
</event>
<event>
 5    1  0.2540860E-005  0.4625130E+03  0.7818608E-02  0.1001297E+00
         21   -1    0    0  501  502  0.00000000000E+00  0.00000000000E+00  0.16882613085E+03  0.16882613085E+03  0.00000000000E+00 0. -1.
         -4   -1    0    0    0  501 -0.00000000000E+00 -0.00000000000E+00 -0.19661786857E+04  0.19661786857E+04  0.00000000000E+00 0. -1.
        -13    1    1    2    0    0  0.99504198414E+02 -0.15579618938E+01 -0.48604859897E+03  0.49613180151E+03  0.10566000000E+00 0.  1.
         13    1    1    2    0    0 -0.42586108086E+03  0.29146115751E+03 -0.90884199069E+03  0.10451320690E+04  0.10566000000E+00 0. -1.
         -4    1    1    2    0  502  0.32635688244E+03 -0.28990319562E+03 -0.40246196524E+03  0.59374094605E+03  0.00000000000E+00 0. -1.
</event>
<event>
 5    1  0.2540860E-005  0.2628384E+02  0.7818608E-02  0.1437495E+00
         -4   -1    0    0    0  501 -0.00000000000E+00  0.00000000000E+00  0.27677471240E+02  0.27677471240E+02  0.00000000000E+00 0. -1.
         21   -1    0    0  501  502  0.00000000000E+00 -0.00000000000E+00 -0.17740701441E+03  0.17740701441E+03  0.00000000000E+00 0. -1.
        -13    1    1    2    0    0 -0.55579821873E+01 -0.19768940018E+02 -0.77509997675E+02  0.80184244456E+02  0.10566000000E+00 0.  1.
         13    1    1    2    0    0  0.16168841174E+02  0.21505919127E+02  0.19070459402E+02  0.32979229346E+02  0.10566000000E+00 0. -1.
         -4    1    1    2    0  502 -0.10610858987E+02 -0.17369791089E+01 -0.91290004902E+02  0.91921011852E+02  0.00000000000E+00 0. -1.
</event>
<event>
 5    1  0.2540860E-005  0.5972550E+03  0.7818608E-02  0.9287050E-01
         -4   -1    0    0    0  501 -0.00000000000E+00  0.00000000000E+00  0.11908335235E+04  0.11908335235E+04  0.00000000000E+00 0. -1.
         21   -1    0    0  501  502  0.00000000000E+00 -0.00000000000E+00 -0.38474343749E+03  0.38474343749E+03  0.00000000000E+00 0.  1.
        -13    1    1    2    0    0 -0.55878336715E+03 -0.13586787558E+03  0.12830631772E+03  0.58920408463E+03  0.10566000000E+00 0.  1.
         13    1    1    2    0    0  0.60785609318E+03  0.60487676850E+02  0.65055557282E+03  0.89239585026E+03  0.10566000000E+00 0. -1.
         -4    1    1    2    0  502 -0.49072726032E+02  0.75380198726E+02  0.27228195442E+02  0.93977026060E+02  0.00000000000E+00 0. -1.
</event>
<event>
 5    1  0.2540860E-005  0.4284905E+03  0.7818608E-02  0.9664772E-01
         -4   -1    0    0    0  501 -0.00000000000E+00  0.00000000000E+00  0.17942283657E+04  0.17942283657E+04  0.00000000000E+00 0. -1.
         21   -1    0    0  501  502  0.00000000000E+00 -0.00000000000E+00 -0.26358973119E+03  0.26358973119E+03  0.00000000000E+00 0.  1.
        -13    1    1    2    0    0  0.40574364194E+03  0.33160106794E+02  0.57020141684E+03  0.70061199147E+03  0.10566000000E+00 0.  1.
         13    1    1    2    0    0 -0.93747911739E+00  0.33938606758E+03  0.62959581083E+03  0.71524448821E+03  0.10566000000E+00 0. -1.
         -4    1    1    2    0  502 -0.40480616282E+03 -0.37254617437E+03  0.33084140683E+03  0.64196161721E+03  0.00000000000E+00 0. -1.
</event>
<event>
 5    1  0.2540860E-005  0.4187732E+03  0.7818608E-02  0.9791305E-01
         21   -1    0    0  501  502  0.00000000000E+00  0.00000000000E+00  0.10371269598E+04  0.10371269598E+04  0.00000000000E+00 0. -1.
         -4   -1    0    0    0  501 -0.00000000000E+00 -0.00000000000E+00 -0.41564254952E+03  0.41564254952E+03  0.00000000000E+00 0. -1.
        -13    1    1    2    0    0 -0.21818613547E+03  0.17764009021E+03  0.79635094168E+02  0.29240887597E+03  0.10566000000E+00 0.  1.
         13    1    1    2    0    0  0.57518580849E+03 -0.22835673036E+03  0.16866341930E+03  0.64143033197E+03  0.10566000000E+00 0. -1.
         -4    1    1    2    0  502 -0.35699967303E+03  0.50716640153E+02  0.37318589685E+03  0.51893030142E+03  0.00000000000E+00 0. -1.
</event>
<event>
 5    1  0.2540860E-005  0.7859486E+03  0.7818608E-02  0.9006837E-01
         21   -1    0    0  501  502  0.00000000000E+00  0.00000000000E+00  0.64878856387E+03  0.64878856387E+03  0.00000000000E+00 0.  1.
         -4   -1    0    0    0  501 -0.00000000000E+00 -0.00000000000E+00 -0.18699124161E+04  0.18699124161E+04  0.00000000000E+00 0. -1.
        -13    1    1    2    0    0 -0.49753365525E+03  0.59469150586E+03 -0.89715857886E+03  0.11857871867E+04  0.10566000000E+00 0.  1.
         13    1    1    2    0    0  0.18786408901E+03 -0.86169312598E+03 -0.18558210034E+03  0.90124840440E+03  0.10566000000E+00 0. -1.
         -4    1    1    2    0  502  0.30966956624E+03  0.26700162011E+03 -0.13838317300E+03  0.43166538890E+03  0.00000000000E+00 0. -1.
</event>
<event>
 5    1  0.2540860E-005  0.2475393E+03  0.7818608E-02  0.1031676E+00
         21   -1    0    0  501  502  0.00000000000E+00  0.00000000000E+00  0.10894359323E+03  0.10894359323E+03  0.00000000000E+00 0.  1.
         -4   -1    0    0    0  501 -0.00000000000E+00 -0.00000000000E+00 -0.18494113450E+04  0.18494113450E+04  0.00000000000E+00 0. -1.
        -13    1    1    2    0    0  0.70185963842E+02  0.25322053764E+03 -0.13333418572E+04  0.13589875752E+04  0.10566000000E+00 0.  1.
         13    1    1    2    0    0 -0.63729673601E+02 -0.20944272733E+03 -0.47231058038E+03  0.52058142766E+03  0.10566000000E+00 0. -1.
         -4    1    1    2    0  502 -0.64562902412E+01 -0.43777810309E+02  0.65184685776E+02  0.78785935413E+02  0.00000000000E+00 0. -1.
</event>
<event>
 5    1  0.2540860E-005  0.2008427E+03  0.7818608E-02  0.1059560E+00
         21   -1    0    0  501  502  0.00000000000E+00  0.00000000000E+00  0.17689774021E+03  0.17689774021E+03  0.00000000000E+00 0. -1.
          4   -1    0    0  502    0 -0.00000000000E+00 -0.00000000000E+00 -0.35726102478E+03  0.35726102478E+03  0.00000000000E+00 0.  1.
        -13    1    1    2    0    0  0.20364871339E+03  0.85500524955E+01 -0.24160517034E+03  0.31609962253E+03  0.10566000000E+00 0.  1.
         13    1    1    2    0    0 -0.19101368220E+03 -0.95716799145E+01  0.43304545370E+02  0.19609471858E+03  0.10566000000E+00 0. -1.
          4    1    1    2  501    0 -0.12635031192E+02  0.10216274191E+01  0.17937340402E+02  0.21964423883E+02  0.00000000000E+00 0.  1.
</event>
<event>
 5    1  0.2540860E-005  0.7915918E+02  0.7818608E-02  0.1204558E+00
          4   -1    0    0  502    0 -0.00000000000E+00  0.00000000000E+00  0.15449468630E+03  0.15449468630E+03  0.00000000000E+00 0.  1.
         21   -1    0    0  501  502  0.00000000000E+00 -0.00000000000E+00 -0.14313277929E+03  0.14313277929E+03  0.00000000000E+00 0.  1.
        -13    1    1    2    0    0 -0.41750645451E+02 -0.96811055854E+02 -0.56633501379E+02  0.11967815830E+03  0.10566000000E+00 0.  1.
         13    1    1    2    0    0 -0.22517292189E+02  0.74714332876E+02  0.76719588149E+02  0.10943110323E+03  0.10566000000E+00 0. -1.
          4    1    1    2  501    0  0.64267937640E+02  0.22096722978E+02 -0.87241797559E+01  0.68518204057E+02  0.00000000000E+00 0.  1.
</event>
<event>
 5    1  0.2540860E-005  0.4905756E+03  0.7818608E-02  0.9863558E-01
          4   -1    0    0  502    0 -0.00000000000E+00  0.00000000000E+00  0.27204800625E+03  0.27204800625E+03  0.00000000000E+00 0.  1.
         21   -1    0    0  501  502  0.00000000000E+00 -0.00000000000E+00 -0.19222335347E+04  0.19222335347E+04  0.00000000000E+00 0.  1.
        -13    1    1    2    0    0 -0.38519694853E+03 -0.22536544095E+03 -0.76106661521E+03  0.88226338193E+03  0.10566000000E+00 0.  1.
         13    1    1    2    0    0 -0.12996983746E+03  0.43140658121E+02  0.10838581927E+03  0.17464470223E+03  0.10566000000E+00 0. -1.
          4    1    1    2  501    0  0.51516678599E+03  0.18222478283E+03 -0.99750473255E+03  0.11373734568E+04  0.00000000000E+00 0.  1.
</event>
<event>
 5    1  0.2540860E-005  0.3316972E+03  0.7818608E-02  0.1046767E+00
         21   -1    0    0  501  502  0.00000000000E+00  0.00000000000E+00  0.39827014870E+03  0.39827014870E+03  0.00000000000E+00 0.  1.
          4   -1    0    0  502    0 -0.00000000000E+00 -0.00000000000E+00 -0.78523757267E+03  0.78523757267E+03  0.00000000000E+00 0.  1.
        -13    1    1    2    0    0  0.41779597615E+02 -0.38615005922E+03 -0.51521839913E+03  0.64521888765E+03  0.10566000000E+00 0.  1.
         13    1    1    2    0    0  0.31238566504E+00  0.65077669382E+02 -0.11577789917E+03  0.13281465934E+03  0.10566000000E+00 0. -1.
          4    1    1    2  501    0 -0.42091983280E+02  0.32107238984E+03  0.24402887434E+03  0.40547417437E+03  0.00000000000E+00 0.  1.
</event>
<event>
 5    1  0.2540860E-005  0.4894607E+03  0.7818608E-02  0.1008111E+00
          4   -1    0    0  502    0 -0.00000000000E+00  0.00000000000E+00  0.12696441643E+04  0.12696441643E+04  0.00000000000E+00 0.  1.
         21   -1    0    0  501  502  0.00000000000E+00 -0.00000000000E+00 -0.22750649168E+03  0.22750649168E+03  0.00000000000E+00 0.  1.
        -13    1    1    2    0    0  0.46447812225E+03 -0.24738452738E+02  0.36662394054E+03  0.59225420390E+03  0.10566000000E+00 0.  1.
         13    1    1    2    0    0  0.62627298574E+02  0.24649604400E+02  0.36590257845E+02  0.76607047046E+02  0.10566000000E+00 0. -1.
          4    1    1    2  501    0 -0.52710542083E+03  0.88848337042E-01  0.63892347426E+03  0.82828940505E+03  0.00000000000E+00 0.  1.
</event>
<event>
 5    1  0.2540860E-005  0.3748512E+03  0.7818608E-02  0.9804625E-01
         -4   -1    0    0    0  501 -0.00000000000E+00  0.00000000000E+00  0.65294783059E+03  0.65294783059E+03  0.00000000000E+00 0. -1.
         21   -1    0    0  501  502  0.00000000000E+00 -0.00000000000E+00 -0.88732226906E+03  0.88732226906E+03  0.00000000000E+00 0. -1.
        -13    1    1    2    0    0 -0.25131179714E+03  0.29646978624E+03  0.10935804859E+03  0.40374639006E+03  0.10566000000E+00 0.  1.
         13    1    1    2    0    0 -0.67314514373E+02 -0.43310756365E+03 -0.57260403288E+03  0.72110248589E+03  0.10566000000E+00 0. -1.
         -4    1    1    2    0  502  0.31862631151E+03  0.13663777741E+03  0.22887154583E+03  0.41542122369E+03  0.00000000000E+00 0. -1.
</event>
<event>
 5    1  0.2540860E-005  0.1963537E+03  0.7818608E-02  0.1066259E+00
         21   -1    0    0  501  502  0.00000000000E+00  0.00000000000E+00  0.15342056114E+03  0.15342056114E+03  0.00000000000E+00 0.  1.
          4   -1    0    0  502    0 -0.00000000000E+00 -0.00000000000E+00 -0.23312495336E+04  0.23312495336E+04  0.00000000000E+00 0.  1.
        -13    1    1    2    0    0 -0.21295882630E+03 -0.28075359680E+03 -0.14386640905E+04  0.14811915542E+04  0.10566000000E+00 0.  1.
         13    1    1    2    0    0  0.14214481535E+03  0.10540433411E+03 -0.78844070595E+03  0.80805567886E+03  0.10566000000E+00 0. -1.
          4    1    1    2  501    0  0.70814010947E+02  0.17534926269E+03  0.49275823899E+02  0.19542286175E+03  0.00000000000E+00 0.  1.
</event>
<event>
 5    1  0.2540860E-005  0.4261862E+03  0.7818608E-02  0.1005025E+00
         -4   -1    0    0    0  501 -0.00000000000E+00  0.00000000000E+00  0.27072160807E+04  0.27072160807E+04  0.00000000000E+00 0. -1.
         21   -1    0    0  501  502  0.00000000000E+00 -0.00000000000E+00 -0.12415005187E+03  0.12415005187E+03  0.00000000000E+00 0. -1.
        -13    1    1    2    0    0 -0.51976405578E+02  0.99949535836E+02  0.56087626744E+03  0.57207836439E+03  0.10566000000E+00 0.  1.
         13    1    1    2    0    0  0.44958659115E+03  0.40271399037E+02  0.16006955382E+04  0.16631223964E+04  0.10566000000E+00 0. -1.
         -4    1    1    2    0  502 -0.39761018557E+03 -0.14022093487E+03  0.42149422326E+03  0.59616537176E+03  0.00000000000E+00 0. -1.
</event>
<event>
 5    1  0.3318493E-005  0.3517010E+03  0.7818608E-02  0.1049742E+00
         21   -1    0    0  501  502  0.00000000000E+00  0.00000000000E+00  0.39135595349E+03  0.39135595349E+03  0.00000000000E+00 0.  1.
          4   -1    0    0  502    0 -0.00000000000E+00 -0.00000000000E+00 -0.80604545210E+03  0.80604545210E+03  0.00000000000E+00 0.  1.
        -13    1    1    2    0    0 -0.26537408208E+03 -0.17705719452E+03 -0.53258211152E+03  0.62081911234E+03  0.10566000000E+00 0.  1.
         13    1    1    2    0    0 -0.49300972302E+02  0.80658098152E+01 -0.13168633557E+03  0.14084369101E+03  0.10566000000E+00 0. -1.
          4    1    1    2  501    0  0.31467505438E+03  0.16899138470E+03  0.24957894848E+03  0.43573860224E+03  0.00000000000E+00 0.  1.
</event>
<event>
 5    1  0.2540860E-005  0.7296978E+02  0.7818608E-02  0.1219144E+00
         21   -1    0    0  501  502  0.00000000000E+00  0.00000000000E+00  0.28223178043E+03  0.28223178043E+03  0.00000000000E+00 0.  1.
         -4   -1    0    0    0  501 -0.00000000000E+00 -0.00000000000E+00 -0.58136397337E+02  0.58136397337E+02  0.00000000000E+00 0. -1.
        -13    1    1    2    0    0 -0.19935334520E+02  0.81854016689E+02  0.15314354851E+03  0.17478688516E+03  0.10566000000E+00 0.  1.
         13    1    1    2    0    0  0.15062130630E+02 -0.69503238111E+02 -0.19833223198E+02  0.73830453022E+02  0.10566000000E+00 0. -1.
         -4    1    1    2    0  502  0.48732038903E+01 -0.12350778577E+02  0.90785057789E+02  0.91750839589E+02  0.00000000000E+00 0. -1.
</event>
<event>
 5    1  0.2540860E-005  0.1637653E+03  0.7818608E-02  0.1088276E+00
         -4   -1    0    0    0  501 -0.00000000000E+00  0.00000000000E+00  0.95512937539E+02  0.95512937539E+02  0.00000000000E+00 0. -1.
         21   -1    0    0  501  502  0.00000000000E+00 -0.00000000000E+00 -0.64110935302E+03  0.64110935302E+03  0.00000000000E+00 0.  1.
        -13    1    1    2    0    0  0.16590698929E+03  0.25873993387E+02 -0.35008504520E+03  0.38827070796E+03  0.10566000000E+00 0.  1.
         13    1    1    2    0    0 -0.15825726496E+03 -0.38615576160E+02 -0.11030875736E+02  0.16327343942E+03  0.10566000000E+00 0. -1.
         -4    1    1    2    0  502 -0.76497243256E+01  0.12741582773E+02 -0.18448049454E+03  0.18507814317E+03  0.00000000000E+00 0. -1.
</event>
<event>
 5    1  0.2540860E-005  0.4460872E+02  0.7818608E-02  0.1331796E+00
         21   -1    0    0  501  502  0.00000000000E+00  0.00000000000E+00  0.48761822935E+03  0.48761822935E+03  0.00000000000E+00 0.  1.
          4   -1    0    0  502    0 -0.00000000000E+00 -0.00000000000E+00 -0.11980695445E+02  0.11980695445E+02  0.00000000000E+00 0.  1.
        -13    1    1    2    0    0  0.51146365079E+02  0.40583682932E+02  0.13560866278E+03  0.15050816113E+03  0.10566000000E+00 0.  1.
         13    1    1    2    0    0 -0.32596689407E+02 -0.40791721625E+01  0.91659695694E+02  0.97368859420E+02  0.10566000000E+00 0. -1.
          4    1    1    2  501    0 -0.18549675672E+02 -0.36504510770E+02  0.24836917543E+03  0.25172190425E+03  0.00000000000E+00 0.  1.
</event>
<event>
 5    1  0.2540860E-005  0.1205167E+03  0.7818608E-02  0.1176294E+00
         21   -1    0    0  501  502  0.00000000000E+00  0.00000000000E+00  0.66291533271E+03  0.66291533271E+03  0.00000000000E+00 0.  1.
          4   -1    0    0  502    0 -0.00000000000E+00 -0.00000000000E+00 -0.37020256576E+02  0.37020256576E+02  0.00000000000E+00 0.  1.
        -13    1    1    2    0    0 -0.11960489995E+03 -0.35954326161E+02  0.16857317884E+03  0.20979745816E+03  0.10566000000E+00 0.  1.
         13    1    1    2    0    0 -0.77054755180E+00  0.43127956455E+02  0.21714642183E+03  0.22138923653E+03  0.10566000000E+00 0. -1.
          4    1    1    2  501    0  0.12037544751E+03 -0.71736302940E+01  0.24017547547E+03  0.26874889460E+03  0.00000000000E+00 0.  1.
</event>
<event>
 5    1  0.2540860E-005  0.4546554E+03  0.7818608E-02  0.9869321E-01
          4   -1    0    0  502    0 -0.00000000000E+00  0.00000000000E+00  0.19896886095E+04  0.19896886095E+04  0.00000000000E+00 0.  1.
         21   -1    0    0  501  502  0.00000000000E+00 -0.00000000000E+00 -0.20034101202E+03  0.20034101202E+03  0.00000000000E+00 0.  1.
        -13    1    1    2    0    0 -0.28163427893E+03 -0.33170265555E+03  0.28378016032E+03  0.51949562975E+03  0.10566000000E+00 0.  1.
         13    1    1    2    0    0 -0.15770889961E+03  0.59965912962E+02  0.64607013246E+03  0.66773844801E+03  0.10566000000E+00 0. -1.
          4    1    1    2  501    0  0.43934317854E+03  0.27173674259E+03  0.85949730471E+03  0.10027955438E+04  0.00000000000E+00 0.  1.
</event>
<event>
 5    1  0.2540860E-005  0.5440728E+03  0.7818608E-02  0.9551468E-01
         21   -1    0    0  501  502  0.00000000000E+00  0.00000000000E+00  0.38417747713E+03  0.38417747713E+03  0.00000000000E+00 0. -1.
          4   -1    0    0  502    0 -0.00000000000E+00 -0.00000000000E+00 -0.13870275961E+04  0.13870275961E+04  0.00000000000E+00 0.  1.
        -13    1    1    2    0    0  0.32482056774E+03 -0.37631763579E+03 -0.31200286439E+03  0.58691495362E+03  0.10566000000E+00 0.  1.
         13    1    1    2    0    0  0.27413084775E+03  0.11524282220E+03 -0.13549898032E+03  0.32678527290E+03  0.10566000000E+00 0. -1.
          4    1    1    2  501    0 -0.59895141549E+03  0.26107481359E+03 -0.55534827426E+03  0.85750484671E+03  0.00000000000E+00 0.  1.
</event>
<event>
 5    1  0.2540860E-005  0.5014903E+03  0.7818608E-02  0.9478118E-01
         21   -1    0    0  501  502  0.00000000000E+00  0.00000000000E+00  0.62216546246E+03  0.62216546246E+03  0.00000000000E+00 0.  1.
          4   -1    0    0  502    0 -0.00000000000E+00 -0.00000000000E+00 -0.11032857171E+04  0.11032857171E+04  0.00000000000E+00 0.  1.
        -13    1    1    2    0    0  0.74897748780E+02 -0.44530459518E+03 -0.16095365359E+03  0.47938705137E+03  0.10566000000E+00 0.  1.
         13    1    1    2    0    0  0.48936124149E+03  0.12314699644E+03 -0.31772103812E+03  0.59631055385E+03  0.10566000000E+00 0. -1.
          4    1    1    2  501    0 -0.56425899027E+03  0.32215759874E+03 -0.24455628813E+01  0.64975357429E+03  0.00000000000E+00 0.  1.
</event>
<event>
 5    1  0.2540860E-005  0.1149399E+03  0.7818608E-02  0.1141958E+00
         21   -1    0    0  501  502  0.00000000000E+00  0.00000000000E+00  0.46499697560E+03  0.46499697560E+03  0.00000000000E+00 0. -1.
          4   -1    0    0  502    0 -0.00000000000E+00 -0.00000000000E+00 -0.61012814567E+03  0.61012814567E+03  0.00000000000E+00 0.  1.
        -13    1    1    2    0    0  0.10887206827E+03  0.37240512478E+02 -0.59403785048E+03  0.60507930223E+03  0.10566000000E+00 0.  1.
         13    1    1    2    0    0 -0.10992403782E+03 -0.10122610454E+02  0.32613980268E+03  0.34431518031E+03  0.10566000000E+00 0. -1.
          4    1    1    2  501    0  0.10519695515E+01 -0.27117902024E+02  0.12276687772E+03  0.12573063873E+03  0.00000000000E+00 0.  1.
</event>
<event>
 5    1  0.2540860E-005  0.2601233E+03  0.7818608E-02  0.1025276E+00
          4   -1    0    0  502    0 -0.00000000000E+00  0.00000000000E+00  0.28041582436E+03  0.28041582436E+03  0.00000000000E+00 0.  1.
         21   -1    0    0  501  502  0.00000000000E+00 -0.00000000000E+00 -0.46179548267E+03  0.46179548267E+03  0.00000000000E+00 0. -1.
        -13    1    1    2    0    0 -0.14400738048E+03 -0.21188613275E+03  0.59300066728E+02  0.26296457549E+03  0.10566000000E+00 0.  1.
         13    1    1    2    0    0  0.53739356862E+02  0.28353104627E+03 -0.21830745650E+03  0.36185070043E+03  0.10566000000E+00 0. -1.
          4    1    1    2  501    0  0.90268023620E+02 -0.71644913519E+02 -0.22372268539E+02  0.11739603111E+03  0.00000000000E+00 0.  1.
</event>
<event>
 5    1  0.2540860E-005  0.3357898E+03  0.7818608E-02  0.9935397E-01
          4   -1    0    0  502    0 -0.00000000000E+00  0.00000000000E+00  0.59908991055E+03  0.59908991055E+03  0.00000000000E+00 0.  1.
         21   -1    0    0  501  502  0.00000000000E+00 -0.00000000000E+00 -0.83600833755E+03  0.83600833755E+03  0.00000000000E+00 0.  1.
        -13    1    1    2    0    0 -0.36744697149E+03  0.17546083217E+03  0.23300464603E+03  0.46914278926E+03  0.10566000000E+00 0.  1.
         13    1    1    2    0    0  0.15230896967E+03 -0.26225817327E+03  0.12452222771E+03  0.32784625672E+03  0.10566000000E+00 0. -1.
          4    1    1    2  501    0  0.21513800182E+03  0.86797341106E+02 -0.59444530075E+03  0.63810920212E+03  0.00000000000E+00 0.  1.
</event>
<event>
 5    1  0.2540860E-005  0.1838356E+03  0.7818608E-02  0.1088525E+00
          4   -1    0    0  502    0 -0.00000000000E+00  0.00000000000E+00  0.17887665417E+04  0.17887665417E+04  0.00000000000E+00 0.  1.
         21   -1    0    0  501  502  0.00000000000E+00 -0.00000000000E+00 -0.41063189183E+02  0.41063189183E+02  0.00000000000E+00 0. -1.
        -13    1    1    2    0    0  0.20423173752E+03  0.36077525502E+02  0.35235915118E+03  0.40886326938E+03  0.10566000000E+00 0.  1.
         13    1    1    2    0    0 -0.62917619881E+02 -0.96233559801E+02  0.61290021817E+03  0.62359138345E+03  0.10566000000E+00 0. -1.
          4    1    1    2  501    0 -0.14131411764E+03  0.60156034299E+02  0.78244398314E+03  0.79737507803E+03  0.00000000000E+00 0.  1.
</event>
<event>
 5    1  0.2540860E-005  0.4932583E+03  0.7818608E-02  0.9735864E-01
         -4   -1    0    0    0  501 -0.00000000000E+00  0.00000000000E+00  0.15569542490E+04  0.15569542490E+04  0.00000000000E+00 0. -1.
         21   -1    0    0  501  502  0.00000000000E+00 -0.00000000000E+00 -0.25250864021E+03  0.25250864021E+03  0.00000000000E+00 0. -1.
        -13    1    1    2    0    0 -0.14228499977E+03  0.15218432484E+03  0.85318962272E+02  0.22513201987E+03  0.10566000000E+00 0.  1.
         13    1    1    2    0    0  0.55103560626E+03  0.14763733471E+02  0.52218207978E+03  0.75929726906E+03  0.10566000000E+00 0. -1.
         -4    1    1    2    0  502 -0.40875060649E+03 -0.16694805831E+03  0.69694456673E+03  0.82503360027E+03  0.00000000000E+00 0. -1.
</event>
<event>
 5    1  0.2540860E-005  0.1654256E+03  0.7818608E-02  0.1086821E+00
         -4   -1    0    0    0  501 -0.00000000000E+00  0.00000000000E+00  0.33410815259E+03  0.33410815259E+03  0.00000000000E+00 0. -1.
         21   -1    0    0  501  502  0.00000000000E+00 -0.00000000000E+00 -0.24579819711E+03  0.24579819711E+03  0.00000000000E+00 0. -1.
        -13    1    1    2    0    0  0.90947765552E+02 -0.13492499533E+03  0.84868072846E+02  0.18351798652E+03  0.10566000000E+00 0.  1.
         13    1    1    2    0    0 -0.83015185998E+02  0.14553675548E+03  0.16448976148E+03  0.23479642480E+03  0.10566000000E+00 0. -1.
         -4    1    1    2    0  502 -0.79325795542E+01 -0.10611760155E+02 -0.16104787884E+03  0.16159193839E+03  0.00000000000E+00 0. -1.
</event>
<event>
 5    1  0.2540860E-005  0.9038495E+03  0.7818608E-02  0.8870590E-01
         21   -1    0    0  501  502  0.00000000000E+00  0.00000000000E+00  0.15773822214E+04  0.15773822214E+04  0.00000000000E+00 0.  1.
         -4   -1    0    0    0  501 -0.00000000000E+00 -0.00000000000E+00 -0.14189372883E+04  0.14189372883E+04  0.00000000000E+00 0. -1.
        -13    1    1    2    0    0 -0.84507758080E+03  0.68518224519E+03 -0.69761972368E+03  0.12924024593E+04  0.10566000000E+00 0.  1.
         13    1    1    2    0    0  0.42531319955E+03 -0.56744187906E+03 -0.37016338861E+02  0.71010691049E+03  0.10566000000E+00 0. -1.
         -4    1    1    2    0  502  0.41976438125E+03 -0.11774036613E+03  0.89308099565E+03  0.99381014000E+03  0.00000000000E+00 0. -1.
</event>
<event>
 5    1  0.2540860E-005  0.4769368E+03  0.7818608E-02  0.9530007E-01
         21   -1    0    0  501  502  0.00000000000E+00  0.00000000000E+00  0.20811369809E+03  0.20811369809E+03  0.00000000000E+00 0. -1.
         -4   -1    0    0    0  501 -0.00000000000E+00 -0.00000000000E+00 -0.36304842762E+04  0.36304842762E+04  0.00000000000E+00 0. -1.
        -13    1    1    2    0    0 -0.93662183712E+02 -0.44829944402E+03 -0.20731479191E+04  0.21231314848E+04  0.10566000000E+00 0.  1.
         13    1    1    2    0    0  0.19284067766E+03  0.58278397631E+03 -0.35876350083E+03  0.71101051378E+03  0.10566000000E+00 0. -1.
         -4    1    1    2    0  502 -0.99178493946E+02 -0.13448453230E+03 -0.99045915819E+03  0.10044559757E+04  0.00000000000E+00 0. -1.
</event>
<event>
 5    1  0.2540860E-005  0.5333605E+03  0.7818608E-02  0.9407704E-01
         -4   -1    0    0    0  501 -0.00000000000E+00  0.00000000000E+00  0.28400700155E+04  0.28400700155E+04  0.00000000000E+00 0. -1.
         21   -1    0    0  501  502  0.00000000000E+00 -0.00000000000E+00 -0.27166247589E+03  0.27166247589E+03  0.00000000000E+00 0.  1.
        -13    1    1    2    0    0  0.40223820367E+03 -0.26287179745E+03  0.20875386757E+03  0.52390394422E+03  0.10566000000E+00 0.  1.
         13    1    1    2    0    0 -0.45679759857E+03  0.29434528334E+03  0.24319610374E+04  0.24919345277E+04  0.10566000000E+00 0. -1.
         -4    1    1    2    0  502  0.54559394898E+02 -0.31473485893E+02 -0.72307365338E+02  0.95894019459E+02  0.00000000000E+00 0. -1.
</event>
<event>
 5    1  0.2540860E-005  0.1971867E+03  0.7818608E-02  0.1062082E+00
         -4   -1    0    0    0  501 -0.00000000000E+00  0.00000000000E+00  0.49840196340E+03  0.49840196340E+03  0.00000000000E+00 0. -1.
         21   -1    0    0  501  502  0.00000000000E+00 -0.00000000000E+00 -0.21028428220E+03  0.21028428220E+03  0.00000000000E+00 0.  1.
        -13    1    1    2    0    0  0.16893248652E+03  0.96323146889E+02 -0.55132338446E+02  0.20212847285E+03  0.10566000000E+00 0.  1.
         13    1    1    2    0    0 -0.16277085876E+03 -0.11235864272E+03  0.40055954740E+03  0.44672897738E+03  0.10566000000E+00 0. -1.
         -4    1    1    2    0  502 -0.61616277650E+01  0.16035495829E+02 -0.57309527758E+02  0.59828795367E+02  0.00000000000E+00 0. -1.
</event>
<event>
 5    1  0.2540860E-005  0.2714914E+02  0.7818608E-02  0.1470376E+00
         21   -1    0    0  501  502  0.00000000000E+00  0.00000000000E+00  0.13160462215E+04  0.13160462215E+04  0.00000000000E+00 0. -1.
         -4   -1    0    0    0  501 -0.00000000000E+00 -0.00000000000E+00 -0.33082290306E+02  0.33082290306E+02  0.00000000000E+00 0. -1.
        -13    1    1    2    0    0 -0.41019889112E+02  0.23968321604E+02  0.24104411413E+03  0.24568147643E+03  0.10566000000E+00 0.  1.
         13    1    1    2    0    0  0.39524380209E+01 -0.19154604038E+02 -0.27295034547E+02  0.33579021682E+02  0.10566000000E+00 0. -1.
         -4    1    1    2    0  502  0.37067451091E+02 -0.48137175665E+01  0.10692148516E+04  0.10698680137E+04  0.00000000000E+00 0. -1.
</event>
<event>
 5    1  0.2540860E-005  0.4321683E+03  0.7818608E-02  0.1017247E+00
         -4   -1    0    0    0  501 -0.00000000000E+00  0.00000000000E+00  0.88377888083E+03  0.88377888083E+03  0.00000000000E+00 0. -1.
         21   -1    0    0  501  502  0.00000000000E+00 -0.00000000000E+00 -0.32113312595E+03  0.32113312595E+03  0.00000000000E+00 0. -1.
        -13    1    1    2    0    0  0.66764921050E+02 -0.29550102226E+02  0.24531523113E+01  0.73053352727E+02  0.10566000000E+00 0.  1.
         13    1    1    2    0    0  0.24802748425E+03 -0.33310200054E+03  0.29800819071E+02  0.41636843743E+03  0.10566000000E+00 0. -1.
         -4    1    1    2    0  502 -0.31479240530E+03  0.36265210277E+03  0.53039178351E+03  0.71549021662E+03  0.00000000000E+00 0. -1.
</event>
<event>
 5    1  0.2540860E-005  0.5412118E+03  0.7818608E-02  0.9391947E-01
          4   -1    0    0  502    0 -0.00000000000E+00  0.00000000000E+00  0.37738633352E+04  0.37738633352E+04  0.00000000000E+00 0.  1.
         21   -1    0    0  501  502  0.00000000000E+00 -0.00000000000E+00 -0.19351764161E+03  0.19351764161E+03  0.00000000000E+00 0.  1.
        -13    1    1    2    0    0  0.68228658128E+03 -0.85441229034E+02  0.16903094085E+04  0.18248180978E+04  0.10566000000E+00 0.  1.
         13    1    1    2    0    0 -0.45538906551E+03  0.14529882306E+03  0.18420317906E+04  0.19030428470E+04  0.10566000000E+00 0. -1.
          4    1    1    2  501    0 -0.22689751577E+03 -0.59857594031E+02  0.48004494579E+02  0.23952003199E+03  0.00000000000E+00 0.  1.
</event>
<event>
 5    1  0.2540860E-005  0.2872094E+03  0.7818608E-02  0.1032797E+00
          4   -1    0    0  502    0 -0.00000000000E+00  0.00000000000E+00  0.23377175081E+04  0.23377175081E+04  0.00000000000E+00 0.  1.
         21   -1    0    0  501  502  0.00000000000E+00 -0.00000000000E+00 -0.14512605988E+03  0.14512605988E+03  0.00000000000E+00 0.  1.
        -13    1    1    2    0    0 -0.26463177398E+03  0.32171920766E+03  0.16829361873E+04  0.17337264623E+04  0.10566000000E+00 0.  1.
         13    1    1    2    0    0  0.57312265087E+02 -0.14197640729E+03  0.44021192539E+03  0.46607783296E+03  0.10566000000E+00 0. -1.
          4    1    1    2  501    0  0.20731950889E+03 -0.17974280036E+03  0.69443335512E+02  0.28303927271E+03  0.00000000000E+00 0.  1.
</event>
<event>
 5    1  0.2540860E-005  0.3757827E+03  0.7818608E-02  0.9801715E-01
         21   -1    0    0  501  502  0.00000000000E+00  0.00000000000E+00  0.69326932269E+03  0.69326932269E+03  0.00000000000E+00 0.  1.
          4   -1    0    0  502    0 -0.00000000000E+00 -0.00000000000E+00 -0.55645337525E+03  0.55645337525E+03  0.00000000000E+00 0.  1.
        -13    1    1    2    0    0  0.27290208213E+03  0.25290476601E+03 -0.22030102989E+03  0.43239903103E+03  0.10566000000E+00 0.  1.
         13    1    1    2    0    0 -0.39071412956E+03 -0.11986937168E+03 -0.10701217696E+02  0.40882847813E+03  0.10566000000E+00 0. -1.
          4    1    1    2  501    0  0.11781204743E+03 -0.13303539433E+03  0.36781819503E+03  0.40849518878E+03  0.00000000000E+00 0.  1.
</event>
<event>
 5    1  0.2540860E-005  0.4640177E+03  0.7818608E-02  0.9950910E-01
          4   -1    0    0  502    0 -0.00000000000E+00  0.00000000000E+00  0.30912102099E+04  0.30912102099E+04  0.00000000000E+00 0.  1.
         21   -1    0    0  501  502  0.00000000000E+00 -0.00000000000E+00 -0.10587537352E+03  0.10587537352E+03  0.00000000000E+00 0.  1.
        -13    1    1    2    0    0 -0.30145773935E+03 -0.39545562980E+03  0.73137412867E+03  0.88440378279E+03  0.10566000000E+00 0.  1.
         13    1    1    2    0    0  0.11119553589E+03  0.47388215625E+02  0.56002162979E+03  0.57291738251E+03  0.10566000000E+00 0. -1.
          4    1    1    2  501    0  0.19026220346E+03  0.34806741418E+03  0.16939390779E+04  0.17397644181E+04  0.00000000000E+00 0.  1.
</event>
<event>
 5    1  0.2540860E-005  0.8902150E+02  0.7818608E-02  0.1250150E+00
         21   -1    0    0  501  502  0.00000000000E+00  0.00000000000E+00  0.89489140922E+03  0.89489140922E+03  0.00000000000E+00 0.  1.
          4   -1    0    0  502    0 -0.00000000000E+00 -0.00000000000E+00 -0.14936889131E+02  0.14936889131E+02  0.00000000000E+00 0.  1.
        -13    1    1    2    0    0 -0.72941163614E+02 -0.64224133612E+02  0.32799375694E+03  0.34208926970E+03  0.10566000000E+00 0.  1.
         13    1    1    2    0    0 -0.71366247306E+00  0.20616332731E+02  0.19316434311E+02  0.28260896800E+02  0.10566000000E+00 0. -1.
          4    1    1    2  501    0  0.73654826087E+02  0.43607800881E+02  0.53264432883E+03  0.53947813185E+03  0.00000000000E+00 0.  1.
</event>
<event>
 5    1  0.2540860E-005  0.1269181E+03  0.7818608E-02  0.1126402E+00
          4   -1    0    0  502    0 -0.00000000000E+00  0.00000000000E+00  0.31522245718E+03  0.31522245718E+03  0.00000000000E+00 0.  1.
         21   -1    0    0  501  502  0.00000000000E+00 -0.00000000000E+00 -0.64711471744E+03  0.64711471744E+03  0.00000000000E+00 0.  1.
        -13    1    1    2    0    0 -0.65850639391E+02 -0.11204357311E+03  0.28137089103E+03  0.30993492618E+03  0.10566000000E+00 0.  1.
         13    1    1    2    0    0  0.67431500202E+02  0.74370985158E+02 -0.11474996050E+03  0.15246512798E+03  0.10566000000E+00 0. -1.
          4    1    1    2  501    0 -0.15808608115E+01  0.37672587950E+02 -0.49851319080E+03  0.49993712046E+03  0.00000000000E+00 0.  1.
</event>
<event>
 5    1  0.2540860E-005  0.5656413E+03  0.7818608E-02  0.9344649E-01
          4   -1    0    0  502    0 -0.00000000000E+00  0.00000000000E+00  0.11158540411E+04  0.11158540411E+04  0.00000000000E+00 0.  1.
         21   -1    0    0  501  502  0.00000000000E+00 -0.00000000000E+00 -0.72967907977E+03  0.72967907977E+03  0.00000000000E+00 0.  1.
        -13    1    1    2    0    0 -0.33925425959E+03 -0.49662558620E+03  0.75493348057E+03  0.96522277054E+03  0.10566000000E+00 0.  1.
         13    1    1    2    0    0  0.42583189062E+03  0.25828871860E+03 -0.94753365174E+02  0.50697541617E+03  0.10566000000E+00 0. -1.
          4    1    1    2  501    0 -0.86577631031E+02  0.23833686760E+03 -0.27400515404E+03  0.37333493420E+03  0.00000000000E+00 0.  1.
</event>
<event>
 5    1  0.2540860E-005  0.1091585E+03  0.7818608E-02  0.1150232E+00
         -4   -1    0    0    0  501 -0.00000000000E+00  0.00000000000E+00  0.38337861437E+03  0.38337861437E+03  0.00000000000E+00 0. -1.
         21   -1    0    0  501  502  0.00000000000E+00 -0.00000000000E+00 -0.72023548764E+02  0.72023548764E+02  0.00000000000E+00 0.  1.
        -13    1    1    2    0    0 -0.36480470049E+02 -0.94678259369E+02 -0.11206401647E+02  0.10208032178E+03  0.10566000000E+00 0.  1.
         13    1    1    2    0    0  0.50420832366E+02  0.98323960349E+02  0.32018796263E+03  0.33871847321E+03  0.10566000000E+00 0. -1.
         -4    1    1    2    0  502 -0.13940362317E+02 -0.36457009797E+01  0.23735046245E+01  0.14603368151E+02  0.00000000000E+00 0. -1.
</event>
<event>
 5    1  0.2540860E-005  0.8490233E+02  0.7818608E-02  0.1192284E+00
         -4   -1    0    0    0  501 -0.00000000000E+00  0.00000000000E+00  0.15094550326E+03  0.15094550326E+03  0.00000000000E+00 0. -1.
         21   -1    0    0  501  502  0.00000000000E+00 -0.00000000000E+00 -0.85405490409E+02  0.85405490409E+02  0.00000000000E+00 0. -1.
        -13    1    1    2    0    0 -0.14526935620E+02  0.81019663173E+02  0.27517037501E+02  0.86789493581E+02  0.10566000000E+00 0.  1.
         13    1    1    2    0    0  0.58694963138E+00 -0.87207575955E+02  0.71500558020E+02  0.11277343116E+03  0.10566000000E+00 0. -1.
         -4    1    1    2    0  502  0.13939985989E+02  0.61879127817E+01 -0.33477582672E+02  0.36788068929E+02  0.00000000000E+00 0. -1.
</event>
<event>
 5    1  0.2540860E-005  0.1406065E+03  0.7818608E-02  0.1110764E+00
         21   -1    0    0  501  502  0.00000000000E+00  0.00000000000E+00  0.22520357350E+03  0.22520357350E+03  0.00000000000E+00 0. -1.
          4   -1    0    0  502    0 -0.00000000000E+00 -0.00000000000E+00 -0.16541113624E+03  0.16541113624E+03  0.00000000000E+00 0.  1.
        -13    1    1    2    0    0  0.98790803534E+02 -0.99563277396E+02 -0.86131715139E+02  0.16459390203E+03  0.10566000000E+00 0.  1.
         13    1    1    2    0    0 -0.82620143680E+02  0.11720293867E+03  0.10190749818E+03  0.17591977241E+03  0.10566000000E+00 0. -1.
          4    1    1    2  501    0 -0.16170659855E+02 -0.17639661273E+02  0.44016654216E+02  0.50101035302E+02  0.00000000000E+00 0.  1.
</event>
<event>
 5    1  0.2540860E-005  0.3363152E+03  0.7818608E-02  0.9996766E-01
         21   -1    0    0  501  502  0.00000000000E+00  0.00000000000E+00  0.23009262134E+03  0.23009262134E+03  0.00000000000E+00 0.  1.
          4   -1    0    0  502    0 -0.00000000000E+00 -0.00000000000E+00 -0.18719920587E+04  0.18719920587E+04  0.00000000000E+00 0.  1.
        -13    1    1    2    0    0  0.42516727924E+03  0.92565826262E+01 -0.10400211097E+04  0.11236088374E+04  0.10566000000E+00 0.  1.
         13    1    1    2    0    0 -0.16324715289E+03 -0.21873985893E+03 -0.58161724168E+03  0.64247598072E+03  0.10566000000E+00 0. -1.
          4    1    1    2  501    0 -0.26192012635E+03  0.20948327630E+03 -0.20261086014E+02  0.33599986197E+03  0.00000000000E+00 0.  1.
</event>
<event>
 5    1  0.2540860E-005  0.4688676E+03  0.7818608E-02  0.9665724E-01
          4   -1    0    0  502    0 -0.00000000000E+00  0.00000000000E+00  0.15118612004E+04  0.15118612004E+04  0.00000000000E+00 0.  1.
         21   -1    0    0  501  502  0.00000000000E+00 -0.00000000000E+00 -0.40520554684E+03  0.40520554684E+03  0.00000000000E+00 0.  1.
        -13    1    1    2    0    0 -0.11010788667E+03 -0.36055567062E+03  0.11250562938E+03  0.39342301170E+03  0.10566000000E+00 0.  1.
         13    1    1    2    0    0 -0.25964821570E+03 -0.16878141979E+03  0.78667806462E+03  0.84543879264E+03  0.10566000000E+00 0. -1.
          4    1    1    2  501    0  0.36975610237E+03  0.52933709041E+03  0.20747195952E+03  0.67820494286E+03  0.00000000000E+00 0.  1.
</event>
<event>
 5    1  0.2540860E-005  0.1641684E+03  0.7818608E-02  0.1087921E+00
          4   -1    0    0  502    0 -0.00000000000E+00  0.00000000000E+00  0.18982514060E+04  0.18982514060E+04  0.00000000000E+00 0.  1.
         21   -1    0    0  501  502  0.00000000000E+00 -0.00000000000E+00 -0.19511129229E+02  0.19511129229E+02  0.00000000000E+00 0. -1.
        -13    1    1    2    0    0  0.16318379705E+03  0.39871404569E+02  0.89462137718E+03  0.91025606298E+03  0.10566000000E+00 0.  1.
         13    1    1    2    0    0 -0.16372314759E+03  0.11221947142E+02  0.78145435897E+03  0.79849992328E+03  0.10566000000E+00 0. -1.
          4    1    1    2  501    0  0.53935053550E+00 -0.51093351711E+02  0.20266454063E+03  0.20900654899E+03  0.00000000000E+00 0.  1.
</event>
<event>
 5    1  0.2540860E-005  0.3141550E+03  0.7818608E-02  0.1021433E+00
          4   -1    0    0  502    0 -0.00000000000E+00  0.00000000000E+00  0.10951835127E+04  0.10951835127E+04  0.00000000000E+00 0.  1.
         21   -1    0    0  501  502  0.00000000000E+00 -0.00000000000E+00 -0.16850250333E+03  0.16850250333E+03  0.00000000000E+00 0.  1.
        -13    1    1    2    0    0 -0.42153223164E+03  0.51232369008E+02  0.47743094134E+03  0.63894795787E+03  0.10566000000E+00 0.  1.
         13    1    1    2    0    0  0.16654375748E+03 -0.11812981261E+01  0.23452489885E+03  0.28764588988E+03  0.10566000000E+00 0. -1.
          4    1    1    2  501    0  0.25498847417E+03 -0.50051070882E+02  0.21472516921E+03  0.33709216833E+03  0.00000000000E+00 0.  1.
</event>
<event>
 5    1  0.2540860E-005  0.4749642E+03  0.7818608E-02  0.9560789E-01
          4   -1    0    0  502    0 -0.00000000000E+00  0.00000000000E+00  0.29239123398E+04  0.29239123398E+04  0.00000000000E+00 0.  1.
         21   -1    0    0  501  502  0.00000000000E+00 -0.00000000000E+00 -0.26564337394E+03  0.26564337394E+03  0.00000000000E+00 0.  1.
        -13    1    1    2    0    0 -0.34031153076E+02 -0.37642697613E+03  0.82660157606E+03  0.90891449787E+03  0.10566000000E+00 0.  1.
         13    1    1    2    0    0 -0.42999690812E+03  0.44221456741E+02  0.16123082348E+04  0.16692485535E+04  0.10566000000E+00 0. -1.
          4    1    1    2  501    0  0.46402806120E+03  0.33220551939E+03  0.21935915498E+03  0.61139266234E+03  0.00000000000E+00 0.  1.
</event>
<event>
 5    1  0.2540860E-005  0.4316536E+03  0.7818608E-02  0.1010354E+00
         21   -1    0    0  501  502  0.00000000000E+00  0.00000000000E+00  0.21986433564E+04  0.21986433564E+04  0.00000000000E+00 0.  1.
          4   -1    0    0  502    0 -0.00000000000E+00 -0.00000000000E+00 -0.20712609926E+03  0.20712609926E+03  0.00000000000E+00 0.  1.
        -13    1    1    2    0    0  0.43610107896E+03 -0.98883475706E+02  0.14663231406E+04  0.15329923863E+04  0.10566000000E+00 0.  1.
         13    1    1    2    0    0 -0.28024573462E+02  0.86885598183E+02 -0.94046782305E+02  0.13106979940E+03  0.10566000000E+00 0. -1.
          4    1    1    2  501    0 -0.40807650549E+03  0.11997877523E+02  0.61924089887E+03  0.74170726991E+03  0.00000000000E+00 0.  1.
</event>
<event>
 5    1  0.2540860E-005  0.4925996E+03  0.7818608E-02  0.9863820E-01
         -4   -1    0    0    0  501 -0.00000000000E+00  0.00000000000E+00  0.22527742191E+04  0.22527742191E+04  0.00000000000E+00 0. -1.
         21   -1    0    0  501  502  0.00000000000E+00 -0.00000000000E+00 -0.14883972451E+03  0.14883972451E+03  0.00000000000E+00 0. -1.
        -13    1    1    2    0    0  0.11392469498E+03  0.72694958554E+02  0.26166534888E+03  0.29450324123E+03  0.10566000000E+00 0.  1.
         13    1    1    2    0    0  0.31491490168E+02  0.45907049057E+03  0.68451092169E+03  0.82479854652E+03  0.10566000000E+00 0. -1.
         -4    1    1    2    0  502 -0.14541618515E+03 -0.53176544912E+03  0.11577582240E+04  0.12823121559E+04  0.00000000000E+00 0. -1.
</event>
<event>
 5    1  0.2540860E-005  0.2484335E+03  0.7818608E-02  0.1043022E+00
         21   -1    0    0  501  502  0.00000000000E+00  0.00000000000E+00  0.13821734386E+04  0.13821734386E+04  0.00000000000E+00 0.  1.
          4   -1    0    0  502    0 -0.00000000000E+00 -0.00000000000E+00 -0.24146252615E+03  0.24146252615E+03  0.00000000000E+00 0.  1.
        -13    1    1    2    0    0 -0.36478165611E+03 -0.18084000928E+03  0.18343894221E+02  0.40756014919E+03  0.10566000000E+00 0.  1.
         13    1    1    2    0    0  0.16397231594E+03  0.56173006169E+02  0.20356642394E+03  0.26736048163E+03  0.10566000000E+00 0. -1.
          4    1    1    2  501    0  0.20080934017E+03  0.12466700311E+03  0.91880059426E+03  0.94871533390E+03  0.00000000000E+00 0.  1.
</event>
<event>
 5    1  0.2540860E-005  0.5332378E+03  0.7818608E-02  0.9616764E-01
         21   -1    0    0  501  502  0.00000000000E+00  0.00000000000E+00  0.19852405794E+03  0.19852405794E+03  0.00000000000E+00 0.  1.
          4   -1    0    0  502    0 -0.00000000000E+00 -0.00000000000E+00 -0.25777511166E+04  0.25777511166E+04  0.00000000000E+00 0.  1.
        -13    1    1    2    0    0 -0.64757231022E+02  0.61386556569E+03 -0.56840278267E+03  0.83911034210E+03  0.10566000000E+00 0.  1.
         13    1    1    2    0    0  0.15477275544E+03 -0.19658338267E+03 -0.84376103759E+03  0.88007518536E+03  0.10566000000E+00 0. -1.
          4    1    1    2  501    0 -0.90015524422E+02 -0.41728218301E+03 -0.96706323845E+03  0.10570896471E+04  0.00000000000E+00 0.  1.
</event>
<event>
 5    1  0.2540860E-005  0.3045839E+03  0.7818608E-02  0.1008434E+00
          4   -1    0    0  502    0 -0.00000000000E+00  0.00000000000E+00  0.27208273655E+04  0.27208273655E+04  0.00000000000E+00 0.  1.
         21   -1    0    0  501  502  0.00000000000E+00 -0.00000000000E+00 -0.19889954418E+03  0.19889954418E+03  0.00000000000E+00 0.  1.
        -13    1    1    2    0    0  0.74879091840E+02 -0.19669615881E+02 -0.14956765264E+03  0.16841694114E+03  0.10566000000E+00 0.  1.
         13    1    1    2    0    0  0.25632782325E+01  0.32987803894E+03  0.11386724664E+04  0.11854961357E+04  0.10566000000E+00 0. -1.
          4    1    1    2  501    0 -0.77442370072E+02 -0.31020842306E+03  0.15328230076E+04  0.15658138329E+04  0.00000000000E+00 0.  1.
</event>
<event>
 5    1  0.2540860E-005  0.2984722E+03  0.7818608E-02  0.1007938E+00
         21   -1    0    0  501  502  0.00000000000E+00  0.00000000000E+00  0.39100221666E+03  0.39100221666E+03  0.00000000000E+00 0. -1.
         -4   -1    0    0    0  501 -0.00000000000E+00 -0.00000000000E+00 -0.11728327813E+04  0.11728327813E+04  0.00000000000E+00 0. -1.
        -13    1    1    2    0    0  0.27303974813E+03 -0.13690242689E+03 -0.54394439403E+03  0.62383370661E+03  0.10566000000E+00 0.  1.
         13    1    1    2    0    0 -0.27351011921E+03  0.10458102015E+03 -0.55166424626E+03  0.62456258842E+03  0.10566000000E+00 0. -1.
         -4    1    1    2    0  502  0.47037107460E+00  0.32321406737E+02  0.31377807562E+03  0.31543870296E+03  0.00000000000E+00 0. -1.
</event>
<event>
 5    1  0.2540860E-005  0.3755095E+03  0.7818608E-02  0.9992206E-01
         21   -1    0    0  501  502  0.00000000000E+00  0.00000000000E+00  0.18288578605E+03  0.18288578605E+03  0.00000000000E+00 0.  1.
          4   -1    0    0  502    0 -0.00000000000E+00 -0.00000000000E+00 -0.20946553972E+04  0.20946553972E+04  0.00000000000E+00 0.  1.
        -13    1    1    2    0    0 -0.30955236600E+03 -0.30526698214E+03 -0.12113297164E+04  0.12869849613E+04  0.10566000000E+00 0.  1.
         13    1    1    2    0    0  0.19337854618E+03 -0.47139454946E+02 -0.55912461775E+03  0.59349620022E+03  0.10566000000E+00 0. -1.
          4    1    1    2  501    0  0.11617381982E+03  0.35240643709E+03 -0.14131527699E+03  0.39706002169E+03  0.00000000000E+00 0.  1.
</event>
<event>
 5    1  0.2540860E-005  0.2499929E+03  0.7818608E-02  0.1115514E+00
         21   -1    0    0  501  502  0.00000000000E+00  0.00000000000E+00  0.46199731571E+03  0.46199731571E+03  0.00000000000E+00 0. -1.
         -4   -1    0    0    0  501 -0.00000000000E+00 -0.00000000000E+00 -0.15840422579E+03  0.15840422579E+03  0.00000000000E+00 0. -1.
        -13    1    1    2    0    0 -0.20785657447E+02 -0.73998641771E+01  0.25655948788E+02  0.33838445851E+02  0.10566000000E+00 0.  1.
         13    1    1    2    0    0  0.73935994966E+02 -0.23782789288E+03  0.64823361575E+02  0.25735329287E+03  0.10566000000E+00 0. -1.
         -4    1    1    2    0  502 -0.53150337520E+02  0.24522775706E+03  0.21311377955E+03  0.32920980278E+03  0.00000000000E+00 0. -1.
</event>
<event>
 5    1  0.2540860E-005  0.4708827E+03  0.7818608E-02  0.9827024E-01
         21   -1    0    0  501  502  0.00000000000E+00  0.00000000000E+00  0.29906815072E+03  0.29906815072E+03  0.00000000000E+00 0.  1.
          4   -1    0    0  502    0 -0.00000000000E+00 -0.00000000000E+00 -0.12326941552E+04  0.12326941552E+04  0.00000000000E+00 0.  1.
        -13    1    1    2    0    0 -0.13367268547E+03 -0.42062440940E+03 -0.26612849996E+03  0.51538109228E+03  0.10566000000E+00 0.  1.
         13    1    1    2    0    0  0.12720788037E+03 -0.12050452532E+03 -0.26056425209E+02  0.17715003220E+03  0.10566000000E+00 0. -1.
          4    1    1    2  501    0  0.64648051023E+01  0.54112893472E+03 -0.64144107934E+03  0.83923118148E+03  0.00000000000E+00 0.  1.
</event>
<event>
 5    1  0.2540860E-005  0.2804140E+03  0.7818608E-02  0.1043015E+00
         21   -1    0    0  501  502  0.00000000000E+00  0.00000000000E+00  0.31614593242E+03  0.31614593242E+03  0.00000000000E+00 0.  1.
          4   -1    0    0  502    0 -0.00000000000E+00 -0.00000000000E+00 -0.84124721268E+03  0.84124721268E+03  0.00000000000E+00 0.  1.
        -13    1    1    2    0    0  0.32929531410E+03  0.12442651461E+03 -0.51770891693E+03  0.62605103247E+03  0.10566000000E+00 0.  1.
         13    1    1    2    0    0 -0.11314170286E+03  0.41625113347E+02 -0.17414938216E+03  0.21180583905E+03  0.10566000000E+00 0. -1.
          4    1    1    2  501    0 -0.21615361125E+03 -0.16605162796E+03  0.16675701883E+03  0.31953627358E+03  0.00000000000E+00 0.  1.
</event>
<event>
 5    1  0.2540860E-005  0.1751747E+03  0.7818608E-02  0.1078630E+00
          4   -1    0    0  502    0 -0.00000000000E+00  0.00000000000E+00  0.10731230330E+04  0.10731230330E+04  0.00000000000E+00 0.  1.
         21   -1    0    0  501  502  0.00000000000E+00 -0.00000000000E+00 -0.54030306831E+02  0.54030306831E+02  0.00000000000E+00 0. -1.
        -13    1    1    2    0    0  0.12231469325E+03 -0.10188991663E+03  0.37431540294E+03  0.40676095109E+03  0.10566000000E+00 0.  1.
         13    1    1    2    0    0 -0.17666020069E+03  0.76840156903E+02  0.62994017194E+03  0.65873960532E+03  0.10566000000E+00 0. -1.
          4    1    1    2  501    0  0.54345507440E+02  0.25049759723E+02  0.14837151247E+02  0.61652783377E+02  0.00000000000E+00 0.  1.
</event>
<event>
 5    1  0.2540860E-005  0.5448108E+03  0.7818608E-02  0.9384817E-01
          4   -1    0    0  502    0 -0.00000000000E+00  0.00000000000E+00  0.23912617079E+04  0.23912617079E+04  0.00000000000E+00 0.  1.
         21   -1    0    0  501  502  0.00000000000E+00 -0.00000000000E+00 -0.36534073316E+03  0.36534073316E+03  0.00000000000E+00 0.  1.
        -13    1    1    2    0    0  0.34878210507E+03 -0.51590199397E+03  0.40091513125E+03  0.74063268753E+03  0.10566000000E+00 0.  1.
         13    1    1    2    0    0 -0.57733907455E+03  0.51253281514E+02  0.12461692425E+04  0.13743671627E+04  0.10566000000E+00 0. -1.
          4    1    1    2  501    0  0.22855696948E+03  0.46464871246E+03  0.37883660102E+03  0.64160259083E+03  0.00000000000E+00 0.  1.
</event>
<event>
 5    1  0.2540860E-005  0.1460091E+03  0.7818608E-02  0.1105115E+00
         21   -1    0    0  501  502  0.00000000000E+00  0.00000000000E+00  0.78110336442E+03  0.78110336442E+03  0.00000000000E+00 0.  1.
         -4   -1    0    0    0  501 -0.00000000000E+00 -0.00000000000E+00 -0.54795456186E+02  0.54795456186E+02  0.00000000000E+00 0. -1.
        -13    1    1    2    0    0 -0.11063996603E+03  0.10448327037E+03  0.17385433773E+03  0.23104825856E+03  0.10566000000E+00 0.  1.
         13    1    1    2    0    0  0.91140225999E+02 -0.10709259560E+03  0.16457094592E+03  0.21646933324E+03  0.10566000000E+00 0. -1.
         -4    1    1    2    0  502  0.19499740029E+02  0.26093252302E+01  0.38788262458E+03  0.38838122881E+03  0.00000000000E+00 0. -1.
</event>
<event>
 5    1  0.2540860E-005  0.8046495E+03  0.7818608E-02  0.8983616E-01
          4   -1    0    0  502    0 -0.00000000000E+00  0.00000000000E+00  0.15750009881E+04  0.15750009881E+04  0.00000000000E+00 0.  1.
         21   -1    0    0  501  502  0.00000000000E+00 -0.00000000000E+00 -0.59377242142E+03  0.59377242142E+03  0.00000000000E+00 0. -1.
        -13    1    1    2    0    0 -0.54237192711E+03 -0.77055353329E+03  0.53458580784E+03  0.10833753053E+04  0.10566000000E+00 0.  1.
         13    1    1    2    0    0  0.37766153446E+03  0.55520201586E+03  0.15884241823E+03  0.69000611448E+03  0.10566000000E+00 0. -1.
          4    1    1    2  501    0  0.16471039264E+03  0.21535151743E+03  0.28780034056E+03  0.39539198971E+03  0.00000000000E+00 0.  1.
</event>
<event>
 5    1  0.2540860E-005  0.2951354E+03  0.7818608E-02  0.1009334E+00
         21   -1    0    0  501  502  0.00000000000E+00  0.00000000000E+00  0.44282185971E+03  0.44282185971E+03  0.00000000000E+00 0. -1.
         -4   -1    0    0    0  501 -0.00000000000E+00 -0.00000000000E+00 -0.19529856265E+04  0.19529856265E+04  0.00000000000E+00 0. -1.
        -13    1    1    2    0    0 -0.13375257581E+03  0.24599977833E+03 -0.12944513949E+04  0.13243904513E+04  0.10566000000E+00 0.  1.
         13    1    1    2    0    0  0.12069321438E+03 -0.32254547536E+03 -0.59325619231E+03  0.68597037585E+03  0.10566000000E+00 0. -1.
         -4    1    1    2    0  502  0.13059361428E+02  0.76545697029E+02  0.37754382043E+03  0.38544665909E+03  0.00000000000E+00 0. -1.
</event>
<event>
 5    1  0.2540860E-005  0.6125999E+03  0.7818608E-02  0.9260431E-01
         -4   -1    0    0    0  501 -0.00000000000E+00  0.00000000000E+00  0.33799366752E+04  0.33799366752E+04  0.00000000000E+00 0. -1.
         21   -1    0    0  501  502  0.00000000000E+00 -0.00000000000E+00 -0.23174765597E+03  0.23174765597E+03  0.00000000000E+00 0. -1.
        -13    1    1    2    0    0 -0.91692369242E+02  0.52942525057E+03  0.16001075191E+04  0.16879107412E+04  0.10566000000E+00 0.  1.
         13    1    1    2    0    0  0.34461112023E+02 -0.82057120936E+03  0.12965645117E+04  0.15347977789E+04  0.10566000000E+00 0. -1.
         -4    1    1    2    0  502  0.57231257219E+02  0.29114595879E+03  0.25151698843E+03  0.38897581106E+03  0.00000000000E+00 0. -1.
</event>
<event>
 5    1  0.2540860E-005  0.4194971E+03  0.7818608E-02  0.9787102E-01
         -4   -1    0    0    0  501 -0.00000000000E+00  0.00000000000E+00  0.16716922847E+04  0.16716922847E+04  0.00000000000E+00 0. -1.
         21   -1    0    0  501  502  0.00000000000E+00 -0.00000000000E+00 -0.27066089503E+03  0.27066089503E+03  0.00000000000E+00 0. -1.
        -13    1    1    2    0    0 -0.28374183227E+03  0.11029881596E+02  0.45927178301E+03  0.53996450578E+03  0.10566000000E+00 0.  1.
         13    1    1    2    0    0  0.50293509289E+03 -0.31730622246E+03  0.80687150820E+03  0.10023315761E+04  0.10566000000E+00 0. -1.
         -4    1    1    2    0  502 -0.21919326062E+03  0.30627634087E+03  0.13488809848E+03  0.40005709791E+03  0.00000000000E+00 0. -1.
</event>
<event>
 5    1  0.2540860E-005  0.1192401E+03  0.7818608E-02  0.1148399E+00
          4   -1    0    0  502    0 -0.00000000000E+00  0.00000000000E+00  0.40979989669E+03  0.40979989669E+03  0.00000000000E+00 0.  1.
         21   -1    0    0  501  502  0.00000000000E+00 -0.00000000000E+00 -0.22436849369E+03  0.22436849369E+03  0.00000000000E+00 0. -1.
        -13    1    1    2    0    0  0.24954193502E+02 -0.84507319535E+02  0.32133600896E+03  0.33319820025E+03  0.10566000000E+00 0.  1.
         13    1    1    2    0    0  0.92796862506E+02  0.10329246042E+03 -0.11417141368E+03  0.17976571680E+03  0.10566000000E+00 0. -1.
          4    1    1    2  501    0 -0.11775105601E+03 -0.18785140885E+02 -0.21733192283E+02  0.12120447333E+03  0.00000000000E+00 0.  1.
</event>
<event>
 5    1  0.2540860E-005  0.1369199E+03  0.7818608E-02  0.1114780E+00
          4   -1    0    0  502    0 -0.00000000000E+00  0.00000000000E+00  0.40106335980E+03  0.40106335980E+03  0.00000000000E+00 0.  1.
         21   -1    0    0  501  502  0.00000000000E+00 -0.00000000000E+00 -0.11966347979E+03  0.11966347979E+03  0.00000000000E+00 0. -1.
        -13    1    1    2    0    0  0.52025749011E+02 -0.12538082574E+03  0.31076191653E+03  0.33911651383E+03  0.10566000000E+00 0.  1.
         13    1    1    2    0    0 -0.47300565796E+02  0.13461817016E+03  0.79252818808E+01  0.14290632078E+03  0.10566000000E+00 0. -1.
          4    1    1    2  501    0 -0.47251832149E+01 -0.92373444178E+01 -0.37287318396E+02  0.38704004980E+02  0.00000000000E+00 0.  1.
</event>
<event>
 5    1  0.2540860E-005  0.7378367E+02  0.7818608E-02  0.1295418E+00
         21   -1    0    0  501  502  0.00000000000E+00  0.00000000000E+00  0.76423643939E+03  0.76423643939E+03  0.00000000000E+00 0.  1.
          4   -1    0    0  502    0 -0.00000000000E+00 -0.00000000000E+00 -0.19409336531E+02  0.19409336531E+02  0.00000000000E+00 0.  1.
        -13    1    1    2    0    0 -0.79602316075E+02  0.70915193169E+01  0.88923900382E+02  0.11955872864E+03  0.10566000000E+00 0.  1.
         13    1    1    2    0    0  0.67538923728E+01 -0.12821019319E+02  0.24466267034E+02  0.28435945301E+02  0.10566000000E+00 0. -1.
          4    1    1    2  501    0  0.72848423702E+02  0.57295000024E+01  0.63143693545E+03  0.63565110198E+03  0.00000000000E+00 0.  1.
</event>
<event>
 5    1  0.2540860E-005  0.8972610E+02  0.7818608E-02  0.1244689E+00
         -4   -1    0    0    0  501 -0.00000000000E+00  0.00000000000E+00  0.32576757333E+03  0.32576757333E+03  0.00000000000E+00 0. -1.
         21   -1    0    0  501  502  0.00000000000E+00 -0.00000000000E+00 -0.36176088597E+02  0.36176088597E+02  0.00000000000E+00 0. -1.
        -13    1    1    2    0    0 -0.40158495496E+01 -0.22243775582E+02  0.77338276652E+02  0.80573772403E+02  0.10566000000E+00 0.  1.
         13    1    1    2    0    0 -0.72597056833E+02  0.62623492666E+02  0.13316415587E+03  0.16408759267E+03  0.10566000000E+00 0. -1.
         -4    1    1    2    0  502  0.76612906383E+02 -0.40379717084E+02  0.79089052210E+02  0.11728229686E+03  0.00000000000E+00 0. -1.
</event>
<event>
 5    1  0.2540860E-005  0.2875905E+03  0.7818608E-02  0.1012563E+00
         21   -1    0    0  501  502  0.00000000000E+00  0.00000000000E+00  0.29735768143E+03  0.29735768143E+03  0.00000000000E+00 0. -1.
          4   -1    0    0  502    0 -0.00000000000E+00 -0.00000000000E+00 -0.10140967550E+04  0.10140967550E+04  0.00000000000E+00 0.  1.
        -13    1    1    2    0    0 -0.55737569247E+02 -0.28044441229E+03 -0.87281480284E+03  0.91845600670E+03  0.10566000000E+00 0.  1.
         13    1    1    2    0    0  0.54470735107E+02  0.29673862130E+03  0.75796284688E+02  0.31107227181E+03  0.10566000000E+00 0. -1.
          4    1    1    2  501    0  0.12668341400E+01 -0.16294209006E+02  0.80279444626E+02  0.81926157882E+02  0.00000000000E+00 0.  1.
</event>
<event>
 5    1  0.2540860E-005  0.3852240E+03  0.7818608E-02  0.9772716E-01
         21   -1    0    0  501  502  0.00000000000E+00  0.00000000000E+00  0.59521502426E+03  0.59521502426E+03  0.00000000000E+00 0. -1.
         -4   -1    0    0    0  501 -0.00000000000E+00 -0.00000000000E+00 -0.13444197101E+04  0.13444197101E+04  0.00000000000E+00 0. -1.
        -13    1    1    2    0    0 -0.25909094224E+03  0.23471607205E+03 -0.79879309096E+03  0.87194619338E+03  0.10566000000E+00 0.  1.
         13    1    1    2    0    0  0.35634895082E+03 -0.55618916410E+03 -0.14948968916E+03  0.67725780863E+03  0.10566000000E+00 0. -1.
         -4    1    1    2    0  502 -0.97258008581E+02  0.32147309205E+03  0.19907809427E+03  0.39043073235E+03  0.00000000000E+00 0. -1.
</event>
<event>
 5    1  0.2540860E-005  0.3713789E+03  0.7818608E-02  0.1005805E+00
          4   -1    0    0  502    0 -0.00000000000E+00  0.00000000000E+00  0.31293568619E+04  0.31293568619E+04  0.00000000000E+00 0.  1.
         21   -1    0    0  501  502  0.00000000000E+00 -0.00000000000E+00 -0.71123833366E+02  0.71123833366E+02  0.00000000000E+00 0.  1.
        -13    1    1    2    0    0 -0.40764921851E+03 -0.14751024225E+03  0.10270926886E+04  0.11148347676E+04  0.10566000000E+00 0.  1.
         13    1    1    2    0    0  0.16599987421E+03 -0.40568318581E+00  0.45708756969E+03  0.48629741963E+03  0.10566000000E+00 0. -1.
          4    1    1    2  501    0  0.24164934430E+03  0.14791592544E+03  0.15740527703E+04  0.15993485081E+04  0.00000000000E+00 0.  1.
</event>
<event>
 5    1  0.2540860E-005  0.3577034E+03  0.7818608E-02  0.9889156E-01
         21   -1    0    0  501  502  0.00000000000E+00  0.00000000000E+00  0.69365094611E+03  0.69365094611E+03  0.00000000000E+00 0.  1.
          4   -1    0    0  502    0 -0.00000000000E+00 -0.00000000000E+00 -0.90783757713E+03  0.90783757713E+03  0.00000000000E+00 0.  1.
        -13    1    1    2    0    0 -0.27774728063E+02  0.14457512749E+03 -0.40199440198E+03  0.42810385819E+03  0.10566000000E+00 0.  1.
         13    1    1    2    0    0  0.37513896833E+03  0.21828329720E+02 -0.34889974282E+03  0.51277359843E+03  0.10566000000E+00 0. -1.
          4    1    1    2  501    0 -0.34736424026E+03 -0.16640345721E+03  0.53670751379E+03  0.66061106663E+03  0.00000000000E+00 0.  1.
</event>
<event>
 5    1  0.2540860E-005  0.1597092E+03  0.7818608E-02  0.1091912E+00
         21   -1    0    0  501  502  0.00000000000E+00  0.00000000000E+00  0.18027360784E+03  0.18027360784E+03  0.00000000000E+00 0. -1.
          4   -1    0    0  502    0 -0.00000000000E+00 -0.00000000000E+00 -0.16663003174E+03  0.16663003174E+03  0.00000000000E+00 0.  1.
        -13    1    1    2    0    0 -0.15268977118E+03 -0.39158727030E+02  0.52181977150E+01  0.15771750974E+03  0.10566000000E+00 0.  1.
         13    1    1    2    0    0  0.15890812703E+03  0.30097539989E+02 -0.15880661034E+02  0.16251111134E+03  0.10566000000E+00 0. -1.
          4    1    1    2  501    0 -0.62183558511E+01  0.90611870409E+01  0.24306039422E+02  0.26675018509E+02  0.00000000000E+00 0.  1.
</event>
<event>
 5    1  0.2540860E-005  0.2720266E+03  0.7818608E-02  0.1030954E+00
         21   -1    0    0  501  502  0.00000000000E+00  0.00000000000E+00  0.13966516106E+03  0.13966516106E+03  0.00000000000E+00 0.  1.
          4   -1    0    0  502    0 -0.00000000000E+00 -0.00000000000E+00 -0.23108810358E+04  0.23108810358E+04  0.00000000000E+00 0.  1.
        -13    1    1    2    0    0 -0.24461877418E+03  0.35387447017E+03 -0.16526801914E+04  0.17077521224E+04  0.10566000000E+00 0.  1.
         13    1    1    2    0    0  0.53532501197E+02 -0.18305472819E+03 -0.43207615520E+03  0.47229712815E+03  0.10566000000E+00 0. -1.
          4    1    1    2  501    0  0.19108627298E+03 -0.17081974198E+03 -0.86459528173E+02  0.27049694635E+03  0.00000000000E+00 0.  1.
</event>
<event>
 5    1  0.2540860E-005  0.2109999E+03  0.7818608E-02  0.1068785E+00
          4   -1    0    0  502    0 -0.00000000000E+00  0.00000000000E+00  0.36646608879E+03  0.36646608879E+03  0.00000000000E+00 0.  1.
         21   -1    0    0  501  502  0.00000000000E+00 -0.00000000000E+00 -0.15222462678E+04  0.15222462678E+04  0.00000000000E+00 0.  1.
        -13    1    1    2    0    0  0.52776278575E+02  0.29169724746E+03  0.21122690524E+02  0.29718478927E+03  0.10566000000E+00 0.  1.
         13    1    1    2    0    0 -0.98377661712E+02 -0.88925389033E+02  0.17733431395E+03  0.22143477416E+03  0.10566000000E+00 0. -1.
          4    1    1    2  501    0  0.45601383138E+02 -0.20277185843E+03 -0.13542371835E+04  0.13700927931E+04  0.00000000000E+00 0.  1.
</event>
<event>
 5    1  0.2540860E-005  0.4656611E+03  0.7818608E-02  0.9598598E-01
         21   -1    0    0  501  502  0.00000000000E+00  0.00000000000E+00  0.10780324916E+03  0.10780324916E+03  0.00000000000E+00 0.  1.
          4   -1    0    0  502    0 -0.00000000000E+00 -0.00000000000E+00 -0.50484653330E+04  0.50484653330E+04  0.00000000000E+00 0.  1.
        -13    1    1    2    0    0  0.41211292935E+03 -0.11468301414E+02 -0.11041527675E+04  0.11786101703E+04  0.10566000000E+00 0.  1.
         13    1    1    2    0    0  0.84262716721E+02 -0.39177617784E+03 -0.17523020175E+04  0.17975403057E+04  0.10566000000E+00 0. -1.
          4    1    1    2  501    0 -0.49637564607E+03  0.40324447925E+03 -0.20842072989E+04  0.21801181061E+04  0.00000000000E+00 0.  1.
</event>
<event>
 5    1  0.2540860E-005  0.4740808E+03  0.7818608E-02  0.9816219E-01
         21   -1    0    0  501  502  0.00000000000E+00  0.00000000000E+00  0.57886850431E+03  0.57886850431E+03  0.00000000000E+00 0.  1.
          4   -1    0    0  502    0 -0.00000000000E+00 -0.00000000000E+00 -0.63808275674E+03  0.63808275674E+03  0.00000000000E+00 0.  1.
        -13    1    1    2    0    0 -0.25238983918E+02  0.58164933989E+03 -0.62883199060E+02  0.58558284537E+03  0.10566000000E+00 0.  1.
         13    1    1    2    0    0  0.69816630615E+02 -0.16387212972E+03 -0.91977584753E+02  0.20047025732E+03  0.10566000000E+00 0. -1.
          4    1    1    2  501    0 -0.44577646697E+02 -0.41777721017E+03  0.95646531377E+02  0.43089815837E+03  0.00000000000E+00 0.  1.
</event>
<event>
 5    1  0.2540860E-005  0.2741448E+03  0.7818608E-02  0.1018588E+00
         -4   -1    0    0    0  501 -0.00000000000E+00  0.00000000000E+00  0.21923319664E+03  0.21923319664E+03  0.00000000000E+00 0. -1.
         21   -1    0    0  501  502  0.00000000000E+00 -0.00000000000E+00 -0.19651848448E+04  0.19651848448E+04  0.00000000000E+00 0. -1.
        -13    1    1    2    0    0  0.41898789924E+02  0.26801560179E+03 -0.24299055862E+03  0.36418716910E+03  0.10566000000E+00 0.  1.
         13    1    1    2    0    0  0.20364824390E+03 -0.23673716703E+03 -0.15871001718E+02  0.31268033733E+03  0.10566000000E+00 0. -1.
         -4    1    1    2    0  502 -0.24554703382E+03 -0.31278434761E+02 -0.14870900878E+04  0.15075505350E+04  0.00000000000E+00 0. -1.
</event>
<event>
 5    1  0.2540860E-005  0.4605234E+03  0.7818608E-02  0.9568965E-01
         -4   -1    0    0    0  501 -0.00000000000E+00  0.00000000000E+00  0.26229873698E+04  0.26229873698E+04  0.00000000000E+00 0. -1.
         21   -1    0    0  501  502  0.00000000000E+00 -0.00000000000E+00 -0.20811938714E+03  0.20811938714E+03  0.00000000000E+00 0. -1.
        -13    1    1    2    0    0  0.40271037118E+03 -0.78557208733E+02  0.71952154667E+03  0.82828627019E+03  0.10566000000E+00 0.  1.
         13    1    1    2    0    0 -0.42138722770E+03  0.28583753530E+03  0.17194966288E+04  0.17933039229E+04  0.10566000000E+00 0. -1.
         -4    1    1    2    0  502  0.18676856523E+02 -0.20728032657E+03 -0.24150192727E+02  0.20951656393E+03  0.00000000000E+00 0. -1.
</event>
<event>
 5    1  0.2540860E-005  0.3318816E+03  0.7818608E-02  0.9949517E-01
         21   -1    0    0  501  502  0.00000000000E+00  0.00000000000E+00  0.69441089502E+03  0.69441089502E+03  0.00000000000E+00 0. -1.
          4   -1    0    0  502    0 -0.00000000000E+00 -0.00000000000E+00 -0.27798514103E+03  0.27798514103E+03  0.00000000000E+00 0.  1.
        -13    1    1    2    0    0 -0.26286799553E+03  0.20253676946E+03 -0.97690664965E+02  0.34592514110E+03  0.10566000000E+00 0.  1.
         13    1    1    2    0    0  0.25141528771E+03 -0.21753432404E+03  0.44907833996E+03  0.55875056654E+03  0.10566000000E+00 0. -1.
          4    1    1    2  501    0  0.11452707826E+02  0.14997554584E+02  0.65038078997E+02  0.67720328408E+02  0.00000000000E+00 0.  1.
</event>
<event>
 5    1  0.2540860E-005  0.1264052E+03  0.7818608E-02  0.1127029E+00
          4   -1    0    0  502    0 -0.00000000000E+00  0.00000000000E+00  0.32177015352E+03  0.32177015352E+03  0.00000000000E+00 0.  1.
         21   -1    0    0  501  502  0.00000000000E+00 -0.00000000000E+00 -0.29907766028E+03  0.29907766028E+03  0.00000000000E+00 0. -1.
        -13    1    1    2    0    0 -0.80249752188E+02 -0.77517501682E+02  0.16410904071E+03  0.19844589742E+03  0.10566000000E+00 0.  1.
         13    1    1    2    0    0  0.20028298144E+03  0.10661276991E+03  0.98652910256E+01  0.22710546117E+03  0.10566000000E+00 0. -1.
          4    1    1    2  501    0 -0.12003322925E+03 -0.29095268232E+02 -0.15128183850E+03  0.19529645521E+03  0.00000000000E+00 0.  1.
</event>
<event>
 5    1  0.2540860E-005  0.2455892E+03  0.7818608E-02  0.1032704E+00
         21   -1    0    0  501  502  0.00000000000E+00  0.00000000000E+00  0.35100260473E+03  0.35100260473E+03  0.00000000000E+00 0.  1.
          4   -1    0    0  502    0 -0.00000000000E+00 -0.00000000000E+00 -0.12590515883E+04  0.12590515883E+04  0.00000000000E+00 0.  1.
        -13    1    1    2    0    0  0.20891755080E+02  0.24240274537E+03 -0.10188325649E+04  0.10474804833E+04  0.10566000000E+00 0.  1.
         13    1    1    2    0    0 -0.17772729622E+03 -0.24410082175E+03 -0.83117697415E+02  0.31317848871E+03  0.10566000000E+00 0. -1.
          4    1    1    2  501    0  0.15683554114E+03  0.16980763793E+01  0.19390127868E+03  0.24939522109E+03  0.00000000000E+00 0.  1.
</event>
<event>
 5    1  0.2540860E-005  0.4684279E+03  0.7818608E-02  0.9549993E-01
         21   -1    0    0  501  502  0.00000000000E+00  0.00000000000E+00  0.74373145061E+03  0.74373145061E+03  0.00000000000E+00 0. -1.
          4   -1    0    0  502    0 -0.00000000000E+00 -0.00000000000E+00 -0.49494376472E+03  0.49494376472E+03  0.00000000000E+00 0.  1.
        -13    1    1    2    0    0  0.47140647967E+03 -0.48246019093E+02 -0.24722404845E+03  0.53448244941E+03  0.10566000000E+00 0.  1.
         13    1    1    2    0    0 -0.44999532808E+03  0.69620179086E+01  0.42304783728E+03  0.61766799235E+03  0.10566000000E+00 0. -1.
          4    1    1    2  501    0 -0.21411151591E+02  0.41284001184E+02  0.72963897058E+02  0.86524773563E+02  0.00000000000E+00 0.  1.
</event>
<event>
 5    1  0.2540860E-005  0.4804079E+03  0.7818608E-02  0.9533514E-01
          4   -1    0    0  502    0 -0.00000000000E+00  0.00000000000E+00  0.35604237424E+04  0.35604237424E+04  0.00000000000E+00 0.  1.
         21   -1    0    0  501  502  0.00000000000E+00 -0.00000000000E+00 -0.18988101152E+03  0.18988101152E+03  0.00000000000E+00 0. -1.
        -13    1    1    2    0    0  0.23679047752E+03 -0.11324206829E+03  0.13223561949E+04  0.13481540764E+04  0.10566000000E+00 0.  1.
         13    1    1    2    0    0 -0.75817203950E+02 -0.48462660788E+03  0.14894990915E+04  0.15681896417E+04  0.10566000000E+00 0. -1.
          4    1    1    2  501    0 -0.16097327357E+03  0.59786867616E+03  0.55868744442E+03  0.83396103583E+03  0.00000000000E+00 0.  1.
</event>
<event>
 5    1  0.2911724E-005  0.1140479E+04  0.7818608E-02  0.8652784E-01
         -4   -1    0    0    0  501 -0.00000000000E+00  0.00000000000E+00  0.27095920144E+04  0.27095920144E+04  0.00000000000E+00 0. -1.
         21   -1    0    0  501  502  0.00000000000E+00 -0.00000000000E+00 -0.84298568518E+03  0.84298568518E+03  0.00000000000E+00 0.  1.
        -13    1    1    2    0    0 -0.11015462059E+04 -0.11182773804E+03  0.17306643550E+04  0.20545336715E+04  0.10566000000E+00 0.  1.
         13    1    1    2    0    0  0.12525540670E+04  0.22581383879E+03  0.13756503052E+02  0.12728208173E+04  0.10566000000E+00 0. -1.
         -4    1    1    2    0  502 -0.15100786107E+03 -0.11398610074E+03  0.12218547119E+03  0.22522321070E+03  0.00000000000E+00 0. -1.
</event>
<event>
 5    1  0.2540860E-005  0.8202790E+02  0.7818608E-02  0.1219793E+00
          4   -1    0    0  502    0 -0.00000000000E+00  0.00000000000E+00  0.16372737800E+03  0.16372737800E+03  0.00000000000E+00 0.  1.
         21   -1    0    0  501  502  0.00000000000E+00 -0.00000000000E+00 -0.13625413848E+03  0.13625413848E+03  0.00000000000E+00 0. -1.
        -13    1    1    2    0    0  0.46894164069E+02 -0.12226972159E+02  0.10459171917E+03  0.11527358915E+03  0.10566000000E+00 0.  1.
         13    1    1    2    0    0  0.17952504593E+02 -0.47348555219E+02  0.19243198637E+02  0.54170932799E+02  0.10566000000E+00 0. -1.
          4    1    1    2  501    0 -0.64846668662E+02  0.59575527378E+02 -0.96361678293E+02  0.13053699454E+03  0.00000000000E+00 0.  1.
</event>
<event>
 5    1  0.2540860E-005  0.5016435E+03  0.7818608E-02  0.9474377E-01
         21   -1    0    0  501  502  0.00000000000E+00  0.00000000000E+00  0.39088417015E+03  0.39088417015E+03  0.00000000000E+00 0.  1.
          4   -1    0    0  502    0 -0.00000000000E+00 -0.00000000000E+00 -0.20545809357E+04  0.20545809357E+04  0.00000000000E+00 0.  1.
        -13    1    1    2    0    0  0.32568873544E+03 -0.33309712706E+03  0.60786104177E+02  0.46981039800E+03  0.10566000000E+00 0.  1.
         13    1    1    2    0    0 -0.54598877183E+03 -0.21403509903E+02 -0.95513324105E+03  0.11003823738E+04  0.10566000000E+00 0. -1.
          4    1    1    2  501    0  0.22030003639E+03  0.35450063696E+03 -0.76934962870E+03  0.87527233408E+03  0.00000000000E+00 0.  1.
</event>
<event>
 5    1  0.2540860E-005  0.5081458E+03  0.7818608E-02  0.9582254E-01
         -4   -1    0    0    0  501 -0.00000000000E+00  0.00000000000E+00  0.23545504150E+03  0.23545504150E+03  0.00000000000E+00 0. -1.
         21   -1    0    0  501  502  0.00000000000E+00 -0.00000000000E+00 -0.21042617142E+04  0.21042617142E+04  0.00000000000E+00 0. -1.
        -13    1    1    2    0    0 -0.64969465648E+02 -0.32037052800E+03 -0.31202231663E+03  0.45190291426E+03  0.10566000000E+00 0.  1.
         13    1    1    2    0    0  0.52344704810E+03  0.30082801601E+02 -0.72692853328E+03  0.89628504996E+03  0.10566000000E+00 0. -1.
         -4    1    1    2    0  502 -0.45847758245E+03  0.29028772639E+03 -0.82985582280E+03  0.99152879148E+03  0.00000000000E+00 0. -1.
</event>
<event>
 5    1  0.2540860E-005  0.4721636E+03  0.7818608E-02  0.9615507E-01
          4   -1    0    0  502    0 -0.00000000000E+00  0.00000000000E+00  0.36502775619E+04  0.36502775619E+04  0.00000000000E+00 0.  1.
         21   -1    0    0  501  502  0.00000000000E+00 -0.00000000000E+00 -0.13764285845E+03  0.13764285845E+03  0.00000000000E+00 0.  1.
        -13    1    1    2    0    0 -0.38289105542E+03 -0.52627896224E+03  0.17683829597E+04  0.18843442917E+04  0.10566000000E+00 0.  1.
         13    1    1    2    0    0  0.30931480214E+02  0.36067397489E+03  0.67795205417E+03  0.76854503547E+03  0.10566000000E+00 0. -1.
          4    1    1    2  501    0  0.35195957520E+03  0.16560498735E+03  0.10662996895E+04  0.11350310931E+04  0.00000000000E+00 0.  1.
</event>
<event>
 5    1  0.2540860E-005  0.2852291E+03  0.7818608E-02  0.1013596E+00
         -4   -1    0    0    0  501 -0.00000000000E+00  0.00000000000E+00  0.22325099229E+03  0.22325099229E+03  0.00000000000E+00 0. -1.
         21   -1    0    0  501  502  0.00000000000E+00 -0.00000000000E+00 -0.75444864571E+03  0.75444864571E+03  0.00000000000E+00 0.  1.
        -13    1    1    2    0    0 -0.12558854583E+03 -0.25544492311E+03 -0.25144291701E+03  0.37980013595E+03  0.10566000000E+00 0.  1.
         13    1    1    2    0    0  0.16335036794E+03  0.23525314607E+03  0.27457360221E+02  0.28771740169E+03  0.10566000000E+00 0. -1.
         -4    1    1    2    0  502 -0.37761822108E+02  0.20191777046E+02 -0.30721209663E+03  0.31018210036E+03  0.00000000000E+00 0. -1.
</event>
<event>
 5    1  0.2540860E-005  0.1008772E+04  0.7818608E-02  0.8766393E-01
          4   -1    0    0  502    0 -0.00000000000E+00  0.00000000000E+00  0.23762490318E+04  0.23762490318E+04  0.00000000000E+00 0.  1.
         21   -1    0    0  501  502  0.00000000000E+00 -0.00000000000E+00 -0.63459382994E+03  0.63459382994E+03  0.00000000000E+00 0. -1.
        -13    1    1    2    0    0 -0.92048506620E+03 -0.40376530226E+03  0.10615765913E+04  0.14619384552E+04  0.10566000000E+00 0.  1.
         13    1    1    2    0    0  0.79488665708E+03  0.66705812901E+03  0.70745391163E+03  0.12559070003E+04  0.10566000000E+00 0. -1.
          4    1    1    2  501    0  0.12559840912E+03 -0.26329282675E+03 -0.27375301045E+02  0.29299740630E+03  0.00000000000E+00 0.  1.
</event>
<event>
 5    1  0.2540860E-005  0.1670885E+03  0.7818608E-02  0.1112456E+00
         -4   -1    0    0    0  501 -0.00000000000E+00  0.00000000000E+00  0.20676995659E+03  0.20676995659E+03  0.00000000000E+00 0. -1.
         21   -1    0    0  501  502  0.00000000000E+00 -0.00000000000E+00 -0.15610601249E+04  0.15610601249E+04  0.00000000000E+00 0. -1.
        -13    1    1    2    0    0  0.65665677578E+02  0.45888466859E+02 -0.51062698712E+02  0.95000752450E+02  0.10566000000E+00 0.  1.
         13    1    1    2    0    0  0.57400491602E+02  0.70180015371E+02  0.16853629167E+03  0.19137540011E+03  0.10566000000E+00 0. -1.
         -4    1    1    2    0  502 -0.12306616918E+03 -0.11606848223E+03 -0.14717637612E+04  0.14814539289E+04  0.00000000000E+00 0. -1.
</event>
<event>
 5    1  0.2540860E-005  0.1567556E+03  0.7818608E-02  0.1094634E+00
         -4   -1    0    0    0  501 -0.00000000000E+00  0.00000000000E+00  0.82859448151E+03  0.82859448151E+03  0.00000000000E+00 0. -1.
         21   -1    0    0  501  502  0.00000000000E+00 -0.00000000000E+00 -0.69332493925E+03  0.69332493925E+03  0.00000000000E+00 0.  1.
        -13    1    1    2    0    0 -0.13515239315E+03 -0.40838457337E+01 -0.23927967243E+03  0.27484108130E+03  0.10566000000E+00 0.  1.
         13    1    1    2    0    0  0.15559583327E+03  0.23932187262E+02  0.80269441804E+03  0.81798603462E+03  0.10566000000E+00 0. -1.
         -4    1    1    2    0  502 -0.20443440121E+02 -0.19848341528E+02 -0.42814520336E+03  0.42909230483E+03  0.00000000000E+00 0. -1.
</event>
<event>
 5    1  0.2540860E-005  0.4053724E+02  0.7818608E-02  0.1335968E+00
         21   -1    0    0  501  502  0.00000000000E+00  0.00000000000E+00  0.15001146489E+02  0.15001146489E+02  0.00000000000E+00 0. -1.
          4   -1    0    0  502    0 -0.00000000000E+00 -0.00000000000E+00 -0.20526065241E+03  0.20526065241E+03  0.00000000000E+00 0.  1.
        -13    1    1    2    0    0 -0.33397062334E+02  0.13958072453E+02 -0.61633309279E+02  0.71476342491E+02  0.10566000000E+00 0.  1.
         13    1    1    2    0    0  0.37216416805E+02 -0.23305401121E+02 -0.13120978473E+03  0.13836264733E+03  0.10566000000E+00 0. -1.
          4    1    1    2  501    0 -0.38193544702E+01  0.93473286673E+01  0.25835880898E+01  0.10422809084E+02  0.00000000000E+00 0.  1.
</event>
<event>
 5    1  0.2540860E-005  0.7165904E+02  0.7818608E-02  0.1222440E+00
         21   -1    0    0  501  502  0.00000000000E+00  0.00000000000E+00  0.32091030893E+02  0.32091030893E+02  0.00000000000E+00 0.  1.
         -4   -1    0    0    0  501 -0.00000000000E+00 -0.00000000000E+00 -0.43581287283E+03  0.43581287283E+03  0.00000000000E+00 0. -1.
        -13    1    1    2    0    0  0.63993043369E+02 -0.72021552685E+02 -0.81627576572E+02  0.12627464540E+03  0.10566000000E+00 0.  1.
         13    1    1    2    0    0 -0.54060820794E+02  0.40431970922E+02 -0.28025622361E+03  0.28827223011E+03  0.10566000000E+00 0. -1.
         -4    1    1    2    0  502 -0.99322225746E+01  0.31589581763E+02 -0.41838041759E+02  0.53357028211E+02  0.00000000000E+00 0. -1.
</event>
<event>
 5    1  0.2540860E-005  0.4193128E+03  0.7818608E-02  0.9731857E-01
         21   -1    0    0  501  502  0.00000000000E+00  0.00000000000E+00  0.79607754984E+03  0.79607754984E+03  0.00000000000E+00 0. -1.
         -4   -1    0    0    0  501 -0.00000000000E+00 -0.00000000000E+00 -0.13957961078E+04  0.13957961078E+04  0.00000000000E+00 0. -1.
        -13    1    1    2    0    0  0.72432936763E+03 -0.50988719086E+02 -0.63761192626E+03  0.96633423926E+03  0.10566000000E+00 0.  1.
         13    1    1    2    0    0 -0.28260939755E+03 -0.87858603810E+02 -0.45913403822E+03  0.54625203163E+03  0.10566000000E+00 0. -1.
         -4    1    1    2    0  502 -0.44171997008E+03  0.13884732290E+03  0.49702740649E+03  0.67928738678E+03  0.00000000000E+00 0. -1.
</event>
<event>
 5    1  0.2540860E-005  0.1274323E+03  0.7818608E-02  0.1125776E+00
         21   -1    0    0  501  502  0.00000000000E+00  0.00000000000E+00  0.30496559498E+03  0.30496559498E+03  0.00000000000E+00 0.  1.
          4   -1    0    0  502    0 -0.00000000000E+00 -0.00000000000E+00 -0.54685594418E+03  0.54685594418E+03  0.00000000000E+00 0.  1.
        -13    1    1    2    0    0  0.85054863945E+02 -0.93563021033E+02 -0.50166762559E+03  0.51735750359E+03  0.10566000000E+00 0.  1.
         13    1    1    2    0    0 -0.10850277697E+03  0.98661833570E+02  0.11141748816E+03  0.18417621412E+03  0.10566000000E+00 0. -1.
          4    1    1    2  501    0  0.23447913027E+02 -0.50988125366E+01  0.14835978823E+03  0.15028782145E+03  0.00000000000E+00 0.  1.
</event>
<event>
 5    1  0.2540860E-005  0.2195097E+03  0.7818608E-02  0.1047526E+00
         21   -1    0    0  501  502  0.00000000000E+00  0.00000000000E+00  0.67465216601E+03  0.67465216601E+03  0.00000000000E+00 0. -1.
          4   -1    0    0  502    0 -0.00000000000E+00 -0.00000000000E+00 -0.12158773334E+03  0.12158773334E+03  0.00000000000E+00 0.  1.
        -13    1    1    2    0    0 -0.29007467602E+02 -0.22231732202E+03  0.55925146045E+02  0.23107154297E+03  0.10566000000E+00 0.  1.
         13    1    1    2    0    0  0.40422121756E+02  0.20520269143E+03  0.29295866004E+03  0.35995399727E+03  0.10566000000E+00 0. -1.
          4    1    1    2  501    0 -0.11414654155E+02  0.17114630586E+02  0.20418062659E+03  0.20521435911E+03  0.00000000000E+00 0.  1.
</event>
<event>
 5    1  0.2540860E-005  0.4211717E+03  0.7818608E-02  0.1009348E+00
          4   -1    0    0  502    0 -0.00000000000E+00  0.00000000000E+00  0.98296922740E+03  0.98296922740E+03  0.00000000000E+00 0.  1.
         21   -1    0    0  501  502  0.00000000000E+00 -0.00000000000E+00 -0.49842671941E+03  0.49842671941E+03  0.00000000000E+00 0.  1.
        -13    1    1    2    0    0 -0.20084775926E+03 -0.38477149257E+03 -0.28188490780E+03  0.51754037166E+03  0.10566000000E+00 0.  1.
         13    1    1    2    0    0 -0.46846499784E+02  0.90056047995E+02  0.46209448374E+03  0.47311310422E+03  0.10566000000E+00 0. -1.
          4    1    1    2  501    0  0.24769425904E+03  0.29471544458E+03  0.30433293205E+03  0.49074247092E+03  0.00000000000E+00 0.  1.
</event>
<event>
 5    1  0.2540860E-005  0.8396758E+02  0.7818608E-02  0.1194208E+00
         -4   -1    0    0    0  501 -0.00000000000E+00  0.00000000000E+00  0.23471511528E+03  0.23471511528E+03  0.00000000000E+00 0. -1.
         21   -1    0    0  501  502  0.00000000000E+00 -0.00000000000E+00 -0.14250318146E+03  0.14250318146E+03  0.00000000000E+00 0.  1.
        -13    1    1    2    0    0  0.13083562527E+02  0.60818639508E+02 -0.32197497960E+02  0.70048387269E+02  0.10566000000E+00 0.  1.
         13    1    1    2    0    0 -0.48016628351E+02 -0.74413282965E+02  0.20224135562E+03  0.22078158974E+03  0.10566000000E+00 0. -1.
         -4    1    1    2    0  502  0.34933065824E+02  0.13594643457E+02 -0.77831923842E+02  0.86388319741E+02  0.00000000000E+00 0. -1.
</event>
<event>
 5    1  0.2540860E-005  0.1204620E+03  0.7818608E-02  0.1148896E+00
         21   -1    0    0  501  502  0.00000000000E+00  0.00000000000E+00  0.92523188124E+02  0.92523188124E+02  0.00000000000E+00 0.  1.
          4   -1    0    0  502    0 -0.00000000000E+00 -0.00000000000E+00 -0.72107937493E+03  0.72107937493E+03  0.00000000000E+00 0.  1.
        -13    1    1    2    0    0 -0.17648482937E+03  0.75477024248E+02 -0.39298822720E+03  0.43735961641E+03  0.10566000000E+00 0.  1.
         13    1    1    2    0    0  0.67074535106E+02 -0.50495917179E+02 -0.24941434191E+03  0.26316602369E+03  0.10566000000E+00 0. -1.
          4    1    1    2  501    0  0.10941029426E+03 -0.24981107070E+02  0.13846382308E+02  0.11307692295E+03  0.00000000000E+00 0.  1.
</event>
<event>
 5    1  0.2540860E-005  0.3381711E+03  0.7818608E-02  0.1038877E+00
          4   -1    0    0  502    0 -0.00000000000E+00  0.00000000000E+00  0.83476135539E+03  0.83476135539E+03  0.00000000000E+00 0.  1.
         21   -1    0    0  501  502  0.00000000000E+00 -0.00000000000E+00 -0.50906270093E+03  0.50906270093E+03  0.00000000000E+00 0.  1.
        -13    1    1    2    0    0 -0.22648519866E+03 -0.16181189174E+03  0.43333299227E+03  0.51503021938E+03  0.10566000000E+00 0.  1.
         13    1    1    2    0    0 -0.77786601724E+02 -0.41786240469E+01  0.29059429370E+03  0.30085423547E+03  0.10566000000E+00 0. -1.
          4    1    1    2  501    0  0.30427180039E+03  0.16599051579E+03 -0.39822863151E+03  0.52793960147E+03  0.00000000000E+00 0.  1.
</event>
<event>
 5    1  0.2540860E-005  0.4583770E+03  0.7818608E-02  0.9775471E-01
         21   -1    0    0  501  502  0.00000000000E+00  0.00000000000E+00  0.43942717265E+03  0.43942717265E+03  0.00000000000E+00 0.  1.
          4   -1    0    0  502    0 -0.00000000000E+00 -0.00000000000E+00 -0.14487906468E+04  0.14487906468E+04  0.00000000000E+00 0.  1.
        -13    1    1    2    0    0 -0.52546278703E+03 -0.26784687512E+03 -0.23801757253E+03  0.63600744104E+03  0.10566000000E+00 0.  1.
         13    1    1    2    0    0  0.12454955867E+03  0.18918773226E+03 -0.81071407481E+03  0.84176119705E+03  0.10566000000E+00 0. -1.
          4    1    1    2  501    0  0.40091322837E+03  0.78659142857E+02  0.39368173175E+02  0.41044918138E+03  0.00000000000E+00 0.  1.
</event>
<event>
 5    1  0.2540860E-005  0.4453554E+03  0.7818608E-02  0.9606526E-01
         21   -1    0    0  501  502  0.00000000000E+00  0.00000000000E+00  0.20129736995E+03  0.20129736995E+03  0.00000000000E+00 0. -1.
          4   -1    0    0  502    0 -0.00000000000E+00 -0.00000000000E+00 -0.13663992832E+04  0.13663992832E+04  0.00000000000E+00 0.  1.
        -13    1    1    2    0    0  0.32986878271E+03  0.39127495100E+03 -0.70708254200E+03  0.87285464624E+03  0.10566000000E+00 0.  1.
         13    1    1    2    0    0 -0.22514784532E+03 -0.29348870762E+03 -0.26764515274E+03  0.45657541841E+03  0.10566000000E+00 0. -1.
          4    1    1    2  501    0 -0.10472093739E+03 -0.97786243389E+02 -0.19037421855E+03  0.23826658853E+03  0.00000000000E+00 0.  1.
</event>
<event>
 5    1  0.2540860E-005  0.1861230E+03  0.7818608E-02  0.1070089E+00
         21   -1    0    0  501  502  0.00000000000E+00  0.00000000000E+00  0.22657177624E+03  0.22657177624E+03  0.00000000000E+00 0.  1.
         -4   -1    0    0    0  501 -0.00000000000E+00 -0.00000000000E+00 -0.31230106306E+03  0.31230106306E+03  0.00000000000E+00 0. -1.
        -13    1    1    2    0    0 -0.14984442763E+03 -0.61801501295E+02  0.57841373578E+02  0.17210001079E+03  0.10566000000E+00 0.  1.
         13    1    1    2    0    0  0.18093751614E+03  0.69826724279E+02 -0.21433909594E+03  0.28905953605E+03  0.10566000000E+00 0. -1.
         -4    1    1    2    0  502 -0.31093088510E+02 -0.80252229839E+01  0.70768435540E+02  0.77713292466E+02  0.00000000000E+00 0. -1.
</event>
<event>
 5    1  0.2540860E-005  0.5063726E+03  0.7818608E-02  0.9757616E-01
         -4   -1    0    0    0  501 -0.00000000000E+00  0.00000000000E+00  0.14949221459E+04  0.14949221459E+04  0.00000000000E+00 0. -1.
         21   -1    0    0  501  502  0.00000000000E+00 -0.00000000000E+00 -0.27292785103E+03  0.27292785103E+03  0.00000000000E+00 0. -1.
        -13    1    1    2    0    0  0.16354119091E+03 -0.71887639978E+02  0.44124024753E+03  0.47603205890E+03  0.10566000000E+00 0.  1.
         13    1    1    2    0    0  0.13086767596E+03  0.49541676875E+03  0.41710815607E+03  0.66071427137E+03  0.10566000000E+00 0. -1.
         -4    1    1    2    0  502 -0.29440886687E+03 -0.42352912877E+03  0.36364589124E+03  0.63110366663E+03  0.00000000000E+00 0. -1.
</event>
<event>
 5    1  0.2969963E-005  0.4874272E+03  0.7818608E-02  0.9992278E-01
         21   -1    0    0  501  502  0.00000000000E+00  0.00000000000E+00  0.61548953975E+03  0.61548953975E+03  0.00000000000E+00 0. -1.
         -4   -1    0    0    0  501 -0.00000000000E+00 -0.00000000000E+00 -0.72098439264E+03  0.72098439264E+03  0.00000000000E+00 0. -1.
        -13    1    1    2    0    0 -0.48927856180E+02 -0.76710119570E+02 -0.29936181404E+03  0.31288318015E+03  0.10566000000E+00 0.  1.
         13    1    1    2    0    0  0.11946636713E+03 -0.43209455555E+03 -0.57033057770E+02  0.45191890717E+03  0.10566000000E+00 0. -1.
         -4    1    1    2    0  502 -0.70538510950E+02  0.50880467512E+03  0.25090001891E+03  0.57167184507E+03  0.00000000000E+00 0. -1.
</event>
<event>
 5    1  0.2540860E-005  0.1301818E+03  0.7818608E-02  0.1122486E+00
         21   -1    0    0  501  502  0.00000000000E+00  0.00000000000E+00  0.16372512802E+03  0.16372512802E+03  0.00000000000E+00 0.  1.
          4   -1    0    0  502    0 -0.00000000000E+00 -0.00000000000E+00 -0.19118611939E+03  0.19118611939E+03  0.00000000000E+00 0.  1.
        -13    1    1    2    0    0 -0.16997942091E+03  0.10679866396E+02 -0.45945486938E+02  0.17640312359E+03  0.10566000000E+00 0.  1.
         13    1    1    2    0    0  0.93187752050E+02 -0.30798249939E+02  0.11547549977E+02  0.98822297109E+02  0.10566000000E+00 0. -1.
          4    1    1    2  501    0  0.76791668861E+02  0.20118383543E+02  0.69369455920E+01  0.79685826701E+02  0.00000000000E+00 0.  1.
</event>
<event>
 5    1  0.2540860E-005  0.1613958E+03  0.7818608E-02  0.1090386E+00
         21   -1    0    0  501  502  0.00000000000E+00  0.00000000000E+00  0.10943821450E+04  0.10943821450E+04  0.00000000000E+00 0.  1.
          4   -1    0    0  502    0 -0.00000000000E+00 -0.00000000000E+00 -0.44128621804E+02  0.44128621804E+02  0.00000000000E+00 0.  1.
        -13    1    1    2    0    0 -0.10841172865E+03 -0.12684113746E+03  0.49857504299E+03  0.52575551515E+03  0.10566000000E+00 0.  1.
         13    1    1    2    0    0  0.71856762455E+02  0.14353522911E+03  0.18946743616E+03  0.24832172043E+03  0.10566000000E+00 0. -1.
          4    1    1    2  501    0  0.36554966200E+02 -0.16694091647E+02  0.36221104403E+03  0.36443353121E+03  0.00000000000E+00 0.  1.
</event>
<event>
 5    1  0.2540860E-005  0.1356194E+03  0.7818608E-02  0.1220330E+00
         -4   -1    0    0    0  501 -0.00000000000E+00  0.00000000000E+00  0.87033442119E+03  0.87033442119E+03  0.00000000000E+00 0. -1.
         21   -1    0    0  501  502  0.00000000000E+00 -0.00000000000E+00 -0.35243572647E+02  0.35243572647E+02  0.00000000000E+00 0. -1.
        -13    1    1    2    0    0  0.19687977234E+01  0.10895859360E+02  0.31852210826E+01  0.11521836358E+02  0.10566000000E+00 0.  1.
         13    1    1    2    0    0  0.31542626408E+01 -0.14403590506E+03  0.66532568392E+03  0.68074559724E+03  0.10566000000E+00 0. -1.
         -4    1    1    2    0  502 -0.51230603642E+01  0.13314004570E+03  0.16657994354E+03  0.21331056023E+03  0.00000000000E+00 0. -1.
</event>
<event>
 5    1  0.2540860E-005  0.2961110E+03  0.7818608E-02  0.1008924E+00
         21   -1    0    0  501  502  0.00000000000E+00  0.00000000000E+00  0.29275582005E+03  0.29275582005E+03  0.00000000000E+00 0. -1.
          4   -1    0    0  502    0 -0.00000000000E+00 -0.00000000000E+00 -0.73400402225E+03  0.73400402225E+03  0.00000000000E+00 0.  1.
        -13    1    1    2    0    0  0.29114564704E+03  0.65517226942E+02 -0.60834929133E+03  0.67760398925E+03  0.10566000000E+00 0.  1.
         13    1    1    2    0    0 -0.27525307326E+03 -0.57768024739E+02  0.13380549191E+03  0.31145677043E+03  0.10566000000E+00 0. -1.
          4    1    1    2  501    0 -0.15892573784E+02 -0.77492022031E+01  0.33295597221E+02  0.37699082622E+02  0.00000000000E+00 0.  1.
</event>
<event>
 5    1  0.2540860E-005  0.4977929E+03  0.7818608E-02  0.9679195E-01
         21   -1    0    0  501  502  0.00000000000E+00  0.00000000000E+00  0.15851996266E+03  0.15851996266E+03  0.00000000000E+00 0. -1.
         -4   -1    0    0    0  501 -0.00000000000E+00 -0.00000000000E+00 -0.29536781291E+04  0.29536781291E+04  0.00000000000E+00 0. -1.
        -13    1    1    2    0    0 -0.16608286620E+03  0.18262245898E+03 -0.10595699687E+04  0.10879443969E+04  0.10566000000E+00 0.  1.
         13    1    1    2    0    0  0.54782151601E+03  0.58000070225E+02 -0.67227452223E+03  0.86915215351E+03  0.10566000000E+00 0. -1.
         -4    1    1    2    0  502 -0.38173864981E+03 -0.24062252920E+03 -0.10633136754E+04  0.11551015413E+04  0.00000000000E+00 0. -1.
</event>
<event>
 5    1  0.2540860E-005  0.4251926E+03  0.7818608E-02  0.9761625E-01
          4   -1    0    0  502    0 -0.00000000000E+00  0.00000000000E+00  0.94100775326E+03  0.94100775326E+03  0.00000000000E+00 0.  1.
         21   -1    0    0  501  502  0.00000000000E+00 -0.00000000000E+00 -0.64822746095E+03  0.64822746095E+03  0.00000000000E+00 0.  1.
        -13    1    1    2    0    0  0.26906357742E+02  0.51330507843E+03  0.57443026360E+03  0.77082825229E+03  0.10566000000E+00 0.  1.
         13    1    1    2    0    0 -0.25170713238E+03 -0.15879473870E+03 -0.26468927824E+03  0.39828717618E+03  0.10566000000E+00 0. -1.
          4    1    1    2  501    0  0.22480077464E+03 -0.35451033973E+03 -0.16960693049E+02  0.42011978573E+03  0.00000000000E+00 0.  1.
</event>
<event>
 5    1  0.2540860E-005  0.5626969E+03  0.7818608E-02  0.9369980E-01
         -4   -1    0    0    0  501 -0.00000000000E+00  0.00000000000E+00  0.28906579874E+04  0.28906579874E+04  0.00000000000E+00 0. -1.
         21   -1    0    0  501  502  0.00000000000E+00 -0.00000000000E+00 -0.35466235634E+03  0.35466235634E+03  0.00000000000E+00 0.  1.
        -13    1    1    2    0    0 -0.68796819646E+03  0.10593510084E+03  0.15041081243E+04  0.16573665092E+04  0.10566000000E+00 0.  1.
         13    1    1    2    0    0  0.10455016995E+03 -0.82635164704E+02 -0.19095924021E+03  0.23286208594E+03  0.10566000000E+00 0. -1.
         -4    1    1    2    0  502  0.58341802651E+03 -0.23299936140E+02  0.12228467469E+04  0.13550917486E+04  0.00000000000E+00 0. -1.
</event>
<event>
 5    1  0.2540860E-005  0.4872116E+03  0.7818608E-02  0.9753391E-01
         21   -1    0    0  501  502  0.00000000000E+00  0.00000000000E+00  0.56538745306E+03  0.56538745306E+03  0.00000000000E+00 0. -1.
         -4   -1    0    0    0  501 -0.00000000000E+00 -0.00000000000E+00 -0.12367711989E+04  0.12367711989E+04  0.00000000000E+00 0. -1.
        -13    1    1    2    0    0 -0.20026722147E+03 -0.36130384148E+02 -0.74582597771E+03  0.77309039889E+03  0.10566000000E+00 0.  1.
         13    1    1    2    0    0 -0.21155485524E+03 -0.38027972321E+03  0.84652114665E+02  0.44332168495E+03  0.10566000000E+00 0. -1.
         -4    1    1    2    0  502  0.41182207672E+03  0.41641010736E+03 -0.10209882803E+02  0.58574656814E+03  0.00000000000E+00 0. -1.
</event>
<event>
 5    1  0.2540860E-005  0.3947657E+03  0.7818608E-02  0.9941603E-01
         -4   -1    0    0    0  501 -0.00000000000E+00  0.00000000000E+00  0.95091979155E+03  0.95091979155E+03  0.00000000000E+00 0. -1.
         21   -1    0    0  501  502  0.00000000000E+00 -0.00000000000E+00 -0.42051424310E+03  0.42051424310E+03  0.00000000000E+00 0. -1.
        -13    1    1    2    0    0 -0.13090910865E+03  0.15442383100E+03  0.23932058140E+03  0.31346174592E+03  0.10566000000E+00 0.  1.
         13    1    1    2    0    0  0.37925236388E+02  0.36449012949E+03 -0.12413230822E+03  0.38691112566E+03  0.10566000000E+00 0. -1.
         -4    1    1    2    0  502  0.92983872263E+02 -0.51891396049E+03  0.41521727527E+03  0.67106116307E+03  0.00000000000E+00 0. -1.
</event>
<event>
 5    1  0.2540860E-005  0.3282447E+02  0.7818608E-02  0.1441092E+00
         -4   -1    0    0    0  501 -0.00000000000E+00  0.00000000000E+00  0.65925374102E+02  0.65925374102E+02  0.00000000000E+00 0. -1.
         21   -1    0    0  501  502  0.00000000000E+00 -0.00000000000E+00 -0.71836734680E+02  0.71836734680E+02  0.00000000000E+00 0.  1.
        -13    1    1    2    0    0 -0.90063363686E+01  0.90213001430E+01 -0.29400506803E+02  0.32045263541E+02  0.10566000000E+00 0.  1.
         13    1    1    2    0    0  0.14844254465E+02  0.24123873387E+02  0.53557169602E+02  0.60586258653E+02  0.10566000000E+00 0. -1.
         -4    1    1    2    0  502 -0.58379180964E+01 -0.33145173530E+02 -0.30068023377E+02  0.45130586588E+02  0.00000000000E+00 0. -1.
</event>
<event>
 5    1  0.2540860E-005  0.5011537E+03  0.7818608E-02  0.9693850E-01
         -4   -1    0    0    0  501 -0.00000000000E+00  0.00000000000E+00  0.25418252497E+04  0.25418252497E+04  0.00000000000E+00 0. -1.
         21   -1    0    0  501  502  0.00000000000E+00 -0.00000000000E+00 -0.18464733110E+03  0.18464733110E+03  0.00000000000E+00 0. -1.
        -13    1    1    2    0    0 -0.94652389702E+02 -0.20945313141E+03  0.94399438155E+03  0.97157351379E+03  0.10566000000E+00 0.  1.
         13    1    1    2    0    0  0.53587299900E+03  0.16046072656E+03  0.55122684320E+03  0.78533977338E+03  0.10566000000E+00 0. -1.
         -4    1    1    2    0  502 -0.44122060929E+03  0.48992404852E+02  0.86195669389E+03  0.96955929367E+03  0.00000000000E+00 0. -1.
</event>
<event>
 5    1  0.2540860E-005  0.3917817E+03  0.7818608E-02  0.9753085E-01
         21   -1    0    0  501  502  0.00000000000E+00  0.00000000000E+00  0.12341689140E+04  0.12341689140E+04  0.00000000000E+00 0.  1.
          4   -1    0    0  502    0 -0.00000000000E+00 -0.00000000000E+00 -0.39111482010E+03  0.39111482010E+03  0.00000000000E+00 0.  1.
        -13    1    1    2    0    0  0.20157331680E+03  0.40836207003E+03 -0.81591537502E+01  0.45547553748E+03  0.10566000000E+00 0.  1.
         13    1    1    2    0    0 -0.89048462681E+02 -0.32944434932E+03  0.36079831702E+02  0.34316901583E+03  0.10566000000E+00 0. -1.
          4    1    1    2  501    0 -0.11252485412E+03 -0.78917720711E+02  0.81513341597E+03  0.82663918082E+03  0.00000000000E+00 0.  1.
</event>
<event>
 5    1  0.2540860E-005  0.4290770E+03  0.7818608E-02  0.9648642E-01
         21   -1    0    0  501  502  0.00000000000E+00  0.00000000000E+00  0.22323100099E+03  0.22323100099E+03  0.00000000000E+00 0.  1.
          4   -1    0    0  502    0 -0.00000000000E+00 -0.00000000000E+00 -0.30112271278E+04  0.30112271278E+04  0.00000000000E+00 0.  1.
        -13    1    1    2    0    0  0.40694910902E+03  0.46519670222E+03 -0.11321766867E+04  0.12898990697E+04  0.10566000000E+00 0.  1.
         13    1    1    2    0    0 -0.37083590460E+03 -0.11818898320E+03 -0.15218611091E+04  0.15708434519E+04  0.10566000000E+00 0. -1.
          4    1    1    2  501    0 -0.36113204422E+02 -0.34700771902E+03 -0.13395833110E+03  0.37371560719E+03  0.00000000000E+00 0.  1.
</event>
<event>
 5    1  0.2540860E-005  0.2888919E+03  0.7818608E-02  0.1011999E+00
         21   -1    0    0  501  502  0.00000000000E+00  0.00000000000E+00  0.28960124894E+02  0.28960124894E+02  0.00000000000E+00 0. -1.
          4   -1    0    0  502    0 -0.00000000000E+00 -0.00000000000E+00 -0.32800568387E+04  0.32800568387E+04  0.00000000000E+00 0.  1.
        -13    1    1    2    0    0  0.26000828261E+03 -0.16064075387E+03 -0.15414047013E+04  0.15714128112E+04  0.10566000000E+00 0.  1.
         13    1    1    2    0    0 -0.22914255152E+03  0.15102356489E+03 -0.14340975000E+04  0.14601198843E+04  0.10566000000E+00 0. -1.
          4    1    1    2  501    0 -0.30865731084E+02  0.96171889879E+01 -0.27559451254E+03  0.27748426806E+03  0.00000000000E+00 0.  1.
</event>
<event>
 5    1  0.2540860E-005  0.4851821E+02  0.7818608E-02  0.1312239E+00
         21   -1    0    0  501  502  0.00000000000E+00  0.00000000000E+00  0.22104060657E+03  0.22104060657E+03  0.00000000000E+00 0. -1.
         -4   -1    0    0    0  501 -0.00000000000E+00 -0.00000000000E+00 -0.29739352868E+02  0.29739352868E+02  0.00000000000E+00 0. -1.
        -13    1    1    2    0    0 -0.27700428917E+02 -0.24297640406E+02  0.86186572286E+02  0.93732734399E+02  0.10566000000E+00 0.  1.
         13    1    1    2    0    0  0.68277340151E+02  0.26546339625E+02  0.50520090382E+02  0.88987606001E+02  0.10566000000E+00 0. -1.
         -4    1    1    2    0  502 -0.40576911234E+02 -0.22486992188E+01  0.54594591035E+02  0.68059619040E+02  0.00000000000E+00 0. -1.
</event>
<event>
 5    1  0.2540860E-005  0.2900058E+03  0.7818608E-02  0.1020260E+00
         21   -1    0    0  501  502  0.00000000000E+00  0.00000000000E+00  0.11317076470E+04  0.11317076470E+04  0.00000000000E+00 0.  1.
          4   -1    0    0  502    0 -0.00000000000E+00 -0.00000000000E+00 -0.34620668286E+03  0.34620668286E+03  0.00000000000E+00 0.  1.
        -13    1    1    2    0    0  0.52595315297E+02 -0.43740294318E+03 -0.30239105885E+02  0.44159032664E+03  0.10566000000E+00 0.  1.
         13    1    1    2    0    0 -0.13613568260E+03  0.17241298637E+03  0.55039514057E+02  0.22646969161E+03  0.10566000000E+00 0. -1.
          4    1    1    2  501    0  0.83540367299E+02  0.26498995681E+03  0.76070055595E+03  0.80985431159E+03  0.00000000000E+00 0.  1.
</event>
<event>
 5    1  0.2540860E-005  0.4688112E+03  0.7818608E-02  0.9567943E-01
         21   -1    0    0  501  502  0.00000000000E+00  0.00000000000E+00  0.20234906515E+03  0.20234906515E+03  0.00000000000E+00 0. -1.
         -4   -1    0    0    0  501 -0.00000000000E+00 -0.00000000000E+00 -0.28899805364E+04  0.28899805364E+04  0.00000000000E+00 0. -1.
        -13    1    1    2    0    0 -0.34258266382E+03  0.27311959368E+03 -0.10616092113E+04  0.11484647677E+04  0.10566000000E+00 0.  1.
         13    1    1    2    0    0  0.20138294399E+03  0.36174395848E+03 -0.59585529442E+03  0.72557378996E+03  0.10566000000E+00 0. -1.
         -4    1    1    2    0  502  0.14119971983E+03 -0.63486355216E+03 -0.10301669655E+04  0.12182910439E+04  0.00000000000E+00 0. -1.
</event>
<event>
 5    1  0.2540860E-005  0.1774333E+03  0.7818608E-02  0.1076814E+00
         -4   -1    0    0    0  501 -0.00000000000E+00  0.00000000000E+00  0.32739453984E+03  0.32739453984E+03  0.00000000000E+00 0. -1.
         21   -1    0    0  501  502  0.00000000000E+00 -0.00000000000E+00 -0.15972781981E+03  0.15972781981E+03  0.00000000000E+00 0. -1.
        -13    1    1    2    0    0 -0.70430671195E+01 -0.17137085338E+03 -0.25607793552E+02  0.17341667866E+03  0.10566000000E+00 0.  1.
         13    1    1    2    0    0  0.20187370605E+02  0.17830557140E+03  0.21952869974E+03  0.28353706618E+03  0.10566000000E+00 0. -1.
         -4    1    1    2    0  502 -0.13144303485E+02 -0.69347180222E+01 -0.26254186163E+02  0.30168614805E+02  0.00000000000E+00 0. -1.
</event>
<event>
 5    1  0.2540860E-005  0.2716387E+03  0.7818608E-02  0.1019752E+00
         21   -1    0    0  501  502  0.00000000000E+00  0.00000000000E+00  0.55736107170E+03  0.55736107170E+03  0.00000000000E+00 0.  1.
         -4   -1    0    0    0  501 -0.00000000000E+00 -0.00000000000E+00 -0.14823688632E+03  0.14823688632E+03  0.00000000000E+00 0. -1.
        -13    1    1    2    0    0  0.18597382282E+03 -0.18048030101E+03  0.18323680011E+03  0.31738799270E+03  0.10566000000E+00 0.  1.
         13    1    1    2    0    0 -0.19996663768E+03  0.20272404914E+03  0.18488387652E+03  0.33950810778E+03  0.10566000000E+00 0. -1.
         -4    1    1    2    0  502  0.13992814858E+02 -0.22243748133E+02  0.41003508748E+02  0.48701857545E+02  0.00000000000E+00 0. -1.
</event>
<event>
 5    1  0.2540860E-005  0.2032077E+03  0.7818608E-02  0.1057959E+00
         21   -1    0    0  501  502  0.00000000000E+00  0.00000000000E+00  0.98764315108E+02  0.98764315108E+02  0.00000000000E+00 0. -1.
          4   -1    0    0  502    0 -0.00000000000E+00 -0.00000000000E+00 -0.12363715929E+04  0.12363715929E+04  0.00000000000E+00 0.  1.
        -13    1    1    2    0    0 -0.14265376048E+03 -0.14247332156E+03 -0.10450714581E+04  0.10643416306E+04  0.10566000000E+00 0.  1.
         13    1    1    2    0    0  0.13019478079E+03  0.17533779265E+03 -0.71318602300E+02  0.22973980211E+03  0.10566000000E+00 0. -1.
          4    1    1    2  501    0  0.12458979691E+02 -0.32864471092E+02 -0.21217217388E+02  0.41054475381E+02  0.00000000000E+00 0.  1.
</event>
<event>
 5    1  0.2540860E-005  0.4726652E+03  0.7818608E-02  0.9539984E-01
          4   -1    0    0  502    0 -0.00000000000E+00  0.00000000000E+00  0.74475744859E+03  0.74475744859E+03  0.00000000000E+00 0.  1.
         21   -1    0    0  501  502  0.00000000000E+00 -0.00000000000E+00 -0.74226818086E+03  0.74226818086E+03  0.00000000000E+00 0.  1.
        -13    1    1    2    0    0  0.58644767573E+02  0.56121944529E+03 -0.34400660405E+03  0.66086839032E+03  0.10566000000E+00 0.  1.
         13    1    1    2    0    0 -0.57807724066E+02 -0.42725592128E+03 -0.24369957997E+02  0.43183707721E+03  0.10566000000E+00 0. -1.
          4    1    1    2  501    0 -0.83704350755E+00 -0.13396352401E+03  0.37086582978E+03  0.39432016193E+03  0.00000000000E+00 0.  1.
</event>
<event>
 5    1  0.2540860E-005  0.4182302E+03  0.7818608E-02  0.9677824E-01
         21   -1    0    0  501  502  0.00000000000E+00  0.00000000000E+00  0.20700207966E+03  0.20700207966E+03  0.00000000000E+00 0.  1.
         -4   -1    0    0    0  501 -0.00000000000E+00 -0.00000000000E+00 -0.15042613740E+04  0.15042613740E+04  0.00000000000E+00 0. -1.
        -13    1    1    2    0    0 -0.23753371787E+03  0.37010587208E+03 -0.17998218516E+03  0.47517809484E+03  0.10566000000E+00 0.  1.
         13    1    1    2    0    0  0.24708488883E+03 -0.33102617210E+03 -0.11219588379E+04  0.11955839218E+04  0.10566000000E+00 0. -1.
         -4    1    1    2    0  502 -0.95511709679E+01 -0.39079699984E+02  0.46817287420E+01  0.40501437032E+02  0.00000000000E+00 0. -1.
</event>
<event>
 5    1  0.2540860E-005  0.5572960E+02  0.7818608E-02  0.1275781E+00
         21   -1    0    0  501  502  0.00000000000E+00  0.00000000000E+00  0.24028592005E+02  0.24028592005E+02  0.00000000000E+00 0. -1.
          4   -1    0    0  502    0 -0.00000000000E+00 -0.00000000000E+00 -0.36449717379E+03  0.36449717379E+03  0.00000000000E+00 0.  1.
        -13    1    1    2    0    0 -0.40881654527E+02  0.31733911895E+02 -0.17724144787E+03  0.18464260843E+03  0.10566000000E+00 0.  1.
         13    1    1    2    0    0  0.38998260621E+02  0.30729215159E+02 -0.11396096229E+03  0.12430712403E+03  0.10566000000E+00 0. -1.
          4    1    1    2  501    0  0.18833939056E+01 -0.62463127054E+02 -0.49266171631E+02  0.79576033334E+02  0.00000000000E+00 0.  1.
</event>
<event>
 5    1  0.2540860E-005  0.4710655E+03  0.7818608E-02  0.9739880E-01
         21   -1    0    0  501  502  0.00000000000E+00  0.00000000000E+00  0.34534550757E+03  0.34534550757E+03  0.00000000000E+00 0.  1.
          4   -1    0    0  502    0 -0.00000000000E+00 -0.00000000000E+00 -0.11744133073E+04  0.11744133073E+04  0.00000000000E+00 0.  1.
        -13    1    1    2    0    0 -0.15779102107E+03 -0.40805077153E+03 -0.60165732002E+03  0.74390522272E+03  0.10566000000E+00 0.  1.
         13    1    1    2    0    0  0.21628107076E+03 -0.94177226766E+02 -0.81918827512E+02  0.24971495165E+03  0.10566000000E+00 0. -1.
          4    1    1    2  501    0 -0.58490049690E+02  0.50222799830E+03 -0.14549165222E+03  0.52613864052E+03  0.00000000000E+00 0.  1.
</event>
<event>
 5    1  0.2540860E-005  0.3019884E+03  0.7818608E-02  0.1006488E+00
         21   -1    0    0  501  502  0.00000000000E+00  0.00000000000E+00  0.21591737413E+03  0.21591737413E+03  0.00000000000E+00 0. -1.
         -4   -1    0    0    0  501 -0.00000000000E+00 -0.00000000000E+00 -0.23990988212E+04  0.23990988212E+04  0.00000000000E+00 0. -1.
        -13    1    1    2    0    0  0.30040598638E+03  0.60855038565E+02 -0.12182471572E+04  0.12562138510E+04  0.10566000000E+00 0.  1.
         13    1    1    2    0    0 -0.29858039404E+03  0.18707114431E+03 -0.10413638247E+04  0.10993563987E+04  0.10566000000E+00 0. -1.
         -4    1    1    2    0  502 -0.18255923367E+01 -0.24792618288E+03  0.76429534773E+02  0.25944594568E+03  0.00000000000E+00 0. -1.
</event>
<event>
 5    1  0.2540860E-005  0.3776203E+03  0.7818608E-02  0.1002700E+00
         21   -1    0    0  501  502  0.00000000000E+00  0.00000000000E+00  0.29222230671E+03  0.29222230671E+03  0.00000000000E+00 0.  1.
          4   -1    0    0  502    0 -0.00000000000E+00 -0.00000000000E+00 -0.14103685103E+04  0.14103685103E+04  0.00000000000E+00 0.  1.
        -13    1    1    2    0    0  0.33484975179E+03 -0.15765241310E+03  0.52429721048E+02  0.37380145324E+03  0.10566000000E+00 0.  1.
         13    1    1    2    0    0  0.10610039495E+03  0.13875306847E+03 -0.46295359228E+03  0.49480879902E+03  0.10566000000E+00 0. -1.
          4    1    1    2  501    0 -0.44095014674E+03  0.18899344640E+02 -0.70762233239E+03  0.83398056478E+03  0.00000000000E+00 0.  1.
</event>
<event>
 5    1  0.2540860E-005  0.4866234E+03  0.7818608E-02  0.9507783E-01
         -4   -1    0    0    0  501 -0.00000000000E+00  0.00000000000E+00  0.76626394448E+03  0.76626394448E+03  0.00000000000E+00 0. -1.
         21   -1    0    0  501  502  0.00000000000E+00 -0.00000000000E+00 -0.40665470952E+03  0.40665470952E+03  0.00000000000E+00 0.  1.
        -13    1    1    2    0    0 -0.48054669938E+03  0.14439811511E+03  0.14032866818E+03  0.52102599955E+03  0.10566000000E+00 0.  1.
         13    1    1    2    0    0  0.44174364867E+03 -0.17980848475E+03  0.29421078847E+03  0.56038249575E+03  0.10566000000E+00 0. -1.
         -4    1    1    2    0  502  0.38803050702E+02  0.35410369639E+02 -0.74930221688E+02  0.91510158692E+02  0.00000000000E+00 0. -1.
</event>
<event>
 5    1  0.2540860E-005  0.4674167E+03  0.7818608E-02  0.9561344E-01
          4   -1    0    0  502    0 -0.00000000000E+00  0.00000000000E+00  0.67951600138E+03  0.67951600138E+03  0.00000000000E+00 0.  1.
         21   -1    0    0  501  502  0.00000000000E+00 -0.00000000000E+00 -0.11733847687E+04  0.11733847687E+04  0.00000000000E+00 0.  1.
        -13    1    1    2    0    0  0.36140492154E+03  0.68118100850E+02  0.33335510403E+02  0.36927613028E+03  0.10566000000E+00 0.  1.
         13    1    1    2    0    0 -0.14511850272E+03  0.45227160229E+03  0.23961156253E+03  0.53199877268E+03  0.10566000000E+00 0. -1.
          4    1    1    2  501    0 -0.21628641882E+03 -0.52038970314E+03 -0.76681584025E+03  0.95162586711E+03  0.00000000000E+00 0.  1.
</event>
<event>
 5    1  0.2540860E-005  0.4642380E+03  0.7818608E-02  0.9674721E-01
         21   -1    0    0  501  502  0.00000000000E+00  0.00000000000E+00  0.15199176701E+03  0.15199176701E+03  0.00000000000E+00 0.  1.
          4   -1    0    0  502    0 -0.00000000000E+00 -0.00000000000E+00 -0.32760600255E+04  0.32760600255E+04  0.00000000000E+00 0.  1.
        -13    1    1    2    0    0 -0.55027486125E+03 -0.30414590829E+03 -0.14404591289E+04  0.15716964305E+04  0.10566000000E+00 0.  1.
         13    1    1    2    0    0  0.30807356673E+03 -0.25657671423E+02 -0.11067110790E+04  0.11490766128E+04  0.10566000000E+00 0. -1.
          4    1    1    2  501    0  0.24220129452E+03  0.32980357971E+03 -0.57689805057E+03  0.70727874915E+03  0.00000000000E+00 0.  1.
</event>
<event>
 5    1  0.2540860E-005  0.4493696E+03  0.7818608E-02  0.9820962E-01
         21   -1    0    0  501  502  0.00000000000E+00  0.00000000000E+00  0.15252083916E+03  0.15252083916E+03  0.00000000000E+00 0. -1.
         -4   -1    0    0    0  501 -0.00000000000E+00 -0.00000000000E+00 -0.26044020655E+04  0.26044020655E+04  0.00000000000E+00 0. -1.
        -13    1    1    2    0    0  0.20034393235E+03  0.47112670823E+02 -0.73009144732E+03  0.75854520471E+03  0.10566000000E+00 0.  1.
         13    1    1    2    0    0  0.12417913543E+03  0.32785867161E+03 -0.13028682411E+04  0.13492136343E+04  0.10566000000E+00 0. -1.
         -4    1    1    2    0  502 -0.32452306778E+03 -0.37497134243E+03 -0.41892153796E+03  0.64916406565E+03  0.00000000000E+00 0. -1.
</event>
<event>
 5    1  0.2540860E-005  0.2451379E+03  0.7818608E-02  0.1032943E+00
         -4   -1    0    0    0  501 -0.00000000000E+00  0.00000000000E+00  0.14932312811E+03  0.14932312811E+03  0.00000000000E+00 0. -1.
         21   -1    0    0  501  502  0.00000000000E+00 -0.00000000000E+00 -0.46927742170E+03  0.46927742170E+03  0.00000000000E+00 0.  1.
        -13    1    1    2    0    0 -0.10269966608E+03  0.22071267040E+03 -0.95675444142E+02  0.26156281476E+03  0.10566000000E+00 0.  1.
         13    1    1    2    0    0  0.94997764505E+02 -0.22851217798E+03 -0.16659692234E+03  0.29832354323E+03  0.10566000000E+00 0. -1.
         -4    1    1    2    0  502  0.77019015730E+01  0.77995075769E+01 -0.57681927108E+02  0.58714191821E+02  0.00000000000E+00 0. -1.
</event>
<event>
 5    1  0.2540860E-005  0.4509698E+03  0.7818608E-02  0.9592441E-01
         21   -1    0    0  501  502  0.00000000000E+00  0.00000000000E+00  0.34474477253E+03  0.34474477253E+03  0.00000000000E+00 0. -1.
         -4   -1    0    0    0  501 -0.00000000000E+00 -0.00000000000E+00 -0.20987246123E+04  0.20987246123E+04  0.00000000000E+00 0. -1.
        -13    1    1    2    0    0  0.41612063084E+03  0.11031649087E+03 -0.10849579680E+04  0.11672445806E+04  0.10566000000E+00 0.  1.
         13    1    1    2    0    0 -0.40793782056E+03 -0.52001261575E+03 -0.30418246688E+03  0.72756674628E+03  0.10566000000E+00 0. -1.
         -4    1    1    2    0  502 -0.81828102850E+01  0.40969612488E+03 -0.36483940490E+03  0.54865805790E+03  0.00000000000E+00 0. -1.
</event>
<event>
 5    1  0.2540860E-005  0.1077707E+03  0.7818608E-02  0.1152302E+00
         -4   -1    0    0    0  501 -0.00000000000E+00  0.00000000000E+00  0.13330102343E+03  0.13330102343E+03  0.00000000000E+00 0. -1.
         21   -1    0    0  501  502  0.00000000000E+00 -0.00000000000E+00 -0.69249863847E+03  0.69249863847E+03  0.00000000000E+00 0. -1.
        -13    1    1    2    0    0 -0.65108651083E+02 -0.10165230222E+03 -0.27394677927E+03  0.29936462054E+03  0.10566000000E+00 0.  1.
         13    1    1    2    0    0  0.31268696565E+02  0.10236375681E+03  0.95943966763E+02  0.14374048147E+03  0.10566000000E+00 0. -1.
         -4    1    1    2    0  502  0.33839954517E+02 -0.71145458732E+00 -0.38119480253E+03  0.38269455988E+03  0.00000000000E+00 0. -1.
</event>
<event>
 5    1  0.2540860E-005  0.2231552E+03  0.7818608E-02  0.1045325E+00
          4   -1    0    0  502    0 -0.00000000000E+00  0.00000000000E+00  0.11399161965E+04  0.11399161965E+04  0.00000000000E+00 0.  1.
         21   -1    0    0  501  502  0.00000000000E+00 -0.00000000000E+00 -0.11751226540E+03  0.11751226540E+03  0.00000000000E+00 0. -1.
        -13    1    1    2    0    0 -0.22072045825E+03 -0.32941230437E+02  0.95145121222E+03  0.97727276937E+03  0.10566000000E+00 0.  1.
         13    1    1    2    0    0  0.21827774180E+03  0.48307218562E+02  0.10176982481E+03  0.24563360587E+03  0.10566000000E+00 0. -1.
          4    1    1    2  501    0  0.24427164557E+01 -0.15365988126E+02 -0.30817105883E+02  0.34522086695E+02  0.00000000000E+00 0.  1.
</event>
<event>
 5    1  0.2540860E-005  0.4764309E+03  0.7818608E-02  0.9783262E-01
          4   -1    0    0  502    0 -0.00000000000E+00  0.00000000000E+00  0.25154190000E+04  0.25154190000E+04  0.00000000000E+00 0.  1.
         21   -1    0    0  501  502  0.00000000000E+00 -0.00000000000E+00 -0.14821875482E+03  0.14821875482E+03  0.00000000000E+00 0.  1.
        -13    1    1    2    0    0  0.59611610042E+03 -0.65826841642E+02  0.11269886289E+04  0.12766326641E+04  0.10566000000E+00 0.  1.
         13    1    1    2    0    0 -0.19389070739E+03  0.31311030847E+02  0.58827636478E+03  0.62019600094E+03  0.10566000000E+00 0. -1.
          4    1    1    2  501    0 -0.40222539303E+03  0.34515810796E+02  0.65193525149E+03  0.76680908975E+03  0.00000000000E+00 0.  1.
</event>
<event>
 5    1  0.2540860E-005  0.3518074E+03  0.7818608E-02  0.9946515E-01
         -4   -1    0    0    0  501 -0.00000000000E+00  0.00000000000E+00  0.16750874483E+04  0.16750874483E+04  0.00000000000E+00 0. -1.
         21   -1    0    0  501  502  0.00000000000E+00 -0.00000000000E+00 -0.44673314414E+03  0.44673314414E+03  0.00000000000E+00 0. -1.
        -13    1    1    2    0    0  0.18595956605E+03 -0.21121044504E+03  0.10123629659E+04  0.10507471619E+04  0.10566000000E+00 0.  1.
         13    1    1    2    0    0  0.16784433266E+03  0.32322857576E+03 -0.27445570582E+03  0.45604207900E+03  0.10566000000E+00 0. -1.
         -4    1    1    2    0  502 -0.35380389871E+03 -0.11201813073E+03  0.49044704409E+03  0.61503135157E+03  0.00000000000E+00 0. -1.
</event>
<event>
 5    1  0.2540860E-005  0.4595760E+03  0.7818608E-02  0.9645043E-01
         21   -1    0    0  501  502  0.00000000000E+00  0.00000000000E+00  0.53138420267E+03  0.53138420267E+03  0.00000000000E+00 0. -1.
         -4   -1    0    0    0  501 -0.00000000000E+00 -0.00000000000E+00 -0.10984695858E+04  0.10984695858E+04  0.00000000000E+00 0. -1.
        -13    1    1    2    0    0 -0.33347037839E+03  0.11775566042E+03 -0.42796926424E+03  0.55518158392E+03  0.10566000000E+00 0.  1.
         13    1    1    2    0    0 -0.30762700195E+03 -0.24876970056E+03  0.36103523085E+02  0.39727095513E+03  0.10566000000E+00 0. -1.
         -4    1    1    2    0  502  0.64109738034E+03  0.13101404013E+03 -0.17521964198E+03  0.67740124943E+03  0.00000000000E+00 0. -1.
</event>
<event>
 5    1  0.2540860E-005  0.2106046E+03  0.7818608E-02  0.1053099E+00
         -4   -1    0    0    0  501 -0.00000000000E+00  0.00000000000E+00  0.11935960380E+04  0.11935960380E+04  0.00000000000E+00 0. -1.
         21   -1    0    0  501  502  0.00000000000E+00 -0.00000000000E+00 -0.32613373549E+03  0.32613373549E+03  0.00000000000E+00 0. -1.
        -13    1    1    2    0    0  0.10558180775E+03 -0.19406253303E+03  0.31847804806E+02  0.22320859905E+03  0.10566000000E+00 0.  1.
         13    1    1    2    0    0 -0.13876752954E+03  0.15764677268E+03  0.10529397992E+04  0.10736811278E+04  0.10566000000E+00 0. -1.
         -4    1    1    2    0  502  0.33185721792E+02  0.36415760353E+02 -0.21732530150E+03  0.22284004668E+03  0.00000000000E+00 0. -1.
</event>
<event>
 5    1  0.2540860E-005  0.2745435E+03  0.7818608E-02  0.1018404E+00
         -4   -1    0    0    0  501 -0.00000000000E+00  0.00000000000E+00  0.16918925014E+04  0.16918925014E+04  0.00000000000E+00 0. -1.
         21   -1    0    0  501  502  0.00000000000E+00 -0.00000000000E+00 -0.75681701610E+02  0.75681701610E+02  0.00000000000E+00 0.  1.
        -13    1    1    2    0    0 -0.30565059024E+03 -0.19629413197E+02  0.71314898853E+03  0.77613728694E+03  0.10566000000E+00 0.  1.
         13    1    1    2    0    0  0.24838076944E+03 -0.81418591624E+02  0.77811075544E+03  0.82084002862E+03  0.10566000000E+00 0. -1.
         -4    1    1    2    0  502  0.57269820798E+02  0.10104800482E+03  0.12495105578E+03  0.17059688741E+03  0.00000000000E+00 0. -1.
</event>
<event>
 5    1  0.2540860E-005  0.4775890E+03  0.7818608E-02  0.9738902E-01
          4   -1    0    0  502    0 -0.00000000000E+00  0.00000000000E+00  0.32983824231E+04  0.32983824231E+04  0.00000000000E+00 0.  1.
         21   -1    0    0  501  502  0.00000000000E+00 -0.00000000000E+00 -0.11982718473E+03  0.11982718473E+03  0.00000000000E+00 0.  1.
        -13    1    1    2    0    0  0.37123630476E+02  0.52364724020E+03  0.16846971049E+04  0.17645931380E+04  0.10566000000E+00 0.  1.
         13    1    1    2    0    0 -0.20992240409E+03 -0.86715829099E+02  0.63864369984E+03  0.67782950457E+03  0.10566000000E+00 0. -1.
          4    1    1    2  501    0  0.17279877362E+03 -0.43693141110E+03  0.85521443354E+03  0.97578696523E+03  0.00000000000E+00 0.  1.
</event>
<event>
 5    1  0.2540860E-005  0.1074045E+03  0.7818608E-02  0.1152854E+00
         21   -1    0    0  501  502  0.00000000000E+00  0.00000000000E+00  0.54949369657E+03  0.54949369657E+03  0.00000000000E+00 0.  1.
          4   -1    0    0  502    0 -0.00000000000E+00 -0.00000000000E+00 -0.42591094790E+02  0.42591094790E+02  0.00000000000E+00 0.  1.
        -13    1    1    2    0    0  0.11956395515E+03  0.36399856728E+01  0.17110108518E+03  0.20876872702E+03  0.10566000000E+00 0.  1.
         13    1    1    2    0    0 -0.86972387675E+02  0.63543851995E+02  0.16683294353E+03  0.19858313009E+03  0.10566000000E+00 0. -1.
          4    1    1    2  501    0 -0.32591567472E+02 -0.67183837668E+02  0.16896857306E+03  0.18473293425E+03  0.00000000000E+00 0.  1.
</event>
<event>
 5    1  0.2540860E-005  0.8649091E+03  0.7818608E-02  0.8913064E-01
          4   -1    0    0  502    0 -0.00000000000E+00  0.00000000000E+00  0.34682894799E+04  0.34682894799E+04  0.00000000000E+00 0.  1.
         21   -1    0    0  501  502  0.00000000000E+00 -0.00000000000E+00 -0.53232383700E+03  0.53232383700E+03  0.00000000000E+00 0.  1.
        -13    1    1    2    0    0 -0.73649541725E+03  0.47359362794E+03  0.43119777370E+03  0.97603686163E+03  0.10566000000E+00 0.  1.
         13    1    1    2    0    0  0.40658132581E+03 -0.79038093613E+03  0.23944277351E+04  0.25540741157E+04  0.10566000000E+00 0. -1.
          4    1    1    2  501    0  0.32991409144E+03  0.31678730820E+03  0.11034013412E+03  0.47050233959E+03  0.00000000000E+00 0.  1.
</event>
<event>
 5    1  0.2540860E-005  0.3275582E+03  0.7818608E-02  0.1005593E+00
         21   -1    0    0  501  502  0.00000000000E+00  0.00000000000E+00  0.72868308538E+03  0.72868308538E+03  0.00000000000E+00 0. -1.
         -4   -1    0    0    0  501 -0.00000000000E+00 -0.00000000000E+00 -0.11792435252E+04  0.11792435252E+04  0.00000000000E+00 0. -1.
        -13    1    1    2    0    0  0.22944495575E+03 -0.81834968850E+02 -0.78964714008E+03  0.82636829976E+03  0.10566000000E+00 0.  1.
         13    1    1    2    0    0 -0.46781886811E+03 -0.11857641850E+03 -0.14678978107E+03  0.50444237666E+03  0.10566000000E+00 0. -1.
         -4    1    1    2    0  502  0.23837391235E+03  0.20041138735E+03  0.48587648136E+03  0.57711593412E+03  0.00000000000E+00 0. -1.
</event>
<event>
 5    1  0.2540860E-005  0.3998070E+03  0.7818608E-02  0.9841328E-01
         21   -1    0    0  501  502  0.00000000000E+00  0.00000000000E+00  0.40389084200E+03  0.40389084200E+03  0.00000000000E+00 0.  1.
          4   -1    0    0  502    0 -0.00000000000E+00 -0.00000000000E+00 -0.16177520241E+04  0.16177520241E+04  0.00000000000E+00 0.  1.
        -13    1    1    2    0    0 -0.29325863862E+03  0.24372293275E+03  0.12952926884E+03  0.40271496089E+03  0.10566000000E+00 0.  1.
         13    1    1    2    0    0 -0.23171531386E+03 -0.14382116154E+03 -0.84601796644E+03  0.88888858913E+03  0.10566000000E+00 0. -1.
          4    1    1    2  501    0  0.52497395249E+03 -0.99901771205E+02 -0.49737248452E+03  0.73003931609E+03  0.00000000000E+00 0.  1.
</event>
<event>
 5    1  0.2540860E-005  0.7861583E+02  0.7818608E-02  0.1206160E+00
         21   -1    0    0  501  502  0.00000000000E+00  0.00000000000E+00  0.22991477547E+03  0.22991477547E+03  0.00000000000E+00 0. -1.
         -4   -1    0    0    0  501 -0.00000000000E+00 -0.00000000000E+00 -0.39635382459E+03  0.39635382459E+03  0.00000000000E+00 0. -1.
        -13    1    1    2    0    0  0.50941806689E+02  0.80077000680E+02 -0.73285432929E+02  0.11990896359E+03  0.10566000000E+00 0.  1.
         13    1    1    2    0    0  0.27578930462E+02 -0.76211496233E+02 -0.28644610103E+03  0.29769139981E+03  0.10566000000E+00 0. -1.
         -4    1    1    2    0  502 -0.78520737151E+02 -0.38655044475E+01  0.19329248484E+03  0.20866823664E+03  0.00000000000E+00 0. -1.
</event>
<event>
 5    1  0.2540860E-005  0.4182688E+03  0.7818608E-02  0.9787985E-01
         -4   -1    0    0    0  501 -0.00000000000E+00  0.00000000000E+00  0.13727145999E+04  0.13727145999E+04  0.00000000000E+00 0. -1.
         21   -1    0    0  501  502  0.00000000000E+00 -0.00000000000E+00 -0.26292110883E+03  0.26292110883E+03  0.00000000000E+00 0. -1.
        -13    1    1    2    0    0  0.15074639224E+03 -0.24257595937E+03  0.27709926183E+03  0.39793414394E+03  0.10566000000E+00 0.  1.
         13    1    1    2    0    0  0.29432551553E+03  0.30471059605E+03  0.59183605226E+03  0.72783650661E+03  0.10566000000E+00 0. -1.
         -4    1    1    2    0  502 -0.44507190777E+03 -0.62134636679E+02  0.24085817702E+03  0.50986505822E+03  0.00000000000E+00 0. -1.
</event>
<event>
 5    1  0.2540860E-005  0.5479657E+03  0.7818608E-02  0.9481686E-01
          4   -1    0    0  502    0 -0.00000000000E+00  0.00000000000E+00  0.13580308334E+04  0.13580308334E+04  0.00000000000E+00 0.  1.
         21   -1    0    0  501  502  0.00000000000E+00 -0.00000000000E+00 -0.51599974803E+03  0.51599974803E+03  0.00000000000E+00 0.  1.
        -13    1    1    2    0    0  0.59434234792E+03 -0.37646529971E+03 -0.27714640410E+02  0.70408597549E+03  0.10566000000E+00 0.  1.
         13    1    1    2    0    0 -0.36927559869E+03  0.63785865713E+02  0.56846156406E+03  0.68086831724E+03  0.10566000000E+00 0. -1.
          4    1    1    2  501    0 -0.22506674924E+03  0.31267943399E+03  0.30128416169E+03  0.48907628867E+03  0.00000000000E+00 0.  1.
</event>
<event>
 5    1  0.2540860E-005  0.2803671E+03  0.7818608E-02  0.1015755E+00
         21   -1    0    0  501  502  0.00000000000E+00  0.00000000000E+00  0.70906642824E+02  0.70906642824E+02  0.00000000000E+00 0. -1.
         -4   -1    0    0    0  501 -0.00000000000E+00 -0.00000000000E+00 -0.18941110563E+04  0.18941110563E+04  0.00000000000E+00 0. -1.
        -13    1    1    2    0    0  0.22425167737E+03 -0.17663909344E+03 -0.93451566442E+03  0.97714365492E+03  0.10566000000E+00 0.  1.
         13    1    1    2    0    0 -0.20861193406E+03  0.18018262674E+03 -0.91579399784E+03  0.95638035093E+03  0.10566000000E+00 0. -1.
         -4    1    1    2    0  502 -0.15639743316E+02 -0.35435333028E+01  0.27105248826E+02  0.31493693229E+02  0.00000000000E+00 0. -1.
</event>
<event>
 5    1  0.2540860E-005  0.1392491E+03  0.7818608E-02  0.1117951E+00
         21   -1    0    0  501  502  0.00000000000E+00  0.00000000000E+00  0.36418648311E+03  0.36418648311E+03  0.00000000000E+00 0. -1.
         -4   -1    0    0    0  501 -0.00000000000E+00 -0.00000000000E+00 -0.26957409345E+03  0.26957409345E+03  0.00000000000E+00 0. -1.
        -13    1    1    2    0    0  0.37696110197E+02  0.11365868171E+03 -0.60237029695E+02  0.13404403591E+03  0.10566000000E+00 0.  1.
         13    1    1    2    0    0 -0.96949540868E+02 -0.22617676253E+03 -0.57033012956E+02  0.25260229040E+03  0.10566000000E+00 0. -1.
         -4    1    1    2    0  502  0.59253430672E+02  0.11251808082E+03  0.21188243231E+03  0.24711425026E+03  0.00000000000E+00 0. -1.
</event>
<event>
 5    1  0.2561729E-005  0.4016450E+03  0.7818608E-02  0.1041701E+00
         21   -1    0    0  501  502  0.00000000000E+00  0.00000000000E+00  0.14692856273E+04  0.14692856273E+04  0.00000000000E+00 0.  1.
          4   -1    0    0  502    0 -0.00000000000E+00 -0.00000000000E+00 -0.24071540283E+03  0.24071540283E+03  0.00000000000E+00 0.  1.
        -13    1    1    2    0    0 -0.97032822316E+02 -0.40000456285E+03  0.16151962961E+03  0.44216243714E+03  0.10566000000E+00 0.  1.
         13    1    1    2    0    0 -0.35870137791E+02  0.23137932939E+02 -0.59091450831E+02  0.72896100384E+02  0.10566000000E+00 0. -1.
          4    1    1    2  501    0  0.13290296011E+03  0.37686662991E+03  0.11261420457E+04  0.11949424926E+04  0.00000000000E+00 0.  1.
</event>
<event>
 5    1  0.2540860E-005  0.3891794E+02  0.7818608E-02  0.1376333E+00
         21   -1    0    0  501  502  0.00000000000E+00  0.00000000000E+00  0.34146244252E+02  0.34146244252E+02  0.00000000000E+00 0. -1.
         -4   -1    0    0    0  501 -0.00000000000E+00 -0.00000000000E+00 -0.20323372099E+03  0.20323372099E+03  0.00000000000E+00 0. -1.
        -13    1    1    2    0    0  0.20473849628E+02 -0.88545120529E+01 -0.38872666580E+02  0.44818258259E+02  0.10566000000E+00 0.  1.
         13    1    1    2    0    0  0.17253783430E+00  0.42117004810E+02 -0.14478689996E+03  0.15078835972E+03  0.10566000000E+00 0. -1.
         -4    1    1    2    0  502 -0.20646387462E+02 -0.33262492757E+02  0.14572089806E+02  0.41773347256E+02  0.00000000000E+00 0. -1.
</event>
<event>
 5    1  0.2540860E-005  0.2132615E+03  0.7818608E-02  0.1051406E+00
         21   -1    0    0  501  502  0.00000000000E+00  0.00000000000E+00  0.62779955901E+02  0.62779955901E+02  0.00000000000E+00 0.  1.
         -4   -1    0    0    0  501 -0.00000000000E+00 -0.00000000000E+00 -0.97391567776E+03  0.97391567776E+03  0.00000000000E+00 0. -1.
        -13    1    1    2    0    0  0.17399736395E+03 -0.91204386629E+02 -0.31052692611E+03  0.36745109307E+03  0.10566000000E+00 0.  1.
         13    1    1    2    0    0 -0.19397780724E+03  0.11509216770E+03 -0.59664015954E+03  0.63785036482E+03  0.10566000000E+00 0. -1.
         -4    1    1    2    0  502  0.19980443292E+02 -0.23887781069E+02 -0.39686362147E+01  0.31394175764E+02  0.00000000000E+00 0. -1.
</event>
<event>
 5    1  0.2540860E-005  0.4946504E+03  0.7818608E-02  0.9695656E-01
         21   -1    0    0  501  502  0.00000000000E+00  0.00000000000E+00  0.33054354218E+03  0.33054354218E+03  0.00000000000E+00 0.  1.
          4   -1    0    0  502    0 -0.00000000000E+00 -0.00000000000E+00 -0.20735210541E+04  0.20735210541E+04  0.00000000000E+00 0.  1.
        -13    1    1    2    0    0  0.35043589832E+03 -0.11651361946E+03 -0.38815426053E+03  0.53576532500E+03  0.10566000000E+00 0.  1.
         13    1    1    2    0    0  0.23665347756E+03  0.20415918993E+02 -0.12398378340E+04  0.12623864479E+04  0.10566000000E+00 0. -1.
          4    1    1    2  501    0 -0.58708937588E+03  0.96097700463E+02 -0.11498541744E+03  0.60591282337E+03  0.00000000000E+00 0.  1.
</event>
<event>
 5    1  0.2540860E-005  0.3783801E+03  0.7818608E-02  0.1004909E+00
         -4   -1    0    0    0  501 -0.00000000000E+00  0.00000000000E+00  0.13737272070E+04  0.13737272070E+04  0.00000000000E+00 0. -1.
         21   -1    0    0  501  502  0.00000000000E+00 -0.00000000000E+00 -0.25361857594E+03  0.25361857594E+03  0.00000000000E+00 0. -1.
        -13    1    1    2    0    0  0.90587402556E+02  0.13380197641E+03  0.86303296348E+02  0.18318656206E+03  0.10566000000E+00 0.  1.
         13    1    1    2    0    0  0.85097607986E+02  0.23261528805E+03  0.10068926989E+04  0.10369109863E+04  0.10566000000E+00 0. -1.
         -4    1    1    2    0  502 -0.17568501054E+03 -0.36641726446E+03  0.26912635779E+02  0.40724823460E+03  0.00000000000E+00 0. -1.
</event>
<event>
 5    1  0.2540860E-005  0.6333465E+02  0.7818608E-02  0.1245382E+00
         21   -1    0    0  501  502  0.00000000000E+00  0.00000000000E+00  0.24330565172E+02  0.24330565172E+02  0.00000000000E+00 0. -1.
         -4   -1    0    0    0  501 -0.00000000000E+00 -0.00000000000E+00 -0.34867714538E+03  0.34867714538E+03  0.00000000000E+00 0. -1.
        -13    1    1    2    0    0 -0.32760079257E+01  0.54304379748E+02 -0.41966503762E+02  0.68708780297E+02  0.10566000000E+00 0.  1.
         13    1    1    2    0    0  0.20478498943E+02 -0.63136358945E+02 -0.27610192465E+03  0.28396804873E+03  0.10566000000E+00 0. -1.
         -4    1    1    2    0  502 -0.17202491017E+02  0.88319791969E+01 -0.62781517980E+01  0.20330881529E+02  0.00000000000E+00 0. -1.
</event>
<event>
 5    1  0.2540860E-005  0.6981466E+02  0.7818608E-02  0.1259893E+00
         21   -1    0    0  501  502  0.00000000000E+00  0.00000000000E+00  0.11179025055E+04  0.11179025055E+04  0.00000000000E+00 0.  1.
          4   -1    0    0  502    0 -0.00000000000E+00 -0.00000000000E+00 -0.14885807832E+02  0.14885807832E+02  0.00000000000E+00 0.  1.
        -13    1    1    2    0    0 -0.29894006793E+02 -0.13720832877E+02  0.24015146032E+02  0.40726542942E+02  0.10566000000E+00 0.  1.
         13    1    1    2    0    0  0.76696223669E+02 -0.38083025183E+02  0.37727585695E+03  0.38687169828E+03  0.10566000000E+00 0. -1.
          4    1    1    2  501    0 -0.46802216875E+02  0.51803858061E+02  0.70172569465E+03  0.70519007207E+03  0.00000000000E+00 0.  1.
</event>
<event>
 5    1  0.2540860E-005  0.5434563E+02  0.7818608E-02  0.1275040E+00
         21   -1    0    0  501  502  0.00000000000E+00  0.00000000000E+00  0.24414171380E+03  0.24414171380E+03  0.00000000000E+00 0. -1.
          4   -1    0    0  502    0 -0.00000000000E+00 -0.00000000000E+00 -0.17315947383E+02  0.17315947383E+02  0.00000000000E+00 0.  1.
        -13    1    1    2    0    0  0.46952296750E+02  0.25879603332E+02  0.61089440888E+02  0.81278551850E+02  0.10566000000E+00 0.  1.
         13    1    1    2    0    0 -0.54560101811E+02 -0.15166675438E+02  0.12181359832E+03  0.13433315545E+03  0.10566000000E+00 0. -1.
          4    1    1    2  501    0  0.76078050606E+01 -0.10712927894E+02  0.43922727202E+02  0.45845953876E+02  0.00000000000E+00 0.  1.
</event>
<event>
 5    1  0.2540860E-005  0.3011441E+03  0.7818608E-02  0.1006834E+00
          4   -1    0    0  502    0 -0.00000000000E+00  0.00000000000E+00  0.67420781592E+03  0.67420781592E+03  0.00000000000E+00 0.  1.
         21   -1    0    0  501  502  0.00000000000E+00 -0.00000000000E+00 -0.55851360548E+03  0.55851360548E+03  0.00000000000E+00 0.  1.
        -13    1    1    2    0    0 -0.16074269752E+03  0.24106298017E+03  0.23253736095E+03  0.37151475155E+03  0.10566000000E+00 0.  1.
         13    1    1    2    0    0  0.17741201078E+03 -0.25652450609E+03  0.30647877800E+03  0.43727462346E+03  0.10566000000E+00 0. -1.
          4    1    1    2  501    0 -0.16669313257E+02  0.15461525923E+02 -0.42332192851E+03  0.42393204638E+03  0.00000000000E+00 0.  1.
</event>
<event>
 5    1  0.2540860E-005  0.4964938E+03  0.7818608E-02  0.9485690E-01
         -4   -1    0    0    0  501 -0.00000000000E+00  0.00000000000E+00  0.24996820531E+04  0.24996820531E+04  0.00000000000E+00 0. -1.
         21   -1    0    0  501  502  0.00000000000E+00 -0.00000000000E+00 -0.33965741917E+03  0.33965741917E+03  0.00000000000E+00 0.  1.
        -13    1    1    2    0    0  0.38369880473E+03  0.48820892603E+03  0.10639383770E+04  0.12318837646E+04  0.10566000000E+00 0.  1.
         13    1    1    2    0    0 -0.48976236278E+03 -0.33792852971E+02  0.10235880189E+04  0.11352275421E+04  0.10566000000E+00 0. -1.
         -4    1    1    2    0  502  0.10606355804E+03 -0.45441607306E+03  0.72498238050E+02  0.47222816553E+03  0.00000000000E+00 0. -1.
</event>
<event>
 5    1  0.2540860E-005  0.4549275E+03  0.7818608E-02  0.9673302E-01
         -4   -1    0    0    0  501 -0.00000000000E+00  0.00000000000E+00  0.20251344768E+04  0.20251344768E+04  0.00000000000E+00 0. -1.
         21   -1    0    0  501  502  0.00000000000E+00 -0.00000000000E+00 -0.32297450561E+03  0.32297450561E+03  0.00000000000E+00 0. -1.
        -13    1    1    2    0    0  0.25914761879E+03 -0.20454831050E+03  0.10821003793E+04  0.11313437770E+04  0.10566000000E+00 0.  1.
         13    1    1    2    0    0 -0.40388401969E+02 -0.28910221068E+03  0.61053523265E+03  0.67673081259E+03  0.10566000000E+00 0. -1.
         -4    1    1    2    0  502 -0.21875921682E+03  0.49365052119E+03  0.95243592166E+01  0.54003439282E+03  0.00000000000E+00 0. -1.
</event>
<event>
 5    1  0.2540860E-005  0.4136051E+03  0.7818608E-02  0.9910010E-01
         21   -1    0    0  501  502  0.00000000000E+00  0.00000000000E+00  0.14340533110E+04  0.14340533110E+04  0.00000000000E+00 0.  1.
          4   -1    0    0  502    0 -0.00000000000E+00 -0.00000000000E+00 -0.28366286998E+03  0.28366286998E+03  0.00000000000E+00 0.  1.
        -13    1    1    2    0    0 -0.22515694928E+03  0.41405875709E+03  0.21436305532E+03  0.51777585573E+03  0.10566000000E+00 0.  1.
         13    1    1    2    0    0 -0.98709920629E+02 -0.16879159490E+03  0.18395058564E+02  0.19639918605E+03  0.10566000000E+00 0. -1.
          4    1    1    2  501    0  0.32386686991E+03 -0.24526716219E+03  0.91763232713E+03  0.10035411392E+04  0.00000000000E+00 0.  1.
</event>
<event>
 5    1  0.2540860E-005  0.4530202E+03  0.7818608E-02  0.9587351E-01
         21   -1    0    0  501  502  0.00000000000E+00  0.00000000000E+00  0.32868190442E+03  0.32868190442E+03  0.00000000000E+00 0.  1.
          4   -1    0    0  502    0 -0.00000000000E+00 -0.00000000000E+00 -0.19654010500E+04  0.19654010500E+04  0.00000000000E+00 0.  1.
        -13    1    1    2    0    0  0.43374255956E+03  0.23192070444E+03 -0.11311353787E+04  0.12334452064E+04  0.10566000000E+00 0.  1.
         13    1    1    2    0    0 -0.45557223948E+03  0.18538692275E+03 -0.38819101893E+03  0.62658331837E+03  0.10566000000E+00 0. -1.
          4    1    1    2  501    0  0.21829679928E+02 -0.41730762719E+03 -0.11739274799E+03  0.43405442967E+03  0.00000000000E+00 0.  1.
</event>
<event>
 5    1  0.2540860E-005  0.4683345E+03  0.7818608E-02  0.9550215E-01
         21   -1    0    0  501  502  0.00000000000E+00  0.00000000000E+00  0.21544075345E+03  0.21544075345E+03  0.00000000000E+00 0.  1.
         -4   -1    0    0    0  501 -0.00000000000E+00 -0.00000000000E+00 -0.12494010445E+04  0.12494010445E+04  0.00000000000E+00 0. -1.
        -13    1    1    2    0    0  0.44731506404E+03 -0.57696561681E+02 -0.30423709318E+03  0.54404032918E+03  0.10566000000E+00 0.  1.
         13    1    1    2    0    0 -0.47622412688E+03  0.47043701800E+02 -0.74574113287E+03  0.88607695903E+03  0.10566000000E+00 0. -1.
         -4    1    1    2    0  502  0.28909062834E+02  0.10652859881E+02  0.16017934976E+02  0.34724509766E+02  0.00000000000E+00 0. -1.
</event>
<event>
 5    1  0.2540860E-005  0.3860271E+03  0.7818608E-02  0.9770289E-01
         -4   -1    0    0    0  501 -0.00000000000E+00  0.00000000000E+00  0.13747227217E+04  0.13747227217E+04  0.00000000000E+00 0. -1.
         21   -1    0    0  501  502  0.00000000000E+00 -0.00000000000E+00 -0.41108830045E+03  0.41108830045E+03  0.00000000000E+00 0. -1.
        -13    1    1    2    0    0 -0.32794287306E+03 -0.14978518979E+03  0.52104120280E+03  0.63361350779E+03  0.10566000000E+00 0.  1.
         13    1    1    2    0    0  0.57809428835E+03 -0.35917308004E+02 -0.36896795626E+02  0.58038301485E+03  0.10566000000E+00 0. -1.
         -4    1    1    2    0  502 -0.25015141528E+03  0.18570249780E+03  0.47949001409E+03  0.57181449952E+03  0.00000000000E+00 0. -1.
</event>
<event>
 5    1  0.2540860E-005  0.1446249E+03  0.7818608E-02  0.1106537E+00
         21   -1    0    0  501  502  0.00000000000E+00  0.00000000000E+00  0.33605966174E+03  0.33605966174E+03  0.00000000000E+00 0.  1.
          4   -1    0    0  502    0 -0.00000000000E+00 -0.00000000000E+00 -0.15957807601E+03  0.15957807601E+03  0.00000000000E+00 0.  1.
        -13    1    1    2    0    0 -0.77080757299E+02 -0.11917406960E+03 -0.65597731726E+02  0.15635528639E+03  0.10566000000E+00 0.  1.
         13    1    1    2    0    0  0.95944823761E+02  0.11843295024E+03  0.72727861628E+02  0.16888198818E+03  0.10566000000E+00 0. -1.
          4    1    1    2  501    0 -0.18864066462E+02  0.74111936107E+00  0.16935145583E+03  0.17040046319E+03  0.00000000000E+00 0.  1.
</event>
<event>
 5    1  0.2540860E-005  0.2555723E+03  0.7818608E-02  0.1027545E+00
         21   -1    0    0  501  502  0.00000000000E+00  0.00000000000E+00  0.15091336223E+03  0.15091336223E+03  0.00000000000E+00 0.  1.
         -4   -1    0    0    0  501 -0.00000000000E+00 -0.00000000000E+00 -0.13530948434E+04  0.13530948434E+04  0.00000000000E+00 0. -1.
        -13    1    1    2    0    0 -0.22567466582E+03 -0.51573000648E+02 -0.80946890433E+03  0.84191967992E+03  0.10566000000E+00 0.  1.
         13    1    1    2    0    0  0.34353455251E+03  0.88303241296E+02 -0.40460144720E+03  0.53806671838E+03  0.10566000000E+00 0. -1.
         -4    1    1    2    0  502 -0.11785988668E+03 -0.36730240648E+02  0.11888870316E+02  0.12402180737E+03  0.00000000000E+00 0. -1.
</event>
<event>
 5    1  0.2540860E-005  0.4097535E+03  0.7818608E-02  0.9709276E-01
         21   -1    0    0  501  502  0.00000000000E+00  0.00000000000E+00  0.11379633703E+04  0.11379633703E+04  0.00000000000E+00 0.  1.
          4   -1    0    0  502    0 -0.00000000000E+00 -0.00000000000E+00 -0.50041838747E+03  0.50041838747E+03  0.00000000000E+00 0.  1.
        -13    1    1    2    0    0  0.37801500902E+03 -0.12596139722E+03  0.52640925671E+03  0.66020325458E+03  0.10566000000E+00 0.  1.
         13    1    1    2    0    0  0.13261535397E+03  0.37581736500E+03 -0.20706737251E+01  0.39853459423E+03  0.10566000000E+00 0. -1.
          4    1    1    2  501    0 -0.51063036299E+03 -0.24985596778E+03  0.11320639985E+03  0.57964390897E+03  0.00000000000E+00 0.  1.
</event>
<event>
 5    1  0.2540860E-005  0.3519727E+03  0.7818608E-02  0.9879036E-01
          4   -1    0    0  502    0 -0.00000000000E+00  0.00000000000E+00  0.11009313700E+04  0.11009313700E+04  0.00000000000E+00 0.  1.
         21   -1    0    0  501  502  0.00000000000E+00 -0.00000000000E+00 -0.10918691915E+04  0.10918691915E+04  0.00000000000E+00 0.  1.
        -13    1    1    2    0    0  0.34938011651E+03 -0.22596117001E+02 -0.14180643673E+03  0.37773817252E+03  0.10566000000E+00 0.  1.
         13    1    1    2    0    0 -0.35030089363E+03  0.36809234480E+02  0.95134620035E+03  0.10144581016E+04  0.10566000000E+00 0. -1.
          4    1    1    2  501    0  0.92077711927E+00 -0.14213117480E+02 -0.80047758515E+03  0.80060428732E+03  0.00000000000E+00 0.  1.
</event>
<event>
 5    1  0.2540860E-005  0.3602214E+03  0.7818608E-02  0.1037540E+00
          4   -1    0    0  502    0 -0.00000000000E+00  0.00000000000E+00  0.17520673050E+04  0.17520673050E+04  0.00000000000E+00 0.  1.
         21   -1    0    0  501  502  0.00000000000E+00 -0.00000000000E+00 -0.16271400209E+03  0.16271400209E+03  0.00000000000E+00 0.  1.
        -13    1    1    2    0    0 -0.20483077447E+02 -0.41303338902E+03  0.11342033064E+04  0.12072420173E+04  0.10566000000E+00 0.  1.
         13    1    1    2    0    0  0.20177733548E+02  0.64021950562E+02  0.33001501518E+03  0.33677273122E+03  0.10566000000E+00 0. -1.
          4    1    1    2  501    0  0.30534389845E+00  0.34901143846E+03  0.12513498135E+03  0.37076655859E+03  0.00000000000E+00 0.  1.
</event>
<event>
 5    1  0.2540860E-005  0.6675851E+03  0.7818608E-02  0.9171375E-01
         -4   -1    0    0    0  501 -0.00000000000E+00  0.00000000000E+00  0.60990062173E+03  0.60990062173E+03  0.00000000000E+00 0. -1.
         21   -1    0    0  501  502  0.00000000000E+00 -0.00000000000E+00 -0.12796856002E+04  0.12796856002E+04  0.00000000000E+00 0. -1.
        -13    1    1    2    0    0  0.61420365162E+03  0.48627069531E+01 -0.66782967202E+02  0.61784281776E+03  0.10566000000E+00 0.  1.
         13    1    1    2    0    0 -0.76297309803E+03  0.26477001771E+03 -0.48441531058E+03  0.94174801029E+03  0.10566000000E+00 0. -1.
         -4    1    1    2    0  502  0.14876944641E+03 -0.26963272466E+03 -0.11858670064E+03  0.32999539385E+03  0.00000000000E+00 0. -1.
</event>
<event>
 5    1  0.2540860E-005  0.4512785E+02  0.7818608E-02  0.1313006E+00
         21   -1    0    0  501  502  0.00000000000E+00  0.00000000000E+00  0.12447041415E+03  0.12447041415E+03  0.00000000000E+00 0. -1.
          4   -1    0    0  502    0 -0.00000000000E+00 -0.00000000000E+00 -0.20684490917E+03  0.20684490917E+03  0.00000000000E+00 0.  1.
        -13    1    1    2    0    0 -0.44230584251E+02 -0.13185366631E+02 -0.19887161940E+03  0.20415712244E+03  0.10566000000E+00 0.  1.
         13    1    1    2    0    0  0.27269487005E+02  0.20196307244E+01  0.43425929662E+02  0.51317895132E+02  0.10566000000E+00 0. -1.
          4    1    1    2  501    0  0.16961097246E+02  0.11165735907E+02  0.73071194722E+02  0.75840305750E+02  0.00000000000E+00 0.  1.
</event>
<event>
 5    1  0.2540860E-005  0.5332489E+02  0.7818608E-02  0.1278813E+00
         21   -1    0    0  501  502  0.00000000000E+00  0.00000000000E+00  0.95538655874E+02  0.95538655874E+02  0.00000000000E+00 0. -1.
         -4   -1    0    0    0  501 -0.00000000000E+00 -0.00000000000E+00 -0.33877197831E+03  0.33877197831E+03  0.00000000000E+00 0. -1.
        -13    1    1    2    0    0  0.13746349043E+02  0.30703980942E+02 -0.18683972996E+02  0.38481145625E+02  0.10566000000E+00 0.  1.
         13    1    1    2    0    0 -0.34094289051E+02 -0.48300873508E+02 -0.30516730479E+03  0.31084158345E+03  0.10566000000E+00 0. -1.
         -4    1    1    2    0  502  0.20347940009E+02  0.17596892566E+02  0.80617955346E+02  0.84987905108E+02  0.00000000000E+00 0. -1.
</event>
<event>
 5    1  0.2540860E-005  0.5584804E+03  0.7818608E-02  0.9358249E-01
          4   -1    0    0  502    0 -0.00000000000E+00  0.00000000000E+00  0.37643067006E+03  0.37643067006E+03  0.00000000000E+00 0.  1.
         21   -1    0    0  501  502  0.00000000000E+00 -0.00000000000E+00 -0.12156324337E+04  0.12156324337E+04  0.00000000000E+00 0. -1.
        -13    1    1    2    0    0  0.19064220102E+03 -0.57721550918E+03 -0.40943578824E+03  0.73291191060E+03  0.10566000000E+00 0.  1.
         13    1    1    2    0    0 -0.15032632867E+03  0.50784949155E+03 -0.12524493320E+03  0.54423838124E+03  0.10566000000E+00 0. -1.
          4    1    1    2  501    0 -0.40315872347E+02  0.69366017639E+02 -0.30452104222E+03  0.31491281193E+03  0.00000000000E+00 0.  1.
</event>
<event>
 5    1  0.2540860E-005  0.1797738E+03  0.7818608E-02  0.1074963E+00
         21   -1    0    0  501  502  0.00000000000E+00  0.00000000000E+00  0.67617690064E+02  0.67617690064E+02  0.00000000000E+00 0.  1.
         -4   -1    0    0    0  501 -0.00000000000E+00 -0.00000000000E+00 -0.10449939379E+04  0.10449939379E+04  0.00000000000E+00 0. -1.
        -13    1    1    2    0    0 -0.17566476948E+03  0.12836846912E+03 -0.24413719191E+03  0.32701613834E+03  0.10566000000E+00 0.  1.
         13    1    1    2    0    0  0.11586108341E+03 -0.12585934048E+03 -0.69219044199E+03  0.71301611720E+03  0.10566000000E+00 0. -1.
         -4    1    1    2    0  502  0.59803686065E+02 -0.25091286434E+01 -0.41048613913E+02  0.72579372398E+02  0.00000000000E+00 0. -1.
</event>
<event>
 5    1  0.2540860E-005  0.2284789E+03  0.7818608E-02  0.1042191E+00
         21   -1    0    0  501  502  0.00000000000E+00  0.00000000000E+00  0.86365928006E+02  0.86365928006E+02  0.00000000000E+00 0.  1.
         -4   -1    0    0    0  501 -0.00000000000E+00 -0.00000000000E+00 -0.15787395962E+04  0.15787395962E+04  0.00000000000E+00 0. -1.
        -13    1    1    2    0    0 -0.14765413958E+03 -0.13934843877E+03 -0.15342996444E+03  0.25448083911E+03  0.10566000000E+00 0.  1.
         13    1    1    2    0    0  0.94062573415E+02  0.21755548673E+03 -0.12736319681E+04  0.12954985754E+04  0.10566000000E+00 0. -1.
         -4    1    1    2    0  502  0.53591566165E+02 -0.78207047960E+02 -0.65311735599E+02  0.11512610964E+03  0.00000000000E+00 0. -1.
</event>
<event>
 5    1  0.2540860E-005  0.3876337E+03  0.7818608E-02  0.1010492E+00
         21   -1    0    0  501  502  0.00000000000E+00  0.00000000000E+00  0.13122523955E+03  0.13122523955E+03  0.00000000000E+00 0. -1.
         -4   -1    0    0    0  501 -0.00000000000E+00 -0.00000000000E+00 -0.26915696195E+04  0.26915696195E+04  0.00000000000E+00 0. -1.
        -13    1    1    2    0    0  0.41491865243E+02 -0.11844646929E+03 -0.60599339977E+03  0.61885309461E+03  0.10566000000E+00 0.  1.
         13    1    1    2    0    0  0.51459783695E+02  0.40434501074E+03 -0.26076790530E+03  0.48388315598E+03  0.10566000000E+00 0. -1.
         -4    1    1    2    0  502 -0.92951648938E+02 -0.28589854144E+03 -0.16935830749E+04  0.17200586085E+04  0.00000000000E+00 0. -1.
</event>
<event>
 5    1  0.2540860E-005  0.4442035E+03  0.7818608E-02  0.9866488E-01
          4   -1    0    0  502    0 -0.00000000000E+00  0.00000000000E+00  0.28737920660E+04  0.28737920660E+04  0.00000000000E+00 0.  1.
         21   -1    0    0  501  502  0.00000000000E+00 -0.00000000000E+00 -0.14455377291E+03  0.14455377291E+03  0.00000000000E+00 0.  1.
        -13    1    1    2    0    0  0.23889957496E+03  0.30953754440E+03  0.14132821064E+04  0.14663740388E+04  0.10566000000E+00 0.  1.
         13    1    1    2    0    0 -0.11235312136E+03  0.14400762917E+03  0.91640356320E+03  0.93442866124E+03  0.10566000000E+00 0. -1.
          4    1    1    2  501    0 -0.12654645361E+03 -0.45354517357E+03  0.39955262351E+03  0.61754313885E+03  0.00000000000E+00 0.  1.
</event>
<event>
 5    1  0.2540860E-005  0.4881482E+03  0.7818608E-02  0.9826453E-01
         21   -1    0    0  501  502  0.00000000000E+00  0.00000000000E+00  0.16421984909E+04  0.16421984909E+04  0.00000000000E+00 0. -1.
         -4   -1    0    0    0  501 -0.00000000000E+00 -0.00000000000E+00 -0.22215240765E+03  0.22215240765E+03  0.00000000000E+00 0. -1.
        -13    1    1    2    0    0 -0.15443396982E+03 -0.31360335158E+02  0.34626941878E+02  0.16134546143E+03  0.10566000000E+00 0.  1.
         13    1    1    2    0    0 -0.22747489653E+03 -0.36989019872E+03  0.55299793005E+03  0.70311471999E+03  0.10566000000E+00 0. -1.
         -4    1    1    2    0  502  0.38190886635E+03  0.40125053388E+03  0.83242121130E+03  0.99989071711E+03  0.00000000000E+00 0. -1.
</event>
<event>
 5    1  0.2540860E-005  0.3421370E+03  0.7818608E-02  0.1001964E+00
         -4   -1    0    0    0  501 -0.00000000000E+00  0.00000000000E+00  0.18613210602E+04  0.18613210602E+04  0.00000000000E+00 0. -1.
         21   -1    0    0  501  502  0.00000000000E+00 -0.00000000000E+00 -0.44327050267E+03  0.44327050267E+03  0.00000000000E+00 0. -1.
        -13    1    1    2    0    0  0.33158787202E+02  0.23825539464E+03  0.12303306557E+04  0.12536262089E+04  0.10566000000E+00 0.  1.
         13    1    1    2    0    0  0.30531072456E+03 -0.13243726957E+03  0.48501266733E+03  0.58821047894E+03  0.10566000000E+00 0. -1.
         -4    1    1    2    0  502 -0.33846951177E+03 -0.10581812507E+03 -0.29729276543E+03  0.46275487503E+03  0.00000000000E+00 0. -1.
</event>
<event>
 5    1  0.2540860E-005  0.2532244E+02  0.7818608E-02  0.1446953E+00
         21   -1    0    0  501  502  0.00000000000E+00  0.00000000000E+00  0.62903565886E+03  0.62903565886E+03  0.00000000000E+00 0.  1.
          4   -1    0    0  502    0 -0.00000000000E+00 -0.00000000000E+00 -0.64808421920E+01  0.64808421920E+01  0.00000000000E+00 0.  1.
        -13    1    1    2    0    0 -0.17255293774E+02 -0.10963516151E+02  0.35317658256E+02  0.40807989394E+02  0.10566000000E+00 0.  1.
         13    1    1    2    0    0  0.31503433733E+02  0.29415327584E+02  0.13166548774E+03  0.13854075090E+03  0.10566000000E+00 0. -1.
          4    1    1    2  501    0 -0.14248139960E+02 -0.18451811433E+02  0.45557167067E+03  0.45616776076E+03  0.00000000000E+00 0.  1.
</event>
<event>
 5    1  0.2540860E-005  0.4232986E+03  0.7818608E-02  0.1064063E+00
         21   -1    0    0  501  502  0.00000000000E+00  0.00000000000E+00  0.11902002566E+03  0.11902002566E+03  0.00000000000E+00 0.  1.
          4   -1    0    0  502    0 -0.00000000000E+00 -0.00000000000E+00 -0.21799385647E+04  0.21799385647E+04  0.00000000000E+00 0.  1.
        -13    1    1    2    0    0 -0.20565468750E+03 -0.36363637057E+03 -0.16135104260E+04  0.16667156826E+04  0.10566000000E+00 0.  1.
         13    1    1    2    0    0 -0.18644557266E+02  0.25581533579E+01 -0.36311375626E+02  0.40898543106E+02  0.10566000000E+00 0. -1.
          4    1    1    2  501    0  0.22429924477E+03  0.36107821721E+03 -0.41109673742E+03  0.59134436470E+03  0.00000000000E+00 0.  1.
</event>
<event>
 5    1  0.2540860E-005  0.6775364E+02  0.7818608E-02  0.1233289E+00
         21   -1    0    0  501  502  0.00000000000E+00  0.00000000000E+00  0.96250527171E+02  0.96250527171E+02  0.00000000000E+00 0.  1.
          4   -1    0    0  502    0 -0.00000000000E+00 -0.00000000000E+00 -0.23552516010E+03  0.23552516010E+03  0.00000000000E+00 0.  1.
        -13    1    1    2    0    0 -0.58325779715E+02 -0.55372929087E+02  0.27336780861E+02  0.84943325853E+02  0.10566000000E+00 0.  1.
         13    1    1    2    0    0  0.68313126996E+02 -0.12041537833E+02 -0.16463713103E+03  0.17865351391E+03  0.10566000000E+00 0. -1.
          4    1    1    2  501    0 -0.99873472808E+01  0.67414466920E+02 -0.19742827629E+01  0.68178847513E+02  0.00000000000E+00 0.  1.
</event>
<event>
 5    1  0.2540860E-005  0.3297299E+03  0.7818608E-02  0.9957380E-01
         -4   -1    0    0    0  501 -0.00000000000E+00  0.00000000000E+00  0.13650503570E+04  0.13650503570E+04  0.00000000000E+00 0. -1.
         21   -1    0    0  501  502  0.00000000000E+00 -0.00000000000E+00 -0.39951163920E+03  0.39951163920E+03  0.00000000000E+00 0.  1.
        -13    1    1    2    0    0  0.11237244770E+03 -0.33841905308E+03  0.10851120621E+03  0.37273276691E+03  0.10566000000E+00 0.  1.
         13    1    1    2    0    0 -0.83248948384E+02  0.31420722187E+03  0.10994360432E+04  0.11464799126E+04  0.10566000000E+00 0. -1.
         -4    1    1    2    0  502 -0.29123499318E+02  0.24211831203E+02 -0.24240853164E+03  0.24534931668E+03  0.00000000000E+00 0. -1.
</event>
<event>
 5    1  0.2540860E-005  0.2771471E+03  0.7818608E-02  0.1017211E+00
         -4   -1    0    0    0  501 -0.00000000000E+00  0.00000000000E+00  0.35805855673E+03  0.35805855673E+03  0.00000000000E+00 0. -1.
         21   -1    0    0  501  502  0.00000000000E+00 -0.00000000000E+00 -0.47596270765E+03  0.47596270765E+03  0.00000000000E+00 0.  1.
        -13    1    1    2    0    0  0.62795832940E+02  0.26165219017E+03 -0.28317569442E+03  0.39063239795E+03  0.10566000000E+00 0.  1.
         13    1    1    2    0    0 -0.77623329127E+02 -0.26769922728E+03  0.23947748992E+03  0.36747481118E+03  0.10566000000E+00 0. -1.
         -4    1    1    2    0  502  0.14827496186E+02  0.60470371090E+01 -0.74205946413E+02  0.75914055247E+02  0.00000000000E+00 0. -1.
</event>
<event>
 5    1  0.2540860E-005  0.1877013E+03  0.7818608E-02  0.1068911E+00
         21   -1    0    0  501  502  0.00000000000E+00  0.00000000000E+00  0.28621601432E+03  0.28621601432E+03  0.00000000000E+00 0. -1.
          4   -1    0    0  502    0 -0.00000000000E+00 -0.00000000000E+00 -0.11834524211E+04  0.11834524211E+04  0.00000000000E+00 0.  1.
        -13    1    1    2    0    0 -0.15741263220E+03  0.11843183779E+03 -0.10400604585E+04  0.10585511822E+04  0.10566000000E+00 0.  1.
         13    1    1    2    0    0  0.12788269857E+03 -0.72873203704E+02 -0.89680877652E+02  0.17235764965E+03  0.10566000000E+00 0. -1.
          4    1    1    2  501    0  0.29529933625E+02 -0.45558634089E+02  0.23250492933E+03  0.23875960354E+03  0.00000000000E+00 0.  1.
</event>
<event>
 5    1  0.2540860E-005  0.6884799E+03  0.7818608E-02  0.9139859E-01
         21   -1    0    0  501  502  0.00000000000E+00  0.00000000000E+00  0.27968185411E+03  0.27968185411E+03  0.00000000000E+00 0. -1.
          4   -1    0    0  502    0 -0.00000000000E+00 -0.00000000000E+00 -0.30344772296E+04  0.30344772296E+04  0.00000000000E+00 0.  1.
        -13    1    1    2    0    0  0.64875852640E+03 -0.35155416748E+03 -0.17721914640E+04  0.19196719914E+04  0.10566000000E+00 0.  1.
         13    1    1    2    0    0 -0.65011903411E+03  0.34810822733E+02 -0.79030356863E+03  0.10239366649E+04  0.10566000000E+00 0. -1.
          4    1    1    2  501    0  0.13605077113E+01  0.31674334475E+03 -0.19230034283E+03  0.37055042744E+03  0.00000000000E+00 0.  1.
</event>
<event>
 5    1  0.2540860E-005  0.4723340E+03  0.7818608E-02  0.9565188E-01
          4   -1    0    0  502    0 -0.00000000000E+00  0.00000000000E+00  0.21725859657E+04  0.21725859657E+04  0.00000000000E+00 0.  1.
         21   -1    0    0  501  502  0.00000000000E+00 -0.00000000000E+00 -0.28995416449E+03  0.28995416449E+03  0.00000000000E+00 0.  1.
        -13    1    1    2    0    0  0.50544310398E+03  0.40444808644E+03  0.76063541164E+03  0.99880790275E+03  0.10566000000E+00 0.  1.
         13    1    1    2    0    0 -0.68110241177E+02 -0.42725456856E+03  0.83414666068E+03  0.93967341880E+03  0.10566000000E+00 0. -1.
          4    1    1    2  501    0 -0.43733286280E+03  0.22806482119E+02  0.28784972892E+03  0.52405880868E+03  0.00000000000E+00 0.  1.
</event>
<event>
 5    1  0.2540860E-005  0.4318270E+03  0.7818608E-02  0.9770063E-01
          4   -1    0    0  502    0 -0.00000000000E+00  0.00000000000E+00  0.74919678305E+03  0.74919678305E+03  0.00000000000E+00 0.  1.
         21   -1    0    0  501  502  0.00000000000E+00 -0.00000000000E+00 -0.66320149439E+03  0.66320149439E+03  0.00000000000E+00 0.  1.
        -13    1    1    2    0    0 -0.17171340650E+03 -0.31427286345E+03  0.21708255655E+03  0.41878129638E+03  0.10566000000E+00 0.  1.
         13    1    1    2    0    0 -0.25579322274E+03  0.10361182604E+03  0.25843642064E+03  0.37809387455E+03  0.10566000000E+00 0. -1.
          4    1    1    2  501    0  0.42750662924E+03  0.21066103741E+03 -0.38952368853E+03  0.61552310652E+03  0.00000000000E+00 0.  1.
</event>
<event>
 5    1  0.2540860E-005  0.1853254E+03  0.7818608E-02  0.1070690E+00
         -4   -1    0    0    0  501 -0.00000000000E+00  0.00000000000E+00  0.12405711751E+04  0.12405711751E+04  0.00000000000E+00 0. -1.
         21   -1    0    0  501  502  0.00000000000E+00 -0.00000000000E+00 -0.66156069739E+02  0.66156069739E+02  0.00000000000E+00 0.  1.
        -13    1    1    2    0    0 -0.96335791528E+02 -0.12096686763E+03  0.95887723731E+02  0.18195613351E+03  0.10566000000E+00 0.  1.
         13    1    1    2    0    0  0.14304824854E+03  0.12788656739E+03  0.10544477599E+04  0.10717639036E+04  0.10566000000E+00 0. -1.
         -4    1    1    2    0  502 -0.46712457008E+02 -0.69196997569E+01  0.24079621645E+02  0.53007207651E+02  0.00000000000E+00 0. -1.
</event>
<event>
 5    1  0.2540860E-005  0.4859442E+03  0.7818608E-02  0.9705146E-01
         21   -1    0    0  501  502  0.00000000000E+00  0.00000000000E+00  0.88156357787E+03  0.88156357787E+03  0.00000000000E+00 0.  1.
          4   -1    0    0  502    0 -0.00000000000E+00 -0.00000000000E+00 -0.16247844217E+04  0.16247844217E+04  0.00000000000E+00 0.  1.
        -13    1    1    2    0    0 -0.16051670566E+03  0.40865707586E+03  0.32448795692E+03  0.54594749180E+03  0.10566000000E+00 0.  1.
         13    1    1    2    0    0  0.15526352324E+03  0.18612887578E+03 -0.12995829952E+04  0.13219934541E+04  0.10566000000E+00 0. -1.
          4    1    1    2  501    0  0.52531824172E+01 -0.59478595164E+03  0.23187419443E+03  0.63840705372E+03  0.00000000000E+00 0.  1.
</event>
<event>
 5    1  0.2540860E-005  0.4956452E+03  0.7818608E-02  0.9929056E-01
         -4   -1    0    0    0  501 -0.00000000000E+00  0.00000000000E+00  0.13467103783E+04  0.13467103783E+04  0.00000000000E+00 0. -1.
         21   -1    0    0  501  502  0.00000000000E+00 -0.00000000000E+00 -0.23764748392E+03  0.23764748392E+03  0.00000000000E+00 0. -1.
        -13    1    1    2    0    0  0.20025433291E+02  0.10474022023E+03  0.14186204019E+03  0.17747219873E+03  0.10566000000E+00 0.  1.
         13    1    1    2    0    0 -0.39144077720E+03  0.25526508029E+03  0.64847964589E+03  0.79931971424E+03  0.10566000000E+00 0. -1.
         -4    1    1    2    0  502  0.37141534391E+03 -0.36000530052E+03  0.31872120834E+03  0.60756594930E+03  0.00000000000E+00 0. -1.
</event>
<event>
 5    1  0.2540860E-005  0.4654428E+03  0.7818608E-02  0.9557111E-01
          4   -1    0    0  502    0 -0.00000000000E+00  0.00000000000E+00  0.23298652678E+04  0.23298652678E+04  0.00000000000E+00 0.  1.
         21   -1    0    0  501  502  0.00000000000E+00 -0.00000000000E+00 -0.27896618355E+03  0.27896618355E+03  0.00000000000E+00 0.  1.
        -13    1    1    2    0    0 -0.34149369099E+03  0.38446794773E+03  0.17557494842E+03  0.54337842936E+03  0.10566000000E+00 0.  1.
         13    1    1    2    0    0 -0.15240789040E+01 -0.48277437988E+03  0.82149915111E+03  0.95285586062E+03  0.10566000000E+00 0. -1.
          4    1    1    2  501    0  0.34301776989E+03  0.98306432147E+02  0.10538249847E+04  0.11125971613E+04  0.00000000000E+00 0.  1.
</event>
<event>
 5    1  0.2540860E-005  0.1807952E+03  0.7818608E-02  0.1074164E+00
         21   -1    0    0  501  502  0.00000000000E+00  0.00000000000E+00  0.43790816484E+03  0.43790816484E+03  0.00000000000E+00 0. -1.
         -4   -1    0    0    0  501 -0.00000000000E+00 -0.00000000000E+00 -0.15179502652E+03  0.15179502652E+03  0.00000000000E+00 0. -1.
        -13    1    1    2    0    0  0.67312151923E+02  0.18140207330E+03  0.23992625941E+03  0.30822436489E+03  0.10566000000E+00 0.  1.
         13    1    1    2    0    0 -0.31330838274E+02 -0.17541061749E+03 -0.44561092555E+02  0.18367419059E+03  0.10566000000E+00 0. -1.
         -4    1    1    2    0  502 -0.35981313649E+02 -0.59914558163E+01  0.90747971470E+02  0.97804635885E+02  0.00000000000E+00 0. -1.
</event>
<event>
 5    1  0.2540860E-005  0.1289506E+02  0.7818608E-02  0.1652384E+00
         -4   -1    0    0    0  501 -0.00000000000E+00  0.00000000000E+00  0.14536358358E+02  0.14536358358E+02  0.00000000000E+00 0. -1.
         21   -1    0    0  501  502  0.00000000000E+00 -0.00000000000E+00 -0.50212218332E+02  0.50212218332E+02  0.00000000000E+00 0.  1.
        -13    1    1    2    0    0  0.24216416289E+02  0.78252624305E+00 -0.29556657225E+02  0.38218507500E+02  0.10566000000E+00 0.  1.
         13    1    1    2    0    0 -0.10542840482E+02 -0.80838280754E+00  0.18035054638E+01  0.10727010962E+02  0.10566000000E+00 0. -1.
         -4    1    1    2    0  502 -0.13673575807E+02  0.25856564489E-01 -0.79227082126E+01  0.15803058227E+02  0.00000000000E+00 0. -1.
</event>
<event>
 5    1  0.2540860E-005  0.5653637E+03  0.7818608E-02  0.9419299E-01
         21   -1    0    0  501  502  0.00000000000E+00  0.00000000000E+00  0.87257633197E+03  0.87257633197E+03  0.00000000000E+00 0.  1.
         -4   -1    0    0    0  501 -0.00000000000E+00 -0.00000000000E+00 -0.24492169190E+04  0.24492169190E+04  0.00000000000E+00 0. -1.
        -13    1    1    2    0    0 -0.32374787337E+03  0.90266053867E+03 -0.16851800437E+04  0.19389276739E+04  0.10566000000E+00 0.  1.
         13    1    1    2    0    0  0.11767486451E+03 -0.28722915534E+03 -0.43631736353E+03  0.53546317735E+03  0.10566000000E+00 0. -1.
         -4    1    1    2    0  502  0.20607300886E+03 -0.61543138333E+03  0.54485682022E+03  0.84740239975E+03  0.00000000000E+00 0. -1.
</event>
<event>
 5    1  0.2540860E-005  0.4055523E+03  0.7818608E-02  0.9713146E-01
         21   -1    0    0  501  502  0.00000000000E+00  0.00000000000E+00  0.15911162924E+04  0.15911162924E+04  0.00000000000E+00 0. -1.
         -4   -1    0    0    0  501 -0.00000000000E+00 -0.00000000000E+00 -0.35995151955E+03  0.35995151955E+03  0.00000000000E+00 0. -1.
        -13    1    1    2    0    0  0.33015860876E+03  0.24774628979E+03  0.33117814690E+03  0.52920875578E+03  0.10566000000E+00 0.  1.
         13    1    1    2    0    0 -0.10781813709E+03 -0.41769857988E+03 -0.47415728489E+02  0.43398746156E+03  0.10566000000E+00 0. -1.
         -4    1    1    2    0  502 -0.22234047167E+03  0.16995229010E+03  0.94740235444E+03  0.98787159462E+03  0.00000000000E+00 0. -1.
</event>
<event>
 5    1  0.2540860E-005  0.4983023E+03  0.7818608E-02  0.9827399E-01
          4   -1    0    0  502    0 -0.00000000000E+00  0.00000000000E+00  0.18363593663E+04  0.18363593663E+04  0.00000000000E+00 0.  1.
         21   -1    0    0  501  502  0.00000000000E+00 -0.00000000000E+00 -0.22856200081E+03  0.22856200081E+03  0.00000000000E+00 0.  1.
        -13    1    1    2    0    0 -0.13928686926E+03  0.43912977478E+03  0.54533975733E+03  0.71388462173E+03  0.10566000000E+00 0.  1.
         13    1    1    2    0    0 -0.14685135711E+03  0.15548951614E+02  0.66909560763E+03  0.68519780669E+03  0.10566000000E+00 0. -1.
          4    1    1    2  501    0  0.28613822638E+03 -0.45467872639E+03  0.39336200054E+03  0.66583893871E+03  0.00000000000E+00 0.  1.
</event>
<event>
 5    1  0.2540860E-005  0.2136765E+03  0.7818608E-02  0.1051144E+00
         21   -1    0    0  501  502  0.00000000000E+00  0.00000000000E+00  0.10366332438E+04  0.10366332438E+04  0.00000000000E+00 0. -1.
         -4   -1    0    0    0  501 -0.00000000000E+00 -0.00000000000E+00 -0.13599711114E+03  0.13599711114E+03  0.00000000000E+00 0. -1.
        -13    1    1    2    0    0  0.62628204367E+02 -0.19626235563E+03 -0.49052335741E+01  0.20607104770E+03  0.10566000000E+00 0.  1.
         13    1    1    2    0    0 -0.90638356678E+02  0.24250495939E+03  0.56166657251E+03  0.61846044083E+03  0.10566000000E+00 0. -1.
         -4    1    1    2    0  502  0.28010152311E+02 -0.46242603768E+02  0.34387479369E+03  0.34809886638E+03  0.00000000000E+00 0. -1.
</event>
<event>
 5    1  0.2540860E-005  0.3345624E+03  0.7818608E-02  0.9995192E-01
         21   -1    0    0  501  502  0.00000000000E+00  0.00000000000E+00  0.54637441972E+03  0.54637441972E+03  0.00000000000E+00 0.  1.
          4   -1    0    0  502    0 -0.00000000000E+00 -0.00000000000E+00 -0.86802860831E+03  0.86802860831E+03  0.00000000000E+00 0.  1.
        -13    1    1    2    0    0  0.11481519779E+03  0.26932248221E+03  0.23048018007E+03  0.37261005573E+03  0.10566000000E+00 0.  1.
         13    1    1    2    0    0 -0.30100317153E+03  0.20921349229E+03 -0.18533186914E+03  0.41075674980E+03  0.10566000000E+00 0. -1.
          4    1    1    2  501    0  0.18618797374E+03 -0.47853597449E+03 -0.36680249952E+03  0.63103622250E+03  0.00000000000E+00 0.  1.
</event>
<event>
 5    1  0.2540860E-005  0.4826547E+03  0.7818608E-02  0.9804025E-01
          4   -1    0    0  502    0 -0.00000000000E+00  0.00000000000E+00  0.20833035236E+04  0.20833035236E+04  0.00000000000E+00 0.  1.
         21   -1    0    0  501  502  0.00000000000E+00 -0.00000000000E+00 -0.17755716955E+03  0.17755716955E+03  0.00000000000E+00 0.  1.
        -13    1    1    2    0    0  0.29813632963E+03  0.42270397499E+03  0.46318590427E+03  0.69433789655E+03  0.10566000000E+00 0.  1.
         13    1    1    2    0    0 -0.17587525059E+03 -0.54599928005E+01  0.41624235868E+03  0.45190665807E+03  0.10566000000E+00 0. -1.
          4    1    1    2  501    0 -0.12226107904E+03 -0.41724398218E+03  0.10263180911E+04  0.11146161386E+04  0.00000000000E+00 0.  1.
</event>
<event>
 5    1  0.2540860E-005  0.2874157E+02  0.7818608E-02  0.1415307E+00
         -4   -1    0    0    0  501 -0.00000000000E+00  0.00000000000E+00  0.18870457812E+03  0.18870457812E+03  0.00000000000E+00 0. -1.
         21   -1    0    0  501  502  0.00000000000E+00 -0.00000000000E+00 -0.11511251385E+02  0.11511251385E+02  0.00000000000E+00 0. -1.
        -13    1    1    2    0    0  0.11683412708E+02 -0.17838057251E+02  0.39258276843E+02  0.44675741558E+02  0.10566000000E+00 0.  1.
         13    1    1    2    0    0 -0.11901733498E+02  0.33167666329E+02  0.13551181195E+03  0.14001859766E+03  0.10566000000E+00 0. -1.
         -4    1    1    2    0  502  0.21832078945E+00 -0.15329609078E+02  0.24232379416E+01  0.15521490282E+02  0.00000000000E+00 0. -1.
</event>
<event>
 5    1  0.2540860E-005  0.2888352E+02  0.7818608E-02  0.1414830E+00
          4   -1    0    0  502    0 -0.00000000000E+00  0.00000000000E+00  0.47497234511E+02  0.47497234511E+02  0.00000000000E+00 0.  1.
         21   -1    0    0  501  502  0.00000000000E+00 -0.00000000000E+00 -0.16318415265E+03  0.16318415265E+03  0.00000000000E+00 0.  1.
        -13    1    1    2    0    0  0.78405745727E+01  0.86934434272E+01  0.41220488279E+02  0.42850792131E+02  0.10566000000E+00 0.  1.
         13    1    1    2    0    0  0.20917255627E+02 -0.19418795195E+02 -0.84366065988E+02  0.89063266525E+02  0.10566000000E+00 0. -1.
          4    1    1    2  501    0 -0.28757830200E+02  0.10725351768E+02 -0.72541340427E+02  0.78767328502E+02  0.00000000000E+00 0.  1.
</event>
<event>
 5    1  0.2540860E-005  0.4205653E+03  0.7818608E-02  0.9677182E-01
         -4   -1    0    0    0  501 -0.00000000000E+00  0.00000000000E+00  0.30124893968E+04  0.30124893968E+04  0.00000000000E+00 0. -1.
         21   -1    0    0  501  502  0.00000000000E+00 -0.00000000000E+00 -0.25117154527E+03  0.25117154527E+03  0.00000000000E+00 0. -1.
        -13    1    1    2    0    0  0.12413652142E+03 -0.40399639873E+03  0.16907155406E+04  0.17427398017E+04  0.10566000000E+00 0.  1.
         13    1    1    2    0    0  0.29539931082E+03  0.43340529294E+03  0.94703537444E+03  0.10825788250E+04  0.10566000000E+00 0. -1.
         -4    1    1    2    0  502 -0.41953583224E+03 -0.29408894209E+02  0.12356693646E+03  0.43834231529E+03  0.00000000000E+00 0. -1.
</event>
<event>
 5    1  0.2540860E-005  0.1439760E+03  0.7818608E-02  0.1107209E+00
         21   -1    0    0  501  502  0.00000000000E+00  0.00000000000E+00  0.73667442856E+02  0.73667442856E+02  0.00000000000E+00 0. -1.
          4   -1    0    0  502    0 -0.00000000000E+00 -0.00000000000E+00 -0.37500389099E+03  0.37500389099E+03  0.00000000000E+00 0.  1.
        -13    1    1    2    0    0 -0.15911483152E+02 -0.14196205151E+03 -0.20254574051E+03  0.24785315719E+03  0.10566000000E+00 0.  1.
         13    1    1    2    0    0 -0.48314223769E+00  0.14640910684E+03 -0.10758692071E+03  0.18168879069E+03  0.10566000000E+00 0. -1.
          4    1    1    2  501    0  0.16394625390E+02 -0.44470553352E+01  0.87962130842E+01  0.19129385966E+02  0.00000000000E+00 0.  1.
</event>
<event>
 5    1  0.2540860E-005  0.4875306E+03  0.7818608E-02  0.9777992E-01
          4   -1    0    0  502    0 -0.00000000000E+00  0.00000000000E+00  0.29842362491E+04  0.29842362491E+04  0.00000000000E+00 0.  1.
         21   -1    0    0  501  502  0.00000000000E+00 -0.00000000000E+00 -0.12175254154E+03  0.12175254154E+03  0.00000000000E+00 0.  1.
        -13    1    1    2    0    0  0.13271775331E+03  0.42689276217E+03  0.14781377483E+04  0.15442611977E+04  0.10566000000E+00 0.  1.
         13    1    1    2    0    0  0.18633832378E+03 -0.10459142917E+02  0.49723773132E+03  0.53110896922E+03  0.10566000000E+00 0. -1.
          4    1    1    2  501    0 -0.31905607709E+03 -0.41643361926E+03  0.88710822785E+03  0.10306186237E+04  0.00000000000E+00 0.  1.
</event>
<event>
 5    1  0.2540860E-005  0.8177310E+02  0.7818608E-02  0.1198835E+00
         -4   -1    0    0    0  501 -0.00000000000E+00  0.00000000000E+00  0.50968575787E+03  0.50968575787E+03  0.00000000000E+00 0. -1.
         21   -1    0    0  501  502  0.00000000000E+00 -0.00000000000E+00 -0.24607578230E+02  0.24607578230E+02  0.00000000000E+00 0. -1.
        -13    1    1    2    0    0 -0.33424289788E+02 -0.83706797647E+02  0.19833029546E+03  0.21785070205E+03  0.10566000000E+00 0.  1.
         13    1    1    2    0    0  0.22963928648E+02  0.74043397359E+02  0.29134164686E+03  0.30147924152E+03  0.10566000000E+00 0. -1.
         -4    1    1    2    0  502  0.10460361140E+02  0.96634002878E+01 -0.45937626837E+01  0.14963392526E+02  0.00000000000E+00 0. -1.
</event>
<event>
 5    1  0.2540860E-005  0.7032650E+02  0.7818608E-02  0.1225873E+00
          4   -1    0    0  502    0 -0.00000000000E+00  0.00000000000E+00  0.30151912145E+03  0.30151912145E+03  0.00000000000E+00 0.  1.
         21   -1    0    0  501  502  0.00000000000E+00 -0.00000000000E+00 -0.76197205099E+02  0.76197205099E+02  0.00000000000E+00 0. -1.
        -13    1    1    2    0    0 -0.55414209247E+02  0.43254493046E+02  0.27371221031E+03  0.28259524234E+03  0.10566000000E+00 0.  1.
         13    1    1    2    0    0  0.49418800891E+02 -0.51551519668E+02 -0.39780411955E+02  0.81745149097E+02  0.10566000000E+00 0. -1.
          4    1    1    2  501    0  0.59954083562E+01  0.82970266216E+01 -0.86098820027E+01  0.13375935116E+02  0.00000000000E+00 0.  1.
</event>
<event>
 5    1  0.2540860E-005  0.2411778E+03  0.7818608E-02  0.1035069E+00
         -4   -1    0    0    0  501 -0.00000000000E+00  0.00000000000E+00  0.15216588137E+04  0.15216588137E+04  0.00000000000E+00 0. -1.
         21   -1    0    0  501  502  0.00000000000E+00 -0.00000000000E+00 -0.92117502738E+02  0.92117502738E+02  0.00000000000E+00 0.  1.
        -13    1    1    2    0    0 -0.18723654586E+03 -0.80033545461E+02  0.39271438651E+03  0.44236579099E+03  0.10566000000E+00 0.  1.
         13    1    1    2    0    0  0.17269835353E+03  0.23026449029E+03  0.95966029774E+03  0.10018953813E+04  0.10566000000E+00 0. -1.
         -4    1    1    2    0  502  0.14538192321E+02 -0.15023094483E+03  0.77166626686E+02  0.16951514414E+03  0.00000000000E+00 0. -1.
</event>
<event>
 5    1  0.2540860E-005  0.9623866E+02  0.7818608E-02  0.1170933E+00
         21   -1    0    0  501  502  0.00000000000E+00  0.00000000000E+00  0.76128606300E+02  0.76128606300E+02  0.00000000000E+00 0.  1.
          4   -1    0    0  502    0 -0.00000000000E+00 -0.00000000000E+00 -0.32008839415E+03  0.32008839415E+03  0.00000000000E+00 0.  1.
        -13    1    1    2    0    0 -0.94627554445E+02  0.90567843096E+02 -0.13248787847E+03  0.18630608516E+03  0.10566000000E+00 0.  1.
         13    1    1    2    0    0  0.83002254441E+02 -0.12042640635E+02 -0.98677377656E+02  0.12950534916E+03  0.10566000000E+00 0. -1.
          4    1    1    2  501    0  0.11625300003E+02 -0.78525202461E+02 -0.12794531720E+02  0.80405566124E+02  0.00000000000E+00 0.  1.
</event>
<event>
 5    1  0.2540860E-005  0.4995660E+03  0.7818608E-02  0.9478924E-01
         21   -1    0    0  501  502  0.00000000000E+00  0.00000000000E+00  0.11470558052E+04  0.11470558052E+04  0.00000000000E+00 0. -1.
          4   -1    0    0  502    0 -0.00000000000E+00 -0.00000000000E+00 -0.11040359695E+04  0.11040359695E+04  0.00000000000E+00 0.  1.
        -13    1    1    2    0    0  0.10623038533E+03 -0.40503262358E+03 -0.43164255026E+03  0.60137477773E+03  0.10566000000E+00 0.  1.
         13    1    1    2    0    0 -0.61295334791E+02  0.89389599585E+03 -0.91147531559E+02  0.90061926091E+03  0.10566000000E+00 0. -1.
          4    1    1    2  501    0 -0.44935050541E+02 -0.48886337226E+03  0.56580991750E+03  0.74909773611E+03  0.00000000000E+00 0.  1.
</event>
<event>
 5    1  0.2540860E-005  0.4995484E+03  0.7818608E-02  0.9665142E-01
         21   -1    0    0  501  502  0.00000000000E+00  0.00000000000E+00  0.22129750200E+03  0.22129750200E+03  0.00000000000E+00 0.  1.
          4   -1    0    0  502    0 -0.00000000000E+00 -0.00000000000E+00 -0.21154464397E+04  0.21154464397E+04  0.00000000000E+00 0.  1.
        -13    1    1    2    0    0 -0.78194384552E+02  0.63157141409E+03 -0.58811842961E+03  0.86653338729E+03  0.10566000000E+00 0.  1.
         13    1    1    2    0    0  0.74042710295E+02 -0.24566568280E+03 -0.75551519981E+03  0.79789546869E+03  0.10566000000E+00 0. -1.
          4    1    1    2  501    0  0.41516742570E+01 -0.38590573129E+03 -0.55051530831E+03  0.67231508575E+03  0.00000000000E+00 0.  1.
</event>
<event>
 5    1  0.2540860E-005  0.2948733E+02  0.7818608E-02  0.1409074E+00
         -4   -1    0    0    0  501 -0.00000000000E+00  0.00000000000E+00  0.15670026109E+02  0.15670026109E+02  0.00000000000E+00 0. -1.
         21   -1    0    0  501  502  0.00000000000E+00 -0.00000000000E+00 -0.28199587465E+03  0.28199587465E+03  0.00000000000E+00 0. -1.
        -13    1    1    2    0    0  0.23287554592E+02 -0.19417930361E+02 -0.31451046206E+02  0.43686905245E+02  0.10566000000E+00 0.  1.
         13    1    1    2    0    0 -0.30812704786E+02  0.35157892638E+01 -0.16944865012E+02  0.35340107027E+02  0.10566000000E+00 0. -1.
         -4    1    1    2    0  502  0.75251501947E+01  0.15902141097E+02 -0.21792993733E+03  0.21863888849E+03  0.00000000000E+00 0. -1.
</event>
<event>
 5    1  0.2540860E-005  0.1130436E+03  0.7818608E-02  0.1144612E+00
         -4   -1    0    0    0  501 -0.00000000000E+00  0.00000000000E+00  0.18454700386E+03  0.18454700386E+03  0.00000000000E+00 0. -1.
         21   -1    0    0  501  502  0.00000000000E+00 -0.00000000000E+00 -0.14033465822E+03  0.14033465822E+03  0.00000000000E+00 0. -1.
        -13    1    1    2    0    0 -0.10209879097E+03  0.12558719159E+02  0.30319239342E+02  0.10724342396E+03  0.10566000000E+00 0.  1.
         13    1    1    2    0    0  0.12151448380E+03 -0.70833712556E+01  0.81895604270E+02  0.14670666340E+03  0.10566000000E+00 0. -1.
         -4    1    1    2    0  502 -0.19415692837E+02 -0.54753479030E+01 -0.68002497965E+02  0.70931574722E+02  0.00000000000E+00 0. -1.
</event>
<event>
 5    1  0.2540860E-005  0.2333126E+02  0.7818608E-02  0.1492420E+00
         21   -1    0    0  501  502  0.00000000000E+00  0.00000000000E+00  0.40118034246E+02  0.40118034246E+02  0.00000000000E+00 0. -1.
         -4   -1    0    0    0  501 -0.00000000000E+00 -0.00000000000E+00 -0.57375832880E+02  0.57375832880E+02  0.00000000000E+00 0. -1.
        -13    1    1    2    0    0 -0.28208974823E+01 -0.15987467784E+02  0.58659269135E+01  0.17262006006E+02  0.10566000000E+00 0.  1.
         13    1    1    2    0    0  0.20328832414E+02  0.29324088575E+02 -0.39176739280E+02  0.52990486530E+02  0.10566000000E+00 0. -1.
         -4    1    1    2    0  502 -0.17507934931E+02 -0.13336620791E+02  0.16053013732E+02  0.27241374590E+02  0.00000000000E+00 0. -1.
</event>
<event>
 5    1  0.2540860E-005  0.4729517E+03  0.7818608E-02  0.9552022E-01
         21   -1    0    0  501  502  0.00000000000E+00  0.00000000000E+00  0.30936891783E+03  0.30936891783E+03  0.00000000000E+00 0.  1.
          4   -1    0    0  502    0 -0.00000000000E+00 -0.00000000000E+00 -0.20495025703E+04  0.20495025703E+04  0.00000000000E+00 0.  1.
        -13    1    1    2    0    0 -0.54549973618E+03 -0.10296383162E+03 -0.87392236943E+03  0.10353317496E+04  0.10566000000E+00 0.  1.
         13    1    1    2    0    0  0.34627173389E+03 -0.33801278735E+03 -0.60146876883E+03  0.77195948672E+03  0.10566000000E+00 0. -1.
          4    1    1    2  501    0  0.19922800229E+03  0.44097661896E+03 -0.26474251424E+03  0.55158025183E+03  0.00000000000E+00 0.  1.
</event>
<event>
 5    1  0.2540860E-005  0.4892419E+03  0.7818608E-02  0.9843630E-01
         21   -1    0    0  501  502  0.00000000000E+00  0.00000000000E+00  0.13232059667E+03  0.13232059667E+03  0.00000000000E+00 0.  1.
          4   -1    0    0  502    0 -0.00000000000E+00 -0.00000000000E+00 -0.24781302897E+04  0.24781302897E+04  0.00000000000E+00 0.  1.
        -13    1    1    2    0    0  0.84979473182E+02  0.53401200455E+03 -0.86345582544E+03  0.10187964986E+04  0.10566000000E+00 0.  1.
         13    1    1    2    0    0  0.69152080085E+02 -0.13048567709E+03 -0.37376211142E+03  0.40187889868E+03  0.10566000000E+00 0. -1.
          4    1    1    2  501    0 -0.15413155327E+03 -0.40352632745E+03 -0.11085917562E+04  0.11897754892E+04  0.00000000000E+00 0.  1.
</event>
<event>
 5    1  0.2540860E-005  0.4589889E+03  0.7818608E-02  0.9975660E-01
         -4   -1    0    0    0  501 -0.00000000000E+00  0.00000000000E+00  0.68653488500E+03  0.68653488500E+03  0.00000000000E+00 0. -1.
         21   -1    0    0  501  502  0.00000000000E+00 -0.00000000000E+00 -0.53178852004E+03  0.53178852004E+03  0.00000000000E+00 0. -1.
        -13    1    1    2    0    0 -0.11312560036E+03  0.21159503280E+02  0.15958428914E+03  0.19675437109E+03  0.10566000000E+00 0.  1.
         13    1    1    2    0    0  0.47223663476E+03 -0.13734782162E+03 -0.26929125190E+03  0.56070460389E+03  0.10566000000E+00 0. -1.
         -4    1    1    2    0  502 -0.35911103440E+03  0.11618831834E+03  0.26445332772E+03  0.46086443005E+03  0.00000000000E+00 0. -1.
</event>
<event>
 5    1  0.2540860E-005  0.1174921E+03  0.7818608E-02  0.1138475E+00
         -4   -1    0    0    0  501 -0.00000000000E+00  0.00000000000E+00  0.80645510173E+02  0.80645510173E+02  0.00000000000E+00 0. -1.
         21   -1    0    0  501  502  0.00000000000E+00 -0.00000000000E+00 -0.54541024579E+03  0.54541024579E+03  0.00000000000E+00 0. -1.
        -13    1    1    2    0    0 -0.10258717453E+03  0.13577438404E+02 -0.24838318738E+02  0.10642099630E+03  0.10566000000E+00 0.  1.
         13    1    1    2    0    0  0.14614491566E+03 -0.23136542100E+02 -0.10423271392E+03  0.18099200471E+03  0.10566000000E+00 0. -1.
         -4    1    1    2    0  502 -0.43557741126E+02  0.95591036955E+01 -0.33569370297E+03  0.33864275496E+03  0.00000000000E+00 0. -1.
</event>
<event>
 5    1  0.2540860E-005  0.4931165E+03  0.7818608E-02  0.9891855E-01
          4   -1    0    0  502    0 -0.00000000000E+00  0.00000000000E+00  0.22093702271E+04  0.22093702271E+04  0.00000000000E+00 0.  1.
         21   -1    0    0  501  502  0.00000000000E+00 -0.00000000000E+00 -0.16291743858E+03  0.16291743858E+03  0.00000000000E+00 0.  1.
        -13    1    1    2    0    0 -0.41882387607E+03 -0.67670927561E+02  0.99238937861E+03  0.10792726641E+04  0.10566000000E+00 0.  1.
         13    1    1    2    0    0 -0.99331244469E+02 -0.71869639352E+02  0.52617985815E+03  0.54027511092E+03  0.10566000000E+00 0. -1.
          4    1    1    2  501    0  0.51815512054E+03  0.13954056691E+03  0.52788355180E+03  0.75273989067E+03  0.00000000000E+00 0.  1.
</event>
<event>
 5    1  0.2540860E-005  0.4741195E+03  0.7818608E-02  0.9672513E-01
         21   -1    0    0  501  502  0.00000000000E+00  0.00000000000E+00  0.36853225707E+03  0.36853225707E+03  0.00000000000E+00 0. -1.
         -4   -1    0    0    0  501 -0.00000000000E+00 -0.00000000000E+00 -0.15624968106E+04  0.15624968106E+04  0.00000000000E+00 0. -1.
        -13    1    1    2    0    0  0.28404978499E+03 -0.69647185169E+02 -0.74044964240E+03  0.79611600590E+03  0.10566000000E+00 0.  1.
         13    1    1    2    0    0 -0.31315210942E+03 -0.41116081431E+03 -0.39332677971E+03  0.64947934968E+03  0.10566000000E+00 0. -1.
         -4    1    1    2    0  502  0.29102324435E+02  0.48080799948E+03 -0.60188131412E+02  0.48543371207E+03  0.00000000000E+00 0. -1.
</event>
<event>
 5    1  0.2540860E-005  0.4995717E+03  0.7818608E-02  0.9831562E-01
          4   -1    0    0  502    0 -0.00000000000E+00  0.00000000000E+00  0.18682768014E+04  0.18682768014E+04  0.00000000000E+00 0.  1.
         21   -1    0    0  501  502  0.00000000000E+00 -0.00000000000E+00 -0.17884912387E+03  0.17884912387E+03  0.00000000000E+00 0.  1.
        -13    1    1    2    0    0 -0.19677007453E+03  0.41339898096E+03  0.77461542285E+03  0.89980344752E+03  0.10566000000E+00 0.  1.
         13    1    1    2    0    0  0.82375483524E+02  0.11871274044E+03  0.24290442112E+03  0.28263227699E+03  0.10566000000E+00 0. -1.
          4    1    1    2  501    0  0.11439459100E+03 -0.53211172140E+03  0.67190783358E+03  0.86469020078E+03  0.00000000000E+00 0.  1.
</event>
<event>
 5    1  0.2540860E-005  0.4776620E+03  0.7818608E-02  0.9724337E-01
          4   -1    0    0  502    0 -0.00000000000E+00  0.00000000000E+00  0.43600055958E+03  0.43600055958E+03  0.00000000000E+00 0.  1.
         21   -1    0    0  501  502  0.00000000000E+00 -0.00000000000E+00 -0.11332283298E+04  0.11332283298E+04  0.00000000000E+00 0.  1.
        -13    1    1    2    0    0  0.11365802615E+03  0.50599928324E+03 -0.98305824527E+02  0.52784227554E+03  0.10566000000E+00 0.  1.
         13    1    1    2    0    0 -0.23474423718E+03 -0.43606843734E+02  0.41414156768E+02  0.24232531286E+03  0.10566000000E+00 0. -1.
          4    1    1    2  501    0  0.12108621103E+03 -0.46239243951E+03 -0.64033610248E+03  0.79906130100E+03  0.00000000000E+00 0.  1.
</event>
<event>
 5    1  0.2540860E-005  0.4541351E+03  0.7818608E-02  0.9695327E-01
         -4   -1    0    0    0  501 -0.00000000000E+00  0.00000000000E+00  0.14009206794E+04  0.14009206794E+04  0.00000000000E+00 0. -1.
         21   -1    0    0  501  502  0.00000000000E+00 -0.00000000000E+00 -0.48349139208E+03  0.48349139208E+03  0.00000000000E+00 0. -1.
        -13    1    1    2    0    0 -0.41509510027E+02  0.30448246441E+03  0.73265440289E+03  0.79449046300E+03  0.10566000000E+00 0.  1.
         13    1    1    2    0    0 -0.19122300627E+03  0.32600120408E+03 -0.42818104642E+02  0.38036354247E+03  0.10566000000E+00 0. -1.
         -4    1    1    2    0  502  0.23273251630E+03 -0.63048366849E+03  0.22759298909E+03  0.70955806602E+03  0.00000000000E+00 0. -1.
</event>
<event>
 5    1  0.2540860E-005  0.1666245E+03  0.7818608E-02  0.1085781E+00
         21   -1    0    0  501  502  0.00000000000E+00  0.00000000000E+00  0.10186651653E+04  0.10186651653E+04  0.00000000000E+00 0. -1.
          4   -1    0    0  502    0 -0.00000000000E+00 -0.00000000000E+00 -0.78977825128E+02  0.78977825128E+02  0.00000000000E+00 0.  1.
        -13    1    1    2    0    0 -0.15198305171E+03 -0.65394897485E+02  0.29988051162E+02  0.16815063187E+03  0.10566000000E+00 0.  1.
         13    1    1    2    0    0  0.15922506366E+03  0.77139133750E+02  0.85021610190E+03  0.86842990387E+03  0.10566000000E+00 0. -1.
          4    1    1    2  501    0 -0.72420119501E+01 -0.11744236266E+02  0.59483187074E+02  0.61062454643E+02  0.00000000000E+00 0.  1.
</event>
<event>
 5    1  0.2540860E-005  0.3788749E+03  0.7818608E-02  0.9941557E-01
         21   -1    0    0  501  502  0.00000000000E+00  0.00000000000E+00  0.17185939575E+03  0.17185939575E+03  0.00000000000E+00 0. -1.
         -4   -1    0    0    0  501 -0.00000000000E+00 -0.00000000000E+00 -0.22633078645E+04  0.22633078645E+04  0.00000000000E+00 0. -1.
        -13    1    1    2    0    0 -0.22903077804E+03 -0.15181125001E+01 -0.60782109012E+03  0.64954129254E+03  0.10566000000E+00 0.  1.
         13    1    1    2    0    0  0.17121505459E+03  0.37983057125E+03 -0.12922179018E+04  0.13577234530E+04  0.10566000000E+00 0. -1.
         -4    1    1    2    0  502  0.57815723456E+02 -0.37831245875E+03 -0.19140947681E+03  0.42790251476E+03  0.00000000000E+00 0. -1.
</event>
<event>
 5    1  0.2540860E-005  0.4292726E+03  0.7818608E-02  0.9735251E-01
         21   -1    0    0  501  502  0.00000000000E+00  0.00000000000E+00  0.49729189748E+03  0.49729189748E+03  0.00000000000E+00 0.  1.
          4   -1    0    0  502    0 -0.00000000000E+00 -0.00000000000E+00 -0.15536146253E+04  0.15536146253E+04  0.00000000000E+00 0.  1.
        -13    1    1    2    0    0  0.13711757666E+03 -0.31736857621E+03  0.12979489043E+03  0.36928412874E+03  0.10566000000E+00 0.  1.
         13    1    1    2    0    0 -0.41237097442E+03 -0.28229075986E+03 -0.70880672568E+03  0.86726286625E+03  0.10566000000E+00 0. -1.
          4    1    1    2  501    0  0.27525339776E+03  0.59965933607E+03 -0.47731089254E+03  0.81435952776E+03  0.00000000000E+00 0.  1.
</event>
<event>
 5    1  0.2540860E-005  0.4422044E+03  0.7818608E-02  0.9614528E-01
          4   -1    0    0  502    0 -0.00000000000E+00  0.00000000000E+00  0.15915983908E+04  0.15915983908E+04  0.00000000000E+00 0.  1.
         21   -1    0    0  501  502  0.00000000000E+00 -0.00000000000E+00 -0.35214891991E+03  0.35214891991E+03  0.00000000000E+00 0.  1.
        -13    1    1    2    0    0  0.45958448385E+03  0.40064901102E+02  0.10681435806E+04  0.11635092668E+04  0.10566000000E+00 0.  1.
         13    1    1    2    0    0 -0.40858328527E+03  0.25583347028E+02  0.37815347639E+03  0.55731039064E+03  0.10566000000E+00 0. -1.
          4    1    1    2  501    0 -0.51001198576E+02 -0.65648248130E+02 -0.20684758604E+03  0.22292765327E+03  0.00000000000E+00 0.  1.
</event>
<event>
 5    1  0.2540860E-005  0.4272344E+03  0.7818608E-02  0.1028172E+00
          4   -1    0    0  502    0 -0.00000000000E+00  0.00000000000E+00  0.20206044798E+04  0.20206044798E+04  0.00000000000E+00 0.  1.
         21   -1    0    0  501  502  0.00000000000E+00 -0.00000000000E+00 -0.13766461271E+03  0.13766461271E+03  0.00000000000E+00 0.  1.
        -13    1    1    2    0    0  0.28090328583E+03 -0.30639272113E+03  0.36047757705E+03  0.55020655237E+03  0.10566000000E+00 0.  1.
         13    1    1    2    0    0  0.50576643360E+02 -0.17911428766E+02  0.14266761008E+03  0.15242333898E+03  0.10566000000E+00 0. -1.
          4    1    1    2  501    0 -0.33147992919E+03  0.32430414990E+03  0.13797946799E+04  0.14556392011E+04  0.00000000000E+00 0.  1.
</event>
<event>
 5    1  0.2540860E-005  0.4720807E+03  0.7818608E-02  0.9592319E-01
         21   -1    0    0  501  502  0.00000000000E+00  0.00000000000E+00  0.24488517544E+03  0.24488517544E+03  0.00000000000E+00 0. -1.
         -4   -1    0    0    0  501 -0.00000000000E+00 -0.00000000000E+00 -0.33113440805E+04  0.33113440805E+04  0.00000000000E+00 0. -1.
        -13    1    1    2    0    0 -0.37731925232E+03  0.11098956995E+03 -0.19507682538E+04  0.19900214305E+04  0.10566000000E+00 0.  1.
         13    1    1    2    0    0 -0.22386756526E+03 -0.36275877636E+03 -0.29598313727E+03  0.51895726733E+03  0.10566000000E+00 0. -1.
         -4    1    1    2    0  502  0.60118681758E+03  0.25176920641E+03 -0.81970751408E+03  0.10472505582E+04  0.00000000000E+00 0. -1.
</event>
<event>
 5    1  0.2540860E-005  0.4912332E+02  0.7818608E-02  0.1295400E+00
          4   -1    0    0  502    0 -0.00000000000E+00  0.00000000000E+00  0.81471723522E+02  0.81471723522E+02  0.00000000000E+00 0.  1.
         21   -1    0    0  501  502  0.00000000000E+00 -0.00000000000E+00 -0.19336616753E+03  0.19336616753E+03  0.00000000000E+00 0.  1.
        -13    1    1    2    0    0 -0.45284320991E+02  0.31148233630E+02 -0.12991231610E+01  0.54978005337E+02  0.10566000000E+00 0.  1.
         13    1    1    2    0    0  0.44078317600E+02 -0.17296715510E+02  0.44001472751E+02  0.64639115233E+02  0.10566000000E+00 0. -1.
          4    1    1    2  501    0  0.12060033905E+01 -0.13851518120E+02 -0.15459679360E+03  0.15522077048E+03  0.00000000000E+00 0.  1.
</event>
<event>
 5    1  0.2540860E-005  0.2654081E+03  0.7818608E-02  0.1022704E+00
         21   -1    0    0  501  502  0.00000000000E+00  0.00000000000E+00  0.18106178292E+03  0.18106178292E+03  0.00000000000E+00 0. -1.
         -4   -1    0    0    0  501 -0.00000000000E+00 -0.00000000000E+00 -0.15554794943E+04  0.15554794943E+04  0.00000000000E+00 0. -1.
        -13    1    1    2    0    0 -0.46970260463E+02 -0.24938705535E+03 -0.38945429684E+03  0.46483843347E+03  0.10566000000E+00 0.  1.
         13    1    1    2    0    0  0.66593114737E+02  0.26224962775E+03 -0.11110142994E+04  0.11434869019E+04  0.10566000000E+00 0. -1.
         -4    1    1    2    0  502 -0.19622854273E+02 -0.12862572397E+02  0.12605088484E+03  0.12821594186E+03  0.00000000000E+00 0. -1.
</event>
<event>
 5    1  0.2540860E-005  0.5403087E+02  0.7818608E-02  0.1347908E+00
         21   -1    0    0  501  502  0.00000000000E+00  0.00000000000E+00  0.20207130052E+03  0.20207130052E+03  0.00000000000E+00 0. -1.
         -4   -1    0    0    0  501 -0.00000000000E+00 -0.00000000000E+00 -0.35086913206E+02  0.35086913206E+02  0.00000000000E+00 0. -1.
        -13    1    1    2    0    0 -0.12611755314E+02  0.55383087782E+01  0.88462715414E+01  0.16370611487E+02  0.10566000000E+00 0.  1.
         13    1    1    2    0    0  0.62846575851E+02 -0.19182961187E+02  0.13519173201E+02  0.67085447783E+02  0.10566000000E+00 0. -1.
         -4    1    1    2    0  502 -0.50234820537E+02  0.13644652409E+02  0.14461894257E+03  0.15370215446E+03  0.00000000000E+00 0. -1.
</event>
<event>
 5    1  0.2540860E-005  0.2284647E+03  0.7818608E-02  0.1052185E+00
         21   -1    0    0  501  502  0.00000000000E+00  0.00000000000E+00  0.38969771404E+03  0.38969771404E+03  0.00000000000E+00 0. -1.
         -4   -1    0    0    0  501 -0.00000000000E+00 -0.00000000000E+00 -0.20173405153E+04  0.20173405153E+04  0.00000000000E+00 0. -1.
        -13    1    1    2    0    0  0.16446881546E+03 -0.20809629121E+03 -0.12704532128E+04  0.12978464604E+04  0.10566000000E+00 0.  1.
         13    1    1    2    0    0 -0.11552032412E+03 -0.15565045954E+03  0.29958387868E+03  0.35682281649E+03  0.10566000000E+00 0. -1.
         -4    1    1    2    0  502 -0.48948491348E+02  0.36374675075E+03 -0.65677346713E+03  0.75236895245E+03  0.00000000000E+00 0. -1.
</event>
<event>
 5    1  0.2540860E-005  0.4809990E+02  0.7818608E-02  0.1299724E+00
         -4   -1    0    0    0  501 -0.00000000000E+00  0.00000000000E+00  0.35662640681E+03  0.35662640681E+03  0.00000000000E+00 0. -1.
         21   -1    0    0  501  502  0.00000000000E+00 -0.00000000000E+00 -0.13550833598E+03  0.13550833598E+03  0.00000000000E+00 0. -1.
        -13    1    1    2    0    0  0.30381055498E+02 -0.51833222816E+02  0.82043766174E+02  0.10169012859E+03  0.10566000000E+00 0.  1.
         13    1    1    2    0    0 -0.27071907411E+02  0.36864726497E+02  0.26230569130E+03  0.26626337166E+03  0.10566000000E+00 0. -1.
         -4    1    1    2    0  502 -0.33091480869E+01  0.14968496319E+02 -0.12323138665E+03  0.12418124254E+03  0.00000000000E+00 0. -1.
</event>
<event>
 5    1  0.2540860E-005  0.4672996E+03  0.7818608E-02  0.9600902E-01
         -4   -1    0    0    0  501 -0.00000000000E+00  0.00000000000E+00  0.20296843417E+04  0.20296843417E+04  0.00000000000E+00 0. -1.
         21   -1    0    0  501  502  0.00000000000E+00 -0.00000000000E+00 -0.43070073604E+03  0.43070073604E+03  0.00000000000E+00 0. -1.
        -13    1    1    2    0    0  0.32400925807E+03 -0.22293750570E+03  0.12652370577E+04  0.13249558310E+04  0.10566000000E+00 0.  1.
         13    1    1    2    0    0  0.21157854007E+03  0.32342748029E+03  0.43422390806E+03  0.58130992347E+03  0.10566000000E+00 0. -1.
         -4    1    1    2    0  502 -0.53558779814E+03 -0.10048997460E+03 -0.10047736012E+03  0.55411932325E+03  0.00000000000E+00 0. -1.
</event>
<event>
 5    1  0.2540860E-005  0.3216286E+03  0.7818608E-02  0.9987570E-01
          4   -1    0    0  502    0 -0.00000000000E+00  0.00000000000E+00  0.17747040169E+04  0.17747040169E+04  0.00000000000E+00 0.  1.
         21   -1    0    0  501  502  0.00000000000E+00 -0.00000000000E+00 -0.26184551605E+03  0.26184551605E+03  0.00000000000E+00 0. -1.
        -13    1    1    2    0    0  0.37597046941E+03  0.15873279572E+03  0.70181550576E+02  0.41409582890E+03  0.10566000000E+00 0.  1.
         13    1    1    2    0    0 -0.17264935479E+03 -0.24430848567E+03  0.19884759034E+03  0.35921415789E+03  0.10566000000E+00 0. -1.
          4    1    1    2  501    0 -0.20332111463E+03  0.85575689956E+02  0.12438293600E+04  0.12632395462E+04  0.00000000000E+00 0.  1.
</event>
<event>
 5    1  0.2540860E-005  0.1992820E+02  0.7818608E-02  0.1535381E+00
         -4   -1    0    0    0  501 -0.00000000000E+00  0.00000000000E+00  0.53213932817E+01  0.53213932817E+01  0.00000000000E+00 0. -1.
         21   -1    0    0  501  502  0.00000000000E+00 -0.00000000000E+00 -0.29924897248E+03  0.29924897248E+03  0.00000000000E+00 0.  1.
        -13    1    1    2    0    0 -0.91579949916E+01 -0.10708227078E+02 -0.56659245892E+02  0.58385069225E+02  0.10566000000E+00 0.  1.
         13    1    1    2    0    0  0.26574913481E+02  0.19169106686E+01 -0.40665582354E+02  0.48616883129E+02  0.10566000000E+00 0. -1.
         -4    1    1    2    0  502 -0.17416918489E+02  0.87913164093E+01 -0.19660275095E+03  0.19756841340E+03  0.00000000000E+00 0. -1.
</event>
<event>
 5    1  0.2540860E-005  0.2132871E+03  0.7818608E-02  0.1051390E+00
         21   -1    0    0  501  502  0.00000000000E+00  0.00000000000E+00  0.37618228693E+02  0.37618228693E+02  0.00000000000E+00 0.  1.
         -4   -1    0    0    0  501 -0.00000000000E+00 -0.00000000000E+00 -0.15742145932E+04  0.15742145932E+04  0.00000000000E+00 0. -1.
        -13    1    1    2    0    0  0.20694137447E+03  0.42890916507E+02 -0.10466775158E+04  0.10678006352E+04  0.10566000000E+00 0.  1.
         13    1    1    2    0    0 -0.21051015892E+03 -0.58208431823E+02 -0.43279447780E+03  0.48478223949E+03  0.10566000000E+00 0. -1.
         -4    1    1    2    0  502  0.35687844462E+01  0.15317515316E+02 -0.57124370879E+02  0.59249947225E+02  0.00000000000E+00 0. -1.
</event>
<event>
 5    1  0.2540860E-005  0.5406598E+03  0.7818608E-02  0.9492712E-01
          4   -1    0    0  502    0 -0.00000000000E+00  0.00000000000E+00  0.34311767416E+04  0.34311767416E+04  0.00000000000E+00 0.  1.
         21   -1    0    0  501  502  0.00000000000E+00 -0.00000000000E+00 -0.17452343914E+03  0.17452343914E+03  0.00000000000E+00 0. -1.
        -13    1    1    2    0    0 -0.11099832498E+03  0.36028423536E+03  0.15147979045E+04  0.15610054648E+04  0.10566000000E+00 0.  1.
         13    1    1    2    0    0 -0.35771928127E+03  0.11179598783E+03  0.87586075412E+03  0.95267701707E+03  0.10566000000E+00 0. -1.
          4    1    1    2  501    0  0.46871760625E+03 -0.47208022320E+03  0.86599464383E+03  0.10920176989E+04  0.00000000000E+00 0.  1.
</event>
<event>
 5    1  0.2540860E-005  0.4898433E+03  0.7818608E-02  0.9657788E-01
         21   -1    0    0  501  502  0.00000000000E+00  0.00000000000E+00  0.53361268811E+03  0.53361268811E+03  0.00000000000E+00 0.  1.
         -4   -1    0    0    0  501 -0.00000000000E+00 -0.00000000000E+00 -0.83146504155E+03  0.83146504155E+03  0.00000000000E+00 0. -1.
        -13    1    1    2    0    0 -0.12364815507E+02 -0.27897990261E+03  0.23254518103E+02  0.28022037488E+03  0.10566000000E+00 0.  1.
         13    1    1    2    0    0  0.18281521533E+03 -0.34347799402E+03 -0.15164433104E+03  0.41760573468E+03  0.10566000000E+00 0. -1.
         -4    1    1    2    0  502 -0.17045039983E+03  0.62245789664E+03 -0.16946254050E+03  0.66725162009E+03  0.00000000000E+00 0. -1.
</event>
<event>
 5    1  0.2540860E-005  0.4751536E+03  0.7818608E-02  0.9731051E-01
         -4   -1    0    0    0  501 -0.00000000000E+00  0.00000000000E+00  0.99033422085E+03  0.99033422085E+03  0.00000000000E+00 0. -1.
         21   -1    0    0  501  502  0.00000000000E+00 -0.00000000000E+00 -0.59570407760E+03  0.59570407760E+03  0.00000000000E+00 0. -1.
        -13    1    1    2    0    0  0.23416049399E+03  0.36485044314E+02  0.50900721875E+03  0.56147186510E+03  0.10566000000E+00 0.  1.
         13    1    1    2    0    0  0.30633149143E+03 -0.28379931525E+03 -0.10284477463E+03  0.43006754448E+03  0.10566000000E+00 0. -1.
         -4    1    1    2    0  502 -0.54049198542E+03  0.24731427093E+03 -0.11532300863E+02  0.59449888888E+03  0.00000000000E+00 0. -1.
</event>
<event>
 5    1  0.2540860E-005  0.2883591E+03  0.7818608E-02  0.1012230E+00
         -4   -1    0    0    0  501 -0.00000000000E+00  0.00000000000E+00  0.12069410461E+04  0.12069410461E+04  0.00000000000E+00 0. -1.
         21   -1    0    0  501  502  0.00000000000E+00 -0.00000000000E+00 -0.40810088237E+03  0.40810088237E+03  0.00000000000E+00 0. -1.
        -13    1    1    2    0    0 -0.27903500809E+03 -0.10421355245E+02  0.16240816692E+03  0.32302564021E+03  0.10566000000E+00 0.  1.
         13    1    1    2    0    0  0.29088620778E+03  0.10268826501E+01  0.94209409996E+03  0.98598029631E+03  0.10566000000E+00 0. -1.
         -4    1    1    2    0  502 -0.11851199687E+02  0.93944725950E+01 -0.30566210317E+03  0.30603599194E+03  0.00000000000E+00 0. -1.
</event>
<event>
 5    1  0.2540860E-005  0.4266723E+03  0.7818608E-02  0.9858972E-01
         21   -1    0    0  501  502  0.00000000000E+00  0.00000000000E+00  0.22821812372E+03  0.22821812372E+03  0.00000000000E+00 0. -1.
         -4   -1    0    0    0  501 -0.00000000000E+00 -0.00000000000E+00 -0.20112689648E+04  0.20112689648E+04  0.00000000000E+00 0. -1.
        -13    1    1    2    0    0  0.20365412922E+03 -0.56671650278E+02 -0.10737083124E+04  0.10943199859E+04  0.10566000000E+00 0.  1.
         13    1    1    2    0    0 -0.47627793689E+03  0.27477810492E+03 -0.42923286610E+03  0.69755612292E+03  0.10566000000E+00 0. -1.
         -4    1    1    2    0  502  0.27262380767E+03 -0.21810645464E+03 -0.28010966258E+03  0.44761097968E+03  0.00000000000E+00 0. -1.
</event>
<event>
 5    1  0.2540860E-005  0.3338013E+03  0.7818608E-02  0.9942556E-01
         -4   -1    0    0    0  501 -0.00000000000E+00  0.00000000000E+00  0.30015561089E+03  0.30015561089E+03  0.00000000000E+00 0. -1.
         21   -1    0    0  501  502  0.00000000000E+00 -0.00000000000E+00 -0.13962509387E+04  0.13962509387E+04  0.00000000000E+00 0. -1.
        -13    1    1    2    0    0  0.13238702052E+03 -0.24201107217E+03 -0.29117749667E+03  0.40109852653E+03  0.10566000000E+00 0.  1.
         13    1    1    2    0    0 -0.26498979068E+03  0.24488500316E+03  0.10499274567E+03  0.37578150798E+03  0.10566000000E+00 0. -1.
         -4    1    1    2    0  502  0.13260277016E+03 -0.28739309863E+01 -0.90991057676E+03  0.91952651503E+03  0.00000000000E+00 0. -1.
</event>
<event>
 5    1  0.3092109E-005  0.4589848E+03  0.7818608E-02  0.1015685E+00
         -4   -1    0    0    0  501 -0.00000000000E+00  0.00000000000E+00  0.19960618444E+04  0.19960618444E+04  0.00000000000E+00 0. -1.
         21   -1    0    0  501  502  0.00000000000E+00 -0.00000000000E+00 -0.14849214996E+03  0.14849214996E+03  0.00000000000E+00 0. -1.
        -13    1    1    2    0    0 -0.18944840565E+02  0.61179041462E+02  0.24171099849E+03  0.25005199470E+03  0.10566000000E+00 0.  1.
         13    1    1    2    0    0 -0.43398052565E+03 -0.14595026923E+03  0.11852434599E+04  0.12706071967E+04  0.10566000000E+00 0. -1.
         -4    1    1    2    0  502  0.45292536622E+03  0.84771227764E+02  0.42061523596E+03  0.62389480295E+03  0.00000000000E+00 0. -1.
</event>
<event>
 5    1  0.2540860E-005  0.4507463E+03  0.7818608E-02  0.9773171E-01
         21   -1    0    0  501  502  0.00000000000E+00  0.00000000000E+00  0.51429123087E+03  0.51429123087E+03  0.00000000000E+00 0.  1.
          4   -1    0    0  502    0 -0.00000000000E+00 -0.00000000000E+00 -0.10946539922E+04  0.10946539922E+04  0.00000000000E+00 0.  1.
        -13    1    1    2    0    0 -0.40268704801E+03  0.26063556993E+03  0.21939043125E+03  0.52746557370E+03  0.10566000000E+00 0.  1.
         13    1    1    2    0    0 -0.17549862887E+02 -0.23945029177E+03 -0.52951262023E+03  0.58140181120E+03  0.10566000000E+00 0. -1.
          4    1    1    2  501    0  0.42023691089E+03 -0.21185278161E+02 -0.27024057235E+03  0.50007783817E+03  0.00000000000E+00 0.  1.
</event>
<event>
 5    1  0.2540860E-005  0.2955909E+03  0.7818608E-02  0.1009142E+00
         -4   -1    0    0    0  501 -0.00000000000E+00  0.00000000000E+00  0.27335221428E+03  0.27335221428E+03  0.00000000000E+00 0. -1.
         21   -1    0    0  501  502  0.00000000000E+00 -0.00000000000E+00 -0.50022163707E+03  0.50022163707E+03  0.00000000000E+00 0. -1.
        -13    1    1    2    0    0 -0.24435278980E+03 -0.33893912372E+02 -0.82548253595E+02  0.26013709562E+03  0.10566000000E+00 0.  1.
         13    1    1    2    0    0  0.33972108941E+03  0.10942850502E+03 -0.51919839053E+02  0.36066701701E+03  0.10566000000E+00 0. -1.
         -4    1    1    2    0  502 -0.95368299612E+02 -0.75534592653E+02 -0.92401330149E+02  0.15276973873E+03  0.00000000000E+00 0. -1.
</event>
<event>
 5    1  0.2540860E-005  0.4689518E+03  0.7818608E-02  0.9851835E-01
         -4   -1    0    0    0  501 -0.00000000000E+00  0.00000000000E+00  0.40784316270E+03  0.40784316270E+03  0.00000000000E+00 0. -1.
         21   -1    0    0  501  502  0.00000000000E+00 -0.00000000000E+00 -0.10583170101E+04  0.10583170101E+04  0.00000000000E+00 0. -1.
        -13    1    1    2    0    0 -0.13738135304E+03 -0.87907359437E+02  0.11215684299E+03  0.19794066939E+03  0.10566000000E+00 0.  1.
         13    1    1    2    0    0 -0.41461459965E+03 -0.65168578933E+02 -0.45112631748E+03  0.61617138477E+03  0.10566000000E+00 0. -1.
         -4    1    1    2    0  502  0.55199595269E+03  0.15307593837E+03 -0.31150437294E+03  0.65204811866E+03  0.00000000000E+00 0. -1.
</event>
<event>
 5    1  0.2540860E-005  0.4811287E+03  0.7818608E-02  0.9521119E-01
         21   -1    0    0  501  502  0.00000000000E+00  0.00000000000E+00  0.11195758582E+04  0.11195758582E+04  0.00000000000E+00 0.  1.
          4   -1    0    0  502    0 -0.00000000000E+00 -0.00000000000E+00 -0.66312451554E+03  0.66312451554E+03  0.00000000000E+00 0.  1.
        -13    1    1    2    0    0  0.55760583584E+02 -0.50892976102E+03 -0.15811745350E+03  0.53583568806E+03  0.10566000000E+00 0.  1.
         13    1    1    2    0    0  0.41891707181E+03  0.23379667579E+03  0.48693780545E+03  0.68356480030E+03  0.10566000000E+00 0. -1.
          4    1    1    2  501    0 -0.47467765539E+03  0.27513308523E+03  0.12763099076E+03  0.56329988542E+03  0.00000000000E+00 0.  1.
</event>
<event>
 5    1  0.2540860E-005  0.6088988E+03  0.7818608E-02  0.9266775E-01
         -4   -1    0    0    0  501 -0.00000000000E+00  0.00000000000E+00  0.42259457430E+03  0.42259457430E+03  0.00000000000E+00 0. -1.
         21   -1    0    0  501  502  0.00000000000E+00 -0.00000000000E+00 -0.16142053424E+04  0.16142053424E+04  0.00000000000E+00 0. -1.
        -13    1    1    2    0    0 -0.20670794364E+03  0.46157854793E+03 -0.42014103155E+03  0.65749633264E+03  0.10566000000E+00 0.  1.
         13    1    1    2    0    0  0.30247204479E+03 -0.72680180148E+03 -0.76431957802E+03  0.10972304339E+04  0.10566000000E+00 0. -1.
         -4    1    1    2    0  502 -0.95764101149E+02  0.26522325354E+03 -0.71501585204E+01  0.28207315018E+03  0.00000000000E+00 0. -1.
</event>
<event>
 5    1  0.2540860E-005  0.1758584E+02  0.7818608E-02  0.1546505E+00
          4   -1    0    0  502    0 -0.00000000000E+00  0.00000000000E+00  0.16788319639E+02  0.16788319639E+02  0.00000000000E+00 0.  1.
         21   -1    0    0  501  502  0.00000000000E+00 -0.00000000000E+00 -0.90730316723E+02  0.90730316723E+02  0.00000000000E+00 0. -1.
        -13    1    1    2    0    0  0.15371225549E+02  0.86202348013E+01  0.75893670304E+01  0.19188347477E+02  0.10566000000E+00 0.  1.
         13    1    1    2    0    0 -0.20854873252E+02  0.28881511306E+01 -0.46259432741E+02  0.50825322792E+02  0.10566000000E+00 0. -1.
          4    1    1    2  501    0  0.54836477029E+01 -0.11508385932E+02 -0.35271931374E+02  0.37504966094E+02  0.00000000000E+00 0.  1.
</event>
<event>
 5    1  0.2540860E-005  0.3792014E+03  0.7818608E-02  0.1003722E+00
         21   -1    0    0  501  502  0.00000000000E+00  0.00000000000E+00  0.26683686852E+03  0.26683686852E+03  0.00000000000E+00 0.  1.
          4   -1    0    0  502    0 -0.00000000000E+00 -0.00000000000E+00 -0.13620443023E+04  0.13620443023E+04  0.00000000000E+00 0.  1.
        -13    1    1    2    0    0 -0.40693577906E+03 -0.31136250046E+03 -0.96110711670E+03  0.10891603353E+04  0.10566000000E+00 0.  1.
         13    1    1    2    0    0  0.10483567006E+03  0.12980132580E+03 -0.72483690163E+02  0.18191426112E+03  0.10566000000E+00 0. -1.
          4    1    1    2  501    0  0.30210010901E+03  0.18156117466E+03 -0.61616626922E+02  0.35780657445E+03  0.00000000000E+00 0.  1.
</event>
<event>
 5    1  0.2540860E-005  0.5118737E+03  0.7818608E-02  0.9933073E-01
          4   -1    0    0  502    0 -0.00000000000E+00  0.00000000000E+00  0.38882084165E+03  0.38882084165E+03  0.00000000000E+00 0.  1.
         21   -1    0    0  501  502  0.00000000000E+00 -0.00000000000E+00 -0.86349881628E+03  0.86349881628E+03  0.00000000000E+00 0.  1.
        -13    1    1    2    0    0  0.52036572018E+03  0.10362472331E+03 -0.30538421801E+03  0.61219122649E+03  0.10566000000E+00 0.  1.
         13    1    1    2    0    0 -0.24752407620E+02 -0.92266315374E+02  0.37974751845E+02  0.10280003686E+03  0.10566000000E+00 0. -1.
          4    1    1    2  501    0 -0.49561331256E+03 -0.11358407939E+02 -0.20726850847E+03  0.53732839458E+03  0.00000000000E+00 0.  1.
</event>
<event>
 5    1  0.2540860E-005  0.4850408E+03  0.7818608E-02  0.9684886E-01
          4   -1    0    0  502    0 -0.00000000000E+00  0.00000000000E+00  0.20045361303E+04  0.20045361303E+04  0.00000000000E+00 0.  1.
         21   -1    0    0  501  502  0.00000000000E+00 -0.00000000000E+00 -0.24079490100E+03  0.24079490100E+03  0.00000000000E+00 0. -1.
        -13    1    1    2    0    0 -0.31578033034E+03  0.57048943176E+03  0.10683806222E+04  0.12516439485E+04  0.10566000000E+00 0.  1.
         13    1    1    2    0    0  0.12676022302E+03 -0.22881322823E+03  0.96582978017E+02  0.27884033130E+03  0.10566000000E+00 0. -1.
          4    1    1    2  501    0  0.18902010731E+03 -0.34167620354E+03  0.59877762908E+03  0.71484675149E+03  0.00000000000E+00 0.  1.
</event>
<event>
 5    1  0.2540860E-005  0.2708381E+03  0.7818608E-02  0.1047322E+00
         21   -1    0    0  501  502  0.00000000000E+00  0.00000000000E+00  0.57941885801E+03  0.57941885801E+03  0.00000000000E+00 0. -1.
         -4   -1    0    0    0  501 -0.00000000000E+00 -0.00000000000E+00 -0.11319331187E+04  0.11319331187E+04  0.00000000000E+00 0. -1.
        -13    1    1    2    0    0 -0.70838619186E+02  0.93842806711E+02 -0.65785162513E+03  0.66827640553E+03  0.10566000000E+00 0.  1.
         13    1    1    2    0    0  0.32923386654E+03 -0.14871456906E+03 -0.35871586861E+03  0.50910514384E+03  0.10566000000E+00 0. -1.
         -4    1    1    2    0  502 -0.25839524735E+03  0.54871762354E+02  0.46405323305E+03  0.53397042733E+03  0.00000000000E+00 0. -1.
</event>
<event>
 5    1  0.2540860E-005  0.1708920E+02  0.7818608E-02  0.1554912E+00
         21   -1    0    0  501  502  0.00000000000E+00  0.00000000000E+00  0.95353427447E+02  0.95353427447E+02  0.00000000000E+00 0. -1.
         -4   -1    0    0    0  501 -0.00000000000E+00 -0.00000000000E+00 -0.33937257839E+02  0.33937257839E+02  0.00000000000E+00 0. -1.
        -13    1    1    2    0    0 -0.12275546259E+02  0.11293816911E+02 -0.26136285599E+02  0.31005740199E+02  0.10566000000E+00 0.  1.
         13    1    1    2    0    0  0.89082873307E+01 -0.24838364839E+02  0.34541940571E+02  0.43467905097E+02  0.10566000000E+00 0. -1.
         -4    1    1    2    0  502  0.33672589281E+01  0.13544547928E+02  0.53010514635E+02  0.54817039989E+02  0.00000000000E+00 0. -1.
</event>
<event>
 5    1  0.2540860E-005  0.4929887E+03  0.7818608E-02  0.9611504E-01
         21   -1    0    0  501  502  0.00000000000E+00  0.00000000000E+00  0.23293378608E+03  0.23293378608E+03  0.00000000000E+00 0.  1.
          4   -1    0    0  502    0 -0.00000000000E+00 -0.00000000000E+00 -0.19865934551E+04  0.19865934551E+04  0.00000000000E+00 0.  1.
        -13    1    1    2    0    0 -0.53994312700E+03 -0.30817865625E+03 -0.59815682430E+03  0.86273070084E+03  0.10566000000E+00 0.  1.
         13    1    1    2    0    0  0.16031639865E+03  0.27992398866E+03 -0.43073339296E+03  0.53813572087E+03  0.10566000000E+00 0. -1.
          4    1    1    2  501    0  0.37962672835E+03  0.28254667592E+02 -0.72476945174E+03  0.81866081945E+03  0.00000000000E+00 0.  1.
</event>
<event>
 5    1  0.2540860E-005  0.4253021E+02  0.7818608E-02  0.1366412E+00
         21   -1    0    0  501  502  0.00000000000E+00  0.00000000000E+00  0.12667820708E+03  0.12667820708E+03  0.00000000000E+00 0.  1.
          4   -1    0    0  502    0 -0.00000000000E+00 -0.00000000000E+00 -0.34775181577E+02  0.34775181577E+02  0.00000000000E+00 0.  1.
        -13    1    1    2    0    0  0.97418218966E+01  0.50892368125E+02  0.17902836409E+02  0.54822066203E+02  0.10566000000E+00 0.  1.
         13    1    1    2    0    0  0.11928970192E+02 -0.16448780902E+02 -0.20048087927E+01  0.20417961341E+02  0.10566000000E+00 0. -1.
          4    1    1    2  501    0 -0.21670792089E+02 -0.34443587224E+02  0.76004997886E+02  0.86213361112E+02  0.00000000000E+00 0.  1.
</event>
<event>
 5    1  0.2540860E-005  0.1590232E+03  0.7818608E-02  0.1092539E+00
         21   -1    0    0  501  502  0.00000000000E+00  0.00000000000E+00  0.11958853383E+03  0.11958853383E+03  0.00000000000E+00 0.  1.
          4   -1    0    0  502    0 -0.00000000000E+00 -0.00000000000E+00 -0.60861479329E+03  0.60861479329E+03  0.00000000000E+00 0.  1.
        -13    1    1    2    0    0  0.13901495076E+03  0.12975465570E+03 -0.34927823134E+03  0.39768922699E+03  0.10566000000E+00 0.  1.
         13    1    1    2    0    0 -0.26573632046E+01 -0.14568298546E+03 -0.12584093976E+03  0.19252674390E+03  0.10566000000E+00 0. -1.
          4    1    1    2  501    0 -0.13635758756E+03  0.15928329760E+02 -0.13907088361E+02  0.13798735623E+03  0.00000000000E+00 0.  1.
</event>
<event>
 5    1  0.2540860E-005  0.4974028E+03  0.7818608E-02  0.9677350E-01
         21   -1    0    0  501  502  0.00000000000E+00  0.00000000000E+00  0.18955044703E+03  0.18955044703E+03  0.00000000000E+00 0.  1.
          4   -1    0    0  502    0 -0.00000000000E+00 -0.00000000000E+00 -0.23393347275E+04  0.23393347275E+04  0.00000000000E+00 0.  1.
        -13    1    1    2    0    0 -0.43346699550E+03 -0.15386809770E+02 -0.91875690228E+03  0.10159944128E+04  0.10566000000E+00 0.  1.
         13    1    1    2    0    0 -0.63473543845E+02 -0.24080759875E+03 -0.69532838926E+03  0.73857888574E+03  0.10566000000E+00 0. -1.
          4    1    1    2  501    0  0.49694053935E+03  0.25619440852E+03 -0.53569898892E+03  0.77431187601E+03  0.00000000000E+00 0.  1.
</event>
<event>
 5    1  0.2540860E-005  0.3967332E+03  0.7818608E-02  0.9937848E-01
         21   -1    0    0  501  502  0.00000000000E+00  0.00000000000E+00  0.41995204057E+03  0.41995204057E+03  0.00000000000E+00 0. -1.
         -4   -1    0    0    0  501 -0.00000000000E+00 -0.00000000000E+00 -0.89499387415E+03  0.89499387415E+03  0.00000000000E+00 0. -1.
        -13    1    1    2    0    0 -0.17975249496E+03  0.92044222453E+02 -0.26166957699E+02  0.20363648782E+03  0.10566000000E+00 0.  1.
         13    1    1    2    0    0 -0.84827442215E+01 -0.44001900329E+03 -0.54859542397E+03  0.70331047949E+03  0.10566000000E+00 0. -1.
         -4    1    1    2    0  502  0.18823523918E+03  0.34797478084E+03  0.99720548083E+02  0.40799894740E+03  0.00000000000E+00 0. -1.
</event>
<event>
 5    1  0.2540860E-005  0.9080297E+03  0.7818608E-02  0.8866163E-01
         -4   -1    0    0    0  501 -0.00000000000E+00  0.00000000000E+00  0.27769530396E+04  0.27769530396E+04  0.00000000000E+00 0. -1.
         21   -1    0    0  501  502  0.00000000000E+00 -0.00000000000E+00 -0.74714195267E+03  0.74714195267E+03  0.00000000000E+00 0.  1.
        -13    1    1    2    0    0 -0.65806123328E+03  0.84967283325E+03  0.17719312380E+04  0.20723727545E+04  0.10566000000E+00 0.  1.
         13    1    1    2    0    0  0.34390056760E+03 -0.63826853811E+03  0.60023079499E+03  0.94123926052E+03  0.10566000000E+00 0. -1.
         -4    1    1    2    0  502  0.31416066568E+03 -0.21140429514E+03 -0.34235094601E+03  0.51048297728E+03  0.00000000000E+00 0. -1.
</event>
<event>
 5    1  0.2540860E-005  0.2905164E+03  0.7818608E-02  0.1013343E+00
         21   -1    0    0  501  502  0.00000000000E+00  0.00000000000E+00  0.95009658708E+03  0.95009658708E+03  0.00000000000E+00 0.  1.
          4   -1    0    0  502    0 -0.00000000000E+00 -0.00000000000E+00 -0.56540219267E+03  0.56540219267E+03  0.00000000000E+00 0.  1.
        -13    1    1    2    0    0 -0.79755660470E+02  0.27097637190E+03 -0.27480953770E+03  0.39409320303E+03  0.10566000000E+00 0.  1.
         13    1    1    2    0    0 -0.21761039651E+03 -0.31192658924E+03 -0.17609573905E+02  0.38073953039E+03  0.10566000000E+00 0. -1.
          4    1    1    2  501    0  0.29736605699E+03  0.40950217346E+02  0.67711350601E+03  0.74066604632E+03  0.00000000000E+00 0.  1.
</event>
<event>
 5    1  0.2540860E-005  0.2107149E+03  0.7818608E-02  0.1053029E+00
         21   -1    0    0  501  502  0.00000000000E+00  0.00000000000E+00  0.45644446205E+03  0.45644446205E+03  0.00000000000E+00 0.  1.
          4   -1    0    0  502    0 -0.00000000000E+00 -0.00000000000E+00 -0.13157145167E+04  0.13157145167E+04  0.00000000000E+00 0.  1.
        -13    1    1    2    0    0 -0.35435939868E+01 -0.19395214026E+03 -0.60517087084E+03  0.63550120680E+03  0.10566000000E+00 0.  1.
         13    1    1    2    0    0 -0.92028314786E+02  0.22744843104E+03 -0.66743006253E+03  0.71110118762E+03  0.10566000000E+00 0. -1.
          4    1    1    2  501    0  0.95571908773E+02 -0.33496290786E+02  0.41333087866E+03  0.42555658437E+03  0.00000000000E+00 0.  1.
</event>
<event>
 5    1  0.2540860E-005  0.4854029E+03  0.7818608E-02  0.9964599E-01
          4   -1    0    0  502    0 -0.00000000000E+00  0.00000000000E+00  0.47321649755E+03  0.47321649755E+03  0.00000000000E+00 0.  1.
         21   -1    0    0  501  502  0.00000000000E+00 -0.00000000000E+00 -0.64238558173E+03  0.64238558173E+03  0.00000000000E+00 0.  1.
        -13    1    1    2    0    0  0.28214564222E+03 -0.43855345952E+03 -0.24832551875E+03  0.57758192034E+03  0.10566000000E+00 0.  1.
         13    1    1    2    0    0 -0.17307024227E+02  0.99422590119E+02  0.24546144107E+01  0.10094761418E+03  0.10566000000E+00 0. -1.
          4    1    1    2  501    0 -0.26483861799E+03  0.33913086940E+03  0.76701820160E+02  0.43707254475E+03  0.00000000000E+00 0.  1.
</event>
<event>
 5    1  0.2540860E-005  0.3287547E+03  0.7818608E-02  0.9960965E-01
         -4   -1    0    0    0  501 -0.00000000000E+00  0.00000000000E+00  0.19750219444E+04  0.19750219444E+04  0.00000000000E+00 0. -1.
         21   -1    0    0  501  502  0.00000000000E+00 -0.00000000000E+00 -0.84027916146E+03  0.84027916146E+03  0.00000000000E+00 0. -1.
        -13    1    1    2    0    0 -0.19135592185E+03 -0.76930959170E+02 -0.59153134967E+02  0.21455667280E+03  0.10566000000E+00 0.  1.
         13    1    1    2    0    0  0.30458777403E+03  0.15719911288E+03  0.18747811045E+04  0.19058566248E+04  0.10566000000E+00 0. -1.
         -4    1    1    2    0  502 -0.11323185218E+03 -0.80268153707E+02 -0.68088518658E+03  0.69488780832E+03  0.00000000000E+00 0. -1.
</event>
<event>
 5    1  0.2540860E-005  0.4892967E+03  0.7818608E-02  0.9891952E-01
         -4   -1    0    0    0  501 -0.00000000000E+00  0.00000000000E+00  0.10222729164E+04  0.10222729164E+04  0.00000000000E+00 0. -1.
         21   -1    0    0  501  502  0.00000000000E+00 -0.00000000000E+00 -0.31215454320E+03  0.31215454320E+03  0.00000000000E+00 0. -1.
        -13    1    1    2    0    0  0.12488336323E+03 -0.11993823893E+02  0.13967293808E+03  0.18774516510E+03  0.10566000000E+00 0.  1.
         13    1    1    2    0    0 -0.54484425215E+03  0.12667657529E+03  0.32299109584E+03  0.64592992885E+03  0.10566000000E+00 0. -1.
         -4    1    1    2    0  502  0.41996088891E+03 -0.11468275140E+03  0.24745433931E+03  0.50075236568E+03  0.00000000000E+00 0. -1.
</event>
<event>
 5    1  0.2540860E-005  0.4925684E+03  0.7818608E-02  0.9887290E-01
          4   -1    0    0  502    0 -0.00000000000E+00  0.00000000000E+00  0.99548067183E+03  0.99548067183E+03  0.00000000000E+00 0.  1.
         21   -1    0    0  501  502  0.00000000000E+00 -0.00000000000E+00 -0.70286578577E+03  0.70286578577E+03  0.00000000000E+00 0.  1.
        -13    1    1    2    0    0  0.17190727349E+03  0.50056980088E+03 -0.34591227630E+03  0.63227964564E+03  0.10566000000E+00 0.  1.
         13    1    1    2    0    0 -0.10488631012E+03 -0.67836409584E+02  0.61498428504E+03  0.62754171058E+03  0.10566000000E+00 0. -1.
          4    1    1    2  501    0 -0.67020963368E+02 -0.43273339129E+03  0.23542877321E+02  0.43852510138E+03  0.00000000000E+00 0.  1.
</event>
<event>
 5    1  0.2540860E-005  0.2501373E+03  0.7818608E-02  0.1030322E+00
          4   -1    0    0  502    0 -0.00000000000E+00  0.00000000000E+00  0.64474047260E+03  0.64474047260E+03  0.00000000000E+00 0.  1.
         21   -1    0    0  501  502  0.00000000000E+00 -0.00000000000E+00 -0.18202917834E+03  0.18202917834E+03  0.00000000000E+00 0. -1.
        -13    1    1    2    0    0 -0.21211773945E+03 -0.11578087131E+03  0.41514219545E+03  0.48035632519E+03  0.10566000000E+00 0.  1.
         13    1    1    2    0    0  0.23414821342E+03  0.14779967419E+03  0.87794736478E+02  0.29047901208E+03  0.10566000000E+00 0. -1.
          4    1    1    2  501    0 -0.22030473972E+02 -0.32018802875E+02 -0.40225637662E+02  0.55934313675E+02  0.00000000000E+00 0.  1.
</event>
<event>
 5    1  0.2540860E-005  0.4665532E+03  0.7818608E-02  0.9604044E-01
         21   -1    0    0  501  502  0.00000000000E+00  0.00000000000E+00  0.33225904489E+03  0.33225904489E+03  0.00000000000E+00 0. -1.
          4   -1    0    0  502    0 -0.00000000000E+00 -0.00000000000E+00 -0.18388842184E+04  0.18388842184E+04  0.00000000000E+00 0.  1.
        -13    1    1    2    0    0 -0.18753462004E+03 -0.61743970848E+03 -0.97385822298E+03  0.11682469246E+04  0.10566000000E+00 0.  1.
         13    1    1    2    0    0 -0.14048305545E+03  0.36467534075E+03 -0.98887664961E+02  0.40311583256E+03  0.10566000000E+00 0. -1.
          4    1    1    2  501    0  0.32801767549E+03  0.25276436773E+03 -0.43387928557E+03  0.59978050608E+03  0.00000000000E+00 0.  1.
</event>
<event>
 5    1  0.2540860E-005  0.2245314E+03  0.7818608E-02  0.1044506E+00
         21   -1    0    0  501  502  0.00000000000E+00  0.00000000000E+00  0.59313046056E+03  0.59313046056E+03  0.00000000000E+00 0. -1.
          4   -1    0    0  502    0 -0.00000000000E+00 -0.00000000000E+00 -0.19766841666E+03  0.19766841666E+03  0.00000000000E+00 0.  1.
        -13    1    1    2    0    0  0.18369792276E+03  0.13875582590E+03  0.26362360293E+02  0.23171769732E+03  0.10566000000E+00 0.  1.
         13    1    1    2    0    0 -0.25195283046E+03  0.12365480095E+02  0.24801075178E+03  0.35375482758E+03  0.10566000000E+00 0. -1.
          4    1    1    2  501    0  0.68254907702E+02 -0.15112130599E+03  0.12108893183E+03  0.20532635233E+03  0.00000000000E+00 0.  1.
</event>
<event>
 5    1  0.2540860E-005  0.2717815E+03  0.7818608E-02  0.1047600E+00
         21   -1    0    0  501  502  0.00000000000E+00  0.00000000000E+00  0.42256590479E+03  0.42256590479E+03  0.00000000000E+00 0.  1.
          4   -1    0    0  502    0 -0.00000000000E+00 -0.00000000000E+00 -0.10431749593E+04  0.10431749593E+04  0.00000000000E+00 0.  1.
        -13    1    1    2    0    0 -0.19479134641E+03 -0.17618578569E+03  0.30241224329E+03  0.40054747006E+03  0.10566000000E+00 0.  1.
         13    1    1    2    0    0 -0.99878881737E+02 -0.57795554288E+02 -0.42870237667E+03  0.44396154793E+03  0.10566000000E+00 0. -1.
          4    1    1    2  501    0  0.29467022814E+03  0.23398133998E+03 -0.49431892115E+03  0.62123184611E+03  0.00000000000E+00 0.  1.
</event>
<event>
 5    1  0.2540860E-005  0.3745792E+03  0.7818608E-02  0.9986958E-01
         21   -1    0    0  501  502  0.00000000000E+00  0.00000000000E+00  0.50147346863E+03  0.50147346863E+03  0.00000000000E+00 0.  1.
          4   -1    0    0  502    0 -0.00000000000E+00 -0.00000000000E+00 -0.56398700222E+03  0.56398700222E+03  0.00000000000E+00 0.  1.
        -13    1    1    2    0    0 -0.90941384012E+02 -0.26167072394E+03 -0.28627105175E+03  0.39836293669E+03  0.10566000000E+00 0.  1.
         13    1    1    2    0    0  0.12648561245E+03 -0.16007218284E+03  0.53620263490E+02  0.21094278299E+03  0.10566000000E+00 0. -1.
          4    1    1    2  501    0 -0.35544228442E+02  0.42174290677E+03  0.17013725467E+03  0.45615475117E+03  0.00000000000E+00 0.  1.
</event>
<event>
 5    1  0.2540860E-005  0.4900821E+03  0.7818608E-02  0.9499979E-01
         21   -1    0    0  501  502  0.00000000000E+00  0.00000000000E+00  0.39120721107E+03  0.39120721107E+03  0.00000000000E+00 0. -1.
         -4   -1    0    0    0  501 -0.00000000000E+00 -0.00000000000E+00 -0.32313083067E+04  0.32313083067E+04  0.00000000000E+00 0. -1.
        -13    1    1    2    0    0  0.21838236068E+03  0.41562007022E+03 -0.23801915718E+04  0.24260549928E+04  0.10566000000E+00 0.  1.
         13    1    1    2    0    0 -0.47977218840E+03 -0.59509788818E+03 -0.20998036289E+03  0.79272606444E+03  0.10566000000E+00 0. -1.
         -4    1    1    2    0  502  0.26138982772E+03  0.17947781796E+03 -0.24992916095E+03  0.40373446059E+03  0.00000000000E+00 0. -1.
</event>
<event>
 5    1  0.2540860E-005  0.5535634E+02  0.7818608E-02  0.1271394E+00
         21   -1    0    0  501  502  0.00000000000E+00  0.00000000000E+00  0.34109244215E+03  0.34109244215E+03  0.00000000000E+00 0.  1.
         -4   -1    0    0    0  501 -0.00000000000E+00 -0.00000000000E+00 -0.66212139741E+02  0.66212139741E+02  0.00000000000E+00 0. -1.
        -13    1    1    2    0    0 -0.63452400940E+02  0.57317272785E+01  0.22134679359E+03  0.23033339766E+03  0.10566000000E+00 0.  1.
         13    1    1    2    0    0  0.46563685546E+02 -0.29766253519E+02 -0.46804576022E+02  0.72421586290E+02  0.10566000000E+00 0. -1.
         -4    1    1    2    0  502  0.16888715394E+02  0.24034526241E+02  0.10033808484E+03  0.10454959794E+03  0.00000000000E+00 0. -1.
</event>
<event>
 5    1  0.2540860E-005  0.6797982E+02  0.7818608E-02  0.1254607E+00
         -4   -1    0    0    0  501 -0.00000000000E+00  0.00000000000E+00  0.58339993405E+02  0.58339993405E+02  0.00000000000E+00 0. -1.
         21   -1    0    0  501  502  0.00000000000E+00 -0.00000000000E+00 -0.52884470561E+03  0.52884470561E+03  0.00000000000E+00 0. -1.
        -13    1    1    2    0    0  0.41192008608E+02 -0.91868511858E+01 -0.23236452532E+03  0.23616617793E+03  0.10566000000E+00 0.  1.
         13    1    1    2    0    0 -0.15213728234E+02  0.72521498544E+02  0.25709195187E+02  0.78433405887E+02  0.10566000000E+00 0. -1.
         -4    1    1    2    0  502 -0.25978280374E+02 -0.63334647358E+02 -0.26384938207E+03  0.27258511520E+03  0.00000000000E+00 0. -1.
</event>
<event>
 5    1  0.2540860E-005  0.5233034E+02  0.7818608E-02  0.1282581E+00
         21   -1    0    0  501  502  0.00000000000E+00  0.00000000000E+00  0.32933492200E+03  0.32933492200E+03  0.00000000000E+00 0.  1.
         -4   -1    0    0    0  501 -0.00000000000E+00 -0.00000000000E+00 -0.29426660084E+02  0.29426660084E+02  0.00000000000E+00 0. -1.
        -13    1    1    2    0    0  0.56116082313E+02 -0.51980394518E+01  0.21507578476E+03  0.22233676858E+03  0.10566000000E+00 0.  1.
         13    1    1    2    0    0 -0.50133183538E+02 -0.14782075219E+02  0.34152767660E+01  0.52378632274E+02  0.10566000000E+00 0. -1.
         -4    1    1    2    0  502 -0.59828987749E+01  0.19980114671E+02  0.81417200385E+02  0.84046181225E+02  0.00000000000E+00 0. -1.
</event>
<event>
 5    1  0.2540860E-005  0.4943391E+03  0.7818608E-02  0.9547727E-01
         -4   -1    0    0    0  501 -0.00000000000E+00  0.00000000000E+00  0.58807417453E+03  0.58807417453E+03  0.00000000000E+00 0. -1.
         21   -1    0    0  501  502  0.00000000000E+00 -0.00000000000E+00 -0.12857983263E+04  0.12857983263E+04  0.00000000000E+00 0. -1.
        -13    1    1    2    0    0  0.35689095280E+03  0.18463622596E+03  0.22676365128E+03  0.46139294840E+03  0.10566000000E+00 0.  1.
         13    1    1    2    0    0 -0.53181502035E+03  0.25672874047E+03 -0.56120373626E+03  0.81466956909E+03  0.10566000000E+00 0. -1.
         -4    1    1    2    0  502  0.17492406754E+03 -0.44136496642E+03 -0.36328406681E+03  0.59780998335E+03  0.00000000000E+00 0. -1.
</event>
<event>
 5    1  0.2540860E-005  0.7488972E+03  0.7818608E-02  0.9054911E-01
         21   -1    0    0  501  502  0.00000000000E+00  0.00000000000E+00  0.51014904750E+03  0.51014904750E+03  0.00000000000E+00 0.  1.
         -4   -1    0    0    0  501 -0.00000000000E+00 -0.00000000000E+00 -0.16102666801E+04  0.16102666801E+04  0.00000000000E+00 0. -1.
        -13    1    1    2    0    0 -0.70116974754E+03  0.16592680700E+02 -0.40598967917E+03  0.81039617637E+03  0.10566000000E+00 0.  1.
         13    1    1    2    0    0  0.77473117446E+03 -0.17872996287E+03 -0.77871670124E+03  0.11129027380E+04  0.10566000000E+00 0. -1.
         -4    1    1    2    0  502 -0.73561426914E+02  0.16213728217E+03  0.84588747812E+02  0.19711681322E+03  0.00000000000E+00 0. -1.
</event>
<event>
 5    1  0.2540860E-005  0.3993497E+03  0.7818608E-02  0.9882084E-01
         21   -1    0    0  501  502  0.00000000000E+00  0.00000000000E+00  0.17148977970E+03  0.17148977970E+03  0.00000000000E+00 0. -1.
         -4   -1    0    0    0  501 -0.00000000000E+00 -0.00000000000E+00 -0.30407581354E+04  0.30407581354E+04  0.00000000000E+00 0. -1.
        -13    1    1    2    0    0 -0.22069527809E+03 -0.90480411409E+02 -0.13975335002E+04  0.14177422213E+04  0.10566000000E+00 0.  1.
         13    1    1    2    0    0  0.57245755679E+03  0.12503411478E+03 -0.12410738616E+04  0.13724450901E+04  0.10566000000E+00 0. -1.
         -4    1    1    2    0  502 -0.35176227869E+03 -0.34553703373E+02 -0.23066099391E+03  0.42206060375E+03  0.00000000000E+00 0. -1.
</event>
<event>
 5    1  0.2540860E-005  0.1218672E+03  0.7818608E-02  0.1132723E+00
         -4   -1    0    0    0  501 -0.00000000000E+00  0.00000000000E+00  0.96538740483E+02  0.96538740483E+02  0.00000000000E+00 0. -1.
         21   -1    0    0  501  502  0.00000000000E+00 -0.00000000000E+00 -0.30084062224E+03  0.30084062224E+03  0.00000000000E+00 0.  1.
        -13    1    1    2    0    0  0.75164018402E+01 -0.11176671599E+03 -0.70249559878E+02  0.13222445661E+03  0.10566000000E+00 0.  1.
         13    1    1    2    0    0  0.10665668887E+02  0.12818322740E+03  0.26043789635E+00  0.12862649522E+03  0.10566000000E+00 0. -1.
         -4    1    1    2    0  502 -0.18182070727E+02 -0.16416511416E+02 -0.13431275978E+03  0.13652841089E+03  0.00000000000E+00 0. -1.
</event>
<event>
 5    1  0.2540860E-005  0.2699702E+03  0.7818608E-02  0.1020534E+00
         21   -1    0    0  501  502  0.00000000000E+00  0.00000000000E+00  0.26534829583E+03  0.26534829583E+03  0.00000000000E+00 0.  1.
          4   -1    0    0  502    0 -0.00000000000E+00 -0.00000000000E+00 -0.12655057547E+04  0.12655057547E+04  0.00000000000E+00 0.  1.
        -13    1    1    2    0    0  0.23753057057E+03 -0.67787027100E+02 -0.68979684025E+03  0.73269062024E+03  0.10566000000E+00 0.  1.
         13    1    1    2    0    0 -0.36704613461E+03 -0.76529808028E+02 -0.42984830647E+03  0.57039394648E+03  0.10566000000E+00 0. -1.
          4    1    1    2  501    0  0.12951556403E+03  0.14431683513E+03  0.11948768783E+03  0.22776948384E+03  0.00000000000E+00 0.  1.
</event>
<event>
 5    1  0.2540860E-005  0.4308508E+03  0.7818608E-02  0.9643957E-01
         21   -1    0    0  501  502  0.00000000000E+00  0.00000000000E+00  0.23164258477E+03  0.23164258477E+03  0.00000000000E+00 0. -1.
         -4   -1    0    0    0  501 -0.00000000000E+00 -0.00000000000E+00 -0.22114902166E+04  0.22114902166E+04  0.00000000000E+00 0. -1.
        -13    1    1    2    0    0  0.36376792713E+02 -0.36630282402E+03 -0.88047396081E+03  0.95432459717E+03  0.10566000000E+00 0.  1.
         13    1    1    2    0    0 -0.29749058048E+03  0.58325816142E+03 -0.81876445672E+03  0.10483634747E+04  0.10566000000E+00 0. -1.
         -4    1    1    2    0  502  0.26111378777E+03 -0.21695533740E+03 -0.28060921428E+03  0.44044472948E+03  0.00000000000E+00 0. -1.
</event>
<event>
 5    1  0.2540860E-005  0.3943331E+03  0.7818608E-02  0.9745556E-01
         21   -1    0    0  501  502  0.00000000000E+00  0.00000000000E+00  0.60031901509E+03  0.60031901509E+03  0.00000000000E+00 0.  1.
         -4   -1    0    0    0  501 -0.00000000000E+00 -0.00000000000E+00 -0.50336623587E+03  0.50336623587E+03  0.00000000000E+00 0. -1.
        -13    1    1    2    0    0 -0.27943211846E+03  0.27703028207E+03 -0.25730401633E+03  0.47014195090E+03  0.10566000000E+00 0.  1.
         13    1    1    2    0    0  0.20404088471E+03 -0.35479677165E+03  0.32128381125E+03  0.52032367843E+03  0.10566000000E+00 0. -1.
         -4    1    1    2    0  502  0.75391233751E+02  0.77766489576E+02  0.32972984297E+02  0.11321962162E+03  0.00000000000E+00 0. -1.
</event>
<event>
 5    1  0.2540860E-005  0.4154908E+03  0.7818608E-02  0.9719368E-01
         -4   -1    0    0    0  501 -0.00000000000E+00  0.00000000000E+00  0.13107236154E+04  0.13107236154E+04  0.00000000000E+00 0. -1.
         21   -1    0    0  501  502  0.00000000000E+00 -0.00000000000E+00 -0.46306102735E+03  0.46306102735E+03  0.00000000000E+00 0. -1.
        -13    1    1    2    0    0  0.36908206195E+03 -0.23105844424E+00  0.56766193966E+03  0.67709800674E+03  0.10566000000E+00 0.  1.
         13    1    1    2    0    0  0.12949299491E+03  0.12590445618E+02  0.52510559619E+03  0.54098322836E+03  0.10566000000E+00 0. -1.
         -4    1    1    2    0  502 -0.49857505686E+03 -0.12359387174E+02 -0.24510494784E+03  0.55570340761E+03  0.00000000000E+00 0. -1.
</event>
<event>
 5    1  0.2540860E-005  0.2366567E+03  0.7818608E-02  0.1037549E+00
         21   -1    0    0  501  502  0.00000000000E+00  0.00000000000E+00  0.52007718014E+03  0.52007718014E+03  0.00000000000E+00 0. -1.
          4   -1    0    0  502    0 -0.00000000000E+00 -0.00000000000E+00 -0.54241092003E+03  0.54241092003E+03  0.00000000000E+00 0.  1.
        -13    1    1    2    0    0  0.17660855710E+03 -0.15942270318E+03 -0.48368309999E+03  0.53903203347E+03  0.10566000000E+00 0.  1.
         13    1    1    2    0    0 -0.14935926354E+03  0.15925847114E+03  0.38808259537E+03  0.44528593312E+03  0.10566000000E+00 0. -1.
          4    1    1    2  501    0 -0.27249293563E+02  0.16423204030E+00  0.73266764723E+02  0.78170133586E+02  0.00000000000E+00 0.  1.
</event>
<event>
 5    1  0.9051848E-005  0.5736646E+03  0.7818608E-02  0.9329661E-01
         21   -1    0    0  501  502  0.00000000000E+00  0.00000000000E+00  0.27401283949E+04  0.27401283949E+04  0.00000000000E+00 0.  1.
         -4   -1    0    0    0  501 -0.00000000000E+00 -0.00000000000E+00 -0.41932001414E+03  0.41932001414E+03  0.00000000000E+00 0. -1.
        -13    1    1    2    0    0 -0.44942494039E+03  0.33302247594E+03  0.23326482412E+04  0.23987777252E+04  0.10566000000E+00 0.  1.
         13    1    1    2    0    0  0.46293069904E+03 -0.34098890766E+03 -0.17169536867E+03  0.60004797978E+03  0.10566000000E+00 0. -1.
         -4    1    1    2    0  502 -0.13505758649E+02  0.79664317147E+01  0.15985550818E+03  0.16062270402E+03  0.00000000000E+00 0. -1.
</event>
<event>
 5    1  0.2540860E-005  0.1393864E+03  0.7818608E-02  0.1112078E+00
         21   -1    0    0  501  502  0.00000000000E+00  0.00000000000E+00  0.30754814323E+02  0.30754814323E+02  0.00000000000E+00 0.  1.
          4   -1    0    0  502    0 -0.00000000000E+00 -0.00000000000E+00 -0.13375598355E+04  0.13375598355E+04  0.00000000000E+00 0.  1.
        -13    1    1    2    0    0  0.90149069683E+02 -0.13294622900E+03 -0.65206739647E+03  0.67156046286E+03  0.10566000000E+00 0.  1.
         13    1    1    2    0    0 -0.13468448383E+01  0.13250350515E+03 -0.51010253165E+03  0.52703282329E+03  0.10566000000E+00 0. -1.
          4    1    1    2  501    0 -0.88802224844E+02  0.44272385519E+00 -0.14463509302E+03  0.16972136364E+03  0.00000000000E+00 0.  1.
</event>
<event>
 5    1  0.2540860E-005  0.1323520E+03  0.7818608E-02  0.1119950E+00
         -4   -1    0    0    0  501 -0.00000000000E+00  0.00000000000E+00  0.86793396725E+03  0.86793396725E+03  0.00000000000E+00 0. -1.
         21   -1    0    0  501  502  0.00000000000E+00 -0.00000000000E+00 -0.31483957573E+02  0.31483957573E+02  0.00000000000E+00 0.  1.
        -13    1    1    2    0    0 -0.93176244450E+02 -0.93821235350E+02  0.61423559493E+03  0.62830694249E+03  0.10566000000E+00 0.  1.
         13    1    1    2    0    0  0.10675865036E+03  0.80484242469E+02  0.20836459789E+03  0.24757006994E+03  0.10566000000E+00 0. -1.
         -4    1    1    2    0  502 -0.13582405913E+02  0.13336992881E+02  0.13849816860E+02  0.23540912398E+02  0.00000000000E+00 0. -1.
</event>
<event>
 5    1  0.2540860E-005  0.4035390E+03  0.7818608E-02  0.9718881E-01
         21   -1    0    0  501  502  0.00000000000E+00  0.00000000000E+00  0.23730998545E+03  0.23730998545E+03  0.00000000000E+00 0. -1.
          4   -1    0    0  502    0 -0.00000000000E+00 -0.00000000000E+00 -0.18857714354E+04  0.18857714354E+04  0.00000000000E+00 0.  1.
        -13    1    1    2    0    0 -0.34961796978E+00  0.41179676125E+03 -0.15685668787E+04  0.16217209251E+04  0.10566000000E+00 0.  1.
         13    1    1    2    0    0 -0.52232126585E+01 -0.36685856364E+03 -0.16705621887E+03  0.40313803975E+03  0.10566000000E+00 0. -1.
          4    1    1    2  501    0  0.55728306283E+01 -0.44938197610E+02  0.87161647621E+02  0.98222455995E+02  0.00000000000E+00 0.  1.
</event>
<event>
 5    1  0.3559492E-005  0.3915329E+03  0.7818608E-02  0.1001302E+00
         -4   -1    0    0    0  501 -0.00000000000E+00  0.00000000000E+00  0.13099450844E+04  0.13099450844E+04  0.00000000000E+00 0. -1.
         21   -1    0    0  501  502  0.00000000000E+00 -0.00000000000E+00 -0.29410050357E+03  0.29410050357E+03  0.00000000000E+00 0. -1.
        -13    1    1    2    0    0 -0.15127329091E+03  0.63384005454E+02  0.36489911557E+03  0.40006564011E+03  0.10566000000E+00 0.  1.
         13    1    1    2    0    0 -0.26809802020E+03 -0.76347862109E+02  0.72606409711E+03  0.77773686345E+03  0.10566000000E+00 0. -1.
         -4    1    1    2    0  502  0.41937131111E+03  0.12963856655E+02 -0.75118631838E+02  0.42624308442E+03  0.00000000000E+00 0. -1.
</event>
<event>
 5    1  0.2540860E-005  0.3554529E+03  0.7818608E-02  0.1007487E+00
         21   -1    0    0  501  502  0.00000000000E+00  0.00000000000E+00  0.71640003719E+03  0.71640003719E+03  0.00000000000E+00 0.  1.
          4   -1    0    0  502    0 -0.00000000000E+00 -0.00000000000E+00 -0.56228955025E+03  0.56228955025E+03  0.00000000000E+00 0.  1.
        -13    1    1    2    0    0 -0.10377637190E+02  0.45693021658E+03 -0.17781829334E+03  0.49042050813E+03  0.10566000000E+00 0.  1.
         13    1    1    2    0    0 -0.11402607044E+03 -0.13837492689E+03 -0.12424205501E+03  0.21814138656E+03  0.10566000000E+00 0. -1.
          4    1    1    2  501    0  0.12440370763E+03 -0.31855528970E+03  0.45617083530E+03  0.57012769275E+03  0.00000000000E+00 0.  1.
</event>
<event>
 5    1  0.2540860E-005  0.4950108E+03  0.7818608E-02  0.9488975E-01
         21   -1    0    0  501  502  0.00000000000E+00  0.00000000000E+00  0.30246716496E+03  0.30246716496E+03  0.00000000000E+00 0.  1.
          4   -1    0    0  502    0 -0.00000000000E+00 -0.00000000000E+00 -0.20176724153E+04  0.20176724153E+04  0.00000000000E+00 0.  1.
        -13    1    1    2    0    0  0.32972915431E+03  0.52634409533E+03 -0.48536583100E+03  0.78825086296E+03  0.10566000000E+00 0.  1.
         13    1    1    2    0    0 -0.44784142232E+03 -0.13371407375E+03 -0.43967573346E+03  0.64168228495E+03  0.10566000000E+00 0. -1.
          4    1    1    2  501    0  0.11811226801E+03 -0.39263002158E+03 -0.79016368588E+03  0.89020643235E+03  0.00000000000E+00 0.  1.
</event>
<event>
 5    1  0.2540860E-005  0.5801616E+03  0.7818608E-02  0.9404380E-01
         21   -1    0    0  501  502  0.00000000000E+00  0.00000000000E+00  0.95602796769E+03  0.95602796769E+03  0.00000000000E+00 0.  1.
          4   -1    0    0  502    0 -0.00000000000E+00 -0.00000000000E+00 -0.92965831231E+03  0.92965831231E+03  0.00000000000E+00 0.  1.
        -13    1    1    2    0    0  0.40524012231E+02 -0.16408965332E+03 -0.24420350375E+03  0.29698985218E+03  0.10566000000E+00 0.  1.
         13    1    1    2    0    0  0.22273049914E+03 -0.64484749537E+03 -0.39202428681E+02  0.68335496567E+03  0.10566000000E+00 0. -1.
          4    1    1    2  501    0 -0.26325451137E+03  0.80893714868E+03  0.30977558781E+03  0.90534146215E+03  0.00000000000E+00 0.  1.
</event>
<event>
 5    1  0.2540860E-005  0.1799626E+03  0.7818608E-02  0.1074815E+00
         -4   -1    0    0    0  501 -0.00000000000E+00  0.00000000000E+00  0.29152869457E+03  0.29152869457E+03  0.00000000000E+00 0. -1.
         21   -1    0    0  501  502  0.00000000000E+00 -0.00000000000E+00 -0.26067762023E+03  0.26067762023E+03  0.00000000000E+00 0. -1.
        -13    1    1    2    0    0 -0.15949144716E+03 -0.97197671674E+02  0.16721593172E+03  0.25069122059E+03  0.10566000000E+00 0.  1.
         13    1    1    2    0    0  0.84647615993E+02  0.14716690342E+03 -0.12495890823E+03  0.21080335924E+03  0.10566000000E+00 0. -1.
         -4    1    1    2    0  502  0.74843831170E+02 -0.49969231749E+02 -0.11405949161E+02  0.90711734974E+02  0.00000000000E+00 0. -1.
</event>
<event>
 5    1  0.2540860E-005  0.8916319E+02  0.7818608E-02  0.1183848E+00
         21   -1    0    0  501  502  0.00000000000E+00  0.00000000000E+00  0.50043344958E+03  0.50043344958E+03  0.00000000000E+00 0. -1.
          4   -1    0    0  502    0 -0.00000000000E+00 -0.00000000000E+00 -0.49180894693E+02  0.49180894693E+02  0.00000000000E+00 0.  1.
        -13    1    1    2    0    0  0.72611807810E+00 -0.89078320640E+02  0.26559121764E+01  0.89120926213E+02  0.10566000000E+00 0.  1.
         13    1    1    2    0    0  0.93502267526E+01  0.89817419385E+02  0.35311905900E+03  0.36448275207E+03  0.10566000000E+00 0. -1.
          4    1    1    2  501    0 -0.10076344831E+02 -0.73909874553E+00  0.95477583716E+02  0.96010665992E+02  0.00000000000E+00 0.  1.
</event>
<event>
 5    1  0.2540860E-005  0.4948660E+03  0.7818608E-02  0.9761575E-01
         21   -1    0    0  501  502  0.00000000000E+00  0.00000000000E+00  0.20778843261E+03  0.20778843261E+03  0.00000000000E+00 0. -1.
         -4   -1    0    0    0  501 -0.00000000000E+00 -0.00000000000E+00 -0.21058165866E+04  0.21058165866E+04  0.00000000000E+00 0. -1.
        -13    1    1    2    0    0  0.40122975782E+02 -0.18449448022E+03 -0.77486832836E+03  0.79753934315E+03  0.10566000000E+00 0.  1.
         13    1    1    2    0    0  0.38648944573E+03 -0.20771161618E+03 -0.47700750150E+03  0.64811601955E+03  0.10566000000E+00 0. -1.
         -4    1    1    2    0  502 -0.42661242151E+03  0.39220609640E+03 -0.64615232412E+03  0.86794965649E+03  0.00000000000E+00 0. -1.
</event>
<event>
 5    1  0.2540860E-005  0.4769210E+03  0.7818608E-02  0.9534768E-01
         21   -1    0    0  501  502  0.00000000000E+00  0.00000000000E+00  0.37814702120E+03  0.37814702120E+03  0.00000000000E+00 0. -1.
         -4   -1    0    0    0  501 -0.00000000000E+00 -0.00000000000E+00 -0.19015290354E+04  0.19015290354E+04  0.00000000000E+00 0. -1.
        -13    1    1    2    0    0  0.75669483142E+02  0.47501491842E+03 -0.85678778557E+03  0.98257333776E+03  0.10566000000E+00 0.  1.
         13    1    1    2    0    0  0.39741348141E+03 -0.16516309851E+03 -0.58420337028E+03  0.72561002841E+03  0.10566000000E+00 0. -1.
         -4    1    1    2    0  502 -0.47308296455E+03 -0.30985181990E+03 -0.82390858300E+02  0.57149269040E+03  0.00000000000E+00 0. -1.
</event>
<event>
 5    1  0.2540860E-005  0.1775632E+03  0.7818608E-02  0.1076711E+00
         21   -1    0    0  501  502  0.00000000000E+00  0.00000000000E+00  0.65060240228E+03  0.65060240228E+03  0.00000000000E+00 0.  1.
          4   -1    0    0  502    0 -0.00000000000E+00 -0.00000000000E+00 -0.86743944885E+03  0.86743944885E+03  0.00000000000E+00 0.  1.
        -13    1    1    2    0    0 -0.11674934227E+03  0.18513403452E+03 -0.35367675369E+03  0.41592340271E+03  0.10566000000E+00 0.  1.
         13    1    1    2    0    0  0.10852328973E+03 -0.11850988736E+03 -0.46735335598E+03  0.49420751545E+03  0.10566000000E+00 0. -1.
          4    1    1    2  501    0  0.82260525394E+01 -0.66624147165E+02  0.60419306310E+03  0.60791093297E+03  0.00000000000E+00 0.  1.
</event>
<event>
 5    1  0.2540860E-005  0.2708580E+03  0.7818608E-02  0.1020117E+00
         21   -1    0    0  501  502  0.00000000000E+00  0.00000000000E+00  0.18701536039E+03  0.18701536039E+03  0.00000000000E+00 0.  1.
         -4   -1    0    0    0  501 -0.00000000000E+00 -0.00000000000E+00 -0.60117271436E+03  0.60117271436E+03  0.00000000000E+00 0. -1.
        -13    1    1    2    0    0 -0.26336007612E+03 -0.11838369784E+03 -0.17330260934E+03  0.33675961037E+03  0.10566000000E+00 0.  1.
         13    1    1    2    0    0  0.23839849072E+03  0.10390676263E+03 -0.29304129016E+03  0.39179543718E+03  0.10566000000E+00 0. -1.
         -4    1    1    2    0  502  0.24961585405E+02  0.14476935211E+02  0.52186545527E+02  0.59633027200E+02  0.00000000000E+00 0. -1.
</event>
<event>
 5    1  0.2540860E-005  0.2714206E+03  0.7818608E-02  0.1019853E+00
         21   -1    0    0  501  502  0.00000000000E+00  0.00000000000E+00  0.23329490880E+03  0.23329490880E+03  0.00000000000E+00 0.  1.
         -4   -1    0    0    0  501 -0.00000000000E+00 -0.00000000000E+00 -0.45911065283E+03  0.45911065283E+03  0.00000000000E+00 0. -1.
        -13    1    1    2    0    0 -0.43990506276E+02  0.25143421052E+03 -0.89252936772E+02  0.27040788588E+03  0.10566000000E+00 0.  1.
         13    1    1    2    0    0  0.44671993945E+02 -0.28098725134E+03 -0.20284544212E+03  0.34942196126E+03  0.10566000000E+00 0. -1.
         -4    1    1    2    0  502 -0.68148766905E+00  0.29553040821E+02  0.66282634874E+02  0.72575714485E+02  0.00000000000E+00 0. -1.
</event>
<event>
 5    1  0.2540860E-005  0.1095507E+03  0.7818608E-02  0.1149653E+00
         21   -1    0    0  501  502  0.00000000000E+00  0.00000000000E+00  0.91553039737E+02  0.91553039737E+02  0.00000000000E+00 0. -1.
          4   -1    0    0  502    0 -0.00000000000E+00 -0.00000000000E+00 -0.23591565729E+03  0.23591565729E+03  0.00000000000E+00 0.  1.
        -13    1    1    2    0    0  0.96195909757E+02 -0.40886999164E+02 -0.87181350959E+02  0.13611024529E+03  0.10566000000E+00 0.  1.
         13    1    1    2    0    0 -0.85066455420E+02  0.87497749072E+02 -0.71382273265E+02  0.14137750186E+03  0.10566000000E+00 0. -1.
          4    1    1    2  501    0 -0.11129454337E+02 -0.46610749908E+02  0.14201006667E+02  0.49980949883E+02  0.00000000000E+00 0.  1.
</event>
<event>
 5    1  0.2540860E-005  0.5485338E+03  0.7818608E-02  0.9412786E-01
         -4   -1    0    0    0  501 -0.00000000000E+00  0.00000000000E+00  0.18551872665E+04  0.18551872665E+04  0.00000000000E+00 0. -1.
         21   -1    0    0  501  502  0.00000000000E+00 -0.00000000000E+00 -0.84383318686E+03  0.84383318686E+03  0.00000000000E+00 0. -1.
        -13    1    1    2    0    0 -0.40672140033E+03  0.42141072369E+03  0.13431751605E+04  0.14653084380E+04  0.10566000000E+00 0.  1.
         13    1    1    2    0    0  0.33237833667E+03  0.30355842992E+03 -0.52261264859E+02  0.45316038003E+03  0.10566000000E+00 0. -1.
         -4    1    1    2    0  502  0.74343063667E+02 -0.72496915361E+03 -0.27955981595E+03  0.78055163538E+03  0.00000000000E+00 0. -1.
</event>
<event>
 5    1  0.2540860E-005  0.4058736E+03  0.7818608E-02  0.1017760E+00
         21   -1    0    0  501  502  0.00000000000E+00  0.00000000000E+00  0.15358037795E+03  0.15358037795E+03  0.00000000000E+00 0. -1.
         -4   -1    0    0    0  501 -0.00000000000E+00 -0.00000000000E+00 -0.19408497681E+04  0.19408497681E+04  0.00000000000E+00 0. -1.
        -13    1    1    2    0    0  0.83531726717E+02 -0.23298969282E+02 -0.31626940219E+03  0.32794319213E+03  0.10566000000E+00 0.  1.
         13    1    1    2    0    0  0.32512148917E+03  0.13055444837E+03 -0.12324880389E+04  0.12813177685E+04  0.10566000000E+00 0. -1.
         -4    1    1    2    0  502 -0.40865321589E+03 -0.10725547909E+03 -0.23851194910E+03  0.48516918545E+03  0.00000000000E+00 0. -1.
</event>
<event>
 5    1  0.2540860E-005  0.5060283E+03  0.7818608E-02  0.9874372E-01
         21   -1    0    0  501  502  0.00000000000E+00  0.00000000000E+00  0.46193999395E+03  0.46193999395E+03  0.00000000000E+00 0.  1.
          4   -1    0    0  502    0 -0.00000000000E+00 -0.00000000000E+00 -0.80132068738E+03  0.80132068738E+03  0.00000000000E+00 0.  1.
        -13    1    1    2    0    0 -0.37278949280E+03 -0.23515095403E+03 -0.16838734187E+03  0.47182866084E+03  0.10566000000E+00 0.  1.
         13    1    1    2    0    0 -0.10692472787E+03 -0.55162245453E+02 -0.19619177955E+03  0.23014559800E+03  0.10566000000E+00 0. -1.
          4    1    1    2  501    0  0.47971422067E+03  0.29031319948E+03  0.25198427976E+02  0.56128642249E+03  0.00000000000E+00 0.  1.
</event>
<event>
 5    1  0.2540860E-005  0.3960469E+03  0.7818608E-02  0.9740532E-01
         -4   -1    0    0    0  501 -0.00000000000E+00  0.00000000000E+00  0.99324594741E+03  0.99324594741E+03  0.00000000000E+00 0. -1.
         21   -1    0    0  501  502  0.00000000000E+00 -0.00000000000E+00 -0.24873742310E+03  0.24873742310E+03  0.00000000000E+00 0.  1.
        -13    1    1    2    0    0 -0.39204561032E+03 -0.92408782647E+02  0.29572367549E+03  0.49969155195E+03  0.10566000000E+00 0.  1.
         13    1    1    2    0    0  0.37176731477E+03  0.12566801636E+03  0.52573178153E+03  0.65604672390E+03  0.10566000000E+00 0. -1.
         -4    1    1    2    0  502  0.20278295555E+02 -0.33259233710E+02 -0.76946932718E+02  0.86245094657E+02  0.00000000000E+00 0. -1.
</event>
<event>
 5    1  0.2540860E-005  0.4887438E+03  0.7818608E-02  0.9823293E-01
         -4   -1    0    0    0  501 -0.00000000000E+00  0.00000000000E+00  0.28720557723E+04  0.28720557723E+04  0.00000000000E+00 0. -1.
         21   -1    0    0  501  502  0.00000000000E+00 -0.00000000000E+00 -0.12349563733E+03  0.12349563733E+03  0.00000000000E+00 0. -1.
        -13    1    1    2    0    0 -0.41919531087E+02  0.15306893051E+03  0.62000959809E+03  0.63999941989E+03  0.10566000000E+00 0.  1.
         13    1    1    2    0    0  0.73268847538E+02  0.39500060443E+03  0.13079634245E+04  0.13682697586E+04  0.10566000000E+00 0. -1.
         -4    1    1    2    0  502 -0.31349316451E+02 -0.54806953494E+03  0.82058711240E+03  0.98728223108E+03  0.00000000000E+00 0. -1.
</event>
<event>
 5    1  0.2540860E-005  0.5138953E+03  0.7818608E-02  0.9448026E-01
         21   -1    0    0  501  502  0.00000000000E+00  0.00000000000E+00  0.11351435537E+04  0.11351435537E+04  0.00000000000E+00 0. -1.
          4   -1    0    0  502    0 -0.00000000000E+00 -0.00000000000E+00 -0.76920929235E+03  0.76920929235E+03  0.00000000000E+00 0.  1.
        -13    1    1    2    0    0 -0.45386545973E+03  0.12527749166E+03 -0.24119025950E+03  0.52901895797E+03  0.10566000000E+00 0.  1.
         13    1    1    2    0    0  0.48377706538E+03 -0.40810925629E+03 -0.73980249088E+02  0.63723347564E+03  0.10566000000E+00 0. -1.
          4    1    1    2  501    0 -0.29911605650E+02  0.28283176463E+03  0.68110476994E+03  0.73810041246E+03  0.00000000000E+00 0.  1.
</event>
<event>
 5    1  0.2540860E-005  0.3144408E+03  0.7818608E-02  0.1009635E+00
         21   -1    0    0  501  502  0.00000000000E+00  0.00000000000E+00  0.55735048841E+03  0.55735048841E+03  0.00000000000E+00 0.  1.
          4   -1    0    0  502    0 -0.00000000000E+00 -0.00000000000E+00 -0.81898538958E+03  0.81898538958E+03  0.00000000000E+00 0.  1.
        -13    1    1    2    0    0 -0.13789907341E+03 -0.51084639329E+03 -0.31074415783E+03  0.61363029160E+03  0.10566000000E+00 0.  1.
         13    1    1    2    0    0  0.57552292548E+02  0.23474245610E+03 -0.25004119583E+03  0.34775982783E+03  0.10566000000E+00 0. -1.
          4    1    1    2  501    0  0.80346780864E+02  0.27610393718E+03  0.29915045249E+03  0.41494575856E+03  0.00000000000E+00 0.  1.
</event>
<event>
 5    1  0.2540860E-005  0.4782186E+02  0.7818608E-02  0.1300920E+00
          4   -1    0    0  502    0 -0.00000000000E+00  0.00000000000E+00  0.50696787499E+02  0.50696787499E+02  0.00000000000E+00 0.  1.
         21   -1    0    0  501  502  0.00000000000E+00 -0.00000000000E+00 -0.72720391753E+02  0.72720391753E+02  0.00000000000E+00 0. -1.
        -13    1    1    2    0    0  0.22528465885E+02  0.47177582717E+02 -0.21347124768E+02  0.56470939306E+02  0.10566000000E+00 0.  1.
         13    1    1    2    0    0 -0.30991912875E+02 -0.34507725881E+02  0.11096761905E+02  0.47690995984E+02  0.10566000000E+00 0. -1.
          4    1    1    2  501    0  0.84634469904E+01 -0.12669856836E+02 -0.11773241391E+02  0.19255243962E+02  0.00000000000E+00 0.  1.
</event>
<event>
 5    1  0.2540860E-005  0.1455558E+03  0.7818608E-02  0.1105579E+00
         21   -1    0    0  501  502  0.00000000000E+00  0.00000000000E+00  0.70677819702E+02  0.70677819702E+02  0.00000000000E+00 0.  1.
         -4   -1    0    0    0  501 -0.00000000000E+00 -0.00000000000E+00 -0.35905559833E+03  0.35905559833E+03  0.00000000000E+00 0. -1.
        -13    1    1    2    0    0 -0.11316185570E+03  0.99761869642E+02 -0.14229716898E+03  0.20738016222E+03  0.10566000000E+00 0.  1.
         13    1    1    2    0    0  0.10342303844E+03 -0.96003212764E+02 -0.15427791265E+03  0.20908043246E+03  0.10566000000E+00 0. -1.
         -4    1    1    2    0  502  0.97388172525E+01 -0.37586568782E+01  0.81973030068E+01  0.13272823347E+02  0.00000000000E+00 0. -1.
</event>
<event>
 5    1  0.2540860E-005  0.7289834E+02  0.7818608E-02  0.1219322E+00
         21   -1    0    0  501  502  0.00000000000E+00  0.00000000000E+00  0.19345208364E+03  0.19345208364E+03  0.00000000000E+00 0.  1.
         -4   -1    0    0    0  501 -0.00000000000E+00 -0.00000000000E+00 -0.44501415293E+02  0.44501415293E+02  0.00000000000E+00 0. -1.
        -13    1    1    2    0    0 -0.70859483638E+02 -0.36918212945E+02  0.51721208933E+02  0.95179385825E+02  0.10566000000E+00 0.  1.
         13    1    1    2    0    0  0.65707408315E+02  0.18804808070E+02  0.33103878319E+02  0.75940517761E+02  0.10566000000E+00 0. -1.
         -4    1    1    2    0  502  0.51520753232E+01  0.18113404875E+02  0.64125581095E+02  0.66833595347E+02  0.00000000000E+00 0. -1.
</event>
<event>
 5    1  0.2540860E-005  0.4973112E+03  0.7818608E-02  0.9818586E-01
         -4   -1    0    0    0  501 -0.00000000000E+00  0.00000000000E+00  0.20657531827E+04  0.20657531827E+04  0.00000000000E+00 0. -1.
         21   -1    0    0  501  502  0.00000000000E+00 -0.00000000000E+00 -0.16464097129E+03  0.16464097129E+03  0.00000000000E+00 0. -1.
        -13    1    1    2    0    0 -0.11559960990E+03  0.10034052002E+03  0.32193755790E+03  0.35647621536E+03  0.10566000000E+00 0.  1.
         13    1    1    2    0    0 -0.43538345110E+03 -0.54362774715E+02  0.87288515284E+03  0.97695576255E+03  0.10566000000E+00 0. -1.
         -4    1    1    2    0  502  0.55098306101E+03 -0.45977745300E+02  0.70628950070E+03  0.89696217611E+03  0.00000000000E+00 0. -1.
</event>
<event>
 5    1  0.2540860E-005  0.6198467E+03  0.7818608E-02  0.9248143E-01
         21   -1    0    0  501  502  0.00000000000E+00  0.00000000000E+00  0.44474007922E+03  0.44474007922E+03  0.00000000000E+00 0. -1.
         -4   -1    0    0    0  501 -0.00000000000E+00 -0.00000000000E+00 -0.19371910308E+04  0.19371910308E+04  0.00000000000E+00 0. -1.
        -13    1    1    2    0    0 -0.22432766704E+03  0.51311368345E+03 -0.95709485378E+03  0.11088909435E+04  0.10566000000E+00 0.  1.
         13    1    1    2    0    0  0.28914751974E+03 -0.68974290952E+03 -0.69899088631E+03  0.10236893277E+04  0.10566000000E+00 0. -1.
         -4    1    1    2    0  502 -0.64819852702E+02  0.17662922606E+03  0.16363478848E+03  0.24935083879E+03  0.00000000000E+00 0. -1.
</event>
<event>
 5    1  0.2540860E-005  0.2412057E+03  0.7818608E-02  0.1045266E+00
         21   -1    0    0  501  502  0.00000000000E+00  0.00000000000E+00  0.11345088129E+03  0.11345088129E+03  0.00000000000E+00 0.  1.
          4   -1    0    0  502    0 -0.00000000000E+00 -0.00000000000E+00 -0.27821388139E+04  0.27821388139E+04  0.00000000000E+00 0.  1.
        -13    1    1    2    0    0  0.37277099039E+03  0.15258430919E+03 -0.22962485884E+04  0.23313081678E+04  0.10566000000E+00 0.  1.
         13    1    1    2    0    0 -0.15491783940E+03 -0.85660235790E+02 -0.24776563424E+03  0.30450785480E+03  0.10566000000E+00 0. -1.
          4    1    1    2  501    0 -0.21785315098E+03 -0.66924073399E+02 -0.12467371005E+03  0.25977367259E+03  0.00000000000E+00 0.  1.
</event>
<event>
 5    1  0.2540860E-005  0.3685097E+03  0.7818608E-02  0.9955886E-01
         21   -1    0    0  501  502  0.00000000000E+00  0.00000000000E+00  0.22402139093E+03  0.22402139093E+03  0.00000000000E+00 0. -1.
         -4   -1    0    0    0  501 -0.00000000000E+00 -0.00000000000E+00 -0.20497706897E+04  0.20497706897E+04  0.00000000000E+00 0. -1.
        -13    1    1    2    0    0  0.11659710200E+03 -0.20676410272E+03 -0.75952352022E+03  0.79575264203E+03  0.10566000000E+00 0.  1.
         13    1    1    2    0    0 -0.46572536383E+03  0.18730430880E+03 -0.10045262883E+04  0.11229675390E+04  0.10566000000E+00 0. -1.
         -4    1    1    2    0  502  0.34912826183E+03  0.19459793917E+02 -0.61699490262E+02  0.35507189960E+03  0.00000000000E+00 0. -1.
</event>
<event>
 5    1  0.2540860E-005  0.8675952E+02  0.7818608E-02  0.1188541E+00
         21   -1    0    0  501  502  0.00000000000E+00  0.00000000000E+00  0.18669991032E+03  0.18669991032E+03  0.00000000000E+00 0.  1.
          4   -1    0    0  502    0 -0.00000000000E+00 -0.00000000000E+00 -0.89750065157E+02  0.89750065157E+02  0.00000000000E+00 0.  1.
        -13    1    1    2    0    0 -0.52955074874E+02  0.64766774548E+02 -0.38619552407E+02  0.92143670604E+02  0.10566000000E+00 0.  1.
         13    1    1    2    0    0  0.73102804187E+02 -0.69371357496E+02  0.93675055511E+02  0.13759154193E+03  0.10566000000E+00 0. -1.
          4    1    1    2  501    0 -0.20147729312E+02  0.46045829478E+01  0.41894342055E+02  0.46714762943E+02  0.00000000000E+00 0.  1.
</event>
<event>
 5    1  0.2540860E-005  0.4631817E+03  0.7818608E-02  0.9562540E-01
         -4   -1    0    0    0  501 -0.00000000000E+00  0.00000000000E+00  0.16579125331E+04  0.16579125331E+04  0.00000000000E+00 0. -1.
         21   -1    0    0  501  502  0.00000000000E+00 -0.00000000000E+00 -0.31662141872E+03  0.31662141872E+03  0.00000000000E+00 0. -1.
        -13    1    1    2    0    0  0.25487407926E+03 -0.27260461055E+03  0.48935541276E+03  0.61542083255E+03  0.10566000000E+00 0.  1.
         13    1    1    2    0    0 -0.26157179337E+03  0.61694397644E+03  0.73685752786E+03  0.99599131557E+03  0.10566000000E+00 0. -1.
         -4    1    1    2    0  502  0.66977141166E+01 -0.34433936589E+03  0.11507817379E+03  0.36312180375E+03  0.00000000000E+00 0. -1.
</event>
<event>
 5    1  0.2540860E-005  0.4980213E+03  0.7818608E-02  0.9482319E-01
         21   -1    0    0  501  502  0.00000000000E+00  0.00000000000E+00  0.83515300137E+03  0.83515300137E+03  0.00000000000E+00 0. -1.
          4   -1    0    0  502    0 -0.00000000000E+00 -0.00000000000E+00 -0.95077380387E+03  0.95077380387E+03  0.00000000000E+00 0.  1.
        -13    1    1    2    0    0  0.24722747420E+03  0.35436328479E+03  0.51711753578E+03  0.67387336984E+03  0.10566000000E+00 0.  1.
         13    1    1    2    0    0  0.76638500954E+02 -0.53467046127E+03 -0.32574119839E+03  0.63075613472E+03  0.10566000000E+00 0. -1.
          4    1    1    2  501    0 -0.32386597515E+03  0.18030717648E+03 -0.30699713989E+03  0.48129730069E+03  0.00000000000E+00 0.  1.
</event>
<event>
 5    1  0.2540860E-005  0.2393807E+03  0.7818608E-02  0.1036048E+00
         -4   -1    0    0    0  501 -0.00000000000E+00  0.00000000000E+00  0.28747247711E+03  0.28747247711E+03  0.00000000000E+00 0. -1.
         21   -1    0    0  501  502  0.00000000000E+00 -0.00000000000E+00 -0.38596064783E+03  0.38596064783E+03  0.00000000000E+00 0.  1.
        -13    1    1    2    0    0 -0.17066908898E+03 -0.23485397177E+03  0.64942041992E+02  0.29749253095E+03  0.10566000000E+00 0.  1.
         13    1    1    2    0    0  0.46247769960E+02  0.18847477132E+03 -0.47798665190E+02  0.19986575297E+03  0.10566000000E+00 0. -1.
         -4    1    1    2    0  502  0.12442131902E+03  0.46379200445E+02 -0.11563154752E+03  0.17607484102E+03  0.00000000000E+00 0. -1.
</event>
<event>
 5    1  0.2540860E-005  0.1882760E+03  0.7818608E-02  0.1068485E+00
          4   -1    0    0  502    0 -0.00000000000E+00  0.00000000000E+00  0.10341253292E+04  0.10341253292E+04  0.00000000000E+00 0.  1.
         21   -1    0    0  501  502  0.00000000000E+00 -0.00000000000E+00 -0.67453019659E+02  0.67453019659E+02  0.00000000000E+00 0.  1.
        -13    1    1    2    0    0  0.91809613777E+02  0.17141432190E+03  0.80696921359E+03  0.83006698391E+03  0.10566000000E+00 0.  1.
         13    1    1    2    0    0 -0.79718859904E+02 -0.14990864152E+03  0.17390477371E+03  0.24304439699E+03  0.10566000000E+00 0. -1.
          4    1    1    2  501    0 -0.12090753873E+02 -0.21505680378E+02 -0.14201677708E+02  0.28466968006E+02  0.00000000000E+00 0.  1.
</event>
<event>
 5    1  0.2540860E-005  0.5159726E+02  0.7818608E-02  0.1285419E+00
          4   -1    0    0  502    0 -0.00000000000E+00  0.00000000000E+00  0.46676065473E+02  0.46676065473E+02  0.00000000000E+00 0.  1.
         21   -1    0    0  501  502  0.00000000000E+00 -0.00000000000E+00 -0.91061325306E+02  0.91061325306E+02  0.00000000000E+00 0. -1.
        -13    1    1    2    0    0 -0.38820993930E+02  0.28979508708E+02 -0.65039920928E+01  0.48879388006E+02  0.10566000000E+00 0.  1.
         13    1    1    2    0    0  0.49321235663E+02 -0.25546802283E+02 -0.69069913588E+01  0.55972681621E+02  0.10566000000E+00 0. -1.
          4    1    1    2  501    0 -0.10500241733E+02 -0.34327064254E+01 -0.30974276382E+02  0.32885321151E+02  0.00000000000E+00 0.  1.
</event>
<event>
 5    1  0.2540860E-005  0.4543619E+03  0.7818608E-02  0.9923607E-01
         -4   -1    0    0    0  501 -0.00000000000E+00  0.00000000000E+00  0.63141402262E+03  0.63141402262E+03  0.00000000000E+00 0. -1.
         21   -1    0    0  501  502  0.00000000000E+00 -0.00000000000E+00 -0.57127190037E+03  0.57127190037E+03  0.00000000000E+00 0.  1.
        -13    1    1    2    0    0 -0.12466051285E+03 -0.65795109308E+02  0.55706948651E+02  0.15156686698E+03  0.10566000000E+00 0.  1.
         13    1    1    2    0    0  0.45645882186E+03  0.17857502932E+03 -0.31028243940E+03  0.58010249139E+03  0.10566000000E+00 0. -1.
         -4    1    1    2    0  502 -0.33179830901E+03 -0.11277992002E+03  0.31471761299E+03  0.47101656462E+03  0.00000000000E+00 0. -1.
</event>
<event>
 5    1  0.2540860E-005  0.1216093E+03  0.7818608E-02  0.1133054E+00
         21   -1    0    0  501  502  0.00000000000E+00  0.00000000000E+00  0.56336362848E+03  0.56336362848E+03  0.00000000000E+00 0.  1.
         -4   -1    0    0    0  501 -0.00000000000E+00 -0.00000000000E+00 -0.36524085556E+03  0.36524085556E+03  0.00000000000E+00 0. -1.
        -13    1    1    2    0    0 -0.85140358486E+02  0.61721827725E+02  0.51745869470E+03  0.52803596142E+03  0.10566000000E+00 0.  1.
         13    1    1    2    0    0  0.10112654694E+03 -0.68133785678E+02 -0.34710000736E+03  0.36789566119E+03  0.10566000000E+00 0. -1.
         -4    1    1    2    0  502 -0.15986188454E+02  0.64119579527E+01  0.27764085575E+02  0.32672861429E+02  0.00000000000E+00 0. -1.
</event>
<event>
 5    1  0.2540860E-005  0.1614027E+03  0.7818608E-02  0.1100538E+00
         21   -1    0    0  501  502  0.00000000000E+00  0.00000000000E+00  0.46831207698E+03  0.46831207698E+03  0.00000000000E+00 0. -1.
         -4   -1    0    0    0  501 -0.00000000000E+00 -0.00000000000E+00 -0.21318893189E+03  0.21318893189E+03  0.00000000000E+00 0. -1.
        -13    1    1    2    0    0 -0.80393606581E+02  0.92142624693E+02  0.82031541892E+02  0.14725006042E+03  0.10566000000E+00 0.  1.
         13    1    1    2    0    0  0.39504592954E+02 -0.23916161287E+03 -0.65442915596E+02  0.25108101541E+03  0.10566000000E+00 0. -1.
         -4    1    1    2    0  502  0.40889013627E+02  0.14701898817E+03  0.23853451879E+03  0.28316993303E+03  0.00000000000E+00 0. -1.
</event>
<event>
 5    1  0.2540860E-005  0.4800616E+03  0.7818608E-02  0.9793931E-01
          4   -1    0    0  502    0 -0.00000000000E+00  0.00000000000E+00  0.24123094827E+04  0.24123094827E+04  0.00000000000E+00 0.  1.
         21   -1    0    0  501  502  0.00000000000E+00 -0.00000000000E+00 -0.15440515665E+03  0.15440515665E+03  0.00000000000E+00 0.  1.
        -13    1    1    2    0    0  0.18877244161E+03 -0.38305252932E+03  0.72939938154E+03  0.84521461409E+03  0.10566000000E+00 0.  1.
         13    1    1    2    0    0 -0.45490277552E+02 -0.17942112073E+03  0.20436208494E+03  0.27572663426E+03  0.10566000000E+00 0. -1.
          4    1    1    2  501    0 -0.14328216406E+03  0.56247365005E+03  0.13241428596E+04  0.14457733910E+04  0.00000000000E+00 0.  1.
</event>
<event>
 5    1  0.2540860E-005  0.4232381E+03  0.7818608E-02  0.9749540E-01
         21   -1    0    0  501  502  0.00000000000E+00  0.00000000000E+00  0.31869308870E+04  0.31869308870E+04  0.00000000000E+00 0. -1.
         -4   -1    0    0    0  501 -0.00000000000E+00 -0.00000000000E+00 -0.17488283421E+03  0.17488283421E+03  0.00000000000E+00 0. -1.
        -13    1    1    2    0    0  0.21962333063E+02 -0.31381065821E+03  0.22820736154E+03  0.38863618502E+03  0.10566000000E+00 0.  1.
         13    1    1    2    0    0  0.26744748982E+03 -0.24939419841E+03  0.14686358940E+04  0.15134784525E+04  0.10566000000E+00 0. -1.
         -4    1    1    2    0  502 -0.28940982288E+03  0.56320485662E+03  0.13152047972E+04  0.14596990836E+04  0.00000000000E+00 0. -1.
</event>
<event>
 5    1  0.4308261E-005  0.2226452E+03  0.7818608E-02  0.1056429E+00
         21   -1    0    0  501  502  0.00000000000E+00  0.00000000000E+00  0.28077109979E+03  0.28077109979E+03  0.00000000000E+00 0.  1.
         -4   -1    0    0    0  501 -0.00000000000E+00 -0.00000000000E+00 -0.14212866528E+04  0.14212866528E+04  0.00000000000E+00 0. -1.
        -13    1    1    2    0    0 -0.19556143602E+02 -0.16039940853E+03 -0.44736272762E+03  0.47565095841E+03  0.10566000000E+00 0.  1.
         13    1    1    2    0    0 -0.19438273135E+03  0.86880781930E+02 -0.89698191306E+03  0.92190535308E+03  0.10566000000E+00 0. -1.
         -4    1    1    2    0  502  0.21393887495E+03  0.73518626600E+02  0.20382908765E+03  0.30450144112E+03  0.00000000000E+00 0. -1.
</event>
<event>
 5    1  0.2540860E-005  0.5006524E+03  0.7818608E-02  0.9861602E-01
         21   -1    0    0  501  502  0.00000000000E+00  0.00000000000E+00  0.21484896396E+03  0.21484896396E+03  0.00000000000E+00 0. -1.
         -4   -1    0    0    0  501 -0.00000000000E+00 -0.00000000000E+00 -0.16731858394E+04  0.16731858394E+04  0.00000000000E+00 0. -1.
        -13    1    1    2    0    0 -0.11465070404E+03  0.60622666525E+02 -0.41811633106E+03  0.43776839664E+03  0.10566000000E+00 0.  1.
         13    1    1    2    0    0  0.52171129499E+03  0.16137729175E+03 -0.53394713127E+03  0.76375706594E+03  0.10566000000E+00 0. -1.
         -4    1    1    2    0  502 -0.40706059095E+03 -0.22199995827E+03 -0.50627341310E+03  0.68650934079E+03  0.00000000000E+00 0. -1.
</event>
<event>
 5    1  0.2540860E-005  0.3376110E+03  0.7818608E-02  0.9928887E-01
          4   -1    0    0  502    0 -0.00000000000E+00  0.00000000000E+00  0.94006852422E+03  0.94006852422E+03  0.00000000000E+00 0.  1.
         21   -1    0    0  501  502  0.00000000000E+00 -0.00000000000E+00 -0.52267066974E+03  0.52267066974E+03  0.00000000000E+00 0. -1.
        -13    1    1    2    0    0 -0.46512048411E+03 -0.11055536404E+03  0.41486805281E+03  0.63298899333E+03  0.10566000000E+00 0.  1.
         13    1    1    2    0    0  0.20834057663E+03  0.19261645297E+03  0.31039823276E+03  0.42054009071E+03  0.10566000000E+00 0. -1.
          4    1    1    2  501    0  0.25677990748E+03 -0.82061088930E+02 -0.30786843109E+03  0.40921010992E+03  0.00000000000E+00 0.  1.
</event>
<event>
 5    1  0.2540860E-005  0.4757084E+03  0.7818608E-02  0.9781607E-01
         21   -1    0    0  501  502  0.00000000000E+00  0.00000000000E+00  0.20233253991E+04  0.20233253991E+04  0.00000000000E+00 0.  1.
          4   -1    0    0  502    0 -0.00000000000E+00 -0.00000000000E+00 -0.17893956621E+03  0.17893956621E+03  0.00000000000E+00 0.  1.
        -13    1    1    2    0    0  0.26441625644E+03 -0.31685230082E+03  0.72678306362E+03  0.83577806261E+03  0.10566000000E+00 0.  1.
         13    1    1    2    0    0  0.19063350088E+03 -0.55042546782E+02  0.26947675038E+03  0.33464689416E+03  0.10566000000E+00 0. -1.
          4    1    1    2  501    0 -0.45504975732E+03  0.37189484761E+03  0.84812601894E+03  0.10318400086E+04  0.00000000000E+00 0.  1.
</event>
<event>
 5    1  0.2540860E-005  0.7455636E+03  0.7818608E-02  0.9059378E-01
         21   -1    0    0  501  502  0.00000000000E+00  0.00000000000E+00  0.58183763314E+03  0.58183763314E+03  0.00000000000E+00 0. -1.
          4   -1    0    0  502    0 -0.00000000000E+00 -0.00000000000E+00 -0.36951076228E+04  0.36951076228E+04  0.00000000000E+00 0.  1.
        -13    1    1    2    0    0  0.46056158920E+03 -0.27884577709E+03 -0.74224113966E+03  0.91694812581E+03  0.10566000000E+00 0.  1.
         13    1    1    2    0    0 -0.10559489677E+04  0.21213890527E+02 -0.24860913869E+04  0.27011346962E+04  0.10566000000E+00 0. -1.
          4    1    1    2  501    0  0.59538737847E+03  0.25763188657E+03  0.11506253699E+03  0.65886243392E+03  0.00000000000E+00 0.  1.
</event>
<event>
 5    1  0.2540860E-005  0.4236194E+03  0.7818608E-02  0.9807859E-01
         21   -1    0    0  501  502  0.00000000000E+00  0.00000000000E+00  0.49516951681E+03  0.49516951681E+03  0.00000000000E+00 0.  1.
          4   -1    0    0  502    0 -0.00000000000E+00 -0.00000000000E+00 -0.90176641006E+03  0.90176641006E+03  0.00000000000E+00 0.  1.
        -13    1    1    2    0    0 -0.42142077051E+03  0.34192010540E+03 -0.34875870153E+03  0.64508717810E+03  0.10566000000E+00 0.  1.
         13    1    1    2    0    0  0.29314239296E+02 -0.25519475666E+03 -0.20030999878E+03  0.32574191506E+03  0.10566000000E+00 0. -1.
          4    1    1    2  501    0  0.39210653121E+03 -0.86725348732E+02  0.14247180706E+03  0.42610683372E+03  0.00000000000E+00 0.  1.
</event>
<event>
 5    1  0.2540860E-005  0.5774795E+03  0.7818608E-02  0.9322625E-01
         -4   -1    0    0    0  501 -0.00000000000E+00  0.00000000000E+00  0.20096072212E+04  0.20096072212E+04  0.00000000000E+00 0. -1.
         21   -1    0    0  501  502  0.00000000000E+00 -0.00000000000E+00 -0.66414842136E+03  0.66414842136E+03  0.00000000000E+00 0. -1.
        -13    1    1    2    0    0  0.34065862488E+03 -0.48910394105E+03  0.13901696694E+04  0.15125616300E+04  0.10566000000E+00 0.  1.
         13    1    1    2    0    0 -0.63483105979E+03  0.84646042440E+02 -0.13092243711E+03  0.65369421190E+03  0.10566000000E+00 0. -1.
         -4    1    1    2    0  502  0.29417243491E+03  0.40445789861E+03  0.86211567541E+02  0.50749980057E+03  0.00000000000E+00 0. -1.
</event>
<event>
 5    1  0.2540860E-005  0.1302070E+03  0.7818608E-02  0.1131252E+00
          4   -1    0    0  502    0 -0.00000000000E+00  0.00000000000E+00  0.54402358917E+03  0.54402358917E+03  0.00000000000E+00 0.  1.
         21   -1    0    0  501  502  0.00000000000E+00 -0.00000000000E+00 -0.12176083029E+03  0.12176083029E+03  0.00000000000E+00 0.  1.
        -13    1    1    2    0    0  0.10512298871E+03  0.87880645792E+02  0.58693361202E+01  0.13714339550E+03  0.10566000000E+00 0.  1.
         13    1    1    2    0    0  0.18870208179E+02 -0.10201846747E+03  0.10831947027E+02  0.10431296517E+03  0.10566000000E+00 0. -1.
          4    1    1    2  501    0 -0.12399319689E+03  0.14137821676E+02  0.40556147573E+03  0.42432805879E+03  0.00000000000E+00 0.  1.
</event>
<event>
 5    1  0.2540860E-005  0.1253997E+03  0.7818608E-02  0.1128268E+00
         21   -1    0    0  501  502  0.00000000000E+00  0.00000000000E+00  0.54886058035E+02  0.54886058035E+02  0.00000000000E+00 0.  1.
          4   -1    0    0  502    0 -0.00000000000E+00 -0.00000000000E+00 -0.90635760840E+03  0.90635760840E+03  0.00000000000E+00 0.  1.
        -13    1    1    2    0    0  0.19362261674E+02  0.18474815740E+03 -0.32294217957E+03  0.37255662838E+03  0.10566000000E+00 0.  1.
         13    1    1    2    0    0  0.45480207572E+01 -0.11059771479E+03 -0.48890590168E+03  0.50127989274E+03  0.10566000000E+00 0. -1.
          4    1    1    2  501    0 -0.23910282431E+02 -0.74150442617E+02 -0.39623469115E+02  0.87407145308E+02  0.00000000000E+00 0.  1.
</event>
<event>
 5    1  0.2540860E-005  0.4648680E+03  0.7818608E-02  0.9841016E-01
         21   -1    0    0  501  502  0.00000000000E+00  0.00000000000E+00  0.61462306597E+03  0.61462306597E+03  0.00000000000E+00 0.  1.
          4   -1    0    0  502    0 -0.00000000000E+00 -0.00000000000E+00 -0.87552226555E+03  0.87552226555E+03  0.00000000000E+00 0.  1.
        -13    1    1    2    0    0 -0.46977030962E+03 -0.20799862867E+03  0.35265899387E+03  0.62315002242E+03  0.10566000000E+00 0.  1.
         13    1    1    2    0    0  0.17367475006E+03 -0.40563367611E+00 -0.42422155610E+03  0.45839614219E+03  0.10566000000E+00 0. -1.
          4    1    1    2  501    0  0.29609555956E+03  0.20840426235E+03 -0.18933663736E+03  0.40859916691E+03  0.00000000000E+00 0.  1.
</event>
<event>
 5    1  0.2540860E-005  0.4954136E+03  0.7818608E-02  0.9578733E-01
         21   -1    0    0  501  502  0.00000000000E+00  0.00000000000E+00  0.32446611813E+03  0.32446611813E+03  0.00000000000E+00 0.  1.
          4   -1    0    0  502    0 -0.00000000000E+00 -0.00000000000E+00 -0.17162345093E+04  0.17162345093E+04  0.00000000000E+00 0.  1.
        -13    1    1    2    0    0 -0.42898048870E+03 -0.60456907046E+02 -0.48669446225E+03  0.65157563493E+03  0.10566000000E+00 0.  1.
         13    1    1    2    0    0  0.15154017773E+02 -0.35689217858E+03 -0.66376421232E+03  0.75378021473E+03  0.10566000000E+00 0. -1.
          4    1    1    2  501    0  0.41382647092E+03  0.41734908563E+03 -0.24130971660E+03  0.63534477777E+03  0.00000000000E+00 0.  1.
</event>
<event>
 5    1  0.2540860E-005  0.6186190E+02  0.7818608E-02  0.1249850E+00
         21   -1    0    0  501  502  0.00000000000E+00  0.00000000000E+00  0.19922107104E+02  0.19922107104E+02  0.00000000000E+00 0.  1.
          4   -1    0    0  502    0 -0.00000000000E+00 -0.00000000000E+00 -0.27028324938E+03  0.27028324938E+03  0.00000000000E+00 0.  1.
        -13    1    1    2    0    0  0.62031824092E+02 -0.97888902400E+01 -0.10759827168E+03  0.12458398294E+03  0.10566000000E+00 0.  1.
         13    1    1    2    0    0 -0.61711188352E+02 -0.61724954748E+01 -0.13340436456E+03  0.14711596145E+03  0.10566000000E+00 0. -1.
          4    1    1    2  501    0 -0.32063573982E+00  0.15961385715E+02 -0.93585060332E+01  0.18505412084E+02  0.00000000000E+00 0.  1.
</event>
<event>
 5    1  0.2540860E-005  0.1495612E+02  0.7818608E-02  0.1600239E+00
         21   -1    0    0  501  502  0.00000000000E+00  0.00000000000E+00  0.88350659666E+03  0.88350659666E+03  0.00000000000E+00 0.  1.
          4   -1    0    0  502    0 -0.00000000000E+00 -0.00000000000E+00 -0.21147204543E+01  0.21147204543E+01  0.00000000000E+00 0.  1.
        -13    1    1    2    0    0 -0.10606067786E+02  0.61433508720E+01  0.37354781003E+02  0.39314377289E+02  0.10566000000E+00 0.  1.
         13    1    1    2    0    0  0.86685420704E+01 -0.20973440452E+02  0.12068723511E+03  0.12280247843E+03  0.10566000000E+00 0. -1.
          4    1    1    2  501    0  0.19375257151E+01  0.14830089580E+02  0.72334986009E+03  0.72350446139E+03  0.00000000000E+00 0.  1.
</event>
<event>
 5    1  0.2540860E-005  0.4901744E+03  0.7818608E-02  0.9696498E-01
         21   -1    0    0  501  502  0.00000000000E+00  0.00000000000E+00  0.31997229610E+03  0.31997229610E+03  0.00000000000E+00 0. -1.
         -4   -1    0    0    0  501 -0.00000000000E+00 -0.00000000000E+00 -0.15394342083E+04  0.15394342083E+04  0.00000000000E+00 0. -1.
        -13    1    1    2    0    0 -0.18903027606E+03 -0.15330714960E+03 -0.65283442849E+03  0.69672686870E+03  0.10566000000E+00 0.  1.
         13    1    1    2    0    0  0.47236973949E+03 -0.23128668356E+03 -0.20904951182E+03  0.56597562698E+03  0.10566000000E+00 0. -1.
         -4    1    1    2    0  502 -0.28333946343E+03  0.38459383316E+03 -0.35757797187E+03  0.59670400871E+03  0.00000000000E+00 0. -1.
</event>
<event>
 5    1  0.2540860E-005  0.3177262E+03  0.7818608E-02  0.1008143E+00
          4   -1    0    0  502    0 -0.00000000000E+00  0.00000000000E+00  0.25933531081E+04  0.25933531081E+04  0.00000000000E+00 0.  1.
         21   -1    0    0  501  502  0.00000000000E+00 -0.00000000000E+00 -0.10851570218E+03  0.10851570218E+03  0.00000000000E+00 0.  1.
        -13    1    1    2    0    0  0.20592881874E+02  0.25430141185E+03  0.56663638607E+03  0.62142584436E+03  0.10566000000E+00 0.  1.
         13    1    1    2    0    0  0.23781152192E+03  0.62158139301E+02  0.13956702587E+04  0.14171497579E+04  0.10566000000E+00 0. -1.
          4    1    1    2  501    0 -0.25840440379E+03 -0.31645955115E+03  0.52253076117E+03  0.66329320801E+03  0.00000000000E+00 0.  1.
</event>
<event>
 5    1  0.2540860E-005  0.4767599E+03  0.7818608E-02  0.1029768E+00
         -4   -1    0    0    0  501 -0.00000000000E+00  0.00000000000E+00  0.23793521189E+03  0.23793521189E+03  0.00000000000E+00 0. -1.
         21   -1    0    0  501  502  0.00000000000E+00 -0.00000000000E+00 -0.18733924665E+04  0.18733924665E+04  0.00000000000E+00 0. -1.
        -13    1    1    2    0    0  0.10538066477E+02  0.35205570314E+02  0.98273471465E+02  0.10491982360E+03  0.10566000000E+00 0.  1.
         13    1    1    2    0    0  0.21522228038E+03  0.41176912275E+03 -0.11315473689E+04  0.12232227514E+04  0.10566000000E+00 0. -1.
         -4    1    1    2    0  502 -0.22576034686E+03 -0.44697469306E+03 -0.60218335720E+03  0.78318510337E+03  0.00000000000E+00 0. -1.
</event>
<event>
 5    1  0.2540860E-005  0.4795018E+03  0.7818608E-02  0.1029231E+00
         -4   -1    0    0    0  501 -0.00000000000E+00  0.00000000000E+00  0.18395193425E+04  0.18395193425E+04  0.00000000000E+00 0. -1.
         21   -1    0    0  501  502  0.00000000000E+00 -0.00000000000E+00 -0.15996758152E+03  0.15996758152E+03  0.00000000000E+00 0. -1.
        -13    1    1    2    0    0 -0.19233381797E+02 -0.31287477835E+02  0.79575133908E+02  0.87641556040E+02  0.10566000000E+00 0.  1.
         13    1    1    2    0    0  0.42967159914E+03 -0.21619982940E+03  0.11812150128E+04  0.12753936518E+04  0.10566000000E+00 0. -1.
         -4    1    1    2    0  502 -0.41043821734E+03  0.24748730724E+03  0.41876161430E+03  0.63645171624E+03  0.00000000000E+00 0. -1.
</event>
<event>
 5    1  0.2540860E-005  0.4775361E+03  0.7818608E-02  0.9805199E-01
         21   -1    0    0  501  502  0.00000000000E+00  0.00000000000E+00  0.67614761120E+03  0.67614761120E+03  0.00000000000E+00 0. -1.
         -4   -1    0    0    0  501 -0.00000000000E+00 -0.00000000000E+00 -0.53819514749E+03  0.53819514749E+03  0.00000000000E+00 0. -1.
        -13    1    1    2    0    0  0.13942233261E+03 -0.11534919987E+03  0.14051748041E+03  0.22910521209E+03  0.10566000000E+00 0.  1.
         13    1    1    2    0    0 -0.82270086570E+02  0.52503934152E+03  0.13673670197E+03  0.54875460282E+03  0.10566000000E+00 0. -1.
         -4    1    1    2    0  502 -0.57152246038E+02 -0.40969014165E+03 -0.13930171867E+03  0.43648294379E+03  0.00000000000E+00 0. -1.
</event>
<event>
 5    1  0.2540860E-005  0.4892305E+03  0.7818608E-02  0.9619404E-01
         21   -1    0    0  501  502  0.00000000000E+00  0.00000000000E+00  0.55804562414E+03  0.55804562414E+03  0.00000000000E+00 0. -1.
         -4   -1    0    0    0  501 -0.00000000000E+00 -0.00000000000E+00 -0.87128524779E+03  0.87128524779E+03  0.00000000000E+00 0. -1.
        -13    1    1    2    0    0 -0.31908898152E+03 -0.34558818656E+02  0.72338281805E+02  0.32900596994E+03  0.10566000000E+00 0.  1.
         13    1    1    2    0    0 -0.32338682483E+03  0.12821681239E+03 -0.27111393345E+03  0.44104576353E+03  0.10566000000E+00 0. -1.
         -4    1    1    2    0  502  0.64247580635E+03 -0.93657993737E+02 -0.11446397200E+03  0.65927913847E+03  0.00000000000E+00 0. -1.
</event>
<event>
 5    1  0.2540860E-005  0.2573749E+03  0.7818608E-02  0.1097806E+00
         -4   -1    0    0    0  501 -0.00000000000E+00  0.00000000000E+00  0.11986405241E+04  0.11986405241E+04  0.00000000000E+00 0. -1.
         21   -1    0    0  501  502  0.00000000000E+00 -0.00000000000E+00 -0.65337878448E+02  0.65337878448E+02  0.00000000000E+00 0. -1.
        -13    1    1    2    0    0  0.11224287854E+02  0.30478111306E+02  0.36672908670E+02  0.48987889330E+02  0.10566000000E+00 0.  1.
         13    1    1    2    0    0 -0.16204665911E+03 -0.22287132207E+03  0.64614784030E+03  0.70245127135E+03  0.10566000000E+00 0. -1.
         -4    1    1    2    0  502  0.15082237126E+03  0.19239321077E+03  0.45048189671E+03  0.51253924189E+03  0.00000000000E+00 0. -1.
</event>
<event>
 5    1  0.2540860E-005  0.3911804E+03  0.7818608E-02  0.9754868E-01
          4   -1    0    0  502    0 -0.00000000000E+00  0.00000000000E+00  0.33940240556E+04  0.33940240556E+04  0.00000000000E+00 0.  1.
         21   -1    0    0  501  502  0.00000000000E+00 -0.00000000000E+00 -0.78569491354E+02  0.78569491354E+02  0.00000000000E+00 0. -1.
        -13    1    1    2    0    0  0.38435318364E+02 -0.40870299420E+03  0.21645320839E+04  0.22031147416E+04  0.10566000000E+00 0.  1.
         13    1    1    2    0    0  0.16676323901E+02  0.36450565972E+03  0.11412647707E+04  0.11981768500E+04  0.10566000000E+00 0. -1.
          4    1    1    2  501    0 -0.55111642265E+02  0.44197334481E+02  0.96577096151E+01  0.71301955397E+02  0.00000000000E+00 0.  1.
</event>
<event>
 5    1  0.2540860E-005  0.5136648E+03  0.7818608E-02  0.9484306E-01
         -4   -1    0    0    0  501 -0.00000000000E+00  0.00000000000E+00  0.11757324725E+04  0.11757324725E+04  0.00000000000E+00 0. -1.
         21   -1    0    0  501  502  0.00000000000E+00 -0.00000000000E+00 -0.74387337067E+03  0.74387337067E+03  0.00000000000E+00 0. -1.
        -13    1    1    2    0    0 -0.16009929221E+03  0.52453441078E+03  0.53270470509E+03  0.76455375576E+03  0.10566000000E+00 0.  1.
         13    1    1    2    0    0  0.11768805647E+03  0.13777390752E+03  0.32103922991E+03  0.36864390207E+03  0.10566000000E+00 0. -1.
         -4    1    1    2    0  502  0.42411235745E+02 -0.66230831831E+03 -0.42188483320E+03  0.78640818530E+03  0.00000000000E+00 0. -1.
</event>
<event>
 5    1  0.2881283E-005  0.2397859E+03  0.7818608E-02  0.1055867E+00
          4   -1    0    0  502    0 -0.00000000000E+00  0.00000000000E+00  0.26614852210E+03  0.26614852210E+03  0.00000000000E+00 0.  1.
         21   -1    0    0  501  502  0.00000000000E+00 -0.00000000000E+00 -0.17114460826E+04  0.17114460826E+04  0.00000000000E+00 0.  1.
        -13    1    1    2    0    0  0.28430537835E+03 -0.13456757495E+03 -0.30381015475E+02  0.31600790758E+03  0.10566000000E+00 0.  1.
         13    1    1    2    0    0 -0.12521509482E+03 -0.40203828738E+02  0.76109308898E+02  0.15194672053E+03  0.10566000000E+00 0. -1.
          4    1    1    2  501    0 -0.15909028353E+03  0.17477140369E+03 -0.14910258539E+04  0.15096399766E+04  0.00000000000E+00 0.  1.
</event>
<event>
 5    1  0.2540860E-005  0.3252625E+03  0.7818608E-02  0.9973912E-01
          4   -1    0    0  502    0 -0.00000000000E+00  0.00000000000E+00  0.41626068304E+04  0.41626068304E+04  0.00000000000E+00 0.  1.
         21   -1    0    0  501  502  0.00000000000E+00 -0.00000000000E+00 -0.47704501399E+02  0.47704501399E+02  0.00000000000E+00 0. -1.
        -13    1    1    2    0    0  0.65553854958E+02  0.28732155066E+03  0.11999090299E+04  0.12355697765E+04  0.10566000000E+00 0.  1.
         13    1    1    2    0    0 -0.27281246431E+03 -0.26968179141E+03  0.19919565772E+04  0.20285575974E+04  0.10566000000E+00 0. -1.
          4    1    1    2  501    0  0.20725860935E+03 -0.17639759249E+02  0.92303672194E+03  0.94618395796E+03  0.00000000000E+00 0.  1.
</event>
<event>
 5    1  0.2540860E-005  0.4148312E+02  0.7818608E-02  0.1330965E+00
         -4   -1    0    0    0  501 -0.00000000000E+00  0.00000000000E+00  0.13971953879E+02  0.13971953879E+02  0.00000000000E+00 0. -1.
         21   -1    0    0  501  502  0.00000000000E+00 -0.00000000000E+00 -0.22896607642E+03  0.22896607642E+03  0.00000000000E+00 0.  1.
        -13    1    1    2    0    0  0.16540888401E+02 -0.24492269743E+02 -0.10149393503E+03  0.10570951839E+03  0.10566000000E+00 0.  1.
         13    1    1    2    0    0 -0.40439071747E+02  0.29562573028E+02 -0.58304724209E+02  0.76868174669E+02  0.10566000000E+00 0. -1.
         -4    1    1    2    0  502  0.23898183346E+02 -0.50703032855E+01 -0.55195463308E+02  0.60360337246E+02  0.00000000000E+00 0. -1.
</event>
<event>
 5    1  0.2540860E-005  0.8128938E+03  0.7818608E-02  0.8973588E-01
         21   -1    0    0  501  502  0.00000000000E+00  0.00000000000E+00  0.56235530451E+03  0.56235530451E+03  0.00000000000E+00 0.  1.
          4   -1    0    0  502    0 -0.00000000000E+00 -0.00000000000E+00 -0.21539079306E+04  0.21539079306E+04  0.00000000000E+00 0.  1.
        -13    1    1    2    0    0  0.46103532756E+03 -0.74904825930E+03 -0.44120324766E+03  0.98401584587E+03  0.10566000000E+00 0.  1.
         13    1    1    2    0    0 -0.54691554221E+02  0.81036670105E+03 -0.10141902953E+04  0.12993334147E+04  0.10566000000E+00 0. -1.
          4    1    1    2  501    0 -0.40634377334E+03 -0.61318441755E+02 -0.13615908309E+03  0.43291397453E+03  0.00000000000E+00 0.  1.
</event>
<event>
 5    1  0.2540860E-005  0.1653314E+03  0.7818608E-02  0.1086903E+00
         21   -1    0    0  501  502  0.00000000000E+00  0.00000000000E+00  0.60163683968E+03  0.60163683968E+03  0.00000000000E+00 0.  1.
          4   -1    0    0  502    0 -0.00000000000E+00 -0.00000000000E+00 -0.60174965732E+02  0.60174965732E+02  0.00000000000E+00 0.  1.
        -13    1    1    2    0    0 -0.10750947198E+03 -0.12843157131E+03  0.14430068431E+03  0.22107838820E+03  0.10566000000E+00 0.  1.
         13    1    1    2    0    0  0.11486883841E+03  0.11436769516E+03  0.28849613196E+03  0.33091516897E+03  0.10566000000E+00 0. -1.
          4    1    1    2  501    0 -0.73593664270E+01  0.14063876147E+02  0.10866505767E+03  0.10981824823E+03  0.00000000000E+00 0.  1.
</event>
<event>
 5    1  0.2540860E-005  0.5829874E+02  0.7818608E-02  0.1265605E+00
         21   -1    0    0  501  502  0.00000000000E+00  0.00000000000E+00  0.11743450990E+03  0.11743450990E+03  0.00000000000E+00 0. -1.
          4   -1    0    0  502    0 -0.00000000000E+00 -0.00000000000E+00 -0.93840043957E+02  0.93840043957E+02  0.00000000000E+00 0.  1.
        -13    1    1    2    0    0 -0.58759263855E+02 -0.82758966015E+01 -0.25635407495E+02  0.64639978611E+02  0.10566000000E+00 0.  1.
         13    1    1    2    0    0  0.30058734462E+02  0.62056079840E+02  0.10938804549E+01  0.68961527688E+02  0.10566000000E+00 0. -1.
          4    1    1    2  501    0  0.28700529394E+02 -0.53780183239E+02  0.48135992986E+02  0.77673047561E+02  0.00000000000E+00 0.  1.
</event>
<event>
 5    1  0.2540860E-005  0.2547866E+03  0.7818608E-02  0.1038266E+00
         -4   -1    0    0    0  501 -0.00000000000E+00  0.00000000000E+00  0.10690984830E+04  0.10690984830E+04  0.00000000000E+00 0. -1.
         21   -1    0    0  501  502  0.00000000000E+00 -0.00000000000E+00 -0.72953524278E+03  0.72953524278E+03  0.00000000000E+00 0. -1.
        -13    1    1    2    0    0  0.29330782795E+02  0.18322392640E+03  0.69074490799E+03  0.71523411629E+03  0.10566000000E+00 0.  1.
         13    1    1    2    0    0  0.22364414438E+03 -0.12667904880E+03  0.29255870460E+03  0.38942893000E+03  0.10566000000E+00 0. -1.
         -4    1    1    2    0  502 -0.25297492718E+03 -0.56544877602E+02 -0.64374037237E+03  0.69397067948E+03  0.00000000000E+00 0. -1.
</event>
<event>
 5    1  0.2540860E-005  0.5034293E+03  0.7818608E-02  0.9572210E-01
         -4   -1    0    0    0  501 -0.00000000000E+00  0.00000000000E+00  0.31340505885E+04  0.31340505885E+04  0.00000000000E+00 0. -1.
         21   -1    0    0  501  502  0.00000000000E+00 -0.00000000000E+00 -0.15966939853E+03  0.15966939853E+03  0.00000000000E+00 0. -1.
        -13    1    1    2    0    0  0.26908399543E+03  0.22139185397E+03  0.72868790623E+03  0.80771692161E+03  0.10566000000E+00 0.  1.
         13    1    1    2    0    0  0.31116822365E+03 -0.33813165993E+03  0.11911447225E+04  0.12767084412E+04  0.10566000000E+00 0. -1.
         -4    1    1    2    0  502 -0.58025221908E+03  0.11673980596E+03  0.10545485612E+04  0.12092946242E+04  0.00000000000E+00 0. -1.
</event>
<event>
 5    1  0.2540860E-005  0.3458684E+02  0.7818608E-02  0.1371461E+00
          4   -1    0    0  502    0 -0.00000000000E+00  0.00000000000E+00  0.45161104859E+01  0.45161104859E+01  0.00000000000E+00 0.  1.
         21   -1    0    0  501  502  0.00000000000E+00 -0.00000000000E+00 -0.67870269275E+03  0.67870269275E+03  0.00000000000E+00 0. -1.
        -13    1    1    2    0    0 -0.22499604499E+02 -0.38265951911E+02 -0.15564746183E+03  0.16185381928E+03  0.10566000000E+00 0.  1.
         13    1    1    2    0    0  0.10565215327E+02  0.23636444513E+02 -0.14121213609E+03  0.14356595637E+03  0.10566000000E+00 0. -1.
          4    1    1    2  501    0  0.11934389172E+02  0.14629507398E+02 -0.37732698434E+03  0.37779902758E+03  0.00000000000E+00 0.  1.
</event>
<event>
 5    1  0.2540860E-005  0.2829910E+03  0.7818608E-02  0.1014584E+00
         21   -1    0    0  501  502  0.00000000000E+00  0.00000000000E+00  0.84319135026E+02  0.84319135026E+02  0.00000000000E+00 0. -1.
          4   -1    0    0  502    0 -0.00000000000E+00 -0.00000000000E+00 -0.14959097345E+04  0.14959097345E+04  0.00000000000E+00 0.  1.
        -13    1    1    2    0    0  0.27945821067E+03  0.19033886983E+02 -0.10861904698E+04  0.11217258704E+04  0.10566000000E+00 0.  1.
         13    1    1    2    0    0 -0.29133828367E+03 -0.17917713444E+02 -0.33416676714E+03  0.44369638201E+03  0.10566000000E+00 0. -1.
          4    1    1    2  501    0  0.11880072995E+02 -0.11161735392E+01  0.87666375005E+01  0.14806617129E+02  0.00000000000E+00 0.  1.
</event>
<event>
 5    1  0.2540860E-005  0.4972020E+03  0.7818608E-02  0.9485419E-01
         -4   -1    0    0    0  501 -0.00000000000E+00  0.00000000000E+00  0.17913477876E+04  0.17913477876E+04  0.00000000000E+00 0. -1.
         21   -1    0    0  501  502  0.00000000000E+00 -0.00000000000E+00 -0.49241029596E+03  0.49241029596E+03  0.00000000000E+00 0. -1.
        -13    1    1    2    0    0 -0.43198472867E+03  0.24141025088E+03  0.10254497428E+04  0.11386118307E+04  0.10566000000E+00 0.  1.
         13    1    1    2    0    0 -0.26406324869E+03 -0.20155459572E+03  0.29978161691E+03  0.44746249381E+03  0.10566000000E+00 0. -1.
         -4    1    1    2    0  502  0.69604797736E+03 -0.39855655163E+02 -0.26293868065E+02  0.69768375897E+03  0.00000000000E+00 0. -1.
</event>
<event>
 5    1  0.2540860E-005  0.4906647E+03  0.7818608E-02  0.1007797E+00
         21   -1    0    0  501  502  0.00000000000E+00  0.00000000000E+00  0.23865361285E+03  0.23865361285E+03  0.00000000000E+00 0.  1.
          4   -1    0    0  502    0 -0.00000000000E+00 -0.00000000000E+00 -0.12952747245E+04  0.12952747245E+04  0.00000000000E+00 0.  1.
        -13    1    1    2    0    0  0.89772823018E+02 -0.44596254409E+03 -0.45660886988E+03  0.64454124903E+03  0.10566000000E+00 0.  1.
         13    1    1    2    0    0  0.84083169022E+01 -0.66965205442E+02 -0.25426062761E+03  0.26306561244E+03  0.10566000000E+00 0. -1.
          4    1    1    2  501    0 -0.98181139920E+02  0.51292774953E+03 -0.34575161418E+03  0.62632147591E+03  0.00000000000E+00 0.  1.
</event>
<event>
 5    1  0.2540860E-005  0.8592827E+02  0.7818608E-02  0.1207285E+00
         -4   -1    0    0    0  501 -0.00000000000E+00  0.00000000000E+00  0.19667608869E+03  0.19667608869E+03  0.00000000000E+00 0. -1.
         21   -1    0    0  501  502  0.00000000000E+00 -0.00000000000E+00 -0.62813346525E+03  0.62813346525E+03  0.00000000000E+00 0. -1.
        -13    1    1    2    0    0  0.41468594947E+02  0.40830488352E+02 -0.74856284191E+02  0.94816916175E+02  0.10566000000E+00 0.  1.
         13    1    1    2    0    0 -0.12506160072E+03 -0.23769458349E+02  0.16109041476E+03  0.20531810445E+03  0.10566000000E+00 0. -1.
         -4    1    1    2    0  502  0.83593005769E+02 -0.17061030003E+02 -0.51769150713E+03  0.52467453332E+03  0.00000000000E+00 0. -1.
</event>
<event>
 5    1  0.2540860E-005  0.4658618E+03  0.7818608E-02  0.9556108E-01
         21   -1    0    0  501  502  0.00000000000E+00  0.00000000000E+00  0.21194766065E+03  0.21194766065E+03  0.00000000000E+00 0. -1.
          4   -1    0    0  502    0 -0.00000000000E+00 -0.00000000000E+00 -0.18666206575E+04  0.18666206575E+04  0.00000000000E+00 0.  1.
        -13    1    1    2    0    0 -0.34090385629E+03 -0.35292622501E+03 -0.53592647136E+03  0.72662889662E+03  0.10566000000E+00 0.  1.
         13    1    1    2    0    0  0.29365636796E+03  0.34781983551E+03 -0.11855611392E+04  0.12699480014E+04  0.10566000000E+00 0. -1.
          4    1    1    2  501    0  0.47247488335E+02  0.51063895016E+01  0.66814613695E+02  0.81991420106E+02  0.00000000000E+00 0.  1.
</event>
<event>
 5    1  0.2540860E-005  0.3645917E+03  0.7818608E-02  0.9837277E-01
         21   -1    0    0  501  502  0.00000000000E+00  0.00000000000E+00  0.35275138413E+03  0.35275138413E+03  0.00000000000E+00 0. -1.
          4   -1    0    0  502    0 -0.00000000000E+00 -0.00000000000E+00 -0.13986468712E+04  0.13986468712E+04  0.00000000000E+00 0.  1.
        -13    1    1    2    0    0  0.39287480066E+03  0.28838706307E+01 -0.94188375144E+03  0.10205410027E+04  0.10566000000E+00 0.  1.
         13    1    1    2    0    0 -0.29482146321E+03 -0.17060324257E+03 -0.30072449155E+03  0.45437912862E+03  0.10566000000E+00 0. -1.
          4    1    1    2  501    0 -0.98053337452E+02  0.16771937194E+03  0.19671275595E+03  0.27647812402E+03  0.00000000000E+00 0.  1.
</event>
<event>
 5    1  0.2540860E-005  0.1765966E+03  0.7818608E-02  0.1077484E+00
         -4   -1    0    0    0  501 -0.00000000000E+00  0.00000000000E+00  0.10634957678E+03  0.10634957678E+03  0.00000000000E+00 0. -1.
         21   -1    0    0  501  502  0.00000000000E+00 -0.00000000000E+00 -0.20383975443E+04  0.20383975443E+04  0.00000000000E+00 0. -1.
        -13    1    1    2    0    0 -0.47327138846E+02 -0.14378754360E+03 -0.16235727929E+03  0.22197885725E+03  0.10566000000E+00 0.  1.
         13    1    1    2    0    0  0.56051469253E+02  0.18422107864E+03 -0.45215333839E+02  0.19779689229E+03  0.10566000000E+00 0. -1.
         -4    1    1    2    0  502 -0.87243304077E+01 -0.40433535044E+02 -0.17244753544E+04  0.17249713715E+04  0.00000000000E+00 0. -1.
</event>
<event>
 5    1  0.2540860E-005  0.4895864E+03  0.7818608E-02  0.9698101E-01
          4   -1    0    0  502    0 -0.00000000000E+00  0.00000000000E+00  0.95017577721E+03  0.95017577721E+03  0.00000000000E+00 0.  1.
         21   -1    0    0  501  502  0.00000000000E+00 -0.00000000000E+00 -0.50505703423E+03  0.50505703423E+03  0.00000000000E+00 0.  1.
        -13    1    1    2    0    0 -0.10731176690E+03  0.45907119622E+03  0.40358658347E+03  0.62059996780E+03  0.10566000000E+00 0.  1.
         13    1    1    2    0    0  0.23754924874E+03  0.50705000920E+02 -0.13718005935E+03  0.27896061110E+03  0.10566000000E+00 0. -1.
          4    1    1    2  501    0 -0.13023748185E+03 -0.50977619714E+03  0.17871221886E+03  0.55567223254E+03  0.00000000000E+00 0.  1.
</event>
<event>
 5    1  0.2540860E-005  0.4014340E+03  0.7818608E-02  0.9806365E-01
         21   -1    0    0  501  502  0.00000000000E+00  0.00000000000E+00  0.19335689032E+03  0.19335689032E+03  0.00000000000E+00 0. -1.
         -4   -1    0    0    0  501 -0.00000000000E+00 -0.00000000000E+00 -0.23801237989E+04  0.23801237989E+04  0.00000000000E+00 0. -1.
        -13    1    1    2    0    0  0.15213148567E+03  0.26250244968E+03 -0.56355211654E+03  0.64003322120E+03  0.10566000000E+00 0.  1.
         13    1    1    2    0    0 -0.25923208041E+03 -0.58749133082E+03 -0.13522498063E+04  0.14969725733E+04  0.10566000000E+00 0. -1.
         -4    1    1    2    0  502  0.10710059473E+03  0.32498888114E+03 -0.27096498574E+03  0.43647489476E+03  0.00000000000E+00 0. -1.
</event>
<event>
 5    1  0.2540860E-005  0.3940708E+03  0.7818608E-02  0.9929797E-01
          4   -1    0    0  502    0 -0.00000000000E+00  0.00000000000E+00  0.37561919808E+03  0.37561919808E+03  0.00000000000E+00 0.  1.
         21   -1    0    0  501  502  0.00000000000E+00 -0.00000000000E+00 -0.11765495880E+04  0.11765495880E+04  0.00000000000E+00 0.  1.
        -13    1    1    2    0    0  0.15042063303E+02 -0.34915354294E+03 -0.60714851378E+03  0.70054535125E+03  0.10566000000E+00 0.  1.
         13    1    1    2    0    0  0.12068983219E+02 -0.21131079934E+03  0.81263317927E+02  0.22671932489E+03  0.10566000000E+00 0. -1.
          4    1    1    2  501    0 -0.27111046522E+02  0.56046434228E+03 -0.27504519406E+03  0.62490410992E+03  0.00000000000E+00 0.  1.
</event>
<event>
 5    1  0.2540860E-005  0.4259944E+03  0.7818608E-02  0.9725115E-01
         21   -1    0    0  501  502  0.00000000000E+00  0.00000000000E+00  0.47803763285E+03  0.47803763285E+03  0.00000000000E+00 0.  1.
          4   -1    0    0  502    0 -0.00000000000E+00 -0.00000000000E+00 -0.10105182025E+04  0.10105182025E+04  0.00000000000E+00 0.  1.
        -13    1    1    2    0    0  0.11000300528E+03 -0.14523865873E+03 -0.50161100129E+03  0.53367456089E+03  0.10566000000E+00 0.  1.
         13    1    1    2    0    0  0.88944658545E+02 -0.32369452955E+03 -0.23110140592E+03  0.40755020762E+03  0.10566000000E+00 0. -1.
          4    1    1    2  501    0 -0.19894766382E+03  0.46893318828E+03  0.20023183752E+03  0.54733106688E+03  0.00000000000E+00 0.  1.
</event>
<event>
 5    1  0.2540860E-005  0.1830392E+03  0.7818608E-02  0.1072429E+00
          4   -1    0    0  502    0 -0.00000000000E+00  0.00000000000E+00  0.23698162100E+03  0.23698162100E+03  0.00000000000E+00 0.  1.
         21   -1    0    0  501  502  0.00000000000E+00 -0.00000000000E+00 -0.69061658939E+03  0.69061658939E+03  0.00000000000E+00 0.  1.
        -13    1    1    2    0    0  0.18117751403E+03 -0.41559945514E+02  0.16474583720E+03  0.24838221092E+03  0.10566000000E+00 0.  1.
         13    1    1    2    0    0 -0.13603064793E+03  0.11644452739E+03 -0.30317203896E+03  0.35210362325E+03  0.10566000000E+00 0. -1.
          4    1    1    2  501    0 -0.45146866106E+02 -0.74884581871E+02 -0.31520876662E+03  0.32711237622E+03  0.00000000000E+00 0.  1.
</event>
<event>
 5    1  0.2540860E-005  0.1095875E+03  0.7818608E-02  0.1149599E+00
         21   -1    0    0  501  502  0.00000000000E+00  0.00000000000E+00  0.60866374516E+03  0.60866374516E+03  0.00000000000E+00 0.  1.
         -4   -1    0    0    0  501 -0.00000000000E+00 -0.00000000000E+00 -0.13306077585E+03  0.13306077585E+03  0.00000000000E+00 0. -1.
        -13    1    1    2    0    0 -0.61862416083E+02  0.11222454925E+03  0.37454963292E+03  0.39586455596E+03  0.10566000000E+00 0.  1.
         13    1    1    2    0    0 -0.22577294201E+02 -0.10797176129E+03 -0.86469199105E+02  0.14015908464E+03  0.10566000000E+00 0. -1.
         -4    1    1    2    0  502  0.84439710283E+02 -0.42527879594E+01  0.18752253549E+03  0.20570088040E+03  0.00000000000E+00 0. -1.
</event>
<event>
 5    1  0.2540860E-005  0.3686207E+03  0.7818608E-02  0.1014673E+00
         -4   -1    0    0    0  501 -0.00000000000E+00  0.00000000000E+00  0.79397469340E+03  0.79397469340E+03  0.00000000000E+00 0. -1.
         21   -1    0    0  501  502  0.00000000000E+00 -0.00000000000E+00 -0.42543355697E+03  0.42543355697E+03  0.00000000000E+00 0. -1.
        -13    1    1    2    0    0  0.10486316843E+03 -0.72838500122E+02  0.11452112375E+03  0.17151335266E+03  0.10566000000E+00 0.  1.
         13    1    1    2    0    0 -0.19249275146E+03  0.41483530440E+03  0.45210883620E+03  0.64307402379E+03  0.10566000000E+00 0. -1.
         -4    1    1    2    0  502  0.87629583036E+02 -0.34199680428E+03 -0.19808882352E+03  0.40482087392E+03  0.00000000000E+00 0. -1.
</event>
<event>
 5    1  0.2540860E-005  0.3029662E+03  0.7818608E-02  0.1021411E+00
         21   -1    0    0  501  502  0.00000000000E+00  0.00000000000E+00  0.62117782763E+03  0.62117782763E+03  0.00000000000E+00 0. -1.
         -4   -1    0    0    0  501 -0.00000000000E+00 -0.00000000000E+00 -0.99354925245E+03  0.99354925245E+03  0.00000000000E+00 0. -1.
        -13    1    1    2    0    0 -0.29007373756E+03 -0.20681943696E+03 -0.38497959184E+03  0.52452488027E+03  0.10566000000E+00 0.  1.
         13    1    1    2    0    0  0.16165637430E+03 -0.67584414770E+02 -0.48050501983E+03  0.51145432027E+03  0.10566000000E+00 0. -1.
         -4    1    1    2    0  502  0.12841736326E+03  0.27440385173E+03  0.49311318685E+03  0.57874787954E+03  0.00000000000E+00 0. -1.
</event>
<event>
 5    1  0.2540860E-005  0.1769792E+03  0.7818608E-02  0.1077177E+00
          4   -1    0    0  502    0 -0.00000000000E+00  0.00000000000E+00  0.23728604739E+03  0.23728604739E+03  0.00000000000E+00 0.  1.
         21   -1    0    0  501  502  0.00000000000E+00 -0.00000000000E+00 -0.24597074905E+03  0.24597074905E+03  0.00000000000E+00 0.  1.
        -13    1    1    2    0    0 -0.15592872357E+03 -0.11847022622E+03 -0.13680851645E+03  0.23888395231E+03  0.10566000000E+00 0.  1.
         13    1    1    2    0    0  0.12306237452E+03  0.12028964397E+03  0.90677541591E+02  0.19451574276E+03  0.10566000000E+00 0. -1.
          4    1    1    2  501    0  0.32866349043E+02 -0.18194177514E+01  0.37446273203E+02  0.49857101372E+02  0.00000000000E+00 0.  1.
</event>
<event>
 5    1  0.2540860E-005  0.2992414E+02  0.7818608E-02  0.1405519E+00
          4   -1    0    0  502    0 -0.00000000000E+00  0.00000000000E+00  0.10860425595E+03  0.10860425595E+03  0.00000000000E+00 0.  1.
         21   -1    0    0  501  502  0.00000000000E+00 -0.00000000000E+00 -0.25947549041E+02  0.25947549041E+02  0.00000000000E+00 0. -1.
        -13    1    1    2    0    0 -0.17287622033E+02  0.26015563709E+02  0.76761834074E+02  0.82873770067E+02  0.10566000000E+00 0.  1.
         13    1    1    2    0    0  0.28707665923E+02 -0.94730265463E+01  0.85141681611E+01  0.31406536552E+02  0.10566000000E+00 0. -1.
          4    1    1    2  501    0 -0.11420043890E+02 -0.16542537163E+02 -0.26192953258E+01  0.20271498372E+02  0.00000000000E+00 0.  1.
</event>
<event>
 5    1  0.2540860E-005  0.4280518E+03  0.7818608E-02  0.9762397E-01
         -4   -1    0    0    0  501 -0.00000000000E+00  0.00000000000E+00  0.23741250238E+04  0.23741250238E+04  0.00000000000E+00 0. -1.
         21   -1    0    0  501  502  0.00000000000E+00 -0.00000000000E+00 -0.19455822276E+03  0.19455822276E+03  0.00000000000E+00 0. -1.
        -13    1    1    2    0    0 -0.14156812782E+03 -0.25414298304E+03  0.26540131488E+03  0.39378682017E+03  0.10566000000E+00 0.  1.
         13    1    1    2    0    0 -0.10431099571E+03  0.56361660759E+03  0.14832957937E+04  0.15901920912E+04  0.10566000000E+00 0. -1.
         -4    1    1    2    0  502  0.24587912353E+03 -0.30947362455E+03  0.43086969243E+03  0.58470433514E+03  0.00000000000E+00 0. -1.
</event>
<event>
 5    1  0.2540860E-005  0.2596725E+03  0.7818608E-02  0.1042750E+00
          4   -1    0    0  502    0 -0.00000000000E+00  0.00000000000E+00  0.51497253022E+03  0.51497253022E+03  0.00000000000E+00 0.  1.
         21   -1    0    0  501  502  0.00000000000E+00 -0.00000000000E+00 -0.12951363633E+04  0.12951363633E+04  0.00000000000E+00 0.  1.
        -13    1    1    2    0    0  0.19361968769E+03  0.27446180094E+03  0.22713333320E+02  0.33665081362E+03  0.10566000000E+00 0.  1.
         13    1    1    2    0    0  0.30037031242E+02 -0.15005756187E+03  0.30241070073E+03  0.33892733469E+03  0.10566000000E+00 0. -1.
          4    1    1    2  501    0 -0.22365671893E+03 -0.12440423908E+03 -0.11052878672E+04  0.11345307452E+04  0.00000000000E+00 0.  1.
</event>
<event>
 5    1  0.2540860E-005  0.4928153E+03  0.7818608E-02  0.9539308E-01
         21   -1    0    0  501  502  0.00000000000E+00  0.00000000000E+00  0.19256360862E+04  0.19256360862E+04  0.00000000000E+00 0. -1.
         -4   -1    0    0    0  501 -0.00000000000E+00 -0.00000000000E+00 -0.31323577514E+03  0.31323577514E+03  0.00000000000E+00 0. -1.
        -13    1    1    2    0    0 -0.40614950738E+03 -0.99008468724E+02  0.20170782481E+03  0.46416177889E+03  0.10566000000E+00 0.  1.
         13    1    1    2    0    0  0.20188783853E+03  0.53605220941E+03  0.93954113446E+03  0.11003854893E+04  0.10566000000E+00 0. -1.
         -4    1    1    2    0  502  0.20426166885E+03 -0.43704374068E+03  0.47115135177E+03  0.67432459313E+03  0.00000000000E+00 0. -1.
</event>
<event>
 5    1  0.2540860E-005  0.4852185E+03  0.7818608E-02  0.9800010E-01
         21   -1    0    0  501  502  0.00000000000E+00  0.00000000000E+00  0.11066917115E+03  0.11066917115E+03  0.00000000000E+00 0. -1.
         -4   -1    0    0    0  501 -0.00000000000E+00 -0.00000000000E+00 -0.31601926002E+04  0.31601926002E+04  0.00000000000E+00 0. -1.
        -13    1    1    2    0    0 -0.16750479871E+03  0.52618614840E+02 -0.55812297008E+03  0.58508788837E+03  0.10566000000E+00 0.  1.
         13    1    1    2    0    0 -0.38014485328E+03 -0.10566161172E+03 -0.15096166731E+04  0.15603259264E+04  0.10566000000E+00 0. -1.
         -4    1    1    2    0  502  0.54764965198E+03  0.53042996877E+02 -0.98178378587E+03  0.11254479566E+04  0.00000000000E+00 0. -1.
</event>
<event>
 5    1  0.2540860E-005  0.2030994E+03  0.7818608E-02  0.1079542E+00
         21   -1    0    0  501  502  0.00000000000E+00  0.00000000000E+00  0.31614482912E+03  0.31614482912E+03  0.00000000000E+00 0.  1.
          4   -1    0    0  502    0 -0.00000000000E+00 -0.00000000000E+00 -0.99456243549E+03  0.99456243549E+03  0.00000000000E+00 0.  1.
        -13    1    1    2    0    0  0.15467838632E+03 -0.12646316723E+03  0.23090517536E+03  0.30534496399E+03  0.10566000000E+00 0.  1.
         13    1    1    2    0    0  0.90568637426E+01 -0.10917553689E+03 -0.10643538053E+03  0.15274104238E+03  0.10566000000E+00 0. -1.
          4    1    1    2  501    0 -0.16373525006E+03  0.23563870412E+03 -0.80288740120E+03  0.85262125824E+03  0.00000000000E+00 0.  1.
</event>
<event>
 5    1  0.2540860E-005  0.6930443E+03  0.7818608E-02  0.9133130E-01
         21   -1    0    0  501  502  0.00000000000E+00  0.00000000000E+00  0.36308645201E+03  0.36308645201E+03  0.00000000000E+00 0. -1.
          4   -1    0    0  502    0 -0.00000000000E+00 -0.00000000000E+00 -0.16578076107E+04  0.16578076107E+04  0.00000000000E+00 0.  1.
        -13    1    1    2    0    0  0.35039842057E+03  0.62381944450E+03 -0.86055279540E+03  0.11191429209E+04  0.10566000000E+00 0.  1.
         13    1    1    2    0    0 -0.34049832807E+03 -0.57008956764E+03 -0.48876010307E+03  0.82451663177E+03  0.10566000000E+00 0. -1.
          4    1    1    2  501    0 -0.99000925013E+01 -0.53729876862E+02  0.54591739768E+02  0.77234510098E+02  0.00000000000E+00 0.  1.
</event>
<event>
 5    1  0.2540860E-005  0.4340630E+03  0.7818608E-02  0.1002625E+00
         -4   -1    0    0    0  501 -0.00000000000E+00  0.00000000000E+00  0.61174193184E+03  0.61174193184E+03  0.00000000000E+00 0. -1.
         21   -1    0    0  501  502  0.00000000000E+00 -0.00000000000E+00 -0.72069548728E+03  0.72069548728E+03  0.00000000000E+00 0.  1.
        -13    1    1    2    0    0 -0.39888829746E+02  0.10816814122E+03 -0.28193447481E+03  0.30459567423E+03  0.10566000000E+00 0.  1.
         13    1    1    2    0    0 -0.40026649526E+03 -0.13844445712E+03  0.35298159062E+03  0.55134032087E+03  0.10566000000E+00 0. -1.
         -4    1    1    2    0  502  0.44015532501E+03  0.30276315896E+02 -0.18000067125E+03  0.47650142402E+03  0.00000000000E+00 0. -1.
</event>
<event>
 5    1  0.2540860E-005  0.6641536E+02  0.7818608E-02  0.1236459E+00
         21   -1    0    0  501  502  0.00000000000E+00  0.00000000000E+00  0.49821594038E+02  0.49821594038E+02  0.00000000000E+00 0. -1.
          4   -1    0    0  502    0 -0.00000000000E+00 -0.00000000000E+00 -0.22211548645E+03  0.22211548645E+03  0.00000000000E+00 0.  1.
        -13    1    1    2    0    0  0.30105575575E+01 -0.80822501727E+02 -0.55068665957E+02  0.97846355969E+02  0.10566000000E+00 0.  1.
         13    1    1    2    0    0 -0.17449735747E+02  0.59741227353E+02 -0.13102133085E+03  0.14505208659E+03  0.10566000000E+00 0. -1.
          4    1    1    2  501    0  0.14439178190E+02  0.21081274374E+02  0.13796104395E+02  0.29038637924E+02  0.00000000000E+00 0.  1.
</event>
<event>
 5    1  0.2540860E-005  0.4834588E+03  0.7818608E-02  0.9678009E-01
         -4   -1    0    0    0  501 -0.00000000000E+00  0.00000000000E+00  0.33453097656E+04  0.33453097656E+04  0.00000000000E+00 0. -1.
         21   -1    0    0  501  502  0.00000000000E+00 -0.00000000000E+00 -0.15166184495E+03  0.15166184495E+03  0.00000000000E+00 0. -1.
        -13    1    1    2    0    0 -0.19132907952E+03  0.19133353547E+03  0.13632689585E+04  0.13898624403E+04  0.10566000000E+00 0.  1.
         13    1    1    2    0    0  0.55202586645E+03 -0.65214915825E+02  0.59620084559E+03  0.81513250575E+03  0.10566000000E+00 0. -1.
         -4    1    1    2    0  502 -0.36069678693E+03 -0.12611861965E+03  0.12341781166E+04  0.12919766646E+04  0.00000000000E+00 0. -1.
</event>
<event>
 5    1  0.2540860E-005  0.2869273E+03  0.7818608E-02  0.1012852E+00
         -4   -1    0    0    0  501 -0.00000000000E+00  0.00000000000E+00  0.21898297014E+04  0.21898297014E+04  0.00000000000E+00 0. -1.
         21   -1    0    0  501  502  0.00000000000E+00 -0.00000000000E+00 -0.51906908584E+02  0.51906908584E+02  0.00000000000E+00 0.  1.
        -13    1    1    2    0    0 -0.22120169369E+03 -0.16048878722E+03  0.53533368504E+03  0.60105657439E+03  0.10566000000E+00 0.  1.
         13    1    1    2    0    0  0.25947725251E+03  0.13747820356E+03  0.15046887035E+04  0.15330742991E+04  0.10566000000E+00 0. -1.
         -4    1    1    2    0  502 -0.38275558822E+02  0.23010583668E+02  0.97900404267E+02  0.10760573646E+03  0.00000000000E+00 0. -1.
</event>
<event>
 5    1  0.2540860E-005  0.2012199E+03  0.7818608E-02  0.1059303E+00
          4   -1    0    0  502    0 -0.00000000000E+00  0.00000000000E+00  0.12271996215E+04  0.12271996215E+04  0.00000000000E+00 0.  1.
         21   -1    0    0  501  502  0.00000000000E+00 -0.00000000000E+00 -0.34934678681E+03  0.34934678681E+03  0.00000000000E+00 0.  1.
        -13    1    1    2    0    0 -0.11692694027E+03 -0.21527434700E+03 -0.26955069019E+03  0.36424241870E+03  0.10566000000E+00 0.  1.
         13    1    1    2    0    0  0.18869699554E+03  0.72167693282E+02  0.40209214560E+03  0.44999204081E+03  0.10566000000E+00 0. -1.
          4    1    1    2  501    0 -0.71770055276E+02  0.14310665372E+03  0.74531137925E+03  0.76231194876E+03  0.00000000000E+00 0.  1.
</event>
<event>
 5    1  0.2540860E-005  0.4998821E+03  0.7818608E-02  0.9478230E-01
         -4   -1    0    0    0  501 -0.00000000000E+00  0.00000000000E+00  0.10902113522E+04  0.10902113522E+04  0.00000000000E+00 0. -1.
         21   -1    0    0  501  502  0.00000000000E+00 -0.00000000000E+00 -0.38225519699E+03  0.38225519699E+03  0.00000000000E+00 0. -1.
        -13    1    1    2    0    0  0.51242236209E+03  0.10323619177E+03  0.60881031426E+03  0.80242407639E+03  0.10566000000E+00 0.  1.
         13    1    1    2    0    0 -0.46772906431E+03 -0.21911552054E+02  0.22026408042E+03  0.51746195030E+03  0.10566000000E+00 0. -1.
         -4    1    1    2    0  502 -0.44693297772E+02 -0.81324639717E+02 -0.12111823952E+03  0.15258052246E+03  0.00000000000E+00 0. -1.
</event>
<event>
 5    1  0.2555309E-005  0.3568079E+03  0.7818608E-02  0.1003410E+00
         -4   -1    0    0    0  501 -0.00000000000E+00  0.00000000000E+00  0.26485559095E+04  0.26485559095E+04  0.00000000000E+00 0. -1.
         21   -1    0    0  501  502  0.00000000000E+00 -0.00000000000E+00 -0.16764582032E+03  0.16764582032E+03  0.00000000000E+00 0. -1.
        -13    1    1    2    0    0 -0.18287306392E+03  0.86548231073E+02  0.98790762465E+03  0.10084119395E+04  0.10566000000E+00 0.  1.
         13    1    1    2    0    0 -0.14182983100E+03 -0.27091560249E+03  0.13860470582E+04  0.14193792387E+04  0.10566000000E+00 0. -1.
         -4    1    1    2    0  502  0.32470289492E+03  0.18436737141E+03  0.10695540633E+03  0.38841055155E+03  0.00000000000E+00 0. -1.
</event>
<event>
 5    1  0.2540860E-005  0.1740393E+03  0.7818608E-02  0.1079554E+00
         21   -1    0    0  501  502  0.00000000000E+00  0.00000000000E+00  0.19610777895E+03  0.19610777895E+03  0.00000000000E+00 0.  1.
          4   -1    0    0  502    0 -0.00000000000E+00 -0.00000000000E+00 -0.59721636928E+03  0.59721636928E+03  0.00000000000E+00 0.  1.
        -13    1    1    2    0    0 -0.18411478415E+03  0.13513735799E+03 -0.27874745943E+03  0.36036164692E+03  0.10566000000E+00 0.  1.
         13    1    1    2    0    0  0.10624261649E+03 -0.10200190187E+03 -0.24386578272E+03  0.28489017654E+03  0.10566000000E+00 0. -1.
          4    1    1    2  501    0  0.77872167658E+02 -0.33135456117E+02  0.12150465182E+03  0.14807232477E+03  0.00000000000E+00 0.  1.
</event>
<event>
 5    1  0.2540860E-005  0.4891857E+02  0.7818608E-02  0.1303442E+00
         21   -1    0    0  501  502  0.00000000000E+00  0.00000000000E+00  0.35686297744E+03  0.35686297744E+03  0.00000000000E+00 0. -1.
         -4   -1    0    0    0  501 -0.00000000000E+00 -0.00000000000E+00 -0.21104159427E+02  0.21104159427E+02  0.00000000000E+00 0. -1.
        -13    1    1    2    0    0  0.12713446127E+02  0.40607522917E+02  0.18970526793E+03  0.19441888405E+03  0.10566000000E+00 0.  1.
         13    1    1    2    0    0 -0.51390406583E+01  0.22338017491E+02 -0.14795946185E+01  0.22969482550E+02  0.10566000000E+00 0. -1.
         -4    1    1    2    0  502 -0.75744054686E+01 -0.62945540409E+02  0.14753314470E+03  0.16057877027E+03  0.00000000000E+00 0. -1.
</event>
<event>
 5    1  0.2540860E-005  0.2283866E+03  0.7818608E-02  0.1042244E+00
          4   -1    0    0  502    0 -0.00000000000E+00  0.00000000000E+00  0.58274231631E+03  0.58274231631E+03  0.00000000000E+00 0.  1.
         21   -1    0    0  501  502  0.00000000000E+00 -0.00000000000E+00 -0.51638382394E+03  0.51638382394E+03  0.00000000000E+00 0.  1.
        -13    1    1    2    0    0 -0.15724106440E+03 -0.16383751765E+03  0.48675248979E+03  0.53711775432E+03  0.10566000000E+00 0.  1.
         13    1    1    2    0    0  0.16304091952E+03  0.17452804371E+03 -0.13108506227E+03  0.27244391018E+03  0.10566000000E+00 0. -1.
          4    1    1    2  501    0 -0.57998551160E+01 -0.10690526059E+02 -0.28930893514E+03  0.28956447575E+03  0.00000000000E+00 0.  1.
</event>
<event>
 5    1  0.2540860E-005  0.8357419E+02  0.7818608E-02  0.1195026E+00
         21   -1    0    0  501  502  0.00000000000E+00  0.00000000000E+00  0.69071583266E+03  0.69071583266E+03  0.00000000000E+00 0.  1.
          4   -1    0    0  502    0 -0.00000000000E+00 -0.00000000000E+00 -0.21602275439E+02  0.21602275439E+02  0.00000000000E+00 0.  1.
        -13    1    1    2    0    0  0.63786934191E+02 -0.59628653982E+02  0.12717712646E+03  0.15426724218E+03  0.10566000000E+00 0.  1.
         13    1    1    2    0    0 -0.81138616150E+02  0.19887185784E+02  0.26846561650E+03  0.28116325079E+03  0.10566000000E+00 0. -1.
          4    1    1    2  501    0  0.17351681959E+02  0.39741468198E+02  0.27347081426E+03  0.27688761514E+03  0.00000000000E+00 0.  1.
</event>
<event>
 5    1  0.2540860E-005  0.1025759E+04  0.7818608E-02  0.8750758E-01
         -4   -1    0    0    0  501 -0.00000000000E+00  0.00000000000E+00  0.15099574187E+04  0.15099574187E+04  0.00000000000E+00 0. -1.
         21   -1    0    0  501  502  0.00000000000E+00 -0.00000000000E+00 -0.13091502579E+04  0.13091502579E+04  0.00000000000E+00 0.  1.
        -13    1    1    2    0    0 -0.54171291362E+03  0.85414020376E+03  0.79234397765E+03  0.12848413749E+04  0.10566000000E+00 0.  1.
         13    1    1    2    0    0  0.78740908904E+03 -0.77342178140E+03 -0.63299145576E+03  0.12723492129E+04  0.10566000000E+00 0. -1.
         -4    1    1    2    0  502 -0.24569617542E+03 -0.80718422358E+02  0.41454638990E+02  0.26191708882E+03  0.00000000000E+00 0. -1.
</event>
<event>
 5    1  0.2540860E-005  0.8204529E+02  0.7818608E-02  0.1198252E+00
          4   -1    0    0  502    0 -0.00000000000E+00  0.00000000000E+00  0.38533092825E+03  0.38533092825E+03  0.00000000000E+00 0.  1.
         21   -1    0    0  501  502  0.00000000000E+00 -0.00000000000E+00 -0.13337699688E+03  0.13337699688E+03  0.00000000000E+00 0. -1.
        -13    1    1    2    0    0  0.78563898219E+02  0.45145302296E+01  0.25926329169E+03  0.27094304322E+03  0.10566000000E+00 0.  1.
         13    1    1    2    0    0 -0.92207939670E+02 -0.30709183358E+01  0.10203650730E+03  0.13756160316E+03  0.10566000000E+00 0. -1.
          4    1    1    2  501    0  0.13644041451E+02 -0.14436118938E+01 -0.10934586762E+03  0.11020327875E+03  0.00000000000E+00 0.  1.
</event>
<event>
 5    1  0.2540860E-005  0.1894644E+03  0.7818608E-02  0.1090200E+00
          4   -1    0    0  502    0 -0.00000000000E+00  0.00000000000E+00  0.12336319267E+03  0.12336319267E+03  0.00000000000E+00 0.  1.
         21   -1    0    0  501  502  0.00000000000E+00 -0.00000000000E+00 -0.94440724721E+03  0.94440724721E+03  0.00000000000E+00 0.  1.
        -13    1    1    2    0    0  0.16748049092E+03  0.75241922457E+02 -0.64950134051E+03  0.67495412009E+03  0.10566000000E+00 0.  1.
         13    1    1    2    0    0  0.76938169673E+02 -0.64318963845E+02 -0.90500931817E+02  0.13508086795E+03  0.10566000000E+00 0. -1.
          4    1    1    2  501    0 -0.24441866059E+03 -0.10922958612E+02 -0.81041782211E+02  0.25773545184E+03  0.00000000000E+00 0.  1.
</event>
<event>
 5    1  0.2540860E-005  0.4852091E+03  0.7818608E-02  0.9719432E-01
         21   -1    0    0  501  502  0.00000000000E+00  0.00000000000E+00  0.35770816382E+03  0.35770816382E+03  0.00000000000E+00 0. -1.
         -4   -1    0    0    0  501 -0.00000000000E+00 -0.00000000000E+00 -0.12602566700E+04  0.12602566700E+04  0.00000000000E+00 0. -1.
        -13    1    1    2    0    0 -0.48198684592E+02  0.22663062273E+03 -0.44795247212E+03  0.50432725566E+03  0.10566000000E+00 0.  1.
         13    1    1    2    0    0 -0.37074710234E+03 -0.37950093164E+03 -0.91115228175E+02  0.53830880262E+03  0.10566000000E+00 0. -1.
         -4    1    1    2    0  502  0.41894578693E+03  0.15287030892E+03 -0.36348080591E+03  0.57532877557E+03  0.00000000000E+00 0. -1.
</event>
<event>
 5    1  0.2540860E-005  0.3054086E+03  0.7818608E-02  0.1023544E+00
         21   -1    0    0  501  502  0.00000000000E+00  0.00000000000E+00  0.33410226784E+03  0.33410226784E+03  0.00000000000E+00 0.  1.
          4   -1    0    0  502    0 -0.00000000000E+00 -0.00000000000E+00 -0.14452803900E+04  0.14452803900E+04  0.00000000000E+00 0.  1.
        -13    1    1    2    0    0  0.12979183760E+03 -0.30195812918E+03 -0.59748080617E+03  0.68191491976E+03  0.10566000000E+00 0.  1.
         13    1    1    2    0    0  0.11901195647E+03  0.12091983456E+03 -0.71164948757E+03  0.73159446177E+03  0.10566000000E+00 0. -1.
          4    1    1    2  501    0 -0.24880379407E+03  0.18103829462E+03  0.19795217161E+03  0.36587327629E+03  0.00000000000E+00 0.  1.
</event>
<event>
 5    1  0.2540860E-005  0.8930243E+02  0.7818608E-02  0.1183582E+00
         -4   -1    0    0    0  501 -0.00000000000E+00  0.00000000000E+00  0.64297195163E+03  0.64297195163E+03  0.00000000000E+00 0. -1.
         21   -1    0    0  501  502  0.00000000000E+00 -0.00000000000E+00 -0.36646829803E+02  0.36646829803E+02  0.00000000000E+00 0.  1.
        -13    1    1    2    0    0 -0.46016131048E+02 -0.50719170279E+02  0.47819366140E+02  0.83526172500E+02  0.10566000000E+00 0.  1.
         13    1    1    2    0    0  0.84704552510E+02  0.42937876832E+02  0.54672076373E+03  0.55490731401E+03  0.10566000000E+00 0. -1.
         -4    1    1    2    0  502 -0.38688421462E+02  0.77812934470E+01  0.11784991962E+02  0.41185294930E+02  0.00000000000E+00 0. -1.
</event>
<event>
 5    1  0.2540860E-005  0.5287511E+03  0.7818608E-02  0.9417088E-01
         -4   -1    0    0    0  501 -0.00000000000E+00  0.00000000000E+00  0.17203315542E+04  0.17203315542E+04  0.00000000000E+00 0. -1.
         21   -1    0    0  501  502  0.00000000000E+00 -0.00000000000E+00 -0.38880329523E+03  0.38880329523E+03  0.00000000000E+00 0. -1.
        -13    1    1    2    0    0 -0.36697902814E+02  0.45522733520E+03  0.75672533323E+03  0.88386192581E+03  0.10566000000E+00 0.  1.
         13    1    1    2    0    0  0.73990438891E+02 -0.75792046550E+03  0.50081145116E+03  0.91144398502E+03  0.10566000000E+00 0. -1.
         -4    1    1    2    0  502 -0.37292536077E+02  0.30269313029E+03  0.73991474567E+02  0.31382893857E+03  0.00000000000E+00 0. -1.
</event>
<event>
 5    1  0.2540860E-005  0.1122844E+03  0.7818608E-02  0.1145690E+00
         21   -1    0    0  501  502  0.00000000000E+00  0.00000000000E+00  0.37435115027E+02  0.37435115027E+02  0.00000000000E+00 0.  1.
         -4   -1    0    0    0  501 -0.00000000000E+00 -0.00000000000E+00 -0.58599687382E+03  0.58599687382E+03  0.00000000000E+00 0. -1.
        -13    1    1    2    0    0  0.11515359180E+03  0.36974293159E+02 -0.10331244190E+03  0.15906262878E+03  0.10566000000E+00 0.  1.
         13    1    1    2    0    0 -0.10507719090E+03 -0.33083959512E+02 -0.43728881455E+03  0.45095153056E+03  0.10566000000E+00 0. -1.
         -4    1    1    2    0  502 -0.10076400905E+02 -0.38903336471E+01 -0.79605023491E+01  0.13417829509E+02  0.00000000000E+00 0. -1.
</event>
<event>
 5    1  0.2540860E-005  0.5096310E+03  0.7818608E-02  0.9786219E-01
          4   -1    0    0  502    0 -0.00000000000E+00  0.00000000000E+00  0.22166355274E+04  0.22166355274E+04  0.00000000000E+00 0.  1.
         21   -1    0    0  501  502  0.00000000000E+00 -0.00000000000E+00 -0.16173941464E+03  0.16173941464E+03  0.00000000000E+00 0.  1.
        -13    1    1    2    0    0 -0.25455447201E+03  0.37590084865E+03  0.96699209296E+03  0.10682570600E+04  0.10566000000E+00 0.  1.
         13    1    1    2    0    0  0.54367462211E+02  0.14925472510E+03  0.33331450014E+03  0.36923076941E+03  0.10566000000E+00 0. -1.
          4    1    1    2  501    0  0.20018700980E+03 -0.52515557375E+03  0.75458951965E+03  0.94088711262E+03  0.00000000000E+00 0.  1.
</event>
<event>
 5    1  0.2540860E-005  0.4559519E+03  0.7818608E-02  0.1013906E+00
         -4   -1    0    0    0  501 -0.00000000000E+00  0.00000000000E+00  0.12033981611E+04  0.12033981611E+04  0.00000000000E+00 0. -1.
         21   -1    0    0  501  502  0.00000000000E+00 -0.00000000000E+00 -0.27702244001E+03  0.27702244001E+03  0.00000000000E+00 0. -1.
        -13    1    1    2    0    0 -0.44037323423E+02 -0.53299867364E+02  0.29393526574E+03  0.30195713823E+03  0.10566000000E+00 0.  1.
         13    1    1    2    0    0  0.85731937750E+02  0.48975621739E+03  0.53296354433E+03  0.72887671686E+03  0.10566000000E+00 0. -1.
         -4    1    1    2    0  502 -0.41694614328E+02 -0.43645635003E+03  0.99476910960E+02  0.44958674598E+03  0.00000000000E+00 0. -1.
</event>
<event>
 5    1  0.2540860E-005  0.3673056E+03  0.7818608E-02  0.1006119E+00
         -4   -1    0    0    0  501 -0.00000000000E+00  0.00000000000E+00  0.67235540801E+03  0.67235540801E+03  0.00000000000E+00 0. -1.
         21   -1    0    0  501  502  0.00000000000E+00 -0.00000000000E+00 -0.17368891957E+04  0.17368891957E+04  0.00000000000E+00 0. -1.
        -13    1    1    2    0    0  0.63410047479E+03  0.87555256660E+02  0.20383454867E+03  0.67178707155E+03  0.10566000000E+00 0.  1.
         13    1    1    2    0    0 -0.14183603024E+03  0.13477161048E+03  0.13234212519E+03  0.23621027862E+03  0.10566000000E+00 0. -1.
         -4    1    1    2    0  502 -0.49226444455E+03 -0.22232686714E+03 -0.14007104616E+04  0.15012472536E+04  0.00000000000E+00 0. -1.
</event>
<event>
 5    1  0.2540860E-005  0.1561820E+03  0.7818608E-02  0.1095170E+00
          4   -1    0    0  502    0 -0.00000000000E+00  0.00000000000E+00  0.40930372296E+02  0.40930372296E+02  0.00000000000E+00 0.  1.
         21   -1    0    0  501  502  0.00000000000E+00 -0.00000000000E+00 -0.84279073686E+03  0.84279073686E+03  0.00000000000E+00 0. -1.
        -13    1    1    2    0    0 -0.15996705791E+03  0.16652125891E+02 -0.18345747369E+03  0.24397419686E+03  0.10566000000E+00 0.  1.
         13    1    1    2    0    0  0.14201751169E+03 -0.23858047672E+02 -0.56023902048E+03  0.57845133875E+03  0.10566000000E+00 0. -1.
          4    1    1    2  501    0  0.17949546219E+02  0.72059217807E+01 -0.58163870388E+02  0.61295573549E+02  0.00000000000E+00 0.  1.
</event>
<event>
 5    1  0.2540860E-005  0.4923955E+03  0.7818608E-02  0.9522138E-01
         -4   -1    0    0    0  501 -0.00000000000E+00  0.00000000000E+00  0.13886019303E+04  0.13886019303E+04  0.00000000000E+00 0. -1.
         21   -1    0    0  501  502  0.00000000000E+00 -0.00000000000E+00 -0.45538741679E+03  0.45538741679E+03  0.00000000000E+00 0. -1.
        -13    1    1    2    0    0  0.44574264325E+03  0.12291644676E+02  0.49644780753E+03  0.66730654523E+03  0.10566000000E+00 0.  1.
         13    1    1    2    0    0 -0.32256603661E+03 -0.49530901515E+03  0.28068324855E+03  0.65434162762E+03  0.10566000000E+00 0. -1.
         -4    1    1    2    0  502 -0.12317660665E+03  0.48301737048E+03  0.15608345741E+03  0.52234117422E+03  0.00000000000E+00 0. -1.
</event>
<event>
 5    1  0.2540860E-005  0.4972481E+03  0.7818608E-02  0.9761256E-01
          4   -1    0    0  502    0 -0.00000000000E+00  0.00000000000E+00  0.24428688673E+04  0.24428688673E+04  0.00000000000E+00 0.  1.
         21   -1    0    0  501  502  0.00000000000E+00 -0.00000000000E+00 -0.16277443069E+03  0.16277443069E+03  0.00000000000E+00 0.  1.
        -13    1    1    2    0    0  0.40812655667E+03 -0.20132580930E+02  0.89827677642E+03  0.98685043714E+03  0.10566000000E+00 0.  1.
         13    1    1    2    0    0  0.14988401983E+03 -0.11066390184E+03  0.71804409464E+03  0.74182144185E+03  0.10566000000E+00 0. -1.
          4    1    1    2  501    0 -0.55801057650E+03  0.13079648277E+03  0.66377356551E+03  0.87697141896E+03  0.00000000000E+00 0.  1.
</event>
<event>
 5    1  0.2540860E-005  0.4248024E+03  0.7818608E-02  0.9660032E-01
          4   -1    0    0  502    0 -0.00000000000E+00  0.00000000000E+00  0.48301071437E+03  0.48301071437E+03  0.00000000000E+00 0.  1.
         21   -1    0    0  501  502  0.00000000000E+00 -0.00000000000E+00 -0.46031336402E+03  0.46031336402E+03  0.00000000000E+00 0. -1.
        -13    1    1    2    0    0 -0.42258367594E+03 -0.87515733820E+02  0.12089481672E+03  0.44816462903E+03  0.10566000000E+00 0.  1.
         13    1    1    2    0    0  0.40896494710E+03  0.75251884034E+02 -0.21590540483E+02  0.41639084597E+03  0.10566000000E+00 0. -1.
          4    1    1    2  501    0  0.13618728844E+02  0.12263849787E+02 -0.76606925883E+02  0.78768603391E+02  0.00000000000E+00 0.  1.
</event>
<event>
 5    1  0.2540860E-005  0.1197641E+03  0.7818608E-02  0.1135454E+00
          4   -1    0    0  502    0 -0.00000000000E+00  0.00000000000E+00  0.47495555935E+03  0.47495555935E+03  0.00000000000E+00 0.  1.
         21   -1    0    0  501  502  0.00000000000E+00 -0.00000000000E+00 -0.17587769086E+03  0.17587769086E+03  0.00000000000E+00 0. -1.
        -13    1    1    2    0    0 -0.11729595818E+03 -0.28839011946E+02  0.44420614667E+03  0.46033590162E+03  0.10566000000E+00 0.  1.
         13    1    1    2    0    0  0.97001758135E+02  0.33370296530E+02 -0.11928625614E+03  0.15732812793E+03  0.10566000000E+00 0. -1.
          4    1    1    2  501    0  0.20294200044E+02 -0.45312845848E+01 -0.25842022050E+02  0.33169220658E+02  0.00000000000E+00 0.  1.
</event>
<event>
 5    1  0.2540860E-005  0.1039220E+03  0.7818608E-02  0.1158225E+00
          4   -1    0    0  502    0 -0.00000000000E+00  0.00000000000E+00  0.47981397413E+02  0.47981397413E+02  0.00000000000E+00 0.  1.
         21   -1    0    0  501  502  0.00000000000E+00 -0.00000000000E+00 -0.38134363674E+03  0.38134363674E+03  0.00000000000E+00 0. -1.
        -13    1    1    2    0    0 -0.92093656881E+02  0.23597219250E+02 -0.65226517814E+02  0.11529345248E+03  0.10566000000E+00 0.  1.
         13    1    1    2    0    0  0.11417934517E+03 -0.40027147794E+02 -0.14991738408E+03  0.19265079454E+03  0.10566000000E+00 0. -1.
          4    1    1    2  501    0 -0.22085688291E+02  0.16429928545E+02 -0.11821833744E+03  0.12138078714E+03  0.00000000000E+00 0.  1.
</event>
<event>
 5    1  0.2540860E-005  0.4823287E+03  0.7818608E-02  0.9707450E-01
         21   -1    0    0  501  502  0.00000000000E+00  0.00000000000E+00  0.31022956680E+03  0.31022956680E+03  0.00000000000E+00 0.  1.
          4   -1    0    0  502    0 -0.00000000000E+00 -0.00000000000E+00 -0.19297709022E+04  0.19297709022E+04  0.00000000000E+00 0.  1.
        -13    1    1    2    0    0 -0.60442155575E+03  0.19739919199E+03 -0.42090362459E+03  0.76252982263E+03  0.10566000000E+00 0.  1.
         13    1    1    2    0    0  0.20982111658E+03 -0.12822300572E+03 -0.10009883706E+04  0.10307491302E+04  0.10566000000E+00 0. -1.
          4    1    1    2  501    0  0.39460043917E+03 -0.69176186274E+02 -0.19764934023E+03  0.44672151620E+03  0.00000000000E+00 0.  1.
</event>
<event>
 5    1  0.2540860E-005  0.3417556E+03  0.7818608E-02  0.1009939E+00
         21   -1    0    0  501  502  0.00000000000E+00  0.00000000000E+00  0.79211696877E+03  0.79211696877E+03  0.00000000000E+00 0. -1.
          4   -1    0    0  502    0 -0.00000000000E+00 -0.00000000000E+00 -0.71058940416E+03  0.71058940416E+03  0.00000000000E+00 0.  1.
        -13    1    1    2    0    0 -0.22325438627E+03  0.40973341901E+03 -0.49192814605E+03  0.67802456275E+03  0.10566000000E+00 0.  1.
         13    1    1    2    0    0  0.16119284668E+03 -0.93636495806E+02  0.43650935158E+03  0.47464866201E+03  0.10566000000E+00 0. -1.
          4    1    1    2  501    0  0.62061539597E+02 -0.31609692321E+03  0.13694635908E+03  0.35003314818E+03  0.00000000000E+00 0.  1.
</event>
<event>
 5    1  0.2540860E-005  0.8272948E+02  0.7818608E-02  0.1196799E+00
          4   -1    0    0  502    0 -0.00000000000E+00  0.00000000000E+00  0.32603891159E+02  0.32603891159E+02  0.00000000000E+00 0.  1.
         21   -1    0    0  501  502  0.00000000000E+00 -0.00000000000E+00 -0.79691090363E+03  0.79691090363E+03  0.00000000000E+00 0.  1.
        -13    1    1    2    0    0 -0.58641108813E+02  0.87949362733E+02 -0.48391771627E+03  0.49532841361E+03  0.10566000000E+00 0.  1.
         13    1    1    2    0    0  0.69861823062E+02 -0.40691089812E+02 -0.42401689485E+02  0.91292680686E+02  0.10566000000E+00 0. -1.
          4    1    1    2  501    0 -0.11220714249E+02 -0.47258272920E+02 -0.23798760671E+03  0.24289370049E+03  0.00000000000E+00 0.  1.
</event>
<event>
 5    1  0.2540860E-005  0.4603510E+03  0.7818608E-02  0.9683419E-01
         21   -1    0    0  501  502  0.00000000000E+00  0.00000000000E+00  0.99978561857E+03  0.99978561857E+03  0.00000000000E+00 0.  1.
          4   -1    0    0  502    0 -0.00000000000E+00 -0.00000000000E+00 -0.44978057475E+03  0.44978057475E+03  0.00000000000E+00 0.  1.
        -13    1    1    2    0    0  0.13706260406E+03  0.38144138200E+03  0.24505352290E+03  0.47364008021E+03  0.10566000000E+00 0.  1.
         13    1    1    2    0    0  0.30426441490E+03  0.44741016677E+02  0.15482482068E+03  0.34430993161E+03  0.10566000000E+00 0. -1.
          4    1    1    2  501    0 -0.44132701895E+03 -0.42618239868E+03  0.15012670024E+03  0.63161618149E+03  0.00000000000E+00 0.  1.
</event>
<event>
 5    1  0.2540860E-005  0.6167545E+03  0.7818608E-02  0.9253365E-01
         21   -1    0    0  501  502  0.00000000000E+00  0.00000000000E+00  0.71338102590E+03  0.71338102590E+03  0.00000000000E+00 0.  1.
          4   -1    0    0  502    0 -0.00000000000E+00 -0.00000000000E+00 -0.36578676134E+04  0.36578676134E+04  0.00000000000E+00 0.  1.
        -13    1    1    2    0    0  0.63881930643E+03 -0.47411433929E+03  0.26118180977E+03  0.83731144857E+03  0.10566000000E+00 0.  1.
         13    1    1    2    0    0 -0.59323477340E+03  0.14349522620E+03 -0.31336153221E+04  0.31925011158E+04  0.10566000000E+00 0. -1.
          4    1    1    2  501    0 -0.45584533031E+02  0.33061911309E+03 -0.72053075107E+02  0.34143607488E+03  0.00000000000E+00 0.  1.
</event>
<event>
 5    1  0.2540860E-005  0.4166546E+03  0.7818608E-02  0.9926967E-01
         -4   -1    0    0    0  501 -0.00000000000E+00  0.00000000000E+00  0.66875979699E+03  0.66875979699E+03  0.00000000000E+00 0. -1.
         21   -1    0    0  501  502  0.00000000000E+00 -0.00000000000E+00 -0.51880097499E+03  0.51880097499E+03  0.00000000000E+00 0. -1.
        -13    1    1    2    0    0 -0.98206918656E+02  0.15175997131E+03  0.76270961162E+02  0.19619622434E+03  0.10566000000E+00 0.  1.
         13    1    1    2    0    0  0.23380683365E+03  0.27000861829E+03  0.32424065146E+03  0.48239226842E+03  0.10566000000E+00 0. -1.
         -4    1    1    2    0  502 -0.13559991499E+03 -0.42176858961E+03 -0.25055279063E+03  0.50897227922E+03  0.00000000000E+00 0. -1.
</event>
<event>
 5    1  0.2540860E-005  0.3346969E+03  0.7818608E-02  0.1028442E+00
         21   -1    0    0  501  502  0.00000000000E+00  0.00000000000E+00  0.27731211631E+03  0.27731211631E+03  0.00000000000E+00 0.  1.
         -4   -1    0    0    0  501 -0.00000000000E+00 -0.00000000000E+00 -0.13577721846E+04  0.13577721846E+04  0.00000000000E+00 0. -1.
        -13    1    1    2    0    0  0.67521551551E+02  0.87678815464E+02  0.10094929614E+03  0.14979154235E+03  0.10566000000E+00 0.  1.
         13    1    1    2    0    0 -0.38955091415E+03 -0.10194006377E+03 -0.10716007416E+04  0.11447575515E+04  0.10566000000E+00 0. -1.
         -4    1    1    2    0  502  0.32202936260E+03  0.14261248311E+02 -0.10980862290E+03  0.34053520705E+03  0.00000000000E+00 0. -1.
</event>
<event>
 5    1  0.2540860E-005  0.9939114E+02  0.7818608E-02  0.1165567E+00
         21   -1    0    0  501  502  0.00000000000E+00  0.00000000000E+00  0.13372482220E+03  0.13372482220E+03  0.00000000000E+00 0. -1.
         -4   -1    0    0    0  501 -0.00000000000E+00 -0.00000000000E+00 -0.23812564312E+03  0.23812564312E+03  0.00000000000E+00 0. -1.
        -13    1    1    2    0    0  0.83474560555E+02 -0.22352937309E+02  0.14379429863E+02  0.87603853987E+02  0.10566000000E+00 0.  1.
         13    1    1    2    0    0 -0.98821380767E+02  0.28110219803E+02 -0.18738925184E+03  0.21370679124E+03  0.10566000000E+00 0. -1.
         -4    1    1    2    0  502  0.15346820212E+02 -0.57572824943E+01  0.68609001052E+02  0.70539820086E+02  0.00000000000E+00 0. -1.
</event>
<event>
 5    1  0.2540860E-005  0.1927588E+03  0.7818608E-02  0.1065217E+00
         -4   -1    0    0    0  501 -0.00000000000E+00  0.00000000000E+00  0.62928420500E+02  0.62928420500E+02  0.00000000000E+00 0. -1.
         21   -1    0    0  501  502  0.00000000000E+00 -0.00000000000E+00 -0.89090742939E+03  0.89090742939E+03  0.00000000000E+00 0.  1.
        -13    1    1    2    0    0 -0.18815765814E+03  0.58253955080E+02 -0.35531704362E+03  0.40625981865E+03  0.10566000000E+00 0.  1.
         13    1    1    2    0    0  0.17220843946E+03 -0.82201540951E+02 -0.21160304666E+03  0.28493630951E+03  0.10566000000E+00 0. -1.
         -4    1    1    2    0  502  0.15949218683E+02  0.23947585871E+02 -0.26105891862E+03  0.26263972174E+03  0.00000000000E+00 0. -1.
</event>
<event>
 5    1  0.2540860E-005  0.5059316E+03  0.7818608E-02  0.9488738E-01
          4   -1    0    0  502    0 -0.00000000000E+00  0.00000000000E+00  0.21022165144E+04  0.21022165144E+04  0.00000000000E+00 0.  1.
         21   -1    0    0  501  502  0.00000000000E+00 -0.00000000000E+00 -0.33095255233E+03  0.33095255233E+03  0.00000000000E+00 0. -1.
        -13    1    1    2    0    0  0.28221185561E+03 -0.43569097298E+03  0.95861733047E+03  0.10901455650E+04  0.10566000000E+00 0.  1.
         13    1    1    2    0    0  0.22110549308E+03  0.48705688348E+03  0.57081018717E+03  0.78226359225E+03  0.10566000000E+00 0. -1.
          4    1    1    2  501    0 -0.50331734870E+03 -0.51365910501E+02  0.24183644442E+03  0.56075990951E+03  0.00000000000E+00 0.  1.
</event>
<event>
 5    1  0.2540860E-005  0.2226058E+03  0.7818608E-02  0.1045654E+00
         21   -1    0    0  501  502  0.00000000000E+00  0.00000000000E+00  0.14098868516E+03  0.14098868516E+03  0.00000000000E+00 0.  1.
          4   -1    0    0  502    0 -0.00000000000E+00 -0.00000000000E+00 -0.14727609503E+04  0.14727609503E+04  0.00000000000E+00 0.  1.
        -13    1    1    2    0    0 -0.10742770629E+03  0.20086632185E+03 -0.10037995098E+04  0.10293208724E+04  0.10566000000E+00 0.  1.
         13    1    1    2    0    0  0.12778245578E+03 -0.17160442417E+03 -0.42785951562E+03  0.47837246019E+03  0.10566000000E+00 0. -1.
          4    1    1    2  501    0 -0.20354749491E+02 -0.29261897678E+02  0.99886760316E+02  0.10605630283E+03  0.00000000000E+00 0.  1.
</event>
<event>
 5    1  0.2540860E-005  0.4489952E+03  0.7818608E-02  0.9597370E-01
         21   -1    0    0  501  502  0.00000000000E+00  0.00000000000E+00  0.12393536193E+03  0.12393536193E+03  0.00000000000E+00 0.  1.
         -4   -1    0    0    0  501 -0.00000000000E+00 -0.00000000000E+00 -0.29936013542E+04  0.29936013542E+04  0.00000000000E+00 0. -1.
        -13    1    1    2    0    0 -0.10953324123E+03 -0.44307888842E+03 -0.99382521848E+03  0.10936201390E+04  0.10566000000E+00 0.  1.
         13    1    1    2    0    0  0.10303622044E+03  0.43313252897E+03 -0.19237289497E+04  0.19745767480E+04  0.10566000000E+00 0. -1.
         -4    1    1    2    0  502  0.64970207977E+01  0.99463594466E+01  0.47888175976E+02  0.49339829183E+02  0.00000000000E+00 0. -1.
</event>
<event>
 5    1  0.2540860E-005  0.4324594E+02  0.7818608E-02  0.1322031E+00
         21   -1    0    0  501  502  0.00000000000E+00  0.00000000000E+00  0.29427114261E+03  0.29427114261E+03  0.00000000000E+00 0.  1.
          4   -1    0    0  502    0 -0.00000000000E+00 -0.00000000000E+00 -0.23402255281E+02  0.23402255281E+02  0.00000000000E+00 0.  1.
        -13    1    1    2    0    0 -0.43714760811E+01 -0.48448320262E+02  0.14004199234E+02  0.50620927486E+02  0.10566000000E+00 0.  1.
         13    1    1    2    0    0 -0.17474470488E+02  0.30622670785E+02  0.73344463791E+02  0.81378907695E+02  0.10566000000E+00 0. -1.
          4    1    1    2  501    0  0.21845946569E+02  0.17825649477E+02  0.18352022430E+03  0.18567356271E+03  0.00000000000E+00 0.  1.
</event>
<event>
 5    1  0.2540860E-005  0.5543386E+03  0.7818608E-02  0.9366215E-01
          4   -1    0    0  502    0 -0.00000000000E+00  0.00000000000E+00  0.12584292965E+04  0.12584292965E+04  0.00000000000E+00 0.  1.
         21   -1    0    0  501  502  0.00000000000E+00 -0.00000000000E+00 -0.63224731094E+03  0.63224731094E+03  0.00000000000E+00 0.  1.
        -13    1    1    2    0    0 -0.72535470954E+03  0.18173520205E+03  0.15151374324E+03  0.76297022476E+03  0.10566000000E+00 0.  1.
         13    1    1    2    0    0  0.49722058636E+03  0.10751230027E+03  0.55266805794E+03  0.75115191515E+03  0.10566000000E+00 0. -1.
          4    1    1    2  501    0  0.22813412318E+03 -0.28924750233E+03 -0.77999815637E+02  0.37655446751E+03  0.00000000000E+00 0.  1.
</event>
<event>
 5    1  0.2540860E-005  0.1883789E+02  0.7818608E-02  0.1526690E+00
         21   -1    0    0  501  502  0.00000000000E+00  0.00000000000E+00  0.20019471240E+03  0.20019471240E+03  0.00000000000E+00 0. -1.
         -4   -1    0    0    0  501 -0.00000000000E+00 -0.00000000000E+00 -0.26243649865E+02  0.26243649865E+02  0.00000000000E+00 0. -1.
        -13    1    1    2    0    0 -0.14144378596E+02 -0.15340649142E+02  0.23572111846E+02  0.31481019407E+02  0.10566000000E+00 0.  1.
         13    1    1    2    0    0  0.18550019909E+02  0.41746967281E+01 -0.17981124365E+02  0.26169893559E+02  0.10566000000E+00 0. -1.
         -4    1    1    2    0  502 -0.44056413125E+01  0.11165952414E+02  0.16836007506E+03  0.16878744930E+03  0.00000000000E+00 0. -1.
</event>
<event>
 5    1  0.2540860E-005  0.1677691E+03  0.7818608E-02  0.1084798E+00
         21   -1    0    0  501  502  0.00000000000E+00  0.00000000000E+00  0.36772995637E+03  0.36772995637E+03  0.00000000000E+00 0.  1.
         -4   -1    0    0    0  501 -0.00000000000E+00 -0.00000000000E+00 -0.22902556674E+03  0.22902556674E+03  0.00000000000E+00 0. -1.
        -13    1    1    2    0    0 -0.46076186621E+02 -0.18329043027E+03  0.20140862110E+03  0.27619529435E+03  0.10566000000E+00 0.  1.
         13    1    1    2    0    0  0.34053372171E+02  0.16105523408E+03 -0.15424837867E+03  0.22559032352E+03  0.10566000000E+00 0. -1.
         -4    1    1    2    0  502  0.12022814450E+02  0.22235196192E+02  0.91544147193E+02  0.94969905246E+02  0.00000000000E+00 0. -1.
</event>
<event>
 5    1  0.2540860E-005  0.4789358E+03  0.7818608E-02  0.9650583E-01
         21   -1    0    0  501  502  0.00000000000E+00  0.00000000000E+00  0.71054794990E+03  0.71054794990E+03  0.00000000000E+00 0.  1.
          4   -1    0    0  502    0 -0.00000000000E+00 -0.00000000000E+00 -0.70058616585E+03  0.70058616585E+03  0.00000000000E+00 0.  1.
        -13    1    1    2    0    0 -0.37982049331E+03 -0.33845026746E+03 -0.66204927744E+02  0.51302562734E+03  0.10566000000E+00 0.  1.
         13    1    1    2    0    0  0.26966203803E+03 -0.14555511855E+03 -0.16302234850E+03  0.34710258507E+03  0.10566000000E+00 0. -1.
          4    1    1    2  501    0  0.11015845528E+03  0.48400538601E+03  0.23918906029E+03  0.55100590334E+03  0.00000000000E+00 0.  1.
</event>
<event>
 5    1  0.2540860E-005  0.1803958E+03  0.7818608E-02  0.1074476E+00
         21   -1    0    0  501  502  0.00000000000E+00  0.00000000000E+00  0.26182361936E+03  0.26182361936E+03  0.00000000000E+00 0. -1.
         -4   -1    0    0    0  501 -0.00000000000E+00 -0.00000000000E+00 -0.93748145705E+03  0.93748145705E+03  0.00000000000E+00 0. -1.
        -13    1    1    2    0    0  0.47593696538E+02 -0.17900812883E+03 -0.40016669026E+03  0.44095630316E+03  0.10566000000E+00 0.  1.
         13    1    1    2    0    0 -0.36084496844E+02  0.17320409229E+03 -0.50159243026E+03  0.53188036790E+03  0.10566000000E+00 0. -1.
         -4    1    1    2    0  502 -0.11509199694E+02  0.58040365422E+01  0.22610128284E+03  0.22646840535E+03  0.00000000000E+00 0. -1.
</event>
<event>
 5    1  0.2540860E-005  0.2014339E+03  0.7818608E-02  0.1072553E+00
         -4   -1    0    0    0  501 -0.00000000000E+00  0.00000000000E+00  0.48861081907E+03  0.48861081907E+03  0.00000000000E+00 0. -1.
         21   -1    0    0  501  502  0.00000000000E+00 -0.00000000000E+00 -0.68117489543E+03  0.68117489543E+03  0.00000000000E+00 0. -1.
        -13    1    1    2    0    0 -0.10303755742E+03  0.90064551914E+02 -0.64955985735E+02  0.15148482762E+03  0.10566000000E+00 0.  1.
         13    1    1    2    0    0  0.28821455241E+03 -0.15446496650E+03  0.36383968204E+03  0.48918951286E+03  0.10566000000E+00 0. -1.
         -4    1    1    2    0  502 -0.18517699499E+03  0.64400414582E+02 -0.49144777266E+03  0.52911137403E+03  0.00000000000E+00 0. -1.
</event>
<event>
 5    1  0.2540860E-005  0.5452291E+02  0.7818608E-02  0.1346281E+00
         -4   -1    0    0    0  501 -0.00000000000E+00  0.00000000000E+00  0.15363022859E+03  0.15363022859E+03  0.00000000000E+00 0. -1.
         21   -1    0    0  501  502  0.00000000000E+00 -0.00000000000E+00 -0.70405527089E+02  0.70405527089E+02  0.00000000000E+00 0.  1.
        -13    1    1    2    0    0  0.11329872729E+02 -0.78866256418E+01 -0.45979635543E+02  0.48007321616E+02  0.10566000000E+00 0.  1.
         13    1    1    2    0    0  0.25732216365E+02  0.48412411757E+02  0.99467134308E+02  0.11357654046E+03  0.10566000000E+00 0. -1.
         -4    1    1    2    0  502 -0.37062089094E+02 -0.40525786115E+02  0.29737202734E+02  0.62451893604E+02  0.00000000000E+00 0. -1.
</event>
<event>
 5    1  0.2540860E-005  0.4811400E+03  0.7818608E-02  0.9814937E-01
         -4   -1    0    0    0  501 -0.00000000000E+00  0.00000000000E+00  0.50773216636E+03  0.50773216636E+03  0.00000000000E+00 0. -1.
         21   -1    0    0  501  502  0.00000000000E+00 -0.00000000000E+00 -0.12576724997E+04  0.12576724997E+04  0.00000000000E+00 0. -1.
        -13    1    1    2    0    0 -0.82559756377E+02 -0.14991366457E+03  0.27048745574E+03  0.32008388756E+03  0.10566000000E+00 0.  1.
         13    1    1    2    0    0 -0.23570215126E+03  0.45426100371E+03 -0.80790877970E+03  0.95636037720E+03  0.10566000000E+00 0. -1.
         -4    1    1    2    0  502  0.31826190763E+03 -0.30434733914E+03 -0.21251900937E+03  0.48896040129E+03  0.00000000000E+00 0. -1.
</event>
<event>
 5    1  0.2540860E-005  0.5923398E+03  0.7818608E-02  0.9387110E-01
         -4   -1    0    0    0  501 -0.00000000000E+00  0.00000000000E+00  0.20237314057E+04  0.20237314057E+04  0.00000000000E+00 0. -1.
         21   -1    0    0  501  502  0.00000000000E+00 -0.00000000000E+00 -0.53131858286E+03  0.53131858286E+03  0.00000000000E+00 0.  1.
        -13    1    1    2    0    0  0.23063746289E+03  0.66429303814E+03  0.10349898674E+04  0.12512725190E+04  0.10566000000E+00 0.  1.
         13    1    1    2    0    0 -0.37099235669E+03  0.10064458575E+03  0.34778229076E+03  0.51837939223E+03  0.10566000000E+00 0. -1.
         -4    1    1    2    0  502  0.14035489379E+03 -0.76493762389E+03  0.10964066469E+03  0.78539807742E+03  0.00000000000E+00 0. -1.
</event>
<event>
 5    1  0.2540860E-005  0.8311853E+02  0.7818608E-02  0.1195980E+00
         21   -1    0    0  501  502  0.00000000000E+00  0.00000000000E+00  0.28916196361E+03  0.28916196361E+03  0.00000000000E+00 0. -1.
          4   -1    0    0  502    0 -0.00000000000E+00 -0.00000000000E+00 -0.30915118438E+02  0.30915118438E+02  0.00000000000E+00 0.  1.
        -13    1    1    2    0    0  0.57518378469E+02 -0.61785196739E+02  0.75388154254E+02  0.11317755680E+03  0.10566000000E+00 0.  1.
         13    1    1    2    0    0 -0.63665089384E+02  0.51053691932E+02  0.13758199646E+03  0.15996418343E+03  0.10566000000E+00 0. -1.
          4    1    1    2  501    0  0.61467109148E+01  0.10731504807E+02  0.45276694455E+02  0.46935341815E+02  0.00000000000E+00 0.  1.
</event>
<event>
 5    1  0.2540860E-005  0.5042841E+03  0.7818608E-02  0.9937286E-01
         -4   -1    0    0    0  501 -0.00000000000E+00  0.00000000000E+00  0.86830292900E+03  0.86830292900E+03  0.00000000000E+00 0. -1.
         21   -1    0    0  501  502  0.00000000000E+00 -0.00000000000E+00 -0.48366187112E+03  0.48366187112E+03  0.00000000000E+00 0. -1.
        -13    1    1    2    0    0  0.61329815045E+02 -0.77101429681E+02  0.32098526378E+03  0.33576409487E+03  0.10566000000E+00 0.  1.
         13    1    1    2    0    0  0.38900730535E+03 -0.24449430801E+03  0.55135035496E+02  0.46275699192E+03  0.10566000000E+00 0. -1.
         -4    1    1    2    0  502 -0.45033712039E+03  0.32159573769E+03  0.85207586050E+01  0.55344371334E+03  0.00000000000E+00 0. -1.
</event>
<event>
 5    1  0.2540860E-005  0.2055302E+03  0.7818608E-02  0.1056409E+00
          4   -1    0    0  502    0 -0.00000000000E+00  0.00000000000E+00  0.14196828809E+04  0.14196828809E+04  0.00000000000E+00 0.  1.
         21   -1    0    0  501  502  0.00000000000E+00 -0.00000000000E+00 -0.11619958184E+03  0.11619958184E+03  0.00000000000E+00 0. -1.
        -13    1    1    2    0    0 -0.14987173604E+03 -0.57492948708E+02  0.31261775180E+03  0.35142118081E+03  0.10566000000E+00 0.  1.
         13    1    1    2    0    0  0.25598386610E+03 -0.73697480188E+02  0.97980073151E+03  0.10153662112E+04  0.10566000000E+00 0. -1.
          4    1    1    2  501    0 -0.10611213006E+03  0.13119042890E+03  0.11064815732E+02  0.16909507067E+03  0.00000000000E+00 0.  1.
</event>
<event>
 5    1  0.2540860E-005  0.4998576E+03  0.7818608E-02  0.9604007E-01
         21   -1    0    0  501  502  0.00000000000E+00  0.00000000000E+00  0.63863176183E+03  0.63863176183E+03  0.00000000000E+00 0. -1.
         -4   -1    0    0    0  501 -0.00000000000E+00 -0.00000000000E+00 -0.76486136207E+03  0.76486136207E+03  0.00000000000E+00 0. -1.
        -13    1    1    2    0    0 -0.21659291326E+02  0.31707699045E+03 -0.14959467212E+03  0.35126275046E+03  0.10566000000E+00 0.  1.
         13    1    1    2    0    0  0.38624003274E+03 -0.47515035619E+03  0.15849109839E+03  0.63250981282E+03  0.10566000000E+00 0. -1.
         -4    1    1    2    0  502 -0.36458074141E+03  0.15807336575E+03 -0.13512602651E+03  0.41972056062E+03  0.00000000000E+00 0. -1.
</event>
<event>
 5    1  0.2540860E-005  0.4338097E+03  0.7818608E-02  0.1015004E+00
         21   -1    0    0  501  502  0.00000000000E+00  0.00000000000E+00  0.91017883272E+03  0.91017883272E+03  0.00000000000E+00 0.  1.
          4   -1    0    0  502    0 -0.00000000000E+00 -0.00000000000E+00 -0.32024007260E+03  0.32024007260E+03  0.00000000000E+00 0.  1.
        -13    1    1    2    0    0 -0.42389529884E+03  0.15632095064E+03  0.61973319699E+03  0.76693722729E+03  0.10566000000E+00 0.  1.
         13    1    1    2    0    0  0.76825144724E+02  0.10325818210E+02 -0.55038608339E+01  0.77711189874E+02  0.10566000000E+00 0. -1.
          4    1    1    2  501    0  0.34707015412E+03 -0.16664676885E+03 -0.24290576043E+02  0.38577048815E+03  0.00000000000E+00 0.  1.
</event>
<event>
 5    1  0.2540860E-005  0.4874237E+03  0.7818608E-02  0.9572974E-01
          4   -1    0    0  502    0 -0.00000000000E+00  0.00000000000E+00  0.14631970412E+04  0.14631970412E+04  0.00000000000E+00 0.  1.
         21   -1    0    0  501  502  0.00000000000E+00 -0.00000000000E+00 -0.39457708348E+03  0.39457708348E+03  0.00000000000E+00 0.  1.
        -13    1    1    2    0    0  0.82101863877E+02 -0.32528511163E+03  0.25642055790E+03  0.42225896507E+03  0.10566000000E+00 0.  1.
         13    1    1    2    0    0  0.14991964103E+03 -0.35230060420E+03  0.55555829762E+03  0.67471227031E+03  0.10566000000E+00 0. -1.
          4    1    1    2  501    0 -0.23202150491E+03  0.67758571583E+03  0.25664110221E+03  0.76080288931E+03  0.00000000000E+00 0.  1.
</event>
<event>
 5    1  0.2540860E-005  0.3984938E+03  0.7818608E-02  0.9733406E-01
         21   -1    0    0  501  502  0.00000000000E+00  0.00000000000E+00  0.14937057813E+04  0.14937057813E+04  0.00000000000E+00 0. -1.
          4   -1    0    0  502    0 -0.00000000000E+00 -0.00000000000E+00 -0.16176184116E+03  0.16176184116E+03  0.00000000000E+00 0.  1.
        -13    1    1    2    0    0 -0.34699896034E+03 -0.15233103014E+03  0.34937952943E+03  0.51544067357E+03  0.10566000000E+00 0.  1.
         13    1    1    2    0    0  0.38710044386E+03  0.17482605322E+03  0.50335892074E+03  0.65862061672E+03  0.10566000000E+00 0. -1.
          4    1    1    2  501    0 -0.40101483514E+02 -0.22495023073E+02  0.47920548992E+03  0.48140633212E+03  0.00000000000E+00 0.  1.
</event>
<event>
 5    1  0.2540860E-005  0.1830583E+03  0.7818608E-02  0.1072415E+00
         21   -1    0    0  501  502  0.00000000000E+00  0.00000000000E+00  0.88276911722E+02  0.88276911722E+02  0.00000000000E+00 0. -1.
          4   -1    0    0  502    0 -0.00000000000E+00 -0.00000000000E+00 -0.58984491319E+03  0.58984491319E+03  0.00000000000E+00 0.  1.
        -13    1    1    2    0    0  0.16443809951E+03  0.62870965593E+01 -0.13615152492E+03  0.21358058211E+03  0.10566000000E+00 0.  1.
         13    1    1    2    0    0 -0.20432877472E+03  0.29931039819E+02 -0.18850633510E+03  0.27960823460E+03  0.10566000000E+00 0. -1.
          4    1    1    2  501    0  0.39890675202E+02 -0.36218136379E+02 -0.17691014146E+03  0.18493300820E+03  0.00000000000E+00 0.  1.
</event>
<event>
 5    1  0.2540860E-005  0.3715587E+03  0.7818608E-02  0.9814982E-01
         -4   -1    0    0    0  501 -0.00000000000E+00  0.00000000000E+00  0.13185288885E+04  0.13185288885E+04  0.00000000000E+00 0. -1.
         21   -1    0    0  501  502  0.00000000000E+00 -0.00000000000E+00 -0.56819083979E+03  0.56819083979E+03  0.00000000000E+00 0.  1.
        -13    1    1    2    0    0  0.30123451649E+03 -0.36390512024E+03  0.56251294764E+03  0.73456789876E+03  0.10566000000E+00 0.  1.
         13    1    1    2    0    0 -0.31146418812E+03  0.12736188846E+03  0.59360597076E+03  0.68234818883E+03  0.10566000000E+00 0. -1.
         -4    1    1    2    0  502  0.10229671627E+02  0.23654323178E+03 -0.40578086964E+03  0.46980364074E+03  0.00000000000E+00 0. -1.
</event>
<event>
 5    1  0.2540860E-005  0.5027828E+03  0.7818608E-02  0.9737818E-01
          4   -1    0    0  502    0 -0.00000000000E+00  0.00000000000E+00  0.10235565107E+04  0.10235565107E+04  0.00000000000E+00 0.  1.
         21   -1    0    0  501  502  0.00000000000E+00 -0.00000000000E+00 -0.48109740185E+03  0.48109740185E+03  0.00000000000E+00 0.  1.
        -13    1    1    2    0    0  0.57240884501E+03 -0.58518681714E+02  0.74818661250E+02  0.58023630117E+03  0.10566000000E+00 0.  1.
         13    1    1    2    0    0 -0.15245037477E+03 -0.12222501675E+03  0.42187806982E+03  0.46493138037E+03  0.10566000000E+00 0. -1.
          4    1    1    2  501    0 -0.41995847024E+03  0.18074369846E+03  0.45762377757E+02  0.45948623101E+03  0.00000000000E+00 0.  1.
</event>
<event>
 5    1  0.2540860E-005  0.1156533E+03  0.7818608E-02  0.1140975E+00
         21   -1    0    0  501  502  0.00000000000E+00  0.00000000000E+00  0.26081184651E+03  0.26081184651E+03  0.00000000000E+00 0. -1.
          4   -1    0    0  502    0 -0.00000000000E+00 -0.00000000000E+00 -0.20598459752E+03  0.20598459752E+03  0.00000000000E+00 0.  1.
        -13    1    1    2    0    0  0.65437091349E+02 -0.83633876298E+02 -0.10364633331E+03  0.14838871844E+03  0.10566000000E+00 0.  1.
         13    1    1    2    0    0 -0.15311161029E+03  0.10193464464E+03  0.85315467635E+02  0.20276236625E+03  0.10566000000E+00 0. -1.
          4    1    1    2  501    0  0.87674518945E+02 -0.18300768347E+02  0.73158114663E+02  0.11564535933E+03  0.00000000000E+00 0.  1.
</event>
<event>
 5    1  0.2540860E-005  0.5172458E+03  0.7818608E-02  0.9525804E-01
          4   -1    0    0  502    0 -0.00000000000E+00  0.00000000000E+00  0.48570200293E+03  0.48570200293E+03  0.00000000000E+00 0.  1.
         21   -1    0    0  501  502  0.00000000000E+00 -0.00000000000E+00 -0.16827601251E+04  0.16827601251E+04  0.00000000000E+00 0.  1.
        -13    1    1    2    0    0 -0.27655728187E+03  0.97410754008E+02 -0.14493394633E+03  0.32707590115E+03  0.10566000000E+00 0.  1.
         13    1    1    2    0    0 -0.37142737368E+03 -0.47600691190E+03 -0.73650081875E+02  0.60824766322E+03  0.10566000000E+00 0. -1.
          4    1    1    2  501    0  0.64798465555E+03  0.37859615789E+03 -0.97847409394E+03  0.12331385636E+04  0.00000000000E+00 0.  1.
</event>
<event>
 5    1  0.2540860E-005  0.3639132E+03  0.7818608E-02  0.9839477E-01
         -4   -1    0    0    0  501 -0.00000000000E+00  0.00000000000E+00  0.11809009069E+03  0.11809009069E+03  0.00000000000E+00 0. -1.
         21   -1    0    0  501  502  0.00000000000E+00 -0.00000000000E+00 -0.16905345218E+04  0.16905345218E+04  0.00000000000E+00 0.  1.
        -13    1    1    2    0    0 -0.35377777134E+03 -0.91729333379E+02 -0.41451738878E+03  0.55262795700E+03  0.10566000000E+00 0.  1.
         13    1    1    2    0    0  0.34181542765E+03  0.12072173811E+03 -0.62781306194E+03  0.72495570660E+03  0.10566000000E+00 0. -1.
         -4    1    1    2    0  502  0.11962343690E+02 -0.28992404733E+02 -0.53011398034E+03  0.53104094885E+03  0.00000000000E+00 0. -1.
</event>
<event>
 5    1  0.2540860E-005  0.9311750E+03  0.7818608E-02  0.8842092E-01
          4   -1    0    0  502    0 -0.00000000000E+00  0.00000000000E+00  0.18573813648E+04  0.18573813648E+04  0.00000000000E+00 0.  1.
         21   -1    0    0  501  502  0.00000000000E+00 -0.00000000000E+00 -0.90407489670E+03  0.90407489670E+03  0.00000000000E+00 0.  1.
        -13    1    1    2    0    0 -0.80472837264E+02  0.86858240014E+03  0.43173564452E+03  0.97329694404E+03  0.10566000000E+00 0.  1.
         13    1    1    2    0    0  0.55723475579E+03 -0.88189565635E+03  0.72422643062E+03  0.12699426978E+04  0.10566000000E+00 0. -1.
          4    1    1    2  501    0 -0.47676191853E+03  0.13313256207E+02 -0.20265560708E+03  0.51821661960E+03  0.00000000000E+00 0.  1.
</event>
<event>
 5    1  0.2540860E-005  0.5058203E+03  0.7818608E-02  0.9715697E-01
          4   -1    0    0  502    0 -0.00000000000E+00  0.00000000000E+00  0.16814904099E+04  0.16814904099E+04  0.00000000000E+00 0.  1.
         21   -1    0    0  501  502  0.00000000000E+00 -0.00000000000E+00 -0.38497687338E+03  0.38497687338E+03  0.00000000000E+00 0.  1.
        -13    1    1    2    0    0 -0.54886438821E+03 -0.22252253285E+03  0.40049909149E+02  0.59360963659E+03  0.10566000000E+00 0.  1.
         13    1    1    2    0    0  0.16272329723E+03  0.12823984578E+03  0.94620274919E+03  0.96861962774E+03  0.10566000000E+00 0. -1.
          4    1    1    2  501    0  0.38614109098E+03  0.94282687074E+02  0.31026087818E+03  0.50423801895E+03  0.00000000000E+00 0.  1.
</event>
<event>
 5    1  0.2540860E-005  0.2810545E+03  0.7818608E-02  0.1015447E+00
          4   -1    0    0  502    0 -0.00000000000E+00  0.00000000000E+00  0.26131667780E+03  0.26131667780E+03  0.00000000000E+00 0.  1.
         21   -1    0    0  501  502  0.00000000000E+00 -0.00000000000E+00 -0.49363546465E+03  0.49363546465E+03  0.00000000000E+00 0. -1.
        -13    1    1    2    0    0  0.23926824039E+03  0.15027551334E+03  0.10909337406E+03  0.30287521556E+03  0.10566000000E+00 0.  1.
         13    1    1    2    0    0 -0.24031605948E+03 -0.13550557004E+03 -0.29749152574E+03  0.40572747875E+03  0.10566000000E+00 0. -1.
          4    1    1    2  501    0  0.10478190938E+01 -0.14769943301E+02 -0.43920635173E+02  0.46349448152E+02  0.00000000000E+00 0.  1.
</event>
<event>
 5    1  0.2540860E-005  0.1608038E+03  0.7818608E-02  0.1090920E+00
         21   -1    0    0  501  502  0.00000000000E+00  0.00000000000E+00  0.43615422479E+03  0.43615422479E+03  0.00000000000E+00 0.  1.
         -4   -1    0    0    0  501 -0.00000000000E+00 -0.00000000000E+00 -0.24729616597E+03  0.24729616597E+03  0.00000000000E+00 0. -1.
        -13    1    1    2    0    0  0.59231406021E+02  0.16239145117E+03  0.25382284191E+03  0.30709182521E+03  0.10566000000E+00 0.  1.
         13    1    1    2    0    0 -0.55839578299E+02 -0.14947300033E+03 -0.19141858013E+03  0.24920136499E+03  0.10566000000E+00 0. -1.
         -4    1    1    2    0  502 -0.33918277228E+01 -0.12918450840E+02  0.12645379704E+03  0.12715720055E+03  0.00000000000E+00 0. -1.
</event>
<event>
 5    1  0.2540860E-005  0.3526998E+03  0.7818608E-02  0.9876580E-01
          4   -1    0    0  502    0 -0.00000000000E+00  0.00000000000E+00  0.17381200124E+04  0.17381200124E+04  0.00000000000E+00 0.  1.
         21   -1    0    0  501  502  0.00000000000E+00 -0.00000000000E+00 -0.19055422229E+03  0.19055422229E+03  0.00000000000E+00 0.  1.
        -13    1    1    2    0    0  0.36103865171E+03 -0.58395536839E+02  0.14227394614E+04  0.14689950759E+04  0.10566000000E+00 0.  1.
         13    1    1    2    0    0 -0.25508297274E+03  0.12076523772E+03 -0.31069747480E+01  0.28224321086E+03  0.10566000000E+00 0. -1.
          4    1    1    2  501    0 -0.10595567897E+03 -0.62369700879E+02  0.12793330352E+03  0.17743594801E+03  0.00000000000E+00 0.  1.
</event>
<event>
 5    1  0.2540860E-005  0.9393347E+02  0.7818608E-02  0.1187107E+00
         21   -1    0    0  501  502  0.00000000000E+00  0.00000000000E+00  0.18246465685E+03  0.18246465685E+03  0.00000000000E+00 0.  1.
         -4   -1    0    0    0  501 -0.00000000000E+00 -0.00000000000E+00 -0.34571020912E+03  0.34571020912E+03  0.00000000000E+00 0. -1.
        -13    1    1    2    0    0  0.54791167399E+02 -0.44644896784E+02  0.10852004849E+03  0.12950618102E+03  0.10566000000E+00 0.  1.
         13    1    1    2    0    0 -0.13748167955E+03  0.10808799018E+02 -0.27672677104E+03  0.30918563894E+03  0.10566000000E+00 0. -1.
         -4    1    1    2    0  502  0.82690512154E+02  0.33836097766E+02  0.49611702862E+01  0.89483046008E+02  0.00000000000E+00 0. -1.
</event>
<event>
 5    1  0.2540860E-005  0.7082687E+02  0.7818608E-02  0.1224574E+00
         21   -1    0    0  501  502  0.00000000000E+00  0.00000000000E+00  0.52204356846E+03  0.52204356846E+03  0.00000000000E+00 0. -1.
         -4   -1    0    0    0  501 -0.00000000000E+00 -0.00000000000E+00 -0.87586096872E+02  0.87586096872E+02  0.00000000000E+00 0. -1.
        -13    1    1    2    0    0 -0.64112333107E+02  0.52128948891E+02  0.18121158711E+03  0.19916191663E+03  0.10566000000E+00 0.  1.
         13    1    1    2    0    0  0.58470448829E+02 -0.38291503819E+02 -0.62863955161E+02  0.94004897072E+02  0.10566000000E+00 0. -1.
         -4    1    1    2    0  502  0.56418842784E+01 -0.13837445072E+02  0.31610983964E+03  0.31646285163E+03  0.00000000000E+00 0. -1.
</event>
<event>
 5    1  0.2540860E-005  0.1659928E+03  0.7818608E-02  0.1086328E+00
         -4   -1    0    0    0  501 -0.00000000000E+00  0.00000000000E+00  0.36820971358E+02  0.36820971358E+02  0.00000000000E+00 0. -1.
         21   -1    0    0  501  502  0.00000000000E+00 -0.00000000000E+00 -0.10318333914E+04  0.10318333914E+04  0.00000000000E+00 0.  1.
        -13    1    1    2    0    0  0.92531876474E+02  0.14423298004E+03 -0.31905678844E+03  0.36216370070E+03  0.10566000000E+00 0.  1.
         13    1    1    2    0    0 -0.77109638850E+02 -0.13964008548E+03 -0.40833239842E+03  0.43838408803E+03  0.10566000000E+00 0. -1.
         -4    1    1    2    0  502 -0.15422237625E+02 -0.45928945680E+01 -0.26762323317E+03  0.26810657400E+03  0.00000000000E+00 0. -1.
</event>
<event>
 5    1  0.2540860E-005  0.4320845E+03  0.7818608E-02  0.9783495E-01
         21   -1    0    0  501  502  0.00000000000E+00  0.00000000000E+00  0.44951979068E+03  0.44951979068E+03  0.00000000000E+00 0.  1.
         -4   -1    0    0    0  501 -0.00000000000E+00 -0.00000000000E+00 -0.89709554437E+03  0.89709554437E+03  0.00000000000E+00 0. -1.
        -13    1    1    2    0    0 -0.52384681930E+01  0.26303223412E+03 -0.22479677613E+03  0.34604479400E+03  0.10566000000E+00 0.  1.
         13    1    1    2    0    0 -0.15664053759E+03 -0.58431222441E+03 -0.21077848655E+03  0.64061268733E+03  0.10566000000E+00 0. -1.
         -4    1    1    2    0  502  0.16187900578E+03  0.32127999029E+03 -0.12000491010E+02  0.35995785372E+03  0.00000000000E+00 0. -1.
</event>
<event>
 5    1  0.2540860E-005  0.1114857E+03  0.7818608E-02  0.1146835E+00
         21   -1    0    0  501  502  0.00000000000E+00  0.00000000000E+00  0.61306347582E+03  0.61306347582E+03  0.00000000000E+00 0. -1.
         -4   -1    0    0    0  501 -0.00000000000E+00 -0.00000000000E+00 -0.10297144424E+04  0.10297144424E+04  0.00000000000E+00 0. -1.
        -13    1    1    2    0    0  0.10243626685E+03  0.11909544911E+02 -0.61123217491E+03  0.61987080012E+03  0.10566000000E+00 0.  1.
         13    1    1    2    0    0 -0.13116997515E+03 -0.12997314450E+02 -0.40332096330E+03  0.42431392054E+03  0.10566000000E+00 0. -1.
         -4    1    1    2    0  502  0.28733708296E+02  0.10877695389E+01  0.59790217167E+03  0.59859319752E+03  0.00000000000E+00 0. -1.
</event>
<event>
 5    1  0.2540860E-005  0.1805012E+03  0.7818608E-02  0.1074393E+00
          4   -1    0    0  502    0 -0.00000000000E+00  0.00000000000E+00  0.15834224816E+04  0.15834224816E+04  0.00000000000E+00 0.  1.
         21   -1    0    0  501  502  0.00000000000E+00 -0.00000000000E+00 -0.34778805957E+02  0.34778805957E+02  0.00000000000E+00 0. -1.
        -13    1    1    2    0    0  0.18303271282E+03 -0.67652748298E+02  0.10441975652E+04  0.10622741805E+04  0.10566000000E+00 0.  1.
         13    1    1    2    0    0 -0.12842802703E+03  0.63733302045E+02  0.19702146712E+03  0.24366608625E+03  0.10566000000E+00 0. -1.
          4    1    1    2  501    0 -0.54604685795E+02  0.39194462533E+01  0.30742464328E+03  0.31226102073E+03  0.00000000000E+00 0.  1.
</event>
<event>
 5    1  0.2540860E-005  0.3380968E+03  0.7818608E-02  0.9927158E-01
         21   -1    0    0  501  502  0.00000000000E+00  0.00000000000E+00  0.39623713333E+03  0.39623713333E+03  0.00000000000E+00 0. -1.
          4   -1    0    0  502    0 -0.00000000000E+00 -0.00000000000E+00 -0.18715652229E+04  0.18715652229E+04  0.00000000000E+00 0.  1.
        -13    1    1    2    0    0 -0.33391331901E+03 -0.52060785886E+02 -0.17617527332E+04  0.17938732213E+04  0.10566000000E+00 0.  1.
         13    1    1    2    0    0  0.33434051981E+03  0.69137274483E+02  0.22191811488E+03  0.40719922248E+03  0.10566000000E+00 0. -1.
          4    1    1    2  501    0 -0.42720080445E+00 -0.17076488597E+02  0.64506528752E+02  0.66729912446E+02  0.00000000000E+00 0.  1.
</event>
<event>
 5    1  0.2540860E-005  0.1406102E+03  0.7818608E-02  0.1110760E+00
         -4   -1    0    0    0  501 -0.00000000000E+00  0.00000000000E+00  0.16159278514E+04  0.16159278514E+04  0.00000000000E+00 0. -1.
         21   -1    0    0  501  502  0.00000000000E+00 -0.00000000000E+00 -0.27043583653E+02  0.27043583653E+02  0.00000000000E+00 0. -1.
        -13    1    1    2    0    0  0.16523515830E+01 -0.15027766396E+03  0.73026997358E+03  0.74557384076E+03  0.10566000000E+00 0.  1.
         13    1    1    2    0    0  0.99989591841E+02  0.11181779913E+03  0.43815517950E+03  0.46312105455E+03  0.10566000000E+00 0. -1.
         -4    1    1    2    0  502 -0.10164194342E+03  0.38459864830E+02  0.42045911471E+03  0.43427653978E+03  0.00000000000E+00 0. -1.
</event>
<event>
 5    1  0.2540860E-005  0.3401407E+03  0.7818608E-02  0.9919917E-01
         21   -1    0    0  501  502  0.00000000000E+00  0.00000000000E+00  0.29083250114E+03  0.29083250114E+03  0.00000000000E+00 0. -1.
         -4   -1    0    0    0  501 -0.00000000000E+00 -0.00000000000E+00 -0.20388249287E+04  0.20388249287E+04  0.00000000000E+00 0. -1.
        -13    1    1    2    0    0 -0.20190560993E+03  0.37780776237E+03 -0.48360737731E+03  0.64605006554E+03  0.10566000000E+00 0.  1.
         13    1    1    2    0    0  0.13927767265E+03 -0.28922991528E+03 -0.14410068147E+04  0.14763308793E+04  0.10566000000E+00 0. -1.
         -4    1    1    2    0  502  0.62627937281E+02 -0.88577847083E+02  0.17662176450E+03  0.20727648496E+03  0.00000000000E+00 0. -1.
</event>
<event>
 5    1  0.2540860E-005  0.3459366E+03  0.7818608E-02  0.9934088E-01
         21   -1    0    0  501  502  0.00000000000E+00  0.00000000000E+00  0.18306608212E+04  0.18306608212E+04  0.00000000000E+00 0. -1.
          4   -1    0    0  502    0 -0.00000000000E+00 -0.00000000000E+00 -0.25760864473E+03  0.25760864473E+03  0.00000000000E+00 0.  1.
        -13    1    1    2    0    0  0.21936387215E+03  0.22692686430E+03 -0.16694917977E+02  0.31606176864E+03  0.10566000000E+00 0.  1.
         13    1    1    2    0    0 -0.41102042310E+03  0.61065996446E+02  0.65701218776E+03  0.77738785054E+03  0.10566000000E+00 0. -1.
          4    1    1    2  501    0  0.19165655096E+03 -0.28799286075E+03  0.93273490672E+03  0.99481984680E+03  0.00000000000E+00 0.  1.
</event>
<event>
 5    1  0.2540860E-005  0.1766519E+03  0.7818608E-02  0.1077439E+00
          4   -1    0    0  502    0 -0.00000000000E+00  0.00000000000E+00  0.47300341090E+02  0.47300341090E+02  0.00000000000E+00 0.  1.
         21   -1    0    0  501  502  0.00000000000E+00 -0.00000000000E+00 -0.15048607399E+04  0.15048607399E+04  0.00000000000E+00 0. -1.
        -13    1    1    2    0    0 -0.13713742253E+03 -0.10838604865E+03 -0.16403685271E+03  0.23971297088E+03  0.10566000000E+00 0.  1.
         13    1    1    2    0    0  0.13460010959E+03  0.12829040918E+03 -0.93200014864E+03  0.95036830061E+03  0.10566000000E+00 0. -1.
          4    1    1    2  501    0  0.25373129449E+01 -0.19904360532E+02 -0.36152339750E+03  0.36207980952E+03  0.00000000000E+00 0.  1.
</event>
<event>
 5    1  0.2540860E-005  0.1113546E+04  0.7818608E-02  0.8674673E-01
          4   -1    0    0  502    0 -0.00000000000E+00  0.00000000000E+00  0.11358063791E+04  0.11358063791E+04  0.00000000000E+00 0.  1.
         21   -1    0    0  501  502  0.00000000000E+00 -0.00000000000E+00 -0.21745011964E+04  0.21745011964E+04  0.00000000000E+00 0. -1.
        -13    1    1    2    0    0 -0.12486905220E+04  0.14050820154E+03 -0.13809378144E+04  0.18670725301E+04  0.10566000000E+00 0.  1.
         13    1    1    2    0    0  0.10838048392E+04 -0.71764486707E+01  0.48522107037E+03  0.11874863911E+04  0.10566000000E+00 0. -1.
          4    1    1    2  501    0  0.16488568278E+03 -0.13333175286E+03 -0.14297807330E+03  0.25574865425E+03  0.00000000000E+00 0.  1.
</event>
<event>
 5    1  0.2540860E-005  0.3658077E+03  0.7818608E-02  0.9850252E-01
         -4   -1    0    0    0  501 -0.00000000000E+00  0.00000000000E+00  0.23680819281E+04  0.23680819281E+04  0.00000000000E+00 0. -1.
         21   -1    0    0  501  502  0.00000000000E+00 -0.00000000000E+00 -0.21215539162E+03  0.21215539162E+03  0.00000000000E+00 0. -1.
        -13    1    1    2    0    0  0.20170944555E+03  0.28045884992E+03  0.41002067421E+03  0.53615373855E+03  0.10566000000E+00 0.  1.
         13    1    1    2    0    0 -0.45910427905E+03 -0.12243295973E+02  0.15643543216E+04  0.16303775918E+04  0.10566000000E+00 0. -1.
         -4    1    1    2    0  502  0.25739483350E+03 -0.26821555394E+03  0.18155154070E+03  0.41370598935E+03  0.00000000000E+00 0. -1.
</event>
<event>
 5    1  0.2540860E-005  0.1264326E+03  0.7818608E-02  0.1126995E+00
         21   -1    0    0  501  502  0.00000000000E+00  0.00000000000E+00  0.13105203582E+03  0.13105203582E+03  0.00000000000E+00 0. -1.
          4   -1    0    0  502    0 -0.00000000000E+00 -0.00000000000E+00 -0.18292399008E+03  0.18292399008E+03  0.00000000000E+00 0.  1.
        -13    1    1    2    0    0 -0.73122418678E+02 -0.96705827232E+02 -0.93078263377E+01  0.12159585490E+03  0.10566000000E+00 0.  1.
         13    1    1    2    0    0  0.73476699931E+02  0.10702635711E+03 -0.80707754625E+02  0.15286340102E+03  0.10566000000E+00 0. -1.
          4    1    1    2  501    0 -0.35428125327E+00 -0.10320529882E+02  0.38143626700E+02  0.39516769986E+02  0.00000000000E+00 0.  1.
</event>
<event>
 5    1  0.2540860E-005  0.1762385E+03  0.7818608E-02  0.1077771E+00
          4   -1    0    0  502    0 -0.00000000000E+00  0.00000000000E+00  0.39785050920E+03  0.39785050920E+03  0.00000000000E+00 0.  1.
         21   -1    0    0  501  502  0.00000000000E+00 -0.00000000000E+00 -0.10630281525E+04  0.10630281525E+04  0.00000000000E+00 0.  1.
        -13    1    1    2    0    0 -0.18241775635E+03 -0.79566028477E+02 -0.99724350768E+03  0.10169078697E+04  0.10566000000E+00 0.  1.
         13    1    1    2    0    0  0.17040661083E+03  0.40572704403E+02  0.87098967415E+02  0.19562923770E+03  0.10566000000E+00 0. -1.
          4    1    1    2  501    0  0.12011145521E+02  0.38993324075E+02  0.24496689700E+03  0.24834155425E+03  0.00000000000E+00 0.  1.
</event>
<event>
 5    1  0.2540860E-005  0.9456233E+02  0.7818608E-02  0.1173880E+00
         -4   -1    0    0    0  501 -0.00000000000E+00  0.00000000000E+00  0.13387863397E+03  0.13387863397E+03  0.00000000000E+00 0. -1.
         21   -1    0    0  501  502  0.00000000000E+00 -0.00000000000E+00 -0.19737861563E+03  0.19737861563E+03  0.00000000000E+00 0. -1.
        -13    1    1    2    0    0 -0.51712650119E+02 -0.72781558294E+02  0.68705544723E+02  0.11265796221E+03  0.10566000000E+00 0.  1.
         13    1    1    2    0    0  0.42773745206E+02  0.11271522725E+03 -0.57834012873E+02  0.13371275160E+03  0.10566000000E+00 0. -1.
         -4    1    1    2    0  502  0.89389049131E+01 -0.39933668952E+02 -0.74371513507E+02  0.84886535790E+02  0.00000000000E+00 0. -1.
</event>
<event>
 5    1  0.2540860E-005  0.4490488E+03  0.7818608E-02  0.9902142E-01
         -4   -1    0    0    0  501 -0.00000000000E+00  0.00000000000E+00  0.14059759230E+04  0.14059759230E+04  0.00000000000E+00 0. -1.
         21   -1    0    0  501  502  0.00000000000E+00 -0.00000000000E+00 -0.24644550964E+03  0.24644550964E+03  0.00000000000E+00 0. -1.
        -13    1    1    2    0    0  0.15671122954E+03 -0.69041747295E+01  0.17601299753E+03  0.23576824120E+03  0.10566000000E+00 0.  1.
         13    1    1    2    0    0 -0.27430792510E+03  0.38668854081E+03  0.15689066516E+03  0.49938718180E+03  0.10566000000E+00 0. -1.
         -4    1    1    2    0  502  0.11759669556E+03 -0.37978436608E+03  0.82662675068E+03  0.91726600965E+03  0.00000000000E+00 0. -1.
</event>
<event>
 5    1  0.2540860E-005  0.5989531E+02  0.7818608E-02  0.1256037E+00
         21   -1    0    0  501  502  0.00000000000E+00  0.00000000000E+00  0.11519296253E+03  0.11519296253E+03  0.00000000000E+00 0. -1.
         -4   -1    0    0    0  501 -0.00000000000E+00 -0.00000000000E+00 -0.10178700999E+03  0.10178700999E+03  0.00000000000E+00 0. -1.
        -13    1    1    2    0    0  0.27545800541E+02 -0.56372442037E+02  0.10544295471E+01  0.62751464798E+02  0.10566000000E+00 0.  1.
         13    1    1    2    0    0 -0.51600470802E+02  0.33325828909E+02 -0.52834790616E+02  0.81023118448E+02  0.10566000000E+00 0. -1.
         -4    1    1    2    0  502  0.24054670261E+02  0.23046613127E+02  0.65186313603E+02  0.73205389277E+02  0.00000000000E+00 0. -1.
</event>
<event>
 5    1  0.2540860E-005  0.1071013E+04  0.7818608E-02  0.8710587E-01
         21   -1    0    0  501  502  0.00000000000E+00  0.00000000000E+00  0.10833438514E+04  0.10833438514E+04  0.00000000000E+00 0.  1.
          4   -1    0    0  502    0 -0.00000000000E+00 -0.00000000000E+00 -0.15440879955E+04  0.15440879955E+04  0.00000000000E+00 0.  1.
        -13    1    1    2    0    0  0.71218801600E+03 -0.86608151528E+03  0.28039282365E+03  0.11558239952E+04  0.10566000000E+00 0.  1.
         13    1    1    2    0    0 -0.51883648423E+03  0.91666207092E+03 -0.52384856308E+03  0.11763834315E+04  0.10566000000E+00 0. -1.
          4    1    1    2  501    0 -0.19335153177E+03 -0.50580555642E+02 -0.21728840465E+03  0.29522442013E+03  0.00000000000E+00 0.  1.
</event>
<event>
 5    1  0.2540860E-005  0.4919590E+03  0.7818608E-02  0.9707959E-01
         -4   -1    0    0    0  501 -0.00000000000E+00  0.00000000000E+00  0.18943955853E+04  0.18943955853E+04  0.00000000000E+00 0. -1.
         21   -1    0    0  501  502  0.00000000000E+00 -0.00000000000E+00 -0.50254865833E+03  0.50254865833E+03  0.00000000000E+00 0. -1.
        -13    1    1    2    0    0  0.19965519179E+03 -0.11683635013E+03  0.13538399038E+04  0.13734611114E+04  0.10566000000E+00 0.  1.
         13    1    1    2    0    0  0.38186172944E+02  0.52575051101E+03 -0.86820928897E+02  0.53423746451E+03  0.10566000000E+00 0. -1.
         -4    1    1    2    0  502 -0.23784136474E+03 -0.40891416088E+03  0.12482795208E+03  0.48924566771E+03  0.00000000000E+00 0. -1.
</event>
<event>
 5    1  0.2540860E-005  0.5019300E+03  0.7818608E-02  0.9522221E-01
         21   -1    0    0  501  502  0.00000000000E+00  0.00000000000E+00  0.18833418028E+04  0.18833418028E+04  0.00000000000E+00 0. -1.
         -4   -1    0    0    0  501 -0.00000000000E+00 -0.00000000000E+00 -0.33683014665E+03  0.33683014665E+03  0.00000000000E+00 0. -1.
        -13    1    1    2    0    0 -0.34409239172E+03 -0.24231940463E+03  0.14529027353E+03  0.44522751785E+03  0.10566000000E+00 0.  1.
         13    1    1    2    0    0 -0.33560879562E+03  0.68402722977E+02  0.23998482262E+03  0.41821635843E+03  0.10566000000E+00 0. -1.
         -4    1    1    2    0  502  0.67970118734E+03  0.17391668165E+03  0.11612365600E+04  0.13567280732E+04  0.00000000000E+00 0. -1.
</event>
<event>
 5    1  0.2540860E-005  0.1258152E+03  0.7818608E-02  0.1127754E+00
          4   -1    0    0  502    0 -0.00000000000E+00  0.00000000000E+00  0.65768882374E+02  0.65768882374E+02  0.00000000000E+00 0.  1.
         21   -1    0    0  501  502  0.00000000000E+00 -0.00000000000E+00 -0.86390215374E+03  0.86390215374E+03  0.00000000000E+00 0.  1.
        -13    1    1    2    0    0  0.10485789641E+03 -0.48795414956E+02 -0.48461755622E+02  0.12539826108E+03  0.10566000000E+00 0.  1.
         13    1    1    2    0    0 -0.13338750774E+03  0.70308748985E+02 -0.18586552060E+03  0.23933564364E+03  0.10566000000E+00 0. -1.
          4    1    1    2  501    0  0.28529611328E+02 -0.21513334029E+02 -0.56380599515E+03  0.56493713140E+03  0.00000000000E+00 0.  1.
</event>
<event>
 5    1  0.2540860E-005  0.1451816E+03  0.7818608E-02  0.1105963E+00
         -4   -1    0    0    0  501 -0.00000000000E+00  0.00000000000E+00  0.90983844133E+03  0.90983844133E+03  0.00000000000E+00 0. -1.
         21   -1    0    0  501  502  0.00000000000E+00 -0.00000000000E+00 -0.13838091925E+03  0.13838091925E+03  0.00000000000E+00 0. -1.
        -13    1    1    2    0    0  0.10285288639E+03 -0.78546966242E+02  0.43593527135E+03  0.45473939143E+03  0.10566000000E+00 0.  1.
         13    1    1    2    0    0 -0.12148247142E+03  0.12427537550E+03  0.44263746809E+03  0.47553159636E+03  0.10566000000E+00 0. -1.
         -4    1    1    2    0  502  0.18629585040E+02 -0.45728409258E+02 -0.10711521737E+03  0.11794837279E+03  0.00000000000E+00 0. -1.
</event>
<event>
 5    1  0.2540860E-005  0.2347829E+02  0.7818608E-02  0.1466533E+00
         21   -1    0    0  501  502  0.00000000000E+00  0.00000000000E+00  0.90243766091E+01  0.90243766091E+01  0.00000000000E+00 0.  1.
          4   -1    0    0  502    0 -0.00000000000E+00 -0.00000000000E+00 -0.13357358604E+03  0.13357358604E+03  0.00000000000E+00 0.  1.
        -13    1    1    2    0    0  0.26871744361E+02 -0.67011730953E+01 -0.46700066160E+02  0.54294601106E+02  0.10566000000E+00 0.  1.
         13    1    1    2    0    0 -0.20748921458E+02 -0.10336814694E+02 -0.49610839239E+02  0.54759602023E+02  0.10566000000E+00 0. -1.
          4    1    1    2  501    0 -0.61228229032E+01  0.17037987789E+02 -0.28238304034E+02  0.33543759523E+02  0.00000000000E+00 0.  1.
</event>
<event>
 5    1  0.2540860E-005  0.5399085E+03  0.7818608E-02  0.9394543E-01
          4   -1    0    0  502    0 -0.00000000000E+00  0.00000000000E+00  0.18894672458E+04  0.18894672458E+04  0.00000000000E+00 0.  1.
         21   -1    0    0  501  502  0.00000000000E+00 -0.00000000000E+00 -0.33956315728E+03  0.33956315728E+03  0.00000000000E+00 0. -1.
        -13    1    1    2    0    0 -0.73906073376E+03  0.14118791185E+03  0.63040322240E+03  0.98160736988E+03  0.10566000000E+00 0.  1.
         13    1    1    2    0    0  0.40720352016E+03 -0.22330622220E+03  0.70373040317E+03  0.84315886238E+03  0.10566000000E+00 0. -1.
          4    1    1    2  501    0  0.33185721360E+03  0.82118310352E+02  0.21577046293E+03  0.40426417079E+03  0.00000000000E+00 0.  1.
</event>
<event>
 5    1  0.2540860E-005  0.4398680E+03  0.7818608E-02  0.1021448E+00
          4   -1    0    0  502    0 -0.00000000000E+00  0.00000000000E+00  0.36476566236E+03  0.36476566236E+03  0.00000000000E+00 0.  1.
         21   -1    0    0  501  502  0.00000000000E+00 -0.00000000000E+00 -0.76310931431E+03  0.76310931431E+03  0.00000000000E+00 0.  1.
        -13    1    1    2    0    0 -0.23267048228E+03 -0.34918516329E+03  0.81009249754E+02  0.42735037299E+03  0.10566000000E+00 0.  1.
         13    1    1    2    0    0 -0.59974410061E+02  0.90006326157E+01 -0.75274614774E+02  0.96665505963E+02  0.10566000000E+00 0. -1.
          4    1    1    2  501    0  0.29264489234E+03  0.34018453068E+03 -0.40407828693E+03  0.60385909771E+03  0.00000000000E+00 0.  1.
</event>
<event>
 5    1  0.2540860E-005  0.1202975E+03  0.7818608E-02  0.1134756E+00
          4   -1    0    0  502    0 -0.00000000000E+00  0.00000000000E+00  0.18386704724E+02  0.18386704724E+02  0.00000000000E+00 0.  1.
         21   -1    0    0  501  502  0.00000000000E+00 -0.00000000000E+00 -0.95876635687E+03  0.95876635687E+03  0.00000000000E+00 0. -1.
        -13    1    1    2    0    0  0.48164602294E+02  0.11693732478E+03 -0.32957333293E+03  0.35300532543E+03  0.10566000000E+00 0.  1.
         13    1    1    2    0    0 -0.48668781991E+02 -0.99366471425E+02 -0.53648418390E+03  0.54777516986E+03  0.10566000000E+00 0. -1.
          4    1    1    2  501    0  0.50417969714E+00 -0.17570853350E+02 -0.74322135315E+02  0.76372566294E+02  0.00000000000E+00 0.  1.
</event>
<event>
 5    1  0.2540860E-005  0.4030874E+02  0.7818608E-02  0.1337200E+00
          4   -1    0    0  502    0 -0.00000000000E+00  0.00000000000E+00  0.16517051655E+03  0.16517051655E+03  0.00000000000E+00 0.  1.
         21   -1    0    0  501  502  0.00000000000E+00 -0.00000000000E+00 -0.18437830867E+02  0.18437830867E+02  0.00000000000E+00 0.  1.
        -13    1    1    2    0    0 -0.27326455521E+02  0.36931630981E+02  0.51575527564E+02  0.69070447702E+02  0.10566000000E+00 0.  1.
         13    1    1    2    0    0  0.28197848416E+02 -0.25757304528E+02  0.95980263846E+02  0.10329946565E+03  0.10566000000E+00 0. -1.
          4    1    1    2  501    0 -0.87139289544E+00 -0.11174326454E+02 -0.82310572115E+00  0.11238434068E+02  0.00000000000E+00 0.  1.
</event>
<event>
 5    1  0.2540860E-005  0.1432245E+03  0.7818608E-02  0.1195109E+00
         21   -1    0    0  501  502  0.00000000000E+00  0.00000000000E+00  0.46325748583E+03  0.46325748583E+03  0.00000000000E+00 0. -1.
         -4   -1    0    0    0  501 -0.00000000000E+00 -0.00000000000E+00 -0.51870128599E+02  0.51870128599E+02  0.00000000000E+00 0. -1.
        -13    1    1    2    0    0 -0.46514324051E+01 -0.15906864142E+02  0.24864723358E+02  0.29881930693E+02  0.10566000000E+00 0.  1.
         13    1    1    2    0    0  0.11888118935E+03 -0.74297336994E+02  0.13486928065E+03  0.19453165679E+03  0.10566000000E+00 0. -1.
         -4    1    1    2    0  502 -0.11422975695E+03  0.90204201136E+02  0.25165335323E+03  0.29071402695E+03  0.00000000000E+00 0. -1.
</event>
<event>
 5    1  0.2540860E-005  0.3533938E+03  0.7818608E-02  0.9874242E-01
         21   -1    0    0  501  502  0.00000000000E+00  0.00000000000E+00  0.72470543951E+03  0.72470543951E+03  0.00000000000E+00 0. -1.
          4   -1    0    0  502    0 -0.00000000000E+00 -0.00000000000E+00 -0.29555552399E+03  0.29555552399E+03  0.00000000000E+00 0.  1.
        -13    1    1    2    0    0  0.27269299909E+03 -0.22555001555E+03  0.27578320657E+02  0.35495754141E+03  0.10566000000E+00 0.  1.
         13    1    1    2    0    0 -0.26495545293E+03  0.23306913953E+03  0.10448557378E+03  0.36802155117E+03  0.10566000000E+00 0. -1.
          4    1    1    2  501    0 -0.77375461661E+01 -0.75191239750E+01  0.29708602109E+03  0.29728187091E+03  0.00000000000E+00 0.  1.
</event>
<event>
 5    1  0.2540860E-005  0.4501265E+03  0.7818608E-02  0.9870900E-01
         21   -1    0    0  501  502  0.00000000000E+00  0.00000000000E+00  0.26486185742E+03  0.26486185742E+03  0.00000000000E+00 0.  1.
          4   -1    0    0  502    0 -0.00000000000E+00 -0.00000000000E+00 -0.18227381972E+04  0.18227381972E+04  0.00000000000E+00 0.  1.
        -13    1    1    2    0    0  0.35621097146E+03  0.31722359301E+03 -0.72704629990E+02  0.48249667205E+03  0.10566000000E+00 0.  1.
         13    1    1    2    0    0 -0.17027334525E+03  0.30293730290E+02 -0.76325814515E+03  0.78260700834E+03  0.10566000000E+00 0. -1.
          4    1    1    2  501    0 -0.18593762622E+03 -0.34751732330E+03 -0.72191356465E+03  0.82249637426E+03  0.00000000000E+00 0.  1.
</event>
<event>
 5    1  0.2540860E-005  0.2026684E+03  0.7818608E-02  0.1058322E+00
         -4   -1    0    0    0  501 -0.00000000000E+00  0.00000000000E+00  0.49723347348E+03  0.49723347348E+03  0.00000000000E+00 0. -1.
         21   -1    0    0  501  502  0.00000000000E+00 -0.00000000000E+00 -0.16515267371E+03  0.16515267371E+03  0.00000000000E+00 0. -1.
        -13    1    1    2    0    0 -0.19735762624E+03 -0.18831972358E+02  0.20133381238E+03  0.28255971226E+03  0.10566000000E+00 0.  1.
         13    1    1    2    0    0  0.20709565351E+03  0.10426432913E+02  0.21259440673E+03  0.29697426343E+03  0.10566000000E+00 0. -1.
         -4    1    1    2    0  502 -0.97380272740E+01  0.84055394452E+01 -0.81847419346E+02  0.82852171499E+02  0.00000000000E+00 0. -1.
</event>
<event>
 5    1  0.2540860E-005  0.4786762E+03  0.7818608E-02  0.9704513E-01
         21   -1    0    0  501  502  0.00000000000E+00  0.00000000000E+00  0.12115882583E+04  0.12115882583E+04  0.00000000000E+00 0. -1.
         -4   -1    0    0    0  501 -0.00000000000E+00 -0.00000000000E+00 -0.34262266179E+03  0.34262266179E+03  0.00000000000E+00 0. -1.
        -13    1    1    2    0    0 -0.24377082025E+03  0.71900549019E+02  0.12616112318E+03  0.28374379627E+03  0.10566000000E+00 0.  1.
         13    1    1    2    0    0  0.95191607810E+02  0.42850644066E+03  0.11455129629E+03  0.45365319632E+03  0.10566000000E+00 0. -1.
         -4    1    1    2    0  502  0.14857921244E+03 -0.50040698968E+03  0.62825317703E+03  0.81681392749E+03  0.00000000000E+00 0. -1.
</event>
<event>
 5    1  0.2540860E-005  0.4456161E+03  0.7818608E-02  0.9798029E-01
         21   -1    0    0  501  502  0.00000000000E+00  0.00000000000E+00  0.47096148613E+03  0.47096148613E+03  0.00000000000E+00 0. -1.
         -4   -1    0    0    0  501 -0.00000000000E+00 -0.00000000000E+00 -0.13756930585E+04  0.13756930585E+04  0.00000000000E+00 0. -1.
        -13    1    1    2    0    0  0.17313096670E+03  0.14867523141E+03 -0.76690501431E+03  0.80013871810E+03  0.10566000000E+00 0.  1.
         13    1    1    2    0    0  0.35230232070E+03 -0.23982380838E+03  0.13558506535E+03  0.44723115427E+03  0.10566000000E+00 0. -1.
         -4    1    1    2    0  502 -0.52543328740E+03  0.91148576971E+02 -0.27341162341E+03  0.59928467226E+03  0.00000000000E+00 0. -1.
</event>
<event>
 5    1  0.2540860E-005  0.4126101E+03  0.7818608E-02  0.9933389E-01
          4   -1    0    0  502    0 -0.00000000000E+00  0.00000000000E+00  0.66634653483E+03  0.66634653483E+03  0.00000000000E+00 0.  1.
         21   -1    0    0  501  502  0.00000000000E+00 -0.00000000000E+00 -0.47064602569E+03  0.47064602569E+03  0.00000000000E+00 0.  1.
        -13    1    1    2    0    0  0.24847023191E+03  0.46898443491E+03  0.53195846846E+02  0.53339822424E+03  0.10566000000E+00 0.  1.
         13    1    1    2    0    0 -0.92198775969E+02 -0.15714989834E+03  0.17583068468E+03  0.25320573785E+03  0.10566000000E+00 0. -1.
          4    1    1    2  501    0 -0.15627145594E+03 -0.31183453657E+03 -0.33326022387E+02  0.35038859843E+03  0.00000000000E+00 0.  1.
</event>
<event>
 5    1  0.2540860E-005  0.1770328E+03  0.7818608E-02  0.1090694E+00
          4   -1    0    0  502    0 -0.00000000000E+00  0.00000000000E+00  0.98718984342E+02  0.98718984342E+02  0.00000000000E+00 0.  1.
         21   -1    0    0  501  502  0.00000000000E+00 -0.00000000000E+00 -0.64819713837E+03  0.64819713837E+03  0.00000000000E+00 0.  1.
        -13    1    1    2    0    0  0.73413138496E+02 -0.19883309685E+03 -0.33683084804E+03  0.39796874332E+03  0.10566000000E+00 0.  1.
         13    1    1    2    0    0 -0.11074963738E+03  0.49387583184E+02 -0.76590174088E+02  0.14342482869E+03  0.10566000000E+00 0. -1.
          4    1    1    2  501    0  0.37336498887E+02  0.14944551367E+03 -0.13605713189E+03  0.20552255069E+03  0.00000000000E+00 0.  1.
</event>
<event>
 5    1  0.2540860E-005  0.2198486E+02  0.7818608E-02  0.1483983E+00
          4   -1    0    0  502    0 -0.00000000000E+00  0.00000000000E+00  0.96577732420E+02  0.96577732420E+02  0.00000000000E+00 0.  1.
         21   -1    0    0  501  502  0.00000000000E+00 -0.00000000000E+00 -0.15739400111E+03  0.15739400111E+03  0.00000000000E+00 0. -1.
        -13    1    1    2    0    0  0.47299382003E+01  0.21655201218E+02  0.93423493375E+02  0.96017083551E+02  0.10566000000E+00 0.  1.
         13    1    1    2    0    0  0.10073018550E+02 -0.14110190407E+02 -0.72602559728E+02  0.74643861228E+02  0.10566000000E+00 0. -1.
          4    1    1    2  501    0 -0.14802956750E+02 -0.75450108115E+01 -0.81637202334E+02  0.83310788747E+02  0.00000000000E+00 0.  1.
</event>
<event>
 5    1  0.2540860E-005  0.3896969E+03  0.7818608E-02  0.9798761E-01
          4   -1    0    0  502    0 -0.00000000000E+00  0.00000000000E+00  0.22769193474E+04  0.22769193474E+04  0.00000000000E+00 0.  1.
         21   -1    0    0  501  502  0.00000000000E+00 -0.00000000000E+00 -0.21337402325E+03  0.21337402325E+03  0.00000000000E+00 0.  1.
        -13    1    1    2    0    0 -0.22454605209E+03  0.40088389846E+02  0.13169213957E+04  0.13365290802E+04  0.10566000000E+00 0.  1.
         13    1    1    2    0    0 -0.49610499330E+01  0.34032980017E+03  0.59286743405E+03  0.68362328107E+03  0.10566000000E+00 0. -1.
          4    1    1    2  501    0  0.22950710203E+03 -0.38041819001E+03  0.15375649442E+03  0.47014100943E+03  0.00000000000E+00 0.  1.
</event>
<event>
 5    1  0.2540860E-005  0.4943289E+03  0.7818608E-02  0.9779075E-01
         21   -1    0    0  501  502  0.00000000000E+00  0.00000000000E+00  0.12428211968E+03  0.12428211968E+03  0.00000000000E+00 0. -1.
         -4   -1    0    0    0  501 -0.00000000000E+00 -0.00000000000E+00 -0.31206270647E+04  0.31206270647E+04  0.00000000000E+00 0. -1.
        -13    1    1    2    0    0  0.14731735380E+03  0.10057186233E+03 -0.85897526151E+03  0.87730018424E+03  0.10566000000E+00 0.  1.
         13    1    1    2    0    0 -0.34141544413E+03 -0.48186779141E+03 -0.12477141044E+04  0.13804171729E+04  0.10566000000E+00 0. -1.
         -4    1    1    2    0  502  0.19409809033E+03  0.38129592909E+03 -0.88965557914E+03  0.98719182721E+03  0.00000000000E+00 0. -1.
</event>
<event>
 5    1  0.2540860E-005  0.2753183E+03  0.7818608E-02  0.1018048E+00
         -4   -1    0    0    0  501 -0.00000000000E+00  0.00000000000E+00  0.20823690888E+04  0.20823690888E+04  0.00000000000E+00 0. -1.
         21   -1    0    0  501  502  0.00000000000E+00 -0.00000000000E+00 -0.71746424668E+02  0.71746424668E+02  0.00000000000E+00 0.  1.
        -13    1    1    2    0    0 -0.70047940103E+02 -0.27456935434E+03  0.35214286493E+03  0.45199519106E+03  0.10566000000E+00 0.  1.
         13    1    1    2    0    0  0.96729680754E+02  0.25616058900E+03  0.16439493560E+04  0.16665966443E+04  0.10566000000E+00 0. -1.
         -4    1    1    2    0  502 -0.26681740651E+02  0.18408765345E+02  0.14530443153E+02  0.35523678074E+02  0.00000000000E+00 0. -1.
</event>
<event>
 5    1  0.2540860E-005  0.6248154E+03  0.7818608E-02  0.9239820E-01
         -4   -1    0    0    0  501 -0.00000000000E+00  0.00000000000E+00  0.18303375668E+04  0.18303375668E+04  0.00000000000E+00 0. -1.
         21   -1    0    0  501  502  0.00000000000E+00 -0.00000000000E+00 -0.80998403366E+03  0.80998403366E+03  0.00000000000E+00 0. -1.
        -13    1    1    2    0    0  0.26006827497E+03 -0.55150116549E+03  0.28849339053E+03  0.67454984302E+03  0.10566000000E+00 0.  1.
         13    1    1    2    0    0 -0.22740171818E+03  0.58862443221E+03  0.12738250229E+04  0.14215556492E+04  0.10566000000E+00 0. -1.
         -4    1    1    2    0  502 -0.32666556790E+02 -0.37123266729E+02 -0.54196488036E+03  0.54421610818E+03  0.00000000000E+00 0. -1.
</event>
<event>
 5    1  0.2540860E-005  0.4354768E+02  0.7818608E-02  0.1320549E+00
          4   -1    0    0  502    0 -0.00000000000E+00  0.00000000000E+00  0.61757953821E+02  0.61757953821E+02  0.00000000000E+00 0.  1.
         21   -1    0    0  501  502  0.00000000000E+00 -0.00000000000E+00 -0.11196592763E+03  0.11196592763E+03  0.00000000000E+00 0.  1.
        -13    1    1    2    0    0  0.22427662533E+02  0.53092743591E+02  0.48682435207E+01  0.57840733291E+02  0.10566000000E+00 0.  1.
         13    1    1    2    0    0 -0.36961383802E+02 -0.15954734691E+02  0.82030342666E+01  0.41085257536E+02  0.10566000000E+00 0. -1.
          4    1    1    2  501    0  0.14533721269E+02 -0.37138008900E+02 -0.63279251594E+02  0.74797890621E+02  0.00000000000E+00 0.  1.
</event>
<event>
 5    1  0.2540860E-005  0.4889774E+03  0.7818608E-02  0.9775685E-01
         21   -1    0    0  501  502  0.00000000000E+00  0.00000000000E+00  0.33172018706E+03  0.33172018706E+03  0.00000000000E+00 0. -1.
         -4   -1    0    0    0  501 -0.00000000000E+00 -0.00000000000E+00 -0.14937532959E+04  0.14937532959E+04  0.00000000000E+00 0. -1.
        -13    1    1    2    0    0  0.40995021022E+02  0.18188734697E+03 -0.66295662580E+03  0.68867633732E+03  0.10566000000E+00 0.  1.
         13    1    1    2    0    0  0.43036943000E+03  0.12971177370E+03 -0.15621202065E+03  0.47586258213E+03  0.10566000000E+00 0. -1.
         -4    1    1    2    0  502 -0.47136445102E+03 -0.31159912066E+03 -0.34286446244E+03  0.66093456355E+03  0.00000000000E+00 0. -1.
</event>
<event>
 5    1  0.2540860E-005  0.2190810E+03  0.7818608E-02  0.1064817E+00
         21   -1    0    0  501  502  0.00000000000E+00  0.00000000000E+00  0.26695226824E+03  0.26695226824E+03  0.00000000000E+00 0.  1.
         -4   -1    0    0    0  501 -0.00000000000E+00 -0.00000000000E+00 -0.55740688563E+03  0.55740688563E+03  0.00000000000E+00 0. -1.
        -13    1    1    2    0    0 -0.78049446567E+02 -0.10746730641E+03  0.11208937890E+03  0.17379579420E+03  0.10566000000E+00 0.  1.
         13    1    1    2    0    0 -0.15980656149E+03  0.46841997120E+02 -0.36638293057E+03  0.40245344174E+03  0.10566000000E+00 0. -1.
         -4    1    1    2    0  502  0.23785600806E+03  0.60625309286E+02 -0.36161065724E+02  0.24810991792E+03  0.00000000000E+00 0. -1.
</event>
<event>
 5    1  0.2540860E-005  0.4526067E+03  0.7818608E-02  0.9669855E-01
         21   -1    0    0  501  502  0.00000000000E+00  0.00000000000E+00  0.17373701156E+03  0.17373701156E+03  0.00000000000E+00 0. -1.
         -4   -1    0    0    0  501 -0.00000000000E+00 -0.00000000000E+00 -0.26282159686E+04  0.26282159686E+04  0.00000000000E+00 0. -1.
        -13    1    1    2    0    0 -0.31193579805E+03 -0.13355865551E+03 -0.55269661910E+03  0.64854870325E+03  0.10566000000E+00 0.  1.
         13    1    1    2    0    0  0.31074957060E+03  0.52717672085E+03 -0.12553429754E+04  0.13965552576E+04  0.10566000000E+00 0. -1.
         -4    1    1    2    0  502  0.11862274553E+01 -0.39361806534E+03 -0.64643936262E+03  0.75684901932E+03  0.00000000000E+00 0. -1.
</event>
<event>
 5    1  0.2540860E-005  0.3418122E+03  0.7818608E-02  0.1009270E+00
         -4   -1    0    0    0  501 -0.00000000000E+00  0.00000000000E+00  0.11380461170E+04  0.11380461170E+04  0.00000000000E+00 0. -1.
         21   -1    0    0  501  502  0.00000000000E+00 -0.00000000000E+00 -0.33362489917E+03  0.33362489917E+03  0.00000000000E+00 0. -1.
        -13    1    1    2    0    0  0.17157643310E+03  0.82497855243E+02  0.19485565345E+03  0.27242082402E+03  0.10566000000E+00 0.  1.
         13    1    1    2    0    0  0.10737201228E+03  0.15410025882E+03  0.77526707558E+03  0.79769335489E+03  0.10566000000E+00 0. -1.
         -4    1    1    2    0  502 -0.27894844537E+03 -0.23659811406E+03 -0.16570151119E+03  0.40155683728E+03  0.00000000000E+00 0. -1.
</event>
<event>
 5    1  0.2540860E-005  0.1719786E+03  0.7818608E-02  0.1081251E+00
         -4   -1    0    0    0  501 -0.00000000000E+00  0.00000000000E+00  0.85086614223E+03  0.85086614223E+03  0.00000000000E+00 0. -1.
         21   -1    0    0  501  502  0.00000000000E+00 -0.00000000000E+00 -0.42692779588E+03  0.42692779588E+03  0.00000000000E+00 0. -1.
        -13    1    1    2    0    0  0.27446014514E+01  0.22121589302E+03  0.16980437576E+00  0.22123300875E+03  0.10566000000E+00 0.  1.
         13    1    1    2    0    0 -0.13126599390E+03 -0.11376020032E+03  0.70671024732E+03  0.72774413715E+03  0.10566000000E+00 0. -1.
         -4    1    1    2    0  502  0.12852139245E+03 -0.10745569270E+03 -0.28294170535E+03  0.32881679221E+03  0.00000000000E+00 0. -1.
</event>
<event>
 5    1  0.2540860E-005  0.2827650E+03  0.7818608E-02  0.1046186E+00
         21   -1    0    0  501  502  0.00000000000E+00  0.00000000000E+00  0.79176346592E+02  0.79176346592E+02  0.00000000000E+00 0. -1.
         -4   -1    0    0    0  501 -0.00000000000E+00 -0.00000000000E+00 -0.21057705198E+04  0.21057705198E+04  0.00000000000E+00 0. -1.
        -13    1    1    2    0    0  0.10267451742E+03  0.29731714934E+02 -0.31389519553E+03  0.33159649628E+03  0.10566000000E+00 0.  1.
         13    1    1    2    0    0  0.25634082242E+03  0.48637849633E+02 -0.31947897697E+03  0.41248404277E+03  0.10566000000E+00 0. -1.
         -4    1    1    2    0  502 -0.35901533984E+03 -0.78369564567E+02 -0.13932200007E+04  0.14408663274E+04  0.00000000000E+00 0. -1.
</event>
<event>
 5    1  0.2540860E-005  0.4606325E+03  0.7818608E-02  0.9904044E-01
          4   -1    0    0  502    0 -0.00000000000E+00  0.00000000000E+00  0.11013720479E+04  0.11013720479E+04  0.00000000000E+00 0.  1.
         21   -1    0    0  501  502  0.00000000000E+00 -0.00000000000E+00 -0.33354302090E+03  0.33354302090E+03  0.00000000000E+00 0.  1.
        -13    1    1    2    0    0  0.41787400738E+03 -0.78131974519E+02  0.51829594303E+03  0.67033871081E+03  0.10566000000E+00 0.  1.
         13    1    1    2    0    0  0.83659511080E+01 -0.14416039964E+03  0.24434552905E+03  0.28382557794E+03  0.10566000000E+00 0. -1.
          4    1    1    2  501    0 -0.42623995849E+03  0.22229237416E+03  0.51875549477E+01  0.48075078008E+03  0.00000000000E+00 0.  1.
</event>
<event>
 5    1  0.2540860E-005  0.3880431E+03  0.7818608E-02  0.9774613E-01
         21   -1    0    0  501  502  0.00000000000E+00  0.00000000000E+00  0.27059734667E+03  0.27059734667E+03  0.00000000000E+00 0.  1.
          4   -1    0    0  502    0 -0.00000000000E+00 -0.00000000000E+00 -0.20875540361E+04  0.20875540361E+04  0.00000000000E+00 0.  1.
        -13    1    1    2    0    0 -0.16354056523E+03  0.26320456383E+03 -0.97873737198E+03  0.10266201894E+04  0.10566000000E+00 0.  1.
         13    1    1    2    0    0 -0.27147193428E+03 -0.25789552481E+03 -0.81378871596E+03  0.89580086972E+03  0.10566000000E+00 0. -1.
          4    1    1    2  501    0  0.43501249951E+03 -0.53090390204E+01 -0.24430601505E+02  0.43573032361E+03  0.00000000000E+00 0.  1.
</event>
<event>
 5    1  0.2540860E-005  0.3684310E+03  0.7818608E-02  0.1031369E+00
         21   -1    0    0  501  502  0.00000000000E+00  0.00000000000E+00  0.41048502238E+03  0.41048502238E+03  0.00000000000E+00 0.  1.
          4   -1    0    0  502    0 -0.00000000000E+00 -0.00000000000E+00 -0.70215673933E+03  0.70215673933E+03  0.00000000000E+00 0.  1.
        -13    1    1    2    0    0 -0.22929414258E+03  0.30419497171E+03  0.22169692772E+03  0.44074927517E+03  0.10566000000E+00 0.  1.
         13    1    1    2    0    0  0.47474743320E+02 -0.59077295273E+02 -0.13292218601E+01  0.75800765595E+02  0.10566000000E+00 0. -1.
          4    1    1    2  501    0  0.18181939926E+03 -0.24511767644E+03 -0.51203942282E+03  0.59609172094E+03  0.00000000000E+00 0.  1.
</event>
<event>
 5    1  0.2540860E-005  0.4425458E+03  0.7818608E-02  0.9889452E-01
         21   -1    0    0  501  502  0.00000000000E+00  0.00000000000E+00  0.16729623341E+03  0.16729623341E+03  0.00000000000E+00 0.  1.
          4   -1    0    0  502    0 -0.00000000000E+00 -0.00000000000E+00 -0.21511047688E+04  0.21511047688E+04  0.00000000000E+00 0.  1.
        -13    1    1    2    0    0  0.94138668578E+02  0.55513749074E+03 -0.10506545274E+04  0.11920212538E+04  0.10566000000E+00 0.  1.
         13    1    1    2    0    0 -0.43834406073E+02 -0.16527932747E+03 -0.55569022064E+03  0.58140376996E+03  0.10566000000E+00 0. -1.
          4    1    1    2  501    0 -0.50304262505E+02 -0.38985816327E+03 -0.37746378743E+03  0.54497597848E+03  0.00000000000E+00 0.  1.
</event>
<event>
 5    1  0.2540860E-005  0.3083647E+02  0.7818608E-02  0.1431922E+00
         21   -1    0    0  501  502  0.00000000000E+00  0.00000000000E+00  0.64410930929E+02  0.64410930929E+02  0.00000000000E+00 0.  1.
          4   -1    0    0  502    0 -0.00000000000E+00 -0.00000000000E+00 -0.46482436124E+02  0.46482436124E+02  0.00000000000E+00 0.  1.
        -13    1    1    2    0    0 -0.42671656002E+02 -0.83239557198E+01  0.14650870354E+02  0.45878291500E+02  0.10566000000E+00 0.  1.
         13    1    1    2    0    0  0.17780872083E+02 -0.46048406694E+00 -0.22120425149E+02  0.28384781670E+02  0.10566000000E+00 0. -1.
          4    1    1    2  501    0  0.24890783919E+02  0.87844397867E+01  0.25398049601E+02  0.36630293883E+02  0.00000000000E+00 0.  1.
</event>
<event>
 5    1  0.2540860E-005  0.4943678E+03  0.7818608E-02  0.1045401E+00
          4   -1    0    0  502    0 -0.00000000000E+00  0.00000000000E+00  0.24173995901E+04  0.24173995901E+04  0.00000000000E+00 0.  1.
         21   -1    0    0  501  502  0.00000000000E+00 -0.00000000000E+00 -0.11105964231E+03  0.11105964231E+03  0.00000000000E+00 0.  1.
        -13    1    1    2    0    0  0.35924813129E+03  0.35296706636E+03  0.13430687749E+04  0.14343914093E+04  0.10566000000E+00 0.  1.
         13    1    1    2    0    0 -0.20350082262E+02 -0.22818077526E+01  0.89292464404E+01  0.22339988825E+02  0.10566000000E+00 0. -1.
          4    1    1    2  501    0 -0.33889804903E+03 -0.35068525861E+03  0.95434192647E+03  0.10717278343E+04  0.00000000000E+00 0.  1.
</event>
<event>
 5    1  0.2540860E-005  0.2038001E+03  0.7818608E-02  0.1057562E+00
         21   -1    0    0  501  502  0.00000000000E+00  0.00000000000E+00  0.33757184479E+03  0.33757184479E+03  0.00000000000E+00 0.  1.
          4   -1    0    0  502    0 -0.00000000000E+00 -0.00000000000E+00 -0.14929656698E+04  0.14929656698E+04  0.00000000000E+00 0.  1.
        -13    1    1    2    0    0 -0.14346893122E+03  0.10580614556E+03 -0.80304569095E+03  0.82259386552E+03  0.10566000000E+00 0.  1.
         13    1    1    2    0    0  0.23134833994E+03 -0.15844783043E+03 -0.64207814095E+03  0.70063693852E+03  0.10566000000E+00 0. -1.
          4    1    1    2  501    0 -0.87879408719E+02  0.52641684864E+02  0.28973000689E+03  0.30730671056E+03  0.00000000000E+00 0.  1.
</event>
<event>
 5    1  0.2540860E-005  0.2249669E+03  0.7818608E-02  0.1044248E+00
         21   -1    0    0  501  502  0.00000000000E+00  0.00000000000E+00  0.38254872375E+03  0.38254872375E+03  0.00000000000E+00 0.  1.
         -4   -1    0    0    0  501 -0.00000000000E+00 -0.00000000000E+00 -0.34707495834E+03  0.34707495834E+03  0.00000000000E+00 0. -1.
        -13    1    1    2    0    0  0.15933341821E+03 -0.13542364631E+03  0.71120181367E+02  0.22087279937E+03  0.10566000000E+00 0.  1.
         13    1    1    2    0    0 -0.19412632792E+03  0.12482106024E+03 -0.22119212024E+03  0.31967372974E+03  0.10566000000E+00 0. -1.
         -4    1    1    2    0  502  0.34792909705E+02  0.10602586075E+02  0.18554570429E+03  0.18907715297E+03  0.00000000000E+00 0. -1.
</event>
<event>
 5    1  0.2540860E-005  0.1554620E+02  0.7818608E-02  0.1599879E+00
         -4   -1    0    0    0  501 -0.00000000000E+00  0.00000000000E+00  0.84810170192E+02  0.84810170192E+02  0.00000000000E+00 0. -1.
         21   -1    0    0  501  502  0.00000000000E+00 -0.00000000000E+00 -0.88146839026E+02  0.88146839026E+02  0.00000000000E+00 0. -1.
        -13    1    1    2    0    0  0.17850436598E+02  0.11229492794E+02 -0.47409259348E+02  0.51888232106E+02  0.10566000000E+00 0.  1.
         13    1    1    2    0    0 -0.12921989207E+02  0.53561026447E+01  0.79988502523E+02  0.81202446641E+02  0.10566000000E+00 0. -1.
         -4    1    1    2    0  502 -0.49284473914E+01 -0.16585595438E+02 -0.35915912009E+02  0.39866330471E+02  0.00000000000E+00 0. -1.
</event>
<event>
 5    1  0.2540860E-005  0.7197972E+02  0.7818608E-02  0.1221627E+00
          4   -1    0    0  502    0 -0.00000000000E+00  0.00000000000E+00  0.54836269320E+03  0.54836269320E+03  0.00000000000E+00 0.  1.
         21   -1    0    0  501  502  0.00000000000E+00 -0.00000000000E+00 -0.19827129331E+02  0.19827129331E+02  0.00000000000E+00 0. -1.
        -13    1    1    2    0    0  0.44804934502E+02  0.56954744092E+02  0.40727058687E+03  0.41366733872E+03  0.10566000000E+00 0.  1.
         13    1    1    2    0    0 -0.30721137775E+02 -0.64919399854E+02  0.11781199120E+03  0.13797823458E+03  0.10566000000E+00 0. -1.
          4    1    1    2  501    0 -0.14083796727E+02  0.79646557626E+01  0.34529857990E+01  0.16544249230E+02  0.00000000000E+00 0.  1.
</event>
<event>
 5    1  0.2540860E-005  0.4259299E+03  0.7818608E-02  0.9727442E-01
          4   -1    0    0  502    0 -0.00000000000E+00  0.00000000000E+00  0.63746431321E+03  0.63746431321E+03  0.00000000000E+00 0.  1.
         21   -1    0    0  501  502  0.00000000000E+00 -0.00000000000E+00 -0.75155979715E+03  0.75155979715E+03  0.00000000000E+00 0.  1.
        -13    1    1    2    0    0 -0.16735366390E+03 -0.51928619804E+02  0.34690989531E+03  0.38865192268E+03  0.10566000000E+00 0.  1.
         13    1    1    2    0    0 -0.28960616200E+03 -0.16466881431E+03 -0.27468604640E+02  0.33427845111E+03  0.10566000000E+00 0. -1.
          4    1    1    2  501    0  0.45695982591E+03  0.21659743411E+03 -0.43353677461E+03  0.66609373657E+03  0.00000000000E+00 0.  1.
</event>
<event>
 5    1  0.2540860E-005  0.4508904E+03  0.7818608E-02  0.9775288E-01
         21   -1    0    0  501  502  0.00000000000E+00  0.00000000000E+00  0.36939538695E+03  0.36939538695E+03  0.00000000000E+00 0. -1.
         -4   -1    0    0    0  501 -0.00000000000E+00 -0.00000000000E+00 -0.16467900478E+04  0.16467900478E+04  0.00000000000E+00 0. -1.
        -13    1    1    2    0    0 -0.12132138444E+02 -0.23781702465E+03 -0.88647558294E+03  0.91790146329E+03  0.10566000000E+00 0.  1.
         13    1    1    2    0    0 -0.24145350624E+03  0.54508352366E+03 -0.36504038344E+03  0.69904959491E+03  0.10566000000E+00 0. -1.
         -4    1    1    2    0  502  0.25358564469E+03 -0.30726649901E+03 -0.25878694493E+02  0.39923437657E+03  0.00000000000E+00 0. -1.
</event>
<event>
 5    1  0.2540860E-005  0.4542325E+03  0.7818608E-02  0.9584355E-01
         21   -1    0    0  501  502  0.00000000000E+00  0.00000000000E+00  0.20096187926E+03  0.20096187926E+03  0.00000000000E+00 0.  1.
          4   -1    0    0  502    0 -0.00000000000E+00 -0.00000000000E+00 -0.27971914192E+04  0.27971914192E+04  0.00000000000E+00 0.  1.
        -13    1    1    2    0    0  0.11425930364E+03  0.51191867831E+03 -0.18609922136E+04  0.19334963025E+04  0.10566000000E+00 0.  1.
         13    1    1    2    0    0 -0.29494425422E+03 -0.26214459637E+03 -0.62125823173E+03  0.73598485322E+03  0.10566000000E+00 0. -1.
          4    1    1    2  501    0  0.18068495058E+03 -0.24977408194E+03 -0.11397909457E+03  0.32867214268E+03  0.00000000000E+00 0.  1.
</event>
<event>
 5    1  0.2540860E-005  0.4298941E+03  0.7818608E-02  0.9646481E-01
         -4   -1    0    0    0  501 -0.00000000000E+00  0.00000000000E+00  0.18784307411E+04  0.18784307411E+04  0.00000000000E+00 0. -1.
         21   -1    0    0  501  502  0.00000000000E+00 -0.00000000000E+00 -0.29610225338E+03  0.29610225338E+03  0.00000000000E+00 0. -1.
        -13    1    1    2    0    0  0.21757651552E+03 -0.29316512864E+03  0.79144345510E+03  0.87158940249E+03  0.10566000000E+00 0.  1.
         13    1    1    2    0    0 -0.25410520011E+03  0.62674320926E+03  0.65315530170E+03  0.94020655304E+03  0.10566000000E+00 0. -1.
         -4    1    1    2    0  502  0.36528684593E+02 -0.33357808061E+03  0.13772973095E+03  0.36273703898E+03  0.00000000000E+00 0. -1.
</event>
<event>
 5    1  0.2540860E-005  0.4596606E+03  0.7818608E-02  0.9888675E-01
          4   -1    0    0  502    0 -0.00000000000E+00  0.00000000000E+00  0.31856606632E+04  0.31856606632E+04  0.00000000000E+00 0.  1.
         21   -1    0    0  501  502  0.00000000000E+00 -0.00000000000E+00 -0.10714056820E+03  0.10714056820E+03  0.00000000000E+00 0.  1.
        -13    1    1    2    0    0 -0.43403710022E+03  0.18056632410E+03  0.73899168775E+03  0.87584309525E+03  0.10566000000E+00 0.  1.
         13    1    1    2    0    0 -0.18594585214E+02 -0.15185978254E+03  0.55579958935E+03  0.57647232964E+03  0.10566000000E+00 0. -1.
          4    1    1    2  501    0  0.45263168544E+03 -0.28706541553E+02  0.17837288179E+04  0.18404858065E+04  0.00000000000E+00 0.  1.
</event>
<event>
 5    1  0.2540860E-005  0.1173897E+03  0.7818608E-02  0.1138613E+00
         21   -1    0    0  501  502  0.00000000000E+00  0.00000000000E+00  0.23576968012E+03  0.23576968012E+03  0.00000000000E+00 0.  1.
         -4   -1    0    0    0  501 -0.00000000000E+00 -0.00000000000E+00 -0.15170260627E+03  0.15170260627E+03  0.00000000000E+00 0. -1.
        -13    1    1    2    0    0  0.82005677028E+02  0.14884215187E+02  0.37583382332E+02  0.91427527136E+02  0.10566000000E+00 0.  1.
         13    1    1    2    0    0 -0.12743407409E+03 -0.61572081362E+02 -0.73530735036E+02  0.15949089191E+03  0.10566000000E+00 0. -1.
         -4    1    1    2    0  502  0.45428397067E+02  0.46687866176E+02  0.12001442655E+03  0.13655386735E+03  0.00000000000E+00 0. -1.
</event>
<event>
 5    1  0.2540860E-005  0.1181279E+03  0.7818608E-02  0.1137622E+00
         -4   -1    0    0    0  501 -0.00000000000E+00  0.00000000000E+00  0.22303833996E+03  0.22303833996E+03  0.00000000000E+00 0. -1.
         21   -1    0    0  501  502  0.00000000000E+00 -0.00000000000E+00 -0.66783764742E+03  0.66783764742E+03  0.00000000000E+00 0. -1.
        -13    1    1    2    0    0 -0.12609416061E+03 -0.23657694134E+02 -0.25927185430E+03  0.28927725356E+03  0.10566000000E+00 0.  1.
         13    1    1    2    0    0  0.11521945957E+03  0.23103859692E+02  0.19135583204E+03  0.22455818359E+03  0.10566000000E+00 0. -1.
         -4    1    1    2    0  502  0.10874701042E+02  0.55383444147E+00 -0.37688328520E+03  0.37704055023E+03  0.00000000000E+00 0. -1.
</event>
<event>
 5    1  0.2540860E-005  0.5401260E+03  0.7818608E-02  0.9394109E-01
         21   -1    0    0  501  502  0.00000000000E+00  0.00000000000E+00  0.18884743799E+04  0.18884743799E+04  0.00000000000E+00 0.  1.
         -4   -1    0    0    0  501 -0.00000000000E+00 -0.00000000000E+00 -0.30227535718E+03  0.30227535718E+03  0.00000000000E+00 0. -1.
        -13    1    1    2    0    0  0.80690257093E+02  0.53119980792E+03  0.12499288168E+04  0.13605168914E+04  0.10566000000E+00 0.  1.
         13    1    1    2    0    0 -0.55269008936E+02 -0.53805565149E+03  0.50485507469E+02  0.54323783472E+03  0.10566000000E+00 0. -1.
         -4    1    1    2    0  502 -0.25421248157E+02  0.68558435708E+01  0.28578469843E+03  0.28699501094E+03  0.00000000000E+00 0. -1.
</event>
<event>
 5    1  0.2540860E-005  0.3585784E+03  0.7818608E-02  0.9954055E-01
         21   -1    0    0  501  502  0.00000000000E+00  0.00000000000E+00  0.33558237012E+03  0.33558237012E+03  0.00000000000E+00 0. -1.
         -4   -1    0    0    0  501 -0.00000000000E+00 -0.00000000000E+00 -0.16538693836E+04  0.16538693836E+04  0.00000000000E+00 0. -1.
        -13    1    1    2    0    0 -0.22861367507E+03  0.12217751598E+03 -0.10238544042E+04  0.10561578528E+04  0.10566000000E+00 0.  1.
         13    1    1    2    0    0  0.36344645825E+03 -0.39870617042E+03 -0.31540249961E+03  0.62493094520E+03  0.10566000000E+00 0. -1.
         -4    1    1    2    0  502 -0.13483278318E+03  0.27652865445E+03  0.20969890347E+02  0.30836295571E+03  0.00000000000E+00 0. -1.
</event>
<event>
 5    1  0.2540860E-005  0.3699668E+03  0.7818608E-02  0.9820031E-01
         21   -1    0    0  501  502  0.00000000000E+00  0.00000000000E+00  0.10746367105E+03  0.10746367105E+03  0.00000000000E+00 0. -1.
          4   -1    0    0  502    0 -0.00000000000E+00 -0.00000000000E+00 -0.26002380167E+04  0.26002380167E+04  0.00000000000E+00 0.  1.
        -13    1    1    2    0    0  0.50478901387E+02 -0.36885346656E+03 -0.10069589028E+04  0.10735768451E+04  0.10566000000E+00 0.  1.
         13    1    1    2    0    0 -0.66815038223E+02  0.36249632055E+03 -0.15367083745E+04  0.15802975895E+04  0.10566000000E+00 0. -1.
          4    1    1    2  501    0  0.16336136836E+02  0.63571460130E+01  0.50892931757E+02  0.53827253088E+02  0.00000000000E+00 0.  1.
</event>
<event>
 5    1  0.2540860E-005  0.3910513E+03  0.7818608E-02  0.9755251E-01
         -4   -1    0    0    0  501 -0.00000000000E+00  0.00000000000E+00  0.55497254319E+03  0.55497254319E+03  0.00000000000E+00 0. -1.
         21   -1    0    0  501  502  0.00000000000E+00 -0.00000000000E+00 -0.98495261941E+03  0.98495261941E+03  0.00000000000E+00 0. -1.
        -13    1    1    2    0    0  0.34509864120E+03 -0.63302770106E+02  0.88517226509E+02  0.36185027762E+03  0.10566000000E+00 0.  1.
         13    1    1    2    0    0 -0.57079124293E+03  0.24565109842E+03 -0.61304253829E+03  0.87290793906E+03  0.10566000000E+00 0. -1.
         -4    1    1    2    0  502  0.22569260173E+03 -0.18234832832E+03  0.94545235565E+02  0.30516694592E+03  0.00000000000E+00 0. -1.
</event>
<event>
 5    1  0.2540860E-005  0.1259687E+03  0.7818608E-02  0.1137671E+00
         -4   -1    0    0    0  501 -0.00000000000E+00  0.00000000000E+00  0.17248780064E+04  0.17248780064E+04  0.00000000000E+00 0. -1.
         21   -1    0    0  501  502  0.00000000000E+00 -0.00000000000E+00 -0.33173399052E+02  0.33173399052E+02  0.00000000000E+00 0. -1.
        -13    1    1    2    0    0 -0.96894313178E+02  0.87891422512E+01  0.34346752759E+03  0.35698138694E+03  0.10566000000E+00 0.  1.
         13    1    1    2    0    0  0.20657751537E+03 -0.35786085998E+02  0.11796742286E+04  0.11981595096E+04  0.10566000000E+00 0. -1.
         -4    1    1    2    0  502 -0.10968320219E+03  0.26996943747E+02  0.16856285120E+03  0.20291050889E+03  0.00000000000E+00 0. -1.
</event>
<event>
 5    1  0.2540860E-005  0.1274090E+03  0.7818608E-02  0.1125805E+00
         21   -1    0    0  501  502  0.00000000000E+00  0.00000000000E+00  0.97761332694E+03  0.97761332694E+03  0.00000000000E+00 0. -1.
          4   -1    0    0  502    0 -0.00000000000E+00 -0.00000000000E+00 -0.50512664562E+02  0.50512664562E+02  0.00000000000E+00 0.  1.
        -13    1    1    2    0    0 -0.37368366683E+02  0.13143188320E+03  0.63733171712E+02  0.15077354904E+03  0.10566000000E+00 0.  1.
         13    1    1    2    0    0  0.15644635552E+02 -0.94197778066E+02  0.37063675518E+03  0.38273958701E+03  0.10566000000E+00 0. -1.
          4    1    1    2  501    0  0.21723731131E+02 -0.37234105134E+02  0.49273073549E+03  0.49461285545E+03  0.00000000000E+00 0.  1.
</event>
<event>
 5    1  0.2540860E-005  0.2679762E+03  0.7818608E-02  0.1028971E+00
         -4   -1    0    0    0  501 -0.00000000000E+00  0.00000000000E+00  0.10115399547E+04  0.10115399547E+04  0.00000000000E+00 0. -1.
         21   -1    0    0  501  502  0.00000000000E+00 -0.00000000000E+00 -0.35863203694E+03  0.35863203694E+03  0.00000000000E+00 0. -1.
        -13    1    1    2    0    0 -0.10486937597E+03 -0.18437545952E+03  0.12023414297E+03  0.24381992615E+03  0.10566000000E+00 0.  1.
         13    1    1    2    0    0 -0.16236127328E+03  0.23967728357E+03  0.73282134940E+03  0.78792989829E+03  0.10566000000E+00 0. -1.
         -4    1    1    2    0  502  0.26723064925E+03 -0.55301824053E+02 -0.20014757460E+03  0.33842216721E+03  0.00000000000E+00 0. -1.
</event>
<event>
 5    1  0.2540860E-005  0.4350380E+03  0.7818608E-02  0.9961191E-01
          4   -1    0    0  502    0 -0.00000000000E+00  0.00000000000E+00  0.10723297564E+04  0.10723297564E+04  0.00000000000E+00 0.  1.
         21   -1    0    0  501  502  0.00000000000E+00 -0.00000000000E+00 -0.32317141615E+03  0.32317141615E+03  0.00000000000E+00 0.  1.
        -13    1    1    2    0    0  0.17277464094E+03  0.44825460395E+03  0.66005922343E+03  0.81637090598E+03  0.10566000000E+00 0.  1.
         13    1    1    2    0    0 -0.13972316953E+03 -0.23997312856E+02  0.55561591644E+02  0.15226797679E+03  0.10566000000E+00 0. -1.
          4    1    1    2  501    0 -0.33051471418E+02 -0.42425729110E+03  0.33537525137E+02  0.42686228974E+03  0.00000000000E+00 0.  1.
</event>
<event>
 5    1  0.2540860E-005  0.3965690E+03  0.7818608E-02  0.9856122E-01
         -4   -1    0    0    0  501 -0.00000000000E+00  0.00000000000E+00  0.33306721086E+04  0.33306721086E+04  0.00000000000E+00 0. -1.
         21   -1    0    0  501  502  0.00000000000E+00 -0.00000000000E+00 -0.12934424001E+03  0.12934424001E+03  0.00000000000E+00 0. -1.
        -13    1    1    2    0    0  0.19411557850E+03 -0.18160652262E+03  0.60497062837E+03  0.66079592858E+03  0.10566000000E+00 0.  1.
         13    1    1    2    0    0 -0.26367917722E+03  0.52923294203E+03  0.21465586225E+04  0.22265058155E+04  0.10566000000E+00 0. -1.
         -4    1    1    2    0  502  0.69563598718E+02 -0.34762641942E+03  0.44979861776E+03  0.57271460456E+03  0.00000000000E+00 0. -1.
</event>
<event>
 5    1  0.2540860E-005  0.3466083E+03  0.7818608E-02  0.9980048E-01
          4   -1    0    0  502    0 -0.00000000000E+00  0.00000000000E+00  0.79507533034E+03  0.79507533034E+03  0.00000000000E+00 0.  1.
         21   -1    0    0  501  502  0.00000000000E+00 -0.00000000000E+00 -0.57353038886E+03  0.57353038886E+03  0.00000000000E+00 0. -1.
        -13    1    1    2    0    0  0.33254183021E+03  0.45332404057E+03  0.27653737779E+03  0.62654583797E+03  0.10566000000E+00 0.  1.
         13    1    1    2    0    0 -0.99994991511E+02 -0.24369921182E+03  0.20604662799E+03  0.33443015450E+03  0.10566000000E+00 0. -1.
          4    1    1    2  501    0 -0.23254683870E+03 -0.20962482875E+03 -0.26103906430E+03  0.40762972672E+03  0.00000000000E+00 0.  1.
</event>
<event>
 5    1  0.2540860E-005  0.6434483E+03  0.7818608E-02  0.9209317E-01
         21   -1    0    0  501  502  0.00000000000E+00  0.00000000000E+00  0.84059418911E+03  0.84059418911E+03  0.00000000000E+00 0. -1.
         -4   -1    0    0    0  501 -0.00000000000E+00 -0.00000000000E+00 -0.21133620178E+04  0.21133620178E+04  0.00000000000E+00 0. -1.
        -13    1    1    2    0    0  0.39486529941E+03  0.49700558329E+03 -0.16094146654E+04  0.17300718861E+04  0.10566000000E+00 0.  1.
         13    1    1    2    0    0 -0.66118102936E+03 -0.34980679959E+03 -0.28516187374E+02  0.74855750263E+03  0.10566000000E+00 0. -1.
         -4    1    1    2    0  502  0.26631572996E+03 -0.14719878370E+03  0.36516302410E+03  0.47532681822E+03  0.00000000000E+00 0. -1.
</event>
<event>
 5    1  0.2540860E-005  0.4817343E+02  0.7818608E-02  0.1331955E+00
         21   -1    0    0  501  502  0.00000000000E+00  0.00000000000E+00  0.23451353862E+03  0.23451353862E+03  0.00000000000E+00 0. -1.
         -4   -1    0    0    0  501 -0.00000000000E+00 -0.00000000000E+00 -0.28261955286E+02  0.28261955286E+02  0.00000000000E+00 0. -1.
        -13    1    1    2    0    0  0.19392408482E+02 -0.17330727976E+02  0.65076059414E+02  0.70080841261E+02  0.10566000000E+00 0.  1.
         13    1    1    2    0    0  0.31694720700E+02  0.20308821911E+02 -0.48570115883E+01  0.37955306524E+02  0.10566000000E+00 0. -1.
         -4    1    1    2    0  502 -0.51087129182E+02 -0.29780939358E+01  0.14603253551E+03  0.15473934613E+03  0.00000000000E+00 0. -1.
</event>
<event>
 5    1  0.2540860E-005  0.1849546E+03  0.7818608E-02  0.1070970E+00
         21   -1    0    0  501  502  0.00000000000E+00  0.00000000000E+00  0.12134069591E+03  0.12134069591E+03  0.00000000000E+00 0.  1.
         -4   -1    0    0    0  501 -0.00000000000E+00 -0.00000000000E+00 -0.57783197386E+03  0.57783197386E+03  0.00000000000E+00 0. -1.
        -13    1    1    2    0    0  0.11116745254E+02  0.17169596894E+03 -0.32845354680E+03  0.37078947038E+03  0.10566000000E+00 0.  1.
         13    1    1    2    0    0  0.25175608099E+02 -0.23053964430E+03 -0.11137623648E+03  0.25726837360E+03  0.10566000000E+00 0. -1.
         -4    1    1    2    0  502 -0.36292353353E+02  0.58843675364E+02 -0.16661494670E+02  0.71114825788E+02  0.00000000000E+00 0. -1.
</event>
<event>
 5    1  0.2540860E-005  0.1320753E+03  0.7818608E-02  0.1120270E+00
         21   -1    0    0  501  502  0.00000000000E+00  0.00000000000E+00  0.68832467615E+03  0.68832467615E+03  0.00000000000E+00 0. -1.
          4   -1    0    0  502    0 -0.00000000000E+00 -0.00000000000E+00 -0.45777709387E+02  0.45777709387E+02  0.00000000000E+00 0.  1.
        -13    1    1    2    0    0  0.12183954711E+03  0.51279293761E+02  0.85792305387E+02  0.15759052013E+03  0.10566000000E+00 0.  1.
         13    1    1    2    0    0 -0.12583723795E+03 -0.40074273580E+02  0.44661663421E+03  0.46573317144E+03  0.10566000000E+00 0. -1.
          4    1    1    2  501    0  0.39976908372E+01 -0.11205020181E+02  0.11013802716E+03  0.11077869396E+03  0.00000000000E+00 0.  1.
</event>
<event>
 5    1  0.2540860E-005  0.4054416E+02  0.7818608E-02  0.1388823E+00
         21   -1    0    0  501  502  0.00000000000E+00  0.00000000000E+00  0.10768615611E+03  0.10768615611E+03  0.00000000000E+00 0.  1.
          4   -1    0    0  502    0 -0.00000000000E+00 -0.00000000000E+00 -0.26784959718E+02  0.26784959718E+02  0.00000000000E+00 0.  1.
        -13    1    1    2    0    0 -0.43813952869E+02  0.49269166488E+01  0.12465707756E+02  0.45818577101E+02  0.10566000000E+00 0.  1.
         13    1    1    2    0    0  0.83769075588E+01  0.13542528669E+02  0.14581980626E+02  0.21592081558E+02  0.10566000000E+00 0. -1.
          4    1    1    2  501    0  0.35437045310E+02 -0.18469445318E+02  0.53853508010E+02  0.67060457169E+02  0.00000000000E+00 0.  1.
</event>
<event>
 5    1  0.2540860E-005  0.5021488E+03  0.7818608E-02  0.9814339E-01
          4   -1    0    0  502    0 -0.00000000000E+00  0.00000000000E+00  0.12744866607E+04  0.12744866607E+04  0.00000000000E+00 0.  1.
         21   -1    0    0  501  502  0.00000000000E+00 -0.00000000000E+00 -0.59552769767E+03  0.59552769767E+03  0.00000000000E+00 0.  1.
        -13    1    1    2    0    0  0.59322639995E+02 -0.47465051683E+03  0.22510648104E+02  0.47887266490E+03  0.10566000000E+00 0.  1.
         13    1    1    2    0    0  0.15042927303E+03 -0.11339075316E+02  0.82262869750E+03  0.83634653460E+03  0.10566000000E+00 0. -1.
          4    1    1    2  501    0 -0.20975191302E+03  0.48598959215E+03 -0.16618038261E+03  0.55479515883E+03  0.00000000000E+00 0.  1.
</event>
<event>
 5    1  0.2540860E-005  0.3855720E+03  0.7818608E-02  0.9981172E-01
         21   -1    0    0  501  502  0.00000000000E+00  0.00000000000E+00  0.41949600623E+03  0.41949600623E+03  0.00000000000E+00 0.  1.
          4   -1    0    0  502    0 -0.00000000000E+00 -0.00000000000E+00 -0.13655216496E+04  0.13655216496E+04  0.00000000000E+00 0.  1.
        -13    1    1    2    0    0 -0.19195806471E+03 -0.27884392656E+01 -0.73589110548E+03  0.76052048249E+03  0.10566000000E+00 0.  1.
         13    1    1    2    0    0  0.13610049051E+03 -0.37871603039E+03 -0.42318272195E+03  0.58398013880E+03  0.10566000000E+00 0. -1.
          4    1    1    2  501    0  0.55857574195E+02  0.38150446966E+03  0.21304818407E+03  0.44051703452E+03  0.00000000000E+00 0.  1.
</event>
<event>
 5    1  0.2540860E-005  0.3538766E+03  0.7818608E-02  0.1011366E+00
         -4   -1    0    0    0  501 -0.00000000000E+00  0.00000000000E+00  0.14264195971E+04  0.14264195971E+04  0.00000000000E+00 0. -1.
         21   -1    0    0  501  502  0.00000000000E+00 -0.00000000000E+00 -0.24686165309E+03  0.24686165309E+03  0.00000000000E+00 0. -1.
        -13    1    1    2    0    0 -0.10461335479E+03  0.12158351487E+03  0.24537783509E+03  0.29314978800E+03  0.10566000000E+00 0.  1.
         13    1    1    2    0    0  0.68051052772E+02  0.33220400234E+03 -0.20191344296E+01  0.33910843844E+03  0.10566000000E+00 0. -1.
         -4    1    1    2    0  502  0.36562302017E+02 -0.45378751721E+03  0.93619924331E+03  0.10410230237E+04  0.00000000000E+00 0. -1.
</event>
<event>
 5    1  0.2540860E-005  0.2951853E+03  0.7818608E-02  0.1011923E+00
         21   -1    0    0  501  502  0.00000000000E+00  0.00000000000E+00  0.20318811540E+03  0.20318811540E+03  0.00000000000E+00 0. -1.
         -4   -1    0    0    0  501 -0.00000000000E+00 -0.00000000000E+00 -0.21719410470E+04  0.21719410470E+04  0.00000000000E+00 0. -1.
        -13    1    1    2    0    0 -0.24789319246E+03 -0.11063508605E+03 -0.53887541078E+03  0.60338866135E+03  0.10566000000E+00 0.  1.
         13    1    1    2    0    0 -0.17867550902E+03 -0.20478460475E+03 -0.28452424967E+02  0.27326035848E+03  0.10566000000E+00 0. -1.
         -4    1    1    2    0  502  0.42656870148E+03  0.31541969081E+03 -0.14014250959E+04  0.14984801426E+04  0.00000000000E+00 0. -1.
</event>
<event>
 5    1  0.2540860E-005  0.2615888E+02  0.7818608E-02  0.1438697E+00
         21   -1    0    0  501  502  0.00000000000E+00  0.00000000000E+00  0.63586158497E+02  0.63586158497E+02  0.00000000000E+00 0. -1.
          4   -1    0    0  502    0 -0.00000000000E+00 -0.00000000000E+00 -0.23847768172E+02  0.23847768172E+02  0.00000000000E+00 0.  1.
        -13    1    1    2    0    0  0.26139071540E+02  0.11568875173E+02 -0.95703491734E+01  0.30144529870E+02  0.10566000000E+00 0.  1.
         13    1    1    2    0    0 -0.17365956523E+02 -0.48730819451E+01  0.32780831324E+02  0.37415470596E+02  0.10566000000E+00 0. -1.
          4    1    1    2  501    0 -0.87731150169E+01 -0.66957932282E+01  0.16527908175E+02  0.19873926203E+02  0.00000000000E+00 0.  1.
</event>
<event>
 5    1  0.2540860E-005  0.9754526E+02  0.7818608E-02  0.1168682E+00
         21   -1    0    0  501  502  0.00000000000E+00  0.00000000000E+00  0.52402192212E+02  0.52402192212E+02  0.00000000000E+00 0.  1.
          4   -1    0    0  502    0 -0.00000000000E+00 -0.00000000000E+00 -0.42996214403E+03  0.42996214403E+03  0.00000000000E+00 0.  1.
        -13    1    1    2    0    0 -0.14379758217E+02 -0.10028401031E+03 -0.32759321561E+03  0.34290084025E+03  0.10566000000E+00 0.  1.
         13    1    1    2    0    0  0.19905770034E+02  0.85261817390E+02 -0.71215635087E+02  0.11286051139E+03  0.10566000000E+00 0. -1.
          4    1    1    2  501    0 -0.55260118170E+01  0.15022192916E+02  0.21248898875E+02  0.26602984607E+02  0.00000000000E+00 0.  1.
</event>
<event>
 5    1  0.2540860E-005  0.1141138E+03  0.7818608E-02  0.1143107E+00
         -4   -1    0    0    0  501 -0.00000000000E+00  0.00000000000E+00  0.33686720508E+02  0.33686720508E+02  0.00000000000E+00 0. -1.
         21   -1    0    0  501  502  0.00000000000E+00 -0.00000000000E+00 -0.10075735752E+04  0.10075735752E+04  0.00000000000E+00 0.  1.
        -13    1    1    2    0    0 -0.11720352008E+03  0.50985985882E+02 -0.63479734080E+03  0.64753680276E+03  0.10566000000E+00 0.  1.
         13    1    1    2    0    0  0.73618917342E+02 -0.86330247549E+02 -0.11060493840E+03  0.15844910917E+03  0.10566000000E+00 0. -1.
         -4    1    1    2    0  502  0.43584602735E+02  0.35344261667E+02 -0.22848457550E+03  0.23527438379E+03  0.00000000000E+00 0. -1.
</event>
<event>
 5    1  0.2540860E-005  0.1024437E+03  0.7818608E-02  0.1163325E+00
         21   -1    0    0  501  502  0.00000000000E+00  0.00000000000E+00  0.22841478936E+03  0.22841478936E+03  0.00000000000E+00 0.  1.
         -4   -1    0    0    0  501 -0.00000000000E+00 -0.00000000000E+00 -0.26587937351E+03  0.26587937351E+03  0.00000000000E+00 0. -1.
        -13    1    1    2    0    0  0.67082689630E+02 -0.68426941296E+02  0.77191037100E+02  0.12304796185E+03  0.10566000000E+00 0.  1.
         13    1    1    2    0    0 -0.62912578475E+02 -0.40900345309E+02 -0.21194645391E+03  0.22483803340E+03  0.10566000000E+00 0. -1.
         -4    1    1    2    0  502 -0.41701111545E+01  0.10932728661E+03  0.97290832661E+02  0.14640816761E+03  0.00000000000E+00 0. -1.
</event>
<event>
 5    1  0.2540860E-005  0.4231267E+02  0.7818608E-02  0.1326699E+00
         21   -1    0    0  501  502  0.00000000000E+00  0.00000000000E+00  0.12472323374E+03  0.12472323374E+03  0.00000000000E+00 0. -1.
          4   -1    0    0  502    0 -0.00000000000E+00 -0.00000000000E+00 -0.30128224008E+02  0.30128224008E+02  0.00000000000E+00 0.  1.
        -13    1    1    2    0    0  0.19626607206E+02  0.42519037201E+02  0.52323297710E+02  0.70219732855E+02  0.10566000000E+00 0.  1.
         13    1    1    2    0    0 -0.26951651932E+02 -0.31175088789E+02  0.10165280893E+01  0.41222835859E+02  0.10566000000E+00 0. -1.
          4    1    1    2  501    0  0.73250447267E+01 -0.11343948412E+02  0.41255183930E+02  0.43408889031E+02  0.00000000000E+00 0.  1.
</event>
<event>
 5    1  0.2540860E-005  0.2296740E+03  0.7818608E-02  0.1041500E+00
          4   -1    0    0  502    0 -0.00000000000E+00  0.00000000000E+00  0.35122195761E+03  0.35122195761E+03  0.00000000000E+00 0.  1.
         21   -1    0    0  501  502  0.00000000000E+00 -0.00000000000E+00 -0.36695867054E+03  0.36695867054E+03  0.00000000000E+00 0. -1.
        -13    1    1    2    0    0  0.60537881646E+01  0.22844536051E+03  0.24728686271E+03  0.33671164922E+03  0.10566000000E+00 0.  1.
         13    1    1    2    0    0 -0.39166115531E+02 -0.23504006276E+03 -0.20496132038E+03  0.31430394481E+03  0.10566000000E+00 0. -1.
          4    1    1    2  501    0  0.33112327366E+02  0.65947022513E+01 -0.58062255264E+02  0.67165034115E+02  0.00000000000E+00 0.  1.
</event>
<event>
 5    1  0.2540860E-005  0.1773050E+03  0.7818608E-02  0.1076917E+00
         21   -1    0    0  501  502  0.00000000000E+00  0.00000000000E+00  0.27214194052E+03  0.27214194052E+03  0.00000000000E+00 0.  1.
         -4   -1    0    0    0  501 -0.00000000000E+00 -0.00000000000E+00 -0.21972442183E+03  0.21972442183E+03  0.00000000000E+00 0. -1.
        -13    1    1    2    0    0  0.12237798922E+03  0.13849191930E+03  0.16369193793E+03  0.24688346576E+03  0.10566000000E+00 0.  1.
         13    1    1    2    0    0 -0.12700592802E+03 -0.12155402091E+03 -0.13050187060E+03  0.21894436542E+03  0.10566000000E+00 0. -1.
         -4    1    1    2    0  502  0.46279388012E+01 -0.16937898392E+02  0.19227451372E+02  0.26038531174E+02  0.00000000000E+00 0. -1.
</event>
<event>
 5    1  0.2540860E-005  0.4589798E+03  0.7818608E-02  0.9986258E-01
         21   -1    0    0  501  502  0.00000000000E+00  0.00000000000E+00  0.29786529270E+03  0.29786529270E+03  0.00000000000E+00 0.  1.
          4   -1    0    0  502    0 -0.00000000000E+00 -0.00000000000E+00 -0.13609299724E+04  0.13609299724E+04  0.00000000000E+00 0.  1.
        -13    1    1    2    0    0 -0.42621790998E+03 -0.24720104736E+03 -0.32856919566E+02  0.49381135358E+03  0.10566000000E+00 0.  1.
         13    1    1    2    0    0  0.10204105651E+03  0.44067189390E+02 -0.49365156418E+03  0.50601005165E+03  0.10566000000E+00 0. -1.
          4    1    1    2  501    0  0.32417685347E+03  0.20313385797E+03 -0.53655619598E+03  0.65897385989E+03  0.00000000000E+00 0.  1.
</event>
<event>
 5    1  0.2540860E-005  0.5979271E+03  0.7818608E-02  0.9285866E-01
         -4   -1    0    0    0  501 -0.00000000000E+00  0.00000000000E+00  0.22448723615E+04  0.22448723615E+04  0.00000000000E+00 0. -1.
         21   -1    0    0  501  502  0.00000000000E+00 -0.00000000000E+00 -0.28840076982E+03  0.28840076982E+03  0.00000000000E+00 0. -1.
        -13    1    1    2    0    0  0.46563645368E+03  0.17985974310E+03  0.55765098795E+03  0.74842599481E+03  0.10566000000E+00 0.  1.
         13    1    1    2    0    0 -0.61975594686E+03 -0.26901571545E+03  0.14499246573E+04  0.15996088309E+04  0.10566000000E+00 0. -1.
         -4    1    1    2    0  502  0.15411949318E+03  0.89155972351E+02 -0.51104053567E+02  0.18523830563E+03  0.00000000000E+00 0. -1.
</event>
<event>
 5    1  0.2540860E-005  0.4833009E+03  0.7818608E-02  0.9515343E-01
         21   -1    0    0  501  502  0.00000000000E+00  0.00000000000E+00  0.65864671127E+03  0.65864671127E+03  0.00000000000E+00 0.  1.
         -4   -1    0    0    0  501 -0.00000000000E+00 -0.00000000000E+00 -0.95372278448E+03  0.95372278448E+03  0.00000000000E+00 0. -1.
        -13    1    1    2    0    0  0.40739769752E+03  0.17151025815E+03  0.97660885356E+02  0.45268787512E+03  0.10566000000E+00 0.  1.
         13    1    1    2    0    0 -0.31968834409E+03 -0.39789445936E+03 -0.63634320586E+03  0.81575322552E+03  0.10566000000E+00 0. -1.
         -4    1    1    2    0  502 -0.87709353425E+02  0.22638420122E+03  0.24360624729E+03  0.34392839510E+03  0.00000000000E+00 0. -1.
</event>
<event>
 5    1  0.2540860E-005  0.1089860E+03  0.7818608E-02  0.1150487E+00
         21   -1    0    0  501  502  0.00000000000E+00  0.00000000000E+00  0.58068131475E+02  0.58068131475E+02  0.00000000000E+00 0.  1.
          4   -1    0    0  502    0 -0.00000000000E+00 -0.00000000000E+00 -0.50027090899E+03  0.50027090899E+03  0.00000000000E+00 0.  1.
        -13    1    1    2    0    0 -0.95936595503E+02 -0.74922336339E+02 -0.54867887983E+02  0.13352034727E+03  0.10566000000E+00 0.  1.
         13    1    1    2    0    0  0.37222921374E+02  0.10290026050E+03 -0.24547029271E+03  0.26875580971E+03  0.10566000000E+00 0. -1.
          4    1    1    2  501    0  0.58713674129E+02 -0.27977924161E+02 -0.14186459682E+03  0.15606288349E+03  0.00000000000E+00 0.  1.
</event>
<event>
 5    1  0.2540860E-005  0.4672040E+03  0.7818608E-02  0.9760794E-01
         21   -1    0    0  501  502  0.00000000000E+00  0.00000000000E+00  0.15023635975E+04  0.15023635975E+04  0.00000000000E+00 0.  1.
          4   -1    0    0  502    0 -0.00000000000E+00 -0.00000000000E+00 -0.37304688404E+03  0.37304688404E+03  0.00000000000E+00 0.  1.
        -13    1    1    2    0    0 -0.23036587592E+03  0.38002697822E+03  0.75423159021E+03  0.87541661156E+03  0.10566000000E+00 0.  1.
         13    1    1    2    0    0 -0.21323434261E+03 -0.71715745646E+02 -0.13050985979E+03  0.26008626974E+03  0.10566000000E+00 0. -1.
          4    1    1    2  501    0  0.44360021852E+03 -0.30831123258E+03  0.50559498302E+03  0.73990760022E+03  0.00000000000E+00 0.  1.
</event>
<event>
 5    1  0.2540860E-005  0.3120979E+03  0.7818608E-02  0.1002433E+00
         -4   -1    0    0    0  501 -0.00000000000E+00  0.00000000000E+00  0.30306981100E+04  0.30306981100E+04  0.00000000000E+00 0. -1.
         21   -1    0    0  501  502  0.00000000000E+00 -0.00000000000E+00 -0.59585971508E+02  0.59585971508E+02  0.00000000000E+00 0. -1.
        -13    1    1    2    0    0 -0.26565392965E+03 -0.12668694934E+03  0.10975941224E+04  0.11363689815E+04  0.10566000000E+00 0.  1.
         13    1    1    2    0    0  0.20083724334E+03  0.29074553217E+03  0.14967494951E+04  0.15378971438E+04  0.10566000000E+00 0. -1.
         -4    1    1    2    0  502  0.64816686315E+02 -0.16405858283E+03  0.37676852100E+03  0.41601795616E+03  0.00000000000E+00 0. -1.
</event>
<event>
 5    1  0.2540860E-005  0.7824558E+02  0.7818608E-02  0.1206617E+00
         -4   -1    0    0    0  501 -0.00000000000E+00  0.00000000000E+00  0.36924639638E+02  0.36924639638E+02  0.00000000000E+00 0. -1.
         21   -1    0    0  501  502  0.00000000000E+00 -0.00000000000E+00 -0.25151109258E+03  0.25151109258E+03  0.00000000000E+00 0.  1.
        -13    1    1    2    0    0  0.62170104433E+02 -0.57315464146E+02 -0.10074984404E+03  0.13153222629E+03  0.10566000000E+00 0.  1.
         13    1    1    2    0    0 -0.57871031780E+02  0.47240500257E+02 -0.45021291458E+02  0.87221838047E+02  0.10566000000E+00 0. -1.
         -4    1    1    2    0  502 -0.42990726536E+01  0.10074963889E+02 -0.68815317447E+02  0.69681667879E+02  0.00000000000E+00 0. -1.
</event>
<event>
 5    1  0.2540860E-005  0.2022602E+03  0.7818608E-02  0.1058597E+00
          4   -1    0    0  502    0 -0.00000000000E+00  0.00000000000E+00  0.16073562581E+04  0.16073562581E+04  0.00000000000E+00 0.  1.
         21   -1    0    0  501  502  0.00000000000E+00 -0.00000000000E+00 -0.33501714110E+03  0.33501714110E+03  0.00000000000E+00 0.  1.
        -13    1    1    2    0    0  0.84561018123E+02 -0.16791825926E+03  0.92579654117E+03  0.94469378868E+03  0.10566000000E+00 0.  1.
         13    1    1    2    0    0 -0.17854865608E+03  0.16935171189E+03  0.64204287804E+03  0.68758904392E+03  0.10566000000E+00 0. -1.
          4    1    1    2  501    0  0.93987637953E+02 -0.14334526261E+01 -0.29550030222E+03  0.31009056659E+03  0.00000000000E+00 0.  1.
</event>
<event>
 5    1  0.2540860E-005  0.6855217E+03  0.7818608E-02  0.9144249E-01
         21   -1    0    0  501  502  0.00000000000E+00  0.00000000000E+00  0.31769146856E+03  0.31769146856E+03  0.00000000000E+00 0. -1.
          4   -1    0    0  502    0 -0.00000000000E+00 -0.00000000000E+00 -0.19733640651E+04  0.19733640651E+04  0.00000000000E+00 0.  1.
        -13    1    1    2    0    0 -0.67048356042E+03 -0.14753454681E+03 -0.13470038233E+04  0.15118643982E+04  0.10566000000E+00 0.  1.
         13    1    1    2    0    0  0.66921691961E+03  0.13635945341E+03 -0.32736533226E+03  0.75737260180E+03  0.10566000000E+00 0. -1.
          4    1    1    2  501    0  0.12666408113E+01  0.11175093394E+02  0.18696559042E+02  0.21818533666E+02  0.00000000000E+00 0.  1.
</event>
<event>
 5    1  0.2540860E-005  0.4901320E+03  0.7818608E-02  0.9640436E-01
          4   -1    0    0  502    0 -0.00000000000E+00  0.00000000000E+00  0.14914854387E+04  0.14914854387E+04  0.00000000000E+00 0.  1.
         21   -1    0    0  501  502  0.00000000000E+00 -0.00000000000E+00 -0.31852377631E+03  0.31852377631E+03  0.00000000000E+00 0. -1.
        -13    1    1    2    0    0  0.54894493779E+03  0.32637543094E+03  0.67917955391E+03  0.93228018549E+03  0.10566000000E+00 0.  1.
         13    1    1    2    0    0 -0.13118836903E+03 -0.26569641335E+03  0.14375656775E+03  0.32934925865E+03  0.10566000000E+00 0. -1.
          4    1    1    2  501    0 -0.41775656876E+03 -0.60679017597E+02  0.35002554070E+03  0.54837977084E+03  0.00000000000E+00 0.  1.
</event>
<event>
 5    1  0.2540860E-005  0.4785546E+02  0.7818608E-02  0.1300775E+00
         21   -1    0    0  501  502  0.00000000000E+00  0.00000000000E+00  0.42458701640E+03  0.42458701640E+03  0.00000000000E+00 0.  1.
         -4   -1    0    0    0  501 -0.00000000000E+00 -0.00000000000E+00 -0.17930302457E+02  0.17930302457E+02  0.00000000000E+00 0. -1.
        -13    1    1    2    0    0  0.32535562479E+02  0.41949186764E+02  0.16315113476E+03  0.17157097957E+03  0.10566000000E+00 0.  1.
         13    1    1    2    0    0 -0.35831666477E+02 -0.30130975756E+02  0.26901877081E+02  0.53995427372E+02  0.10566000000E+00 0. -1.
         -4    1    1    2    0  502  0.32961039980E+01 -0.11818211008E+02  0.21660370211E+03  0.21695091191E+03  0.00000000000E+00 0. -1.
</event>
<event>
 5    1  0.2540860E-005  0.5007042E+03  0.7818608E-02  0.9914121E-01
          4   -1    0    0  502    0 -0.00000000000E+00  0.00000000000E+00  0.83775714812E+03  0.83775714812E+03  0.00000000000E+00 0.  1.
         21   -1    0    0  501  502  0.00000000000E+00 -0.00000000000E+00 -0.74414295985E+03  0.74414295985E+03  0.00000000000E+00 0.  1.
        -13    1    1    2    0    0 -0.37560469574E+03 -0.40028849684E+03 -0.32654327898E+03  0.63870203724E+03  0.10566000000E+00 0.  1.
         13    1    1    2    0    0  0.85921666550E+02  0.66603320522E+02  0.48459524656E+03  0.49663980835E+03  0.10566000000E+00 0. -1.
          4    1    1    2  501    0  0.28968302919E+03  0.33368517632E+03 -0.64437779311E+02  0.44655826238E+03  0.00000000000E+00 0.  1.
</event>
<event>
 5    1  0.2540860E-005  0.4433978E+03  0.7818608E-02  0.9969184E-01
         -4   -1    0    0    0  501 -0.00000000000E+00  0.00000000000E+00  0.43841850754E+03  0.43841850754E+03  0.00000000000E+00 0. -1.
         21   -1    0    0  501  502  0.00000000000E+00 -0.00000000000E+00 -0.84923508739E+03  0.84923508739E+03  0.00000000000E+00 0. -1.
        -13    1    1    2    0    0 -0.82161289672E+02 -0.10127837506E+03  0.93654580220E+02  0.16055833313E+03  0.10566000000E+00 0.  1.
         13    1    1    2    0    0  0.44645807967E+03  0.29141379728E+03 -0.84999173413E+02  0.53988118026E+03  0.10566000000E+00 0. -1.
         -4    1    1    2    0  502 -0.36429679000E+03 -0.19013542222E+03 -0.41947198665E+03  0.58721408155E+03  0.00000000000E+00 0. -1.
</event>
<event>
 5    1  0.2540860E-005  0.1535138E+03  0.7818608E-02  0.1097697E+00
         21   -1    0    0  501  502  0.00000000000E+00  0.00000000000E+00  0.16184865903E+03  0.16184865903E+03  0.00000000000E+00 0. -1.
          4   -1    0    0  502    0 -0.00000000000E+00 -0.00000000000E+00 -0.80503772248E+03  0.80503772248E+03  0.00000000000E+00 0.  1.
        -13    1    1    2    0    0 -0.39623863819E+01  0.15021559339E+03 -0.68034335443E+03  0.69674063761E+03  0.10566000000E+00 0.  1.
         13    1    1    2    0    0  0.31738638541E+02 -0.18377153173E+03 -0.31207170248E+02  0.18908520749E+03  0.10566000000E+00 0. -1.
          4    1    1    2  501    0 -0.27776252159E+02  0.33555938342E+02  0.68361461237E+02  0.81060536419E+02  0.00000000000E+00 0.  1.
</event>
<event>
 5    1  0.2540860E-005  0.4668719E+03  0.7818608E-02  0.9553696E-01
         -4   -1    0    0    0  501 -0.00000000000E+00  0.00000000000E+00  0.19586096077E+04  0.19586096077E+04  0.00000000000E+00 0. -1.
         21   -1    0    0  501  502  0.00000000000E+00 -0.00000000000E+00 -0.23877617926E+03  0.23877617926E+03  0.00000000000E+00 0. -1.
        -13    1    1    2    0    0  0.42202509803E+03  0.22363462563E+03  0.37303689580E+03  0.60603148924E+03  0.10566000000E+00 0.  1.
         13    1    1    2    0    0 -0.40787095137E+03 -0.22017073000E+03  0.14318812324E+04  0.15050308097E+04  0.10566000000E+00 0. -1.
         -4    1    1    2    0  502 -0.14154146668E+02 -0.34638956361E+01 -0.85084699785E+02  0.86323487988E+02  0.00000000000E+00 0. -1.
</event>
<event>
 5    1  0.2540860E-005  0.3385485E+03  0.7818608E-02  0.1011297E+00
          4   -1    0    0  502    0 -0.00000000000E+00  0.00000000000E+00  0.16018088282E+04  0.16018088282E+04  0.00000000000E+00 0.  1.
         21   -1    0    0  501  502  0.00000000000E+00 -0.00000000000E+00 -0.25167261798E+03  0.25167261798E+03  0.00000000000E+00 0.  1.
        -13    1    1    2    0    0  0.16109956502E+03 -0.44251597501E+03  0.89779766883E+03  0.10138116804E+04  0.10566000000E+00 0.  1.
         13    1    1    2    0    0 -0.13639448498E+03  0.12288679533E+03  0.48388231358E+03  0.51753910438E+03  0.10566000000E+00 0. -1.
          4    1    1    2  501    0 -0.24705080037E+02  0.31962917968E+03 -0.31543772154E+02  0.32213066144E+03  0.00000000000E+00 0.  1.
</event>
<event>
 5    1  0.2540860E-005  0.3792515E+03  0.7818608E-02  0.9790957E-01
         21   -1    0    0  501  502  0.00000000000E+00  0.00000000000E+00  0.23988556721E+03  0.23988556721E+03  0.00000000000E+00 0.  1.
         -4   -1    0    0    0  501 -0.00000000000E+00 -0.00000000000E+00 -0.12120385067E+04  0.12120385067E+04  0.00000000000E+00 0. -1.
        -13    1    1    2    0    0  0.27017784590E+03  0.18012108752E+03  0.38020597962E+02  0.32693309961E+03  0.10566000000E+00 0.  1.
         13    1    1    2    0    0 -0.32221220288E+03 -0.22062694287E+03 -0.97490988308E+03  0.10502124751E+04  0.10566000000E+00 0. -1.
         -4    1    1    2    0  502  0.52034356977E+02  0.40505855351E+02 -0.35263654423E+02  0.74778499229E+02  0.00000000000E+00 0. -1.
</event>
<event>
 5    1  0.2540860E-005  0.6021505E+02  0.7818608E-02  0.1255013E+00
         -4   -1    0    0    0  501 -0.00000000000E+00  0.00000000000E+00  0.46977172490E+02  0.46977172490E+02  0.00000000000E+00 0. -1.
         21   -1    0    0  501  502  0.00000000000E+00 -0.00000000000E+00 -0.19843670323E+03  0.19843670323E+03  0.00000000000E+00 0. -1.
        -13    1    1    2    0    0 -0.61252655816E+02  0.53572331334E+01 -0.38781127949E+02  0.72695081266E+02  0.10566000000E+00 0.  1.
         13    1    1    2    0    0  0.59509580506E+02  0.80057337519E+01 -0.81980994888E+00  0.60051354666E+02  0.10566000000E+00 0. -1.
         -4    1    1    2    0  502  0.17430753098E+01 -0.13362966885E+02 -0.11185859284E+03  0.11266743978E+03  0.00000000000E+00 0. -1.
</event>
<event>
 5    1  0.2540860E-005  0.3190111E+03  0.7818608E-02  0.1005901E+00
         21   -1    0    0  501  502  0.00000000000E+00  0.00000000000E+00  0.22667017236E+03  0.22667017236E+03  0.00000000000E+00 0. -1.
         -4   -1    0    0    0  501 -0.00000000000E+00 -0.00000000000E+00 -0.24647649876E+04  0.24647649876E+04  0.00000000000E+00 0. -1.
        -13    1    1    2    0    0 -0.90799965316E+02  0.24479571310E+03 -0.12078027851E+04  0.12357010779E+04  0.10566000000E+00 0.  1.
         13    1    1    2    0    0  0.32941850873E+03 -0.18349249478E+02  0.43405633663E+02  0.33277215786E+03  0.10566000000E+00 0. -1.
         -4    1    1    2    0  502 -0.23861854342E+03 -0.22644646362E+03 -0.10736976637E+04  0.11229619242E+04  0.00000000000E+00 0. -1.
</event>
<event>
 5    1  0.2540860E-005  0.2985556E+02  0.7818608E-02  0.1487412E+00
          4   -1    0    0  502    0 -0.00000000000E+00  0.00000000000E+00  0.25524769515E+02  0.25524769515E+02  0.00000000000E+00 0.  1.
         21   -1    0    0  501  502  0.00000000000E+00 -0.00000000000E+00 -0.64970333815E+03  0.64970333815E+03  0.00000000000E+00 0. -1.
        -13    1    1    2    0    0 -0.69834123787E+01  0.13989673299E+02  0.16830943991E+02  0.22973263745E+02  0.10566000000E+00 0.  1.
         13    1    1    2    0    0  0.61735328672E+02 -0.12948068755E+00 -0.26978059494E+03  0.27675412941E+03  0.10566000000E+00 0. -1.
          4    1    1    2  501    0 -0.54751916293E+02 -0.13860192611E+02 -0.37122891768E+03  0.37550071452E+03  0.00000000000E+00 0.  1.
</event>
<event>
 5    1  0.2540860E-005  0.5082553E+03  0.7818608E-02  0.9477143E-01
         -4   -1    0    0    0  501 -0.00000000000E+00  0.00000000000E+00  0.33618171266E+04  0.33618171266E+04  0.00000000000E+00 0. -1.
         21   -1    0    0  501  502  0.00000000000E+00 -0.00000000000E+00 -0.21098132018E+03  0.21098132018E+03  0.00000000000E+00 0. -1.
        -13    1    1    2    0    0 -0.47613795980E+03 -0.35674025571E+02  0.15157117394E+04  0.15891387859E+04  0.10566000000E+00 0.  1.
         13    1    1    2    0    0 -0.58560002148E+02  0.43039042102E+03  0.85357662959E+03  0.95773600856E+03  0.10566000000E+00 0. -1.
         -4    1    1    2    0  502  0.53469796195E+03 -0.39471639545E+03  0.78154743748E+03  0.10259236523E+04  0.00000000000E+00 0. -1.
</event>
<event>
 5    1  0.2540860E-005  0.1522321E+03  0.7818608E-02  0.1098931E+00
         -4   -1    0    0    0  501 -0.00000000000E+00  0.00000000000E+00  0.72537173641E+02  0.72537173641E+02  0.00000000000E+00 0. -1.
         21   -1    0    0  501  502  0.00000000000E+00 -0.00000000000E+00 -0.55695485722E+03  0.55695485722E+03  0.00000000000E+00 0.  1.
        -13    1    1    2    0    0  0.85318822681E+02  0.13069224735E+03 -0.26235706665E+03  0.30527202068E+03  0.10566000000E+00 0.  1.
         13    1    1    2    0    0 -0.12766190601E+02 -0.15694010264E+03 -0.16635588579E+03  0.22905777293E+03  0.10566000000E+00 0. -1.
         -4    1    1    2    0  502 -0.72552632080E+02  0.26247855290E+02 -0.55704731139E+02  0.95162237260E+02  0.00000000000E+00 0. -1.
</event>
<event>
 5    1  0.2540860E-005  0.4934922E+03  0.7818608E-02  0.9598772E-01
         21   -1    0    0  501  502  0.00000000000E+00  0.00000000000E+00  0.23456470680E+03  0.23456470680E+03  0.00000000000E+00 0.  1.
          4   -1    0    0  502    0 -0.00000000000E+00 -0.00000000000E+00 -0.26321339369E+04  0.26321339369E+04  0.00000000000E+00 0.  1.
        -13    1    1    2    0    0  0.67506821673E+03  0.12145584036E+03 -0.74137143636E+03  0.10100001169E+04  0.10566000000E+00 0.  1.
         13    1    1    2    0    0 -0.28520306763E+03 -0.17854169349E+03 -0.12346324847E+04  0.12796621857E+04  0.10566000000E+00 0. -1.
          4    1    1    2  501    0 -0.38986514910E+03  0.57085853127E+02 -0.42156530905E+03  0.57703634106E+03  0.00000000000E+00 0.  1.
</event>
<event>
 5    1  0.2540860E-005  0.3313949E+03  0.7818608E-02  0.9951290E-01
          4   -1    0    0  502    0 -0.00000000000E+00  0.00000000000E+00  0.95966936723E+03  0.95966936723E+03  0.00000000000E+00 0.  1.
         21   -1    0    0  501  502  0.00000000000E+00 -0.00000000000E+00 -0.18832657168E+03  0.18832657168E+03  0.00000000000E+00 0.  1.
        -13    1    1    2    0    0  0.41016269735E+03  0.30128887751E+02  0.46808273640E+03  0.62309120316E+03  0.10566000000E+00 0.  1.
         13    1    1    2    0    0 -0.26297292720E+03 -0.63307026797E+02  0.23885078237E+03  0.36084934181E+03  0.10566000000E+00 0. -1.
          4    1    1    2  501    0 -0.14718977015E+03  0.33178139047E+02  0.64409276782E+02  0.16405539394E+03  0.00000000000E+00 0.  1.
</event>
<event>
 5    1  0.2540860E-005  0.3264089E+03  0.7818608E-02  0.9969642E-01
          4   -1    0    0  502    0 -0.00000000000E+00  0.00000000000E+00  0.21943060472E+04  0.21943060472E+04  0.00000000000E+00 0.  1.
         21   -1    0    0  501  502  0.00000000000E+00 -0.00000000000E+00 -0.30407372370E+03  0.30407372370E+03  0.00000000000E+00 0. -1.
        -13    1    1    2    0    0  0.17388078549E+03  0.26776337307E+03  0.17744348934E+04  0.18029284383E+04  0.10566000000E+00 0.  1.
         13    1    1    2    0    0 -0.58884666763E+02 -0.42463617862E+03  0.21222422202E+03  0.47835386457E+03  0.10566000000E+00 0. -1.
          4    1    1    2  501    0 -0.11499611873E+03  0.15687280555E+03 -0.96426791887E+02  0.21709746806E+03  0.00000000000E+00 0.  1.
</event>
<event>
 5    1  0.2540860E-005  0.4325580E+03  0.7818608E-02  0.9882268E-01
         21   -1    0    0  501  502  0.00000000000E+00  0.00000000000E+00  0.17778117510E+03  0.17778117510E+03  0.00000000000E+00 0. -1.
         -4   -1    0    0    0  501 -0.00000000000E+00 -0.00000000000E+00 -0.24152664892E+04  0.24152664892E+04  0.00000000000E+00 0. -1.
        -13    1    1    2    0    0 -0.16948504807E+03  0.80383906437E+02 -0.90007338407E+03  0.91941223714E+03  0.10566000000E+00 0.  1.
         13    1    1    2    0    0  0.12006732384E+03  0.40502523111E+03 -0.27370855681E+03  0.50336665098E+03  0.10566000000E+00 0. -1.
         -4    1    1    2    0  502  0.49417724225E+02 -0.48540913754E+03 -0.10637033732E+04  0.11702687762E+04  0.00000000000E+00 0. -1.
</event>
<event>
 5    1  0.2540860E-005  0.6220531E+03  0.7818608E-02  0.9244437E-01
         -4   -1    0    0    0  501 -0.00000000000E+00  0.00000000000E+00  0.27220014823E+04  0.27220014823E+04  0.00000000000E+00 0. -1.
         21   -1    0    0  501  502  0.00000000000E+00 -0.00000000000E+00 -0.32047203599E+03  0.32047203599E+03  0.00000000000E+00 0.  1.
        -13    1    1    2    0    0 -0.24034752777E+03  0.60265435331E+03  0.63019122920E+03  0.90448891657E+03  0.10566000000E+00 0.  1.
         13    1    1    2    0    0  0.62976986590E+03 -0.27849764624E+03  0.95993574227E+03  0.11813753271E+04  0.10566000000E+00 0. -1.
         -4    1    1    2    0  502 -0.38942233813E+03 -0.32415670707E+03  0.81140247484E+03  0.95660927465E+03  0.00000000000E+00 0. -1.
</event>
<event>
 5    1  0.2540860E-005  0.4948769E+03  0.7818608E-02  0.9572618E-01
         21   -1    0    0  501  502  0.00000000000E+00  0.00000000000E+00  0.59841963228E+03  0.59841963228E+03  0.00000000000E+00 0. -1.
         -4   -1    0    0    0  501 -0.00000000000E+00 -0.00000000000E+00 -0.13397127895E+04  0.13397127895E+04  0.00000000000E+00 0. -1.
        -13    1    1    2    0    0 -0.36433693223E+03  0.37864587935E+02 -0.78846480434E+03  0.86939742699E+03  0.10566000000E+00 0.  1.
         13    1    1    2    0    0  0.19189629968E+03 -0.51647294968E+03 -0.40718302241E+02  0.55247306621E+03  0.10566000000E+00 0. -1.
         -4    1    1    2    0  502  0.17244063255E+03  0.47860836174E+03  0.87889949384E+02  0.51626192857E+03  0.00000000000E+00 0. -1.
</event>
<event>
 5    1  0.2540860E-005  0.4908407E+03  0.7818608E-02  0.9713219E-01
          4   -1    0    0  502    0 -0.00000000000E+00  0.00000000000E+00  0.20779112392E+04  0.20779112392E+04  0.00000000000E+00 0.  1.
         21   -1    0    0  501  502  0.00000000000E+00 -0.00000000000E+00 -0.34806679223E+03  0.34806679223E+03  0.00000000000E+00 0.  1.
        -13    1    1    2    0    0  0.25839809023E+03 -0.31057517326E+03  0.17245756463E+03  0.43928138368E+03  0.10566000000E+00 0.  1.
         13    1    1    2    0    0  0.10465346910E+03 -0.20334441768E+03  0.12778893258E+04  0.12981919892E+04  0.10566000000E+00 0. -1.
          4    1    1    2  501    0 -0.36305155933E+03  0.51391959094E+03  0.27949755657E+03  0.68850465853E+03  0.00000000000E+00 0.  1.
</event>
<event>
 5    1  0.2540860E-005  0.1511605E+03  0.7818608E-02  0.1099973E+00
          4   -1    0    0  502    0 -0.00000000000E+00  0.00000000000E+00  0.11339409352E+03  0.11339409352E+03  0.00000000000E+00 0.  1.
         21   -1    0    0  501  502  0.00000000000E+00 -0.00000000000E+00 -0.91981737774E+03  0.91981737774E+03  0.00000000000E+00 0. -1.
        -13    1    1    2    0    0 -0.11201877665E+03  0.96280892701E+02  0.39455107200E+02  0.15288863028E+03  0.10566000000E+00 0.  1.
         13    1    1    2    0    0  0.13509392061E+03 -0.12179839288E+03 -0.48803618217E+03  0.52083062714E+03  0.10566000000E+00 0. -1.
          4    1    1    2  501    0 -0.23075143955E+02  0.25517500182E+02 -0.35784220925E+03  0.35949221383E+03  0.00000000000E+00 0.  1.
</event>
<event>
 5    1  0.2540860E-005  0.3718295E+03  0.7818608E-02  0.1019842E+00
         21   -1    0    0  501  502  0.00000000000E+00  0.00000000000E+00  0.32397620649E+03  0.32397620649E+03  0.00000000000E+00 0. -1.
         -4   -1    0    0    0  501 -0.00000000000E+00 -0.00000000000E+00 -0.10087430961E+04  0.10087430961E+04  0.00000000000E+00 0. -1.
        -13    1    1    2    0    0 -0.10517046335E+03  0.95881431383E+01 -0.18777670812E+03  0.21543644568E+03  0.10566000000E+00 0.  1.
         13    1    1    2    0    0 -0.15406540854E+03  0.32819794126E+03  0.10724760628E+03  0.37809006728E+03  0.10566000000E+00 0. -1.
         -4    1    1    2    0  502  0.25923587188E+03 -0.33778608440E+03 -0.60423778773E+03  0.73919278961E+03  0.00000000000E+00 0. -1.
</event>
<event>
 5    1  0.2540860E-005  0.1766131E+03  0.7818608E-02  0.1077470E+00
          4   -1    0    0  502    0 -0.00000000000E+00  0.00000000000E+00  0.15291404583E+03  0.15291404583E+03  0.00000000000E+00 0.  1.
         21   -1    0    0  501  502  0.00000000000E+00 -0.00000000000E+00 -0.31616190421E+03  0.31616190421E+03  0.00000000000E+00 0. -1.
        -13    1    1    2    0    0  0.10132084204E+03  0.14773503946E+03  0.53228951651E+02  0.18688201458E+03  0.10566000000E+00 0.  1.
         13    1    1    2    0    0 -0.89604598432E+02 -0.14197393114E+03 -0.20302785987E+03  0.26345000328E+03  0.10566000000E+00 0. -1.
          4    1    1    2  501    0 -0.11716243606E+02 -0.57611083234E+01 -0.13448950162E+02  0.18743932186E+02  0.00000000000E+00 0.  1.
</event>
<event>
 5    1  0.2540860E-005  0.5408016E+02  0.7818608E-02  0.1276013E+00
         -4   -1    0    0    0  501 -0.00000000000E+00  0.00000000000E+00  0.24751308971E+03  0.24751308971E+03  0.00000000000E+00 0. -1.
         21   -1    0    0  501  502  0.00000000000E+00 -0.00000000000E+00 -0.68957190497E+02  0.68957190497E+02  0.00000000000E+00 0.  1.
        -13    1    1    2    0    0  0.55973028510E+02  0.49255124559E+02 -0.29370633670E+02  0.80135463449E+02  0.10566000000E+00 0.  1.
         13    1    1    2    0    0 -0.42603427227E+02 -0.31284058077E+02  0.20729461651E+03  0.21392712193E+03  0.10566000000E+00 0. -1.
         -4    1    1    2    0  502 -0.13369601283E+02 -0.17971066483E+02  0.63191637394E+00  0.22407694823E+02  0.00000000000E+00 0. -1.
</event>
<event>
 5    1  0.2540860E-005  0.1203220E+03  0.7818608E-02  0.1134724E+00
         -4   -1    0    0    0  501 -0.00000000000E+00  0.00000000000E+00  0.47371615215E+02  0.47371615215E+02  0.00000000000E+00 0. -1.
         21   -1    0    0  501  502  0.00000000000E+00 -0.00000000000E+00 -0.50070126479E+03  0.50070126479E+03  0.00000000000E+00 0.  1.
        -13    1    1    2    0    0  0.72649418930E+02  0.99905437416E+02 -0.16947252133E+03  0.20971404614E+03  0.10566000000E+00 0.  1.
         13    1    1    2    0    0 -0.60883731195E+02 -0.10146091674E+03 -0.10230965608E+03  0.15642385765E+03  0.10566000000E+00 0. -1.
         -4    1    1    2    0  502 -0.11765687735E+02  0.15554793257E+01 -0.18154747216E+03  0.18193497622E+03  0.00000000000E+00 0. -1.
</event>
<event>
 5    1  0.2540860E-005  0.1022167E+03  0.7818608E-02  0.1160939E+00
         21   -1    0    0  501  502  0.00000000000E+00  0.00000000000E+00  0.13436888942E+03  0.13436888942E+03  0.00000000000E+00 0. -1.
         -4   -1    0    0    0  501 -0.00000000000E+00 -0.00000000000E+00 -0.99416901337E+02  0.99416901337E+02  0.00000000000E+00 0. -1.
        -13    1    1    2    0    0  0.90062970367E+02 -0.37235944383E+02  0.38976929360E+02  0.10496221402E+03  0.10566000000E+00 0.  1.
         13    1    1    2    0    0 -0.10454214518E+03  0.20417798774E+02 -0.19598024163E+01  0.10653543362E+03  0.10566000000E+00 0. -1.
         -4    1    1    2    0  502  0.14479174818E+02  0.16818145609E+02 -0.20651388627E+01  0.22288143118E+02  0.00000000000E+00 0. -1.
</event>
<event>
 5    1  0.2540860E-005  0.4991226E+03  0.7818608E-02  0.9638569E-01
         21   -1    0    0  501  502  0.00000000000E+00  0.00000000000E+00  0.15479982978E+03  0.15479982978E+03  0.00000000000E+00 0. -1.
         -4   -1    0    0    0  501 -0.00000000000E+00 -0.00000000000E+00 -0.28904288340E+04  0.28904288340E+04  0.00000000000E+00 0. -1.
        -13    1    1    2    0    0  0.28183986796E+03 -0.18507628942E+02 -0.79156922980E+03  0.84045112899E+03  0.10566000000E+00 0.  1.
         13    1    1    2    0    0 -0.55395606091E+03 -0.28497027151E+03 -0.10262599096E+04  0.12005352083E+04  0.10566000000E+00 0. -1.
         -4    1    1    2    0  502  0.27211619295E+03  0.30347790045E+03 -0.91779986475E+03  0.10042423265E+04  0.00000000000E+00 0. -1.
</event>
<event>
 5    1  0.2540860E-005  0.5403632E+03  0.7818608E-02  0.9661358E-01
         -4   -1    0    0    0  501 -0.00000000000E+00  0.00000000000E+00  0.10812402275E+04  0.10812402275E+04  0.00000000000E+00 0. -1.
         21   -1    0    0  501  502  0.00000000000E+00 -0.00000000000E+00 -0.71913134765E+03  0.71913134765E+03  0.00000000000E+00 0. -1.
        -13    1    1    2    0    0 -0.15472218068E+03  0.13514121267E+03  0.63310823468E+03  0.66560359715E+03  0.10566000000E+00 0.  1.
         13    1    1    2    0    0 -0.43000329159E+03 -0.26154071789E+03 -0.10847219515E+03  0.51485202357E+03  0.10566000000E+00 0. -1.
         -4    1    1    2    0  502  0.58472547227E+03  0.12639950521E+03 -0.16252715972E+03  0.61991595438E+03  0.00000000000E+00 0. -1.
</event>
<event>
 5    1  0.2540860E-005  0.3083328E+03  0.7818608E-02  0.1031977E+00
         -4   -1    0    0    0  501 -0.00000000000E+00  0.00000000000E+00  0.19918934805E+04  0.19918934805E+04  0.00000000000E+00 0. -1.
         21   -1    0    0  501  502  0.00000000000E+00 -0.00000000000E+00 -0.15850176294E+03  0.15850176294E+03  0.00000000000E+00 0. -1.
        -13    1    1    2    0    0 -0.12371475820E+03  0.28286369145E+02  0.21844735549E+03  0.25263554453E+03  0.10566000000E+00 0.  1.
         13    1    1    2    0    0  0.24241569882E+03  0.25335149059E+03  0.15449167232E+04  0.15842095952E+04  0.10566000000E+00 0. -1.
         -4    1    1    2    0  502 -0.11870094062E+03 -0.28163785973E+03  0.70027638909E+02  0.31355010373E+03  0.00000000000E+00 0. -1.
</event>
<event>
 5    1  0.2540860E-005  0.3217073E+03  0.7818608E-02  0.9987272E-01
         21   -1    0    0  501  502  0.00000000000E+00  0.00000000000E+00  0.25519999580E+03  0.25519999580E+03  0.00000000000E+00 0.  1.
         -4   -1    0    0    0  501 -0.00000000000E+00 -0.00000000000E+00 -0.95315971890E+03  0.95315971890E+03  0.00000000000E+00 0. -1.
        -13    1    1    2    0    0 -0.30679224634E+03 -0.23800318129E+02  0.75103494784E+02  0.31674671845E+03  0.10566000000E+00 0.  1.
         13    1    1    2    0    0  0.32196944656E+03  0.36163132517E+02 -0.79720767763E+03  0.86053017908E+03  0.10566000000E+00 0. -1.
         -4    1    1    2    0  502 -0.15177200220E+02 -0.12362814389E+02  0.24144459749E+02  0.31082817162E+02  0.00000000000E+00 0. -1.
</event>
<event>
 5    1  0.2540860E-005  0.4662536E+03  0.7818608E-02  0.9656031E-01
         -4   -1    0    0    0  501 -0.00000000000E+00  0.00000000000E+00  0.12630412286E+04  0.12630412286E+04  0.00000000000E+00 0. -1.
         21   -1    0    0  501  502  0.00000000000E+00 -0.00000000000E+00 -0.47457513712E+03  0.47457513712E+03  0.00000000000E+00 0. -1.
        -13    1    1    2    0    0  0.53690062887E+02  0.32137180878E+03  0.61852431928E+03  0.69909570664E+03  0.10566000000E+00 0.  1.
         13    1    1    2    0    0 -0.37471830230E+03 -0.41752551790E+03 -0.14412564180E+03  0.57923533729E+03  0.10566000000E+00 0. -1.
         -4    1    1    2    0  502  0.32102823941E+03  0.96153709127E+02  0.31406741397E+03  0.45928532177E+03  0.00000000000E+00 0. -1.
</event>
<event>
 5    1  0.2540860E-005  0.3898082E+03  0.7818608E-02  0.1006833E+00
         21   -1    0    0  501  502  0.00000000000E+00  0.00000000000E+00  0.16867347898E+03  0.16867347898E+03  0.00000000000E+00 0.  1.
          4   -1    0    0  502    0 -0.00000000000E+00 -0.00000000000E+00 -0.20560726867E+04  0.20560726867E+04  0.00000000000E+00 0.  1.
        -13    1    1    2    0    0  0.33656310348E+03  0.16387223584E+03 -0.18602264055E+03  0.41801108390E+03  0.10566000000E+00 0.  1.
         13    1    1    2    0    0  0.12203692389E+03 -0.66239898126E+02 -0.40959625305E+03  0.43249258557E+03  0.10566000000E+00 0. -1.
          4    1    1    2  501    0 -0.45860002737E+03 -0.97632337713E+02 -0.12917803141E+04  0.13742424962E+04  0.00000000000E+00 0.  1.
</event>
<event>
 5    1  0.2540860E-005  0.8254402E+03  0.7818608E-02  0.8958564E-01
         21   -1    0    0  501  502  0.00000000000E+00  0.00000000000E+00  0.14891915900E+04  0.14891915900E+04  0.00000000000E+00 0. -1.
         -4   -1    0    0    0  501 -0.00000000000E+00 -0.00000000000E+00 -0.11965108506E+04  0.11965108506E+04  0.00000000000E+00 0. -1.
        -13    1    1    2    0    0 -0.21455268538E+03  0.79541592910E+03 -0.67818801869E+03  0.10670793574E+04  0.10566000000E+00 0.  1.
         13    1    1    2    0    0  0.53835295797E+02 -0.84868252475E+03  0.11108189255E+04  0.13989563836E+04  0.10566000000E+00 0. -1.
         -4    1    1    2    0  502  0.16071738959E+03  0.53266595646E+02 -0.13995016748E+03  0.21966669958E+03  0.00000000000E+00 0. -1.
</event>
<event>
 5    1  0.2540860E-005  0.1836176E+03  0.7818608E-02  0.1071987E+00
          4   -1    0    0  502    0 -0.00000000000E+00  0.00000000000E+00  0.71875283106E+02  0.71875283106E+02  0.00000000000E+00 0.  1.
         21   -1    0    0  501  502  0.00000000000E+00 -0.00000000000E+00 -0.14381756340E+04  0.14381756340E+04  0.00000000000E+00 0. -1.
        -13    1    1    2    0    0  0.18704594756E+03 -0.13894715277E+02 -0.91925032002E+02  0.20887669157E+03  0.10566000000E+00 0.  1.
         13    1    1    2    0    0 -0.16855763426E+03  0.17863716643E+02 -0.52759562535E+03  0.55415516193E+03  0.10566000000E+00 0. -1.
          4    1    1    2  501    0 -0.18488313297E+02 -0.39690013665E+01 -0.74677969353E+03  0.74701906359E+03  0.00000000000E+00 0.  1.
</event>
<event>
 5    1  0.2540860E-005  0.5230787E+03  0.7818608E-02  0.9499097E-01
         -4   -1    0    0    0  501 -0.00000000000E+00  0.00000000000E+00  0.68708114734E+03  0.68708114734E+03  0.00000000000E+00 0. -1.
         21   -1    0    0  501  502  0.00000000000E+00 -0.00000000000E+00 -0.85800543322E+03  0.85800543322E+03  0.00000000000E+00 0. -1.
        -13    1    1    2    0    0 -0.11126974456E+03 -0.38874747959E+03  0.29720462031E+02  0.40544898073E+03  0.10566000000E+00 0.  1.
         13    1    1    2    0    0 -0.45456907388E+03  0.30838938376E+03 -0.74127874678E+02  0.55428513232E+03  0.10566000000E+00 0. -1.
         -4    1    1    2    0  502  0.56583881844E+03  0.80358095833E+02 -0.12651687323E+03  0.58535246752E+03  0.00000000000E+00 0. -1.
</event>
<event>
 5    1  0.2540860E-005  0.4969601E+03  0.7818608E-02  0.9765624E-01
         21   -1    0    0  501  502  0.00000000000E+00  0.00000000000E+00  0.29793702787E+03  0.29793702787E+03  0.00000000000E+00 0.  1.
          4   -1    0    0  502    0 -0.00000000000E+00 -0.00000000000E+00 -0.12317504593E+04  0.12317504593E+04  0.00000000000E+00 0.  1.
        -13    1    1    2    0    0  0.45592734433E+03 -0.13453791874E+01 -0.39064660384E+03  0.60039681346E+03  0.10566000000E+00 0.  1.
         13    1    1    2    0    0  0.64147708089E+02  0.17229810310E+03 -0.24373893706E+03  0.30530352993E+03  0.10566000000E+00 0. -1.
          4    1    1    2  501    0 -0.52007505242E+03 -0.17095272392E+03 -0.29942789051E+03  0.62398714376E+03  0.00000000000E+00 0.  1.
</event>
<event>
 5    1  0.2540860E-005  0.9377255E+02  0.7818608E-02  0.1175291E+00
          4   -1    0    0  502    0 -0.00000000000E+00  0.00000000000E+00  0.10391009213E+03  0.10391009213E+03  0.00000000000E+00 0.  1.
         21   -1    0    0  501  502  0.00000000000E+00 -0.00000000000E+00 -0.17717268694E+03  0.17717268694E+03  0.00000000000E+00 0.  1.
        -13    1    1    2    0    0 -0.10710088727E+02  0.97681222259E+02  0.56001233311E+02  0.11310383052E+03  0.10566000000E+00 0.  1.
         13    1    1    2    0    0  0.26624013641E+02 -0.73327726039E+02 -0.98274686371E+02  0.12547397600E+03  0.10566000000E+00 0. -1.
          4    1    1    2  501    0 -0.15913924914E+02 -0.24353496220E+02 -0.30989141758E+02  0.42504972547E+02  0.00000000000E+00 0.  1.
</event>
<event>
 5    1  0.2540860E-005  0.3352657E+03  0.7818608E-02  0.9959273E-01
          4   -1    0    0  502    0 -0.00000000000E+00  0.00000000000E+00  0.49430485928E+03  0.49430485928E+03  0.00000000000E+00 0.  1.
         21   -1    0    0  501  502  0.00000000000E+00 -0.00000000000E+00 -0.93727444170E+03  0.93727444170E+03  0.00000000000E+00 0. -1.
        -13    1    1    2    0    0  0.92754543797E+02 -0.54536817900E+02  0.31179128447E+03  0.32983554407E+03  0.10566000000E+00 0.  1.
         13    1    1    2    0    0  0.26471344851E+03  0.16458642196E+03 -0.66953440485E+02  0.31881761945E+03  0.10566000000E+00 0. -1.
          4    1    1    2  501    0 -0.35746799231E+03 -0.11004960406E+03 -0.68780742640E+03  0.78292613745E+03  0.00000000000E+00 0.  1.
</event>
<event>
 5    1  0.2540860E-005  0.5277846E+02  0.7818608E-02  0.1280872E+00
         21   -1    0    0  501  502  0.00000000000E+00  0.00000000000E+00  0.19256046704E+03  0.19256046704E+03  0.00000000000E+00 0. -1.
         -4   -1    0    0    0  501 -0.00000000000E+00 -0.00000000000E+00 -0.74897567731E+02  0.74897567731E+02  0.00000000000E+00 0. -1.
        -13    1    1    2    0    0 -0.43521990757E+02 -0.20543829205E+02  0.16612246022E+02  0.50913558899E+02  0.10566000000E+00 0.  1.
         13    1    1    2    0    0  0.42314750084E+02  0.35204697819E+02 -0.44173147743E+02  0.70577524530E+02  0.10566000000E+00 0. -1.
         -4    1    1    2    0  502  0.12072406728E+01 -0.14660868614E+02  0.14522380103E+03  0.14596695134E+03  0.00000000000E+00 0. -1.
</event>
<event>
 5    1  0.2540860E-005  0.9150520E+03  0.7818608E-02  0.8858782E-01
         21   -1    0    0  501  502  0.00000000000E+00  0.00000000000E+00  0.11101924287E+04  0.11101924287E+04  0.00000000000E+00 0.  1.
         -4   -1    0    0    0  501 -0.00000000000E+00 -0.00000000000E+00 -0.10552905945E+04  0.10552905945E+04  0.00000000000E+00 0. -1.
        -13    1    1    2    0    0 -0.36954411674E+03  0.83193220602E+03  0.37939193555E+03  0.98621108367E+03  0.10566000000E+00 0.  1.
         13    1    1    2    0    0  0.39487929593E+03 -0.82772461913E+03 -0.47069363705E+03  0.10308298669E+04  0.10566000000E+00 0. -1.
         -4    1    1    2    0  502 -0.25335179186E+02 -0.42075868917E+01  0.14620353570E+03  0.14844207268E+03  0.00000000000E+00 0. -1.
</event>
<event>
 5    1  0.2540860E-005  0.4215520E+03  0.7818608E-02  0.1016142E+00
         -4   -1    0    0    0  501 -0.00000000000E+00  0.00000000000E+00  0.30606520183E+03  0.30606520183E+03  0.00000000000E+00 0. -1.
         21   -1    0    0  501  502  0.00000000000E+00 -0.00000000000E+00 -0.10814317400E+04  0.10814317400E+04  0.00000000000E+00 0. -1.
        -13    1    1    2    0    0 -0.81142191489E+02 -0.73474797683E+01  0.58715417585E+01  0.81685536451E+02  0.10566000000E+00 0.  1.
         13    1    1    2    0    0  0.29290814560E+02 -0.41985272523E+03 -0.76742145984E+03  0.87525423215E+03  0.10566000000E+00 0. -1.
         -4    1    1    2    0  502  0.51851376929E+02  0.42720020500E+03 -0.13816620095E+02  0.43055717324E+03  0.00000000000E+00 0. -1.
</event>
<event>
 5    1  0.2540860E-005  0.4825579E+03  0.7818608E-02  0.9742414E-01
         21   -1    0    0  501  502  0.00000000000E+00  0.00000000000E+00  0.52139422271E+03  0.52139422271E+03  0.00000000000E+00 0. -1.
         -4   -1    0    0    0  501 -0.00000000000E+00 -0.00000000000E+00 -0.82216564858E+03  0.82216564858E+03  0.00000000000E+00 0. -1.
        -13    1    1    2    0    0  0.18777923341E+03  0.10980656629E+03 -0.25260927429E+03  0.33336163415E+03  0.10566000000E+00 0.  1.
         13    1    1    2    0    0 -0.55181630862E+03 -0.11787721306E+03  0.16547167833E+03  0.58802819942E+03  0.10566000000E+00 0. -1.
         -4    1    1    2    0  502  0.36403707521E+03  0.80706467722E+01 -0.21363382991E+03  0.42217003772E+03  0.00000000000E+00 0. -1.
</event>
<event>
 5    1  0.2540860E-005  0.5249872E+02  0.7818608E-02  0.1281937E+00
         -4   -1    0    0    0  501 -0.00000000000E+00  0.00000000000E+00  0.34493284013E+03  0.34493284013E+03  0.00000000000E+00 0. -1.
         21   -1    0    0  501  502  0.00000000000E+00 -0.00000000000E+00 -0.29396891846E+02  0.29396891846E+02  0.00000000000E+00 0.  1.
        -13    1    1    2    0    0  0.66515965929E+01 -0.54888414023E+02  0.25162317121E+02  0.60746482187E+02  0.10566000000E+00 0.  1.
         13    1    1    2    0    0 -0.19395200847E+02  0.48621394060E+02  0.29424395429E+03  0.29886406538E+03  0.10566000000E+00 0. -1.
         -4    1    1    2    0  502  0.12743604254E+02  0.62670199628E+01 -0.38703231237E+01  0.14719184409E+02  0.00000000000E+00 0. -1.
</event>
<event>
 5    1  0.2540860E-005  0.4537539E+03  0.7818608E-02  0.9696010E-01
         -4   -1    0    0    0  501 -0.00000000000E+00  0.00000000000E+00  0.34515485709E+04  0.34515485709E+04  0.00000000000E+00 0. -1.
         21   -1    0    0  501  502  0.00000000000E+00 -0.00000000000E+00 -0.14414839067E+03  0.14414839067E+03  0.00000000000E+00 0. -1.
        -13    1    1    2    0    0 -0.30703489262E+03  0.13704318892E+02  0.38149512638E+03  0.48989465832E+03  0.10566000000E+00 0.  1.
         13    1    1    2    0    0  0.66709524607E+03  0.44287677661E+02  0.20746356440E+04  0.21796996426E+04  0.10566000000E+00 0. -1.
         -4    1    1    2    0  502 -0.36006035345E+03 -0.57991996553E+02  0.85126940992E+03  0.92610266065E+03  0.00000000000E+00 0. -1.
</event>
<event>
 5    1  0.2540860E-005  0.1752147E+03  0.7818608E-02  0.1078598E+00
         -4   -1    0    0    0  501 -0.00000000000E+00  0.00000000000E+00  0.17133363147E+03  0.17133363147E+03  0.00000000000E+00 0. -1.
         21   -1    0    0  501  502  0.00000000000E+00 -0.00000000000E+00 -0.31360911710E+03  0.31360911710E+03  0.00000000000E+00 0.  1.
        -13    1    1    2    0    0  0.15508821403E+03  0.89903479328E+02 -0.75466880058E+02  0.19450000226E+03  0.10566000000E+00 0.  1.
         13    1    1    2    0    0 -0.18345376240E+03  0.23745333093E+01 -0.24717912173E+02  0.18512673414E+03  0.10566000000E+00 0. -1.
         -4    1    1    2    0  502  0.28365548368E+02 -0.92278012637E+02 -0.42090693397E+02  0.10531601218E+03  0.00000000000E+00 0. -1.
</event>
<event>
 5    1  0.2540860E-005  0.1711708E+03  0.7818608E-02  0.1081923E+00
         21   -1    0    0  501  502  0.00000000000E+00  0.00000000000E+00  0.88950262312E+02  0.88950262312E+02  0.00000000000E+00 0. -1.
          4   -1    0    0  502    0 -0.00000000000E+00 -0.00000000000E+00 -0.10211214708E+04  0.10211214708E+04  0.00000000000E+00 0.  1.
        -13    1    1    2    0    0  0.13614240077E+03  0.10787262066E+03 -0.83160203103E+03  0.84954882423E+03  0.10566000000E+00 0.  1.
         13    1    1    2    0    0 -0.12039257466E+03 -0.10715341514E+03 -0.14287032422E+03  0.21537912414E+03  0.10566000000E+00 0. -1.
          4    1    1    2  501    0 -0.15749826113E+02 -0.71920552499E+00  0.42301146786E+02  0.45143784717E+02  0.00000000000E+00 0.  1.
</event>
<event>
 5    1  0.2540860E-005  0.4893295E+03  0.7818608E-02  0.9988312E-01
         -4   -1    0    0    0  501 -0.00000000000E+00  0.00000000000E+00  0.76308485763E+03  0.76308485763E+03  0.00000000000E+00 0. -1.
         21   -1    0    0  501  502  0.00000000000E+00 -0.00000000000E+00 -0.45379520210E+03  0.45379520210E+03  0.00000000000E+00 0. -1.
        -13    1    1    2    0    0  0.90288705329E+02  0.12187804131E+02  0.18397395250E+03  0.20529739220E+03  0.10566000000E+00 0.  1.
         13    1    1    2    0    0 -0.39268385939E+03  0.34617664892E+03  0.14193423023E+03  0.54238752065E+03  0.10566000000E+00 0. -1.
         -4    1    1    2    0  502  0.30239515406E+03 -0.35836445305E+03 -0.16618527199E+02  0.46919514688E+03  0.00000000000E+00 0. -1.
</event>
<event>
 5    1  0.2540860E-005  0.7430448E+02  0.7818608E-02  0.1215866E+00
         21   -1    0    0  501  502  0.00000000000E+00  0.00000000000E+00  0.20868886540E+03  0.20868886540E+03  0.00000000000E+00 0.  1.
         -4   -1    0    0    0  501 -0.00000000000E+00 -0.00000000000E+00 -0.55752727641E+02  0.55752727641E+02  0.00000000000E+00 0. -1.
        -13    1    1    2    0    0 -0.63352548246E+02  0.64026876223E+02  0.73979483949E+02  0.11655883260E+03  0.10566000000E+00 0.  1.
         13    1    1    2    0    0  0.39724108841E+02 -0.55932424824E+02  0.38270092799E+01  0.68710247663E+02  0.10566000000E+00 0. -1.
         -4    1    1    2    0  502  0.23628439405E+02 -0.80944513991E+01  0.75129644532E+02  0.79172512779E+02  0.00000000000E+00 0. -1.
</event>
<event>
 5    1  0.2540860E-005  0.5176140E+03  0.7818608E-02  0.9463140E-01
          4   -1    0    0  502    0 -0.00000000000E+00  0.00000000000E+00  0.35547838673E+04  0.35547838673E+04  0.00000000000E+00 0.  1.
         21   -1    0    0  501  502  0.00000000000E+00 -0.00000000000E+00 -0.37755647437E+03  0.37755647437E+03  0.00000000000E+00 0.  1.
        -13    1    1    2    0    0  0.87635048449E+02  0.45684437195E+03  0.29824568490E+03  0.55257323644E+03  0.10566000000E+00 0.  1.
         13    1    1    2    0    0  0.51047511810E+03 -0.17576803478E+03  0.26116691807E+04  0.26668886682E+04  0.10566000000E+00 0. -1.
          4    1    1    2  501    0 -0.59811016655E+03 -0.28107633717E+03  0.26731252734E+03  0.71287843698E+03  0.00000000000E+00 0.  1.
</event>
<event>
 5    1  0.2540860E-005  0.4962234E+03  0.7818608E-02  0.1018047E+00
         -4   -1    0    0    0  501 -0.00000000000E+00  0.00000000000E+00  0.25989276318E+04  0.25989276318E+04  0.00000000000E+00 0. -1.
         21   -1    0    0  501  502  0.00000000000E+00 -0.00000000000E+00 -0.10871440584E+03  0.10871440584E+03  0.00000000000E+00 0. -1.
        -13    1    1    2    0    0 -0.31300065525E+02 -0.35092603417E+02  0.74686302468E+02  0.88256670325E+02  0.10566000000E+00 0.  1.
         13    1    1    2    0    0 -0.40517249241E+03  0.27896987410E+03  0.14649373469E+04  0.15453253317E+04  0.10566000000E+00 0. -1.
         -4    1    1    2    0  502  0.43647255794E+03 -0.24387727069E+03  0.95058957663E+03  0.10740600357E+04  0.00000000000E+00 0. -1.
</event>
<event>
 5    1  0.2540860E-005  0.4380270E+03  0.7818608E-02  0.9819897E-01
         21   -1    0    0  501  502  0.00000000000E+00  0.00000000000E+00  0.25515105411E+03  0.25515105411E+03  0.00000000000E+00 0.  1.
          4   -1    0    0  502    0 -0.00000000000E+00 -0.00000000000E+00 -0.15976158166E+04  0.15976158166E+04  0.00000000000E+00 0.  1.
        -13    1    1    2    0    0 -0.39390487345E+03  0.29326358246E+03 -0.81164798146E+03  0.94865011205E+03  0.10566000000E+00 0.  1.
         13    1    1    2    0    0  0.20174115992E+03  0.95071799444E+02 -0.38868035070E+03  0.44811892266E+03  0.10566000000E+00 0. -1.
          4    1    1    2  501    0  0.19216371352E+03 -0.38833538190E+03 -0.14213643036E+03  0.45599783603E+03  0.00000000000E+00 0.  1.
</event>
<event>
 5    1  0.2540860E-005  0.9049707E+03  0.7818608E-02  0.8869400E-01
          4   -1    0    0  502    0 -0.00000000000E+00  0.00000000000E+00  0.24304822391E+04  0.24304822391E+04  0.00000000000E+00 0.  1.
         21   -1    0    0  501  502  0.00000000000E+00 -0.00000000000E+00 -0.53189004018E+03  0.53189004018E+03  0.00000000000E+00 0. -1.
        -13    1    1    2    0    0  0.10461894000E+04 -0.32809614809E+01  0.47796052359E+03  0.11502040248E+04  0.10566000000E+00 0.  1.
         13    1    1    2    0    0 -0.83740580468E+03  0.15914951043E+03  0.11927446458E+04  0.14660207535E+04  0.10566000000E+00 0. -1.
          4    1    1    2  501    0 -0.20878359532E+03 -0.15586854895E+03  0.22788702958E+03  0.34614750105E+03  0.00000000000E+00 0.  1.
</event>
<event>
 5    1  0.2540860E-005  0.2924513E+03  0.7818608E-02  0.1027752E+00
          4   -1    0    0  502    0 -0.00000000000E+00  0.00000000000E+00  0.78870048742E+03  0.78870048742E+03  0.00000000000E+00 0.  1.
         21   -1    0    0  501  502  0.00000000000E+00 -0.00000000000E+00 -0.44122403262E+03  0.44122403262E+03  0.00000000000E+00 0.  1.
        -13    1    1    2    0    0 -0.24569419260E+02 -0.44442806368E+03  0.56304061907E+03  0.71772885551E+03  0.10566000000E+00 0.  1.
         13    1    1    2    0    0  0.30739697208E+01  0.16944839339E+03 -0.12978922026E+02  0.16997255923E+03  0.10566000000E+00 0. -1.
          4    1    1    2  501    0  0.21495449539E+02  0.27497967029E+03 -0.20258524224E+03  0.34222310530E+03  0.00000000000E+00 0.  1.
</event>
<event>
 5    1  0.2540860E-005  0.5026541E+03  0.7818608E-02  0.1031080E+00
         -4   -1    0    0    0  501 -0.00000000000E+00  0.00000000000E+00  0.92990787278E+03  0.92990787278E+03  0.00000000000E+00 0. -1.
         21   -1    0    0  501  502  0.00000000000E+00 -0.00000000000E+00 -0.30944622563E+03  0.30944622563E+03  0.00000000000E+00 0. -1.
        -13    1    1    2    0    0  0.30109661529E+02  0.36701715173E+00  0.95449520780E+02  0.10008670541E+03  0.10566000000E+00 0.  1.
         13    1    1    2    0    0 -0.48697486904E+03  0.17701885657E+03  0.31242311323E+03  0.60505240393E+03  0.10566000000E+00 0. -1.
         -4    1    1    2    0  502  0.45686520751E+03 -0.17738587373E+03  0.21258901315E+03  0.53421498907E+03  0.00000000000E+00 0. -1.
</event>
<event>
 5    1  0.2540860E-005  0.4612988E+03  0.7818608E-02  0.1002804E+00
          4   -1    0    0  502    0 -0.00000000000E+00  0.00000000000E+00  0.14574616658E+04  0.14574616658E+04  0.00000000000E+00 0.  1.
         21   -1    0    0  501  502  0.00000000000E+00 -0.00000000000E+00 -0.22984472286E+03  0.22984472286E+03  0.00000000000E+00 0.  1.
        -13    1    1    2    0    0  0.29609424222E+03  0.38789609734E+03  0.17510412490E+03  0.51845602353E+03  0.10566000000E+00 0.  1.
         13    1    1    2    0    0 -0.23872848348E+02 -0.92457173480E+02  0.31328221587E+03  0.32751183148E+03  0.10566000000E+00 0. -1.
          4    1    1    2  501    0 -0.27222139387E+03 -0.29543892386E+03  0.73923060218E+03  0.84133853366E+03  0.00000000000E+00 0.  1.
</event>
<event>
 5    1  0.2540860E-005  0.1695416E+03  0.7818608E-02  0.1083291E+00
         -4   -1    0    0    0  501 -0.00000000000E+00  0.00000000000E+00  0.11596228615E+04  0.11596228615E+04  0.00000000000E+00 0. -1.
         21   -1    0    0  501  502  0.00000000000E+00 -0.00000000000E+00 -0.68067845940E+03  0.68067845940E+03  0.00000000000E+00 0. -1.
        -13    1    1    2    0    0 -0.22441198776E+03  0.16531079006E+03  0.68565873675E+03  0.74014614233E+03  0.10566000000E+00 0.  1.
         13    1    1    2    0    0  0.61781751384E+02 -0.11919506995E+03  0.42526751892E+03  0.44595618991E+03  0.10566000000E+00 0. -1.
         -4    1    1    2    0  502  0.16263023638E+03 -0.46115720110E+02 -0.63198185361E+03  0.65419898863E+03  0.00000000000E+00 0. -1.
</event>
<event>
 5    1  0.2540860E-005  0.9544102E+02  0.7818608E-02  0.1172327E+00
          4   -1    0    0  502    0 -0.00000000000E+00  0.00000000000E+00  0.94992854542E+02  0.94992854542E+02  0.00000000000E+00 0.  1.
         21   -1    0    0  501  502  0.00000000000E+00 -0.00000000000E+00 -0.13856366487E+03  0.13856366487E+03  0.00000000000E+00 0. -1.
        -13    1    1    2    0    0  0.89537960700E+02 -0.32917713100E+02  0.28229643232E+02  0.99486411953E+02  0.10566000000E+00 0.  1.
         13    1    1    2    0    0 -0.83612020722E+02  0.48258643793E+02 -0.58172237505E+02  0.11271152155E+03  0.10566000000E+00 0. -1.
          4    1    1    2  501    0 -0.59259399783E+01 -0.15340930692E+02 -0.13628216054E+02  0.21358585907E+02  0.00000000000E+00 0.  1.
</event>
<event>
 5    1  0.2540860E-005  0.8040052E+02  0.7818608E-02  0.1201810E+00
         -4   -1    0    0    0  501 -0.00000000000E+00  0.00000000000E+00  0.36429628076E+02  0.36429628076E+02  0.00000000000E+00 0. -1.
         21   -1    0    0  501  502  0.00000000000E+00 -0.00000000000E+00 -0.51684559176E+03  0.51684559176E+03  0.00000000000E+00 0. -1.
        -13    1    1    2    0    0  0.53534416950E+02 -0.58507760874E+02 -0.48400786606E+02  0.92907153593E+02  0.10566000000E+00 0.  1.
         13    1    1    2    0    0 -0.35152113097E+02  0.77567686263E+02 -0.11953914991E+03  0.14677205638E+03  0.10566000000E+00 0. -1.
         -4    1    1    2    0  502 -0.18382303853E+02 -0.19059925389E+02 -0.31247602717E+03  0.31359600987E+03  0.00000000000E+00 0. -1.
</event>
<event>
 5    1  0.2540860E-005  0.4671235E+03  0.7818608E-02  0.9818502E-01
          4   -1    0    0  502    0 -0.00000000000E+00  0.00000000000E+00  0.16190732122E+04  0.16190732122E+04  0.00000000000E+00 0.  1.
         21   -1    0    0  501  502  0.00000000000E+00 -0.00000000000E+00 -0.23244138934E+03  0.23244138934E+03  0.00000000000E+00 0.  1.
        -13    1    1    2    0    0 -0.16023402924E+03  0.49216091067E+03  0.35476980428E+03  0.62750213650E+03  0.10566000000E+00 0.  1.
         13    1    1    2    0    0 -0.98965949246E+02 -0.15602193893E+03  0.55821290639E+03  0.58799554808E+03  0.10566000000E+00 0. -1.
          4    1    1    2  501    0  0.25919997849E+03 -0.33613897173E+03  0.47364911214E+03  0.63601691691E+03  0.00000000000E+00 0.  1.
</event>
<event>
 5    1  0.2540860E-005  0.3623512E+02  0.7818608E-02  0.1363724E+00
         21   -1    0    0  501  502  0.00000000000E+00  0.00000000000E+00  0.28713292745E+02  0.28713292745E+02  0.00000000000E+00 0. -1.
          4   -1    0    0  502    0 -0.00000000000E+00 -0.00000000000E+00 -0.16278621004E+03  0.16278621004E+03  0.00000000000E+00 0.  1.
        -13    1    1    2    0    0  0.94706875599E+01 -0.31587408949E+02 -0.10298742703E+03  0.10813824308E+03  0.10566000000E+00 0.  1.
         13    1    1    2    0    0  0.29060748842E+02  0.23165058866E+02 -0.20851825805E+02  0.42614045560E+02  0.10566000000E+00 0. -1.
          4    1    1    2  501    0 -0.38531436402E+02  0.84223500833E+01 -0.10233664462E+02  0.40747214144E+02  0.00000000000E+00 0.  1.
</event>
<event>
 5    1  0.2540860E-005  0.5144223E+03  0.7818608E-02  0.9844529E-01
         21   -1    0    0  501  502  0.00000000000E+00  0.00000000000E+00  0.14783671113E+03  0.14783671113E+03  0.00000000000E+00 0. -1.
         -4   -1    0    0    0  501 -0.00000000000E+00 -0.00000000000E+00 -0.23588375545E+04  0.23588375545E+04  0.00000000000E+00 0. -1.
        -13    1    1    2    0    0  0.79906918082E+02 -0.98259745032E+02 -0.36099114704E+03  0.38256334437E+03  0.10566000000E+00 0.  1.
         13    1    1    2    0    0  0.13416002209E+03  0.53723975337E+03 -0.10409421534E+04  0.11790615090E+04  0.10566000000E+00 0. -1.
         -4    1    1    2    0  502 -0.21406694017E+03 -0.43898000834E+03 -0.80906754290E+03  0.94504941223E+03  0.00000000000E+00 0. -1.
</event>
<event>
 5    1  0.2540860E-005  0.5015957E+03  0.7818608E-02  0.9798675E-01
          4   -1    0    0  502    0 -0.00000000000E+00  0.00000000000E+00  0.34482037651E+04  0.34482037651E+04  0.00000000000E+00 0.  1.
         21   -1    0    0  501  502  0.00000000000E+00 -0.00000000000E+00 -0.10891803865E+03  0.10891803865E+03  0.00000000000E+00 0.  1.
        -13    1    1    2    0    0  0.16790836866E+03 -0.40304148243E+03  0.12145129285E+04  0.12906112202E+04  0.10566000000E+00 0.  1.
         13    1    1    2    0    0 -0.41189203063E+02 -0.15425415273E+03  0.91136736494E+03  0.92524665853E+03  0.10566000000E+00 0. -1.
          4    1    1    2  501    0 -0.12671916559E+03  0.55729563517E+03  0.12134054329E+04  0.13412639250E+04  0.00000000000E+00 0.  1.
</event>
<event>
 5    1  0.2540860E-005  0.6459024E+03  0.7818608E-02  0.9205380E-01
         21   -1    0    0  501  502  0.00000000000E+00  0.00000000000E+00  0.27582832737E+03  0.27582832737E+03  0.00000000000E+00 0.  1.
         -4   -1    0    0    0  501 -0.00000000000E+00 -0.00000000000E+00 -0.21003616232E+04  0.21003616232E+04  0.00000000000E+00 0. -1.
        -13    1    1    2    0    0  0.30966627502E+03 -0.57411588377E+03 -0.56202074603E+03  0.86102821093E+03  0.10566000000E+00 0.  1.
         13    1    1    2    0    0 -0.30046606431E+03  0.56816683243E+03 -0.13138687849E+04  0.14626498557E+04  0.10566000000E+00 0. -1.
         -4    1    1    2    0  502 -0.92002107092E+01  0.59490513361E+01  0.51356235019E+02  0.52511884028E+02  0.00000000000E+00 0. -1.
</event>
<event>
 5    1  0.2540860E-005  0.4577495E+03  0.7818608E-02  0.9575719E-01
         21   -1    0    0  501  502  0.00000000000E+00  0.00000000000E+00  0.24695160570E+03  0.24695160570E+03  0.00000000000E+00 0. -1.
         -4   -1    0    0    0  501 -0.00000000000E+00 -0.00000000000E+00 -0.22515800320E+04  0.22515800320E+04  0.00000000000E+00 0. -1.
        -13    1    1    2    0    0  0.18592969889E+03  0.32777689256E+03 -0.82552025533E+03  0.90746418516E+03  0.10566000000E+00 0.  1.
         13    1    1    2    0    0 -0.39031209657E+03 -0.46240853789E+03 -0.12015293734E+04  0.13453022095E+04  0.10566000000E+00 0. -1.
         -4    1    1    2    0  502  0.20438239767E+03  0.13463164533E+03  0.22421202336E+02  0.24576524310E+03  0.00000000000E+00 0. -1.
</event>
<event>
 5    1  0.2540860E-005  0.6614718E+02  0.7818608E-02  0.1237214E+00
         21   -1    0    0  501  502  0.00000000000E+00  0.00000000000E+00  0.16222198193E+02  0.16222198193E+02  0.00000000000E+00 0.  1.
          4   -1    0    0  502    0 -0.00000000000E+00 -0.00000000000E+00 -0.36319410892E+03  0.36319410892E+03  0.00000000000E+00 0.  1.
        -13    1    1    2    0    0 -0.27445175961E+01  0.73977099686E+02 -0.18497444058E+03  0.19923779383E+03  0.10566000000E+00 0.  1.
         13    1    1    2    0    0 -0.26699105910E+01 -0.59742611498E+02 -0.14745748719E+03  0.15912268771E+03  0.10566000000E+00 0. -1.
          4    1    1    2  501    0  0.54144281872E+01 -0.14234488188E+02 -0.14539982955E+02  0.21055825581E+02  0.00000000000E+00 0.  1.
</event>
<event>
 5    1  0.2540860E-005  0.4864875E+03  0.7818608E-02  0.9914789E-01
         21   -1    0    0  501  502  0.00000000000E+00  0.00000000000E+00  0.10290462319E+04  0.10290462319E+04  0.00000000000E+00 0.  1.
          4   -1    0    0  502    0 -0.00000000000E+00 -0.00000000000E+00 -0.41286808918E+03  0.41286808918E+03  0.00000000000E+00 0.  1.
        -13    1    1    2    0    0  0.39676714221E+03 -0.24532741997E+03  0.45139057838E+03  0.64912492907E+03  0.10566000000E+00 0.  1.
         13    1    1    2    0    0 -0.18814189634E+02 -0.11675530439E+03 -0.14302228838E+03  0.18558329928E+03  0.10566000000E+00 0. -1.
          4    1    1    2  501    0 -0.37795295258E+03  0.36208272436E+03  0.30780985275E+03  0.60720609277E+03  0.00000000000E+00 0.  1.
</event>
<event>
 5    1  0.2540860E-005  0.2294536E+03  0.7818608E-02  0.1041627E+00
         21   -1    0    0  501  502  0.00000000000E+00  0.00000000000E+00  0.61966811869E+02  0.61966811869E+02  0.00000000000E+00 0.  1.
         -4   -1    0    0    0  501 -0.00000000000E+00 -0.00000000000E+00 -0.11805862214E+04  0.11805862214E+04  0.00000000000E+00 0. -1.
        -13    1    1    2    0    0  0.19731499048E+03  0.12241749009E+03 -0.72709804195E+03  0.76327637270E+03  0.10566000000E+00 0.  1.
         13    1    1    2    0    0 -0.18707148396E+03 -0.12518249907E+03 -0.40425803149E+03  0.46269964920E+03  0.10566000000E+00 0. -1.
         -4    1    1    2    0  502 -0.10243506527E+02  0.27650089761E+01  0.12736663871E+02  0.16577011406E+02  0.00000000000E+00 0. -1.
</event>
<event>
 5    1  0.2540860E-005  0.6858836E+02  0.7818608E-02  0.1230481E+00
         21   -1    0    0  501  502  0.00000000000E+00  0.00000000000E+00  0.80712417988E+02  0.80712417988E+02  0.00000000000E+00 0.  1.
          4   -1    0    0  502    0 -0.00000000000E+00 -0.00000000000E+00 -0.27781677729E+03  0.27781677729E+03  0.00000000000E+00 0.  1.
        -13    1    1    2    0    0 -0.43290422582E+02  0.52867167099E+02 -0.22180674618E+03  0.23209317495E+03  0.10566000000E+00 0.  1.
         13    1    1    2    0    0  0.36330910905E+02 -0.60330812159E+02 -0.25732222620E+02  0.74979333339E+02  0.10566000000E+00 0. -1.
          4    1    1    2  501    0  0.69595116768E+01  0.74636450608E+01  0.50434609498E+02  0.51456686986E+02  0.00000000000E+00 0.  1.
</event>
<event>
 5    1  0.2540860E-005  0.4963603E+03  0.7818608E-02  0.9963814E-01
         -4   -1    0    0    0  501 -0.00000000000E+00  0.00000000000E+00  0.21276130263E+03  0.21276130263E+03  0.00000000000E+00 0. -1.
         21   -1    0    0  501  502  0.00000000000E+00 -0.00000000000E+00 -0.14374779703E+04  0.14374779703E+04  0.00000000000E+00 0. -1.
        -13    1    1    2    0    0  0.70117114373E+02  0.63542080380E+02 -0.17869968119E+03  0.20220680733E+03  0.10566000000E+00 0.  1.
         13    1    1    2    0    0 -0.27787355873E+03 -0.45999710002E+03 -0.69881020749E+03  0.88155927987E+03  0.10566000000E+00 0. -1.
         -4    1    1    2    0  502  0.20775644436E+03  0.39645501964E+03 -0.34720677898E+03  0.56647318572E+03  0.00000000000E+00 0. -1.
</event>
<event>
 5    1  0.2540860E-005  0.1674522E+03  0.7818608E-02  0.1085069E+00
         21   -1    0    0  501  502  0.00000000000E+00  0.00000000000E+00  0.55542660073E+03  0.55542660073E+03  0.00000000000E+00 0.  1.
          4   -1    0    0  502    0 -0.00000000000E+00 -0.00000000000E+00 -0.12193379296E+03  0.12193379296E+03  0.00000000000E+00 0.  1.
        -13    1    1    2    0    0  0.11719377243E+02 -0.19786103510E+03  0.43753366625E+02  0.20297955874E+03  0.10566000000E+00 0.  1.
         13    1    1    2    0    0 -0.78064610257E+02  0.11805521788E+03  0.12066939326E+03  0.18598986928E+03  0.10566000000E+00 0. -1.
          4    1    1    2  501    0  0.66345233015E+02  0.79805817214E+02  0.26907004789E+03  0.28839096567E+03  0.00000000000E+00 0.  1.
</event>
<event>
 5    1  0.2540860E-005  0.4855694E+03  0.7818608E-02  0.9510174E-01
         -4   -1    0    0    0  501 -0.00000000000E+00  0.00000000000E+00  0.87210052481E+03  0.87210052481E+03  0.00000000000E+00 0. -1.
         21   -1    0    0  501  502  0.00000000000E+00 -0.00000000000E+00 -0.78624717433E+03  0.78624717433E+03  0.00000000000E+00 0. -1.
        -13    1    1    2    0    0 -0.18576530312E+03 -0.38730198952E+03  0.32963778692E+03  0.54145420920E+03  0.10566000000E+00 0.  1.
         13    1    1    2    0    0  0.50654141979E+03  0.52536530429E+03 -0.90041020917E+02  0.73532326872E+03  0.10566000000E+00 0. -1.
         -4    1    1    2    0  502 -0.32077611667E+03 -0.13806331476E+03 -0.15374341553E+03  0.38157022122E+03  0.00000000000E+00 0. -1.
</event>
<event>
 5    1  0.2540860E-005  0.4721727E+03  0.7818608E-02  0.9602396E-01
         21   -1    0    0  501  502  0.00000000000E+00  0.00000000000E+00  0.20136376665E+03  0.20136376665E+03  0.00000000000E+00 0.  1.
          4   -1    0    0  502    0 -0.00000000000E+00 -0.00000000000E+00 -0.31182531758E+04  0.31182531758E+04  0.00000000000E+00 0.  1.
        -13    1    1    2    0    0 -0.36113488389E+03  0.33362065066E+03 -0.96319064765E+03  0.10814145264E+04  0.10566000000E+00 0.  1.
         13    1    1    2    0    0 -0.15179657174E+03 -0.34751964697E+03 -0.15192505459E+04  0.15658653635E+04  0.10566000000E+00 0. -1.
          4    1    1    2  501    0  0.51293145563E+03  0.13898996305E+02 -0.43444821558E+03  0.67233705260E+03  0.00000000000E+00 0.  1.
</event>
<event>
 5    1  0.2540860E-005  0.8715333E+02  0.7818608E-02  0.1197620E+00
         -4   -1    0    0    0  501 -0.00000000000E+00  0.00000000000E+00  0.68087304427E+02  0.68087304427E+02  0.00000000000E+00 0. -1.
         21   -1    0    0  501  502  0.00000000000E+00 -0.00000000000E+00 -0.32875249369E+03  0.32875249369E+03  0.00000000000E+00 0. -1.
        -13    1    1    2    0    0  0.29938521015E+02  0.62658790816E+02 -0.39093984629E+02  0.79691843405E+02  0.10566000000E+00 0.  1.
         13    1    1    2    0    0 -0.10846276953E+03 -0.70570022505E+02 -0.72125851347E+02  0.14814334291E+03  0.10566000000E+00 0. -1.
         -4    1    1    2    0  502  0.78524248518E+02  0.79112316883E+01 -0.14944535329E+03  0.16900461180E+03  0.00000000000E+00 0. -1.
</event>
<event>
 5    1  0.2540860E-005  0.4958973E+03  0.7818608E-02  0.9853401E-01
         21   -1    0    0  501  502  0.00000000000E+00  0.00000000000E+00  0.43344614523E+03  0.43344614523E+03  0.00000000000E+00 0. -1.
         -4   -1    0    0    0  501 -0.00000000000E+00 -0.00000000000E+00 -0.91168189966E+03  0.91168189966E+03  0.00000000000E+00 0. -1.
        -13    1    1    2    0    0  0.11984383315E+03 -0.66799375550E+02 -0.28288933766E+03  0.31440593100E+03  0.10566000000E+00 0.  1.
         13    1    1    2    0    0  0.24909539129E+03 -0.34234302349E+03 -0.22414475269E+03  0.47904920522E+03  0.10566000000E+00 0. -1.
         -4    1    1    2    0  502 -0.36893922444E+03  0.40914239904E+03  0.28798335921E+02  0.55167290868E+03  0.00000000000E+00 0. -1.
</event>
<event>
 5    1  0.2540860E-005  0.4786368E+03  0.7818608E-02  0.9684556E-01
          4   -1    0    0  502    0 -0.00000000000E+00  0.00000000000E+00  0.21568129158E+04  0.21568129158E+04  0.00000000000E+00 0.  1.
         21   -1    0    0  501  502  0.00000000000E+00 -0.00000000000E+00 -0.19001040868E+03  0.19001040868E+03  0.00000000000E+00 0.  1.
        -13    1    1    2    0    0  0.35001156591E+03 -0.46863193185E+03  0.87025353124E+03  0.10485538630E+04  0.10566000000E+00 0.  1.
         13    1    1    2    0    0  0.22912197627E+02  0.27156982227E+03  0.45949232960E+03  0.53423622986E+03  0.10566000000E+00 0. -1.
          4    1    1    2  501    0 -0.37292376353E+03  0.19706210958E+03  0.63705664625E+03  0.76403323158E+03  0.00000000000E+00 0.  1.
</event>
<event>
 5    1  0.2540860E-005  0.3415616E+02  0.7818608E-02  0.1374342E+00
         -4   -1    0    0    0  501 -0.00000000000E+00  0.00000000000E+00  0.84743976246E+02  0.84743976246E+02  0.00000000000E+00 0. -1.
         21   -1    0    0  501  502  0.00000000000E+00 -0.00000000000E+00 -0.20388295108E+03  0.20388295108E+03  0.00000000000E+00 0. -1.
        -13    1    1    2    0    0 -0.18004253060E+02  0.18496448387E+02 -0.34261212973E+02  0.42896545427E+02  0.10566000000E+00 0.  1.
         13    1    1    2    0    0  0.28596478029E+02 -0.20219109962E+02  0.76426798129E+02  0.84069242887E+02  0.10566000000E+00 0. -1.
         -4    1    1    2    0  502 -0.10592224969E+02  0.17226615747E+01 -0.16130455999E+03  0.16166113901E+03  0.00000000000E+00 0. -1.
</event>
<event>
 5    1  0.2540860E-005  0.4808848E+02  0.7818608E-02  0.1299773E+00
          4   -1    0    0  502    0 -0.00000000000E+00  0.00000000000E+00  0.28687326794E+03  0.28687326794E+03  0.00000000000E+00 0.  1.
         21   -1    0    0  501  502  0.00000000000E+00 -0.00000000000E+00 -0.95863954926E+02  0.95863954926E+02  0.00000000000E+00 0.  1.
        -13    1    1    2    0    0 -0.43001532495E+02 -0.11636988238E+02  0.19621586456E+03  0.20120941320E+03  0.10566000000E+00 0.  1.
         13    1    1    2    0    0  0.63978545065E+02  0.15362336058E+02  0.74282639684E+02  0.99232944733E+02  0.10566000000E+00 0. -1.
          4    1    1    2  501    0 -0.20977012570E+02 -0.37253478195E+01 -0.79489191226E+02  0.82294864934E+02  0.00000000000E+00 0.  1.
</event>
<event>
 5    1  0.2540860E-005  0.1679790E+03  0.7818608E-02  0.1085721E+00
          4   -1    0    0  502    0 -0.00000000000E+00  0.00000000000E+00  0.80934970867E+03  0.80934970867E+03  0.00000000000E+00 0.  1.
         21   -1    0    0  501  502  0.00000000000E+00 -0.00000000000E+00 -0.95567496186E+02  0.95567496186E+02  0.00000000000E+00 0.  1.
        -13    1    1    2    0    0 -0.24623270572E+01 -0.21897848552E+03  0.36036619471E+03  0.42168880188E+03  0.10566000000E+00 0.  1.
         13    1    1    2    0    0 -0.12092311791E+03  0.10915322649E+03  0.19829049798E+03  0.25662416109E+03  0.10566000000E+00 0. -1.
          4    1    1    2  501    0  0.12338544497E+03  0.10982525903E+03  0.15512551979E+03  0.22660424189E+03  0.00000000000E+00 0.  1.
</event>
<event>
 5    1  0.2540860E-005  0.2117241E+03  0.7818608E-02  0.1052383E+00
          4   -1    0    0  502    0 -0.00000000000E+00  0.00000000000E+00  0.62853757665E+02  0.62853757665E+02  0.00000000000E+00 0.  1.
         21   -1    0    0  501  502  0.00000000000E+00 -0.00000000000E+00 -0.77434949636E+03  0.77434949636E+03  0.00000000000E+00 0. -1.
        -13    1    1    2    0    0  0.14098726289E+03 -0.15298074921E+03 -0.36427804924E+03  0.41949854141E+03  0.10566000000E+00 0.  1.
         13    1    1    2    0    0 -0.15137014030E+03  0.15256810830E+03 -0.29807869378E+03  0.36747906865E+03  0.10566000000E+00 0. -1.
          4    1    1    2  501    0  0.10382877412E+02  0.41264090342E+00 -0.49138995669E+02  0.50225643960E+02  0.00000000000E+00 0.  1.
</event>
<event>
 5    1  0.2540860E-005  0.2713786E+03  0.7818608E-02  0.1019873E+00
          4   -1    0    0  502    0 -0.00000000000E+00  0.00000000000E+00  0.23697216712E+04  0.23697216712E+04  0.00000000000E+00 0.  1.
         21   -1    0    0  501  502  0.00000000000E+00 -0.00000000000E+00 -0.10972506595E+03  0.10972506595E+03  0.00000000000E+00 0.  1.
        -13    1    1    2    0    0  0.54554360105E+02 -0.35203058280E+03  0.14211666086E+04  0.14651335263E+04  0.10566000000E+00 0.  1.
         13    1    1    2    0    0  0.65200652029E+02  0.21400143107E+03  0.79570440889E+03  0.82655505262E+03  0.10566000000E+00 0. -1.
          4    1    1    2  501    0 -0.11975501213E+03  0.13802915173E+03  0.43125587806E+02  0.18775815823E+03  0.00000000000E+00 0.  1.
</event>
<event>
 5    1  0.2540860E-005  0.2929502E+02  0.7818608E-02  0.1410661E+00
         -4   -1    0    0    0  501 -0.00000000000E+00  0.00000000000E+00  0.49090699386E+02  0.49090699386E+02  0.00000000000E+00 0. -1.
         21   -1    0    0  501  502  0.00000000000E+00 -0.00000000000E+00 -0.34616551183E+02  0.34616551183E+02  0.00000000000E+00 0. -1.
        -13    1    1    2    0    0  0.23612659796E+02 -0.83437533603E+01  0.11984602900E+02  0.27763605556E+02  0.10566000000E+00 0.  1.
         13    1    1    2    0    0 -0.36909654336E+02  0.39126356149E+01  0.11997094326E+02  0.39007342090E+02  0.10566000000E+00 0. -1.
         -4    1    1    2    0  502  0.13296994540E+02  0.44311177454E+01 -0.95075490232E+01  0.16936302923E+02  0.00000000000E+00 0. -1.
</event>
<event>
 5    1  0.2540860E-005  0.4500667E+03  0.7818608E-02  0.1032969E+00
         21   -1    0    0  501  502  0.00000000000E+00  0.00000000000E+00  0.12480316531E+04  0.12480316531E+04  0.00000000000E+00 0. -1.
         -4   -1    0    0    0  501 -0.00000000000E+00 -0.00000000000E+00 -0.41226482031E+03  0.41226482031E+03  0.00000000000E+00 0. -1.
        -13    1    1    2    0    0  0.95392172393E+01 -0.38412849810E+02 -0.20120076042E+03  0.20505682348E+03  0.10566000000E+00 0.  1.
         13    1    1    2    0    0  0.43714339877E+03  0.10093523678E+03  0.17341747457E+03  0.48099470346E+03  0.10566000000E+00 0. -1.
         -4    1    1    2    0  502 -0.44668261601E+03 -0.62522386973E+02  0.86355011869E+03  0.97424494651E+03  0.00000000000E+00 0. -1.
</event>
<event>
 5    1  0.2540860E-005  0.1832976E+02  0.7818608E-02  0.1534506E+00
         -4   -1    0    0    0  501 -0.00000000000E+00  0.00000000000E+00  0.78227268352E+02  0.78227268352E+02  0.00000000000E+00 0. -1.
         21   -1    0    0  501  502  0.00000000000E+00 -0.00000000000E+00 -0.28344582593E+02  0.28344582593E+02  0.00000000000E+00 0.  1.
        -13    1    1    2    0    0 -0.16277345943E+02  0.12106394920E+02 -0.70598607171E+01  0.21479515504E+02  0.10566000000E+00 0.  1.
         13    1    1    2    0    0  0.59090122008E+01 -0.17475696165E+02  0.67116402574E+02  0.69605596328E+02  0.10566000000E+00 0. -1.
         -4    1    1    2    0  502  0.10368333742E+02  0.53693012450E+01 -0.10173856098E+02  0.15486739113E+02  0.00000000000E+00 0. -1.
</event>
<event>
 5    1  0.2540860E-005  0.2139681E+03  0.7818608E-02  0.1050960E+00
         21   -1    0    0  501  502  0.00000000000E+00  0.00000000000E+00  0.42410814715E+03  0.42410814715E+03  0.00000000000E+00 0.  1.
          4   -1    0    0  502    0 -0.00000000000E+00 -0.00000000000E+00 -0.26214459162E+03  0.26214459162E+03  0.00000000000E+00 0.  1.
        -13    1    1    2    0    0  0.55531051441E+02  0.20025648194E+03 -0.10934266683E+03  0.23482373429E+03  0.10566000000E+00 0.  1.
         13    1    1    2    0    0 -0.42249750927E+02 -0.22501875183E+03  0.57870268731E+02  0.23615134828E+03  0.10566000000E+00 0. -1.
          4    1    1    2  501    0 -0.13281300515E+02  0.24762269891E+02  0.21343595364E+03  0.21527765620E+03  0.00000000000E+00 0.  1.
</event>
<event>
 5    1  0.2540860E-005  0.1920065E+03  0.7818608E-02  0.1065758E+00
         -4   -1    0    0    0  501 -0.00000000000E+00  0.00000000000E+00  0.39233766590E+03  0.39233766590E+03  0.00000000000E+00 0. -1.
         21   -1    0    0  501  502  0.00000000000E+00 -0.00000000000E+00 -0.12540724681E+03  0.12540724681E+03  0.00000000000E+00 0. -1.
        -13    1    1    2    0    0  0.16222478597E+03  0.75757366684E+02  0.27866887561E+02  0.18119777696E+03  0.10566000000E+00 0.  1.
         13    1    1    2    0    0 -0.17908099973E+03 -0.84202233736E+02  0.24665245898E+03  0.31622376147E+03  0.10566000000E+00 0. -1.
         -4    1    1    2    0  502  0.16856213764E+02  0.84448670522E+01 -0.75889274523E+01  0.20323374274E+02  0.00000000000E+00 0. -1.
</event>
<event>
 5    1  0.2540860E-005  0.4515889E+03  0.7818608E-02  0.9770750E-01
          4   -1    0    0  502    0 -0.00000000000E+00  0.00000000000E+00  0.51371355612E+03  0.51371355612E+03  0.00000000000E+00 0.  1.
         21   -1    0    0  501  502  0.00000000000E+00 -0.00000000000E+00 -0.91416515614E+03  0.91416515614E+03  0.00000000000E+00 0.  1.
        -13    1    1    2    0    0 -0.44917039931E+03  0.21953091883E+03 -0.60280245993E+03  0.78314665855E+03  0.10566000000E+00 0.  1.
         13    1    1    2    0    0  0.85478743260E+02 -0.22505743806E+03  0.13096071033E+03  0.27405872508E+03  0.10566000000E+00 0. -1.
          4    1    1    2  501    0  0.36369165605E+03  0.55265192345E+01  0.71390149577E+02  0.37067332863E+03  0.00000000000E+00 0.  1.
</event>
<event>
 5    1  0.2540860E-005  0.4702212E+03  0.7818608E-02  0.9661368E-01
         21   -1    0    0  501  502  0.00000000000E+00  0.00000000000E+00  0.14488911522E+03  0.14488911522E+03  0.00000000000E+00 0. -1.
          4   -1    0    0  502    0 -0.00000000000E+00 -0.00000000000E+00 -0.30433483546E+04  0.30433483546E+04  0.00000000000E+00 0.  1.
        -13    1    1    2    0    0 -0.22611234638E+03 -0.43908485382E+03 -0.14204133120E+04  0.15038272142E+04  0.10566000000E+00 0.  1.
         13    1    1    2    0    0 -0.21819653155E+03  0.22265764911E+03 -0.62847480226E+03  0.70154596665E+03  0.10566000000E+00 0. -1.
          4    1    1    2  501    0  0.44430887792E+03  0.21642720471E+03 -0.84957112509E+03  0.98286428896E+03  0.00000000000E+00 0.  1.
</event>
<event>
 5    1  0.2540860E-005  0.2061802E+02  0.7818608E-02  0.1501437E+00
          4   -1    0    0  502    0 -0.00000000000E+00  0.00000000000E+00  0.69916148391E+02  0.69916148391E+02  0.00000000000E+00 0.  1.
         21   -1    0    0  501  502  0.00000000000E+00 -0.00000000000E+00 -0.34871382862E+02  0.34871382862E+02  0.00000000000E+00 0.  1.
        -13    1    1    2    0    0  0.12520556040E+02 -0.16600828955E+01  0.30829401101E+01  0.13001380024E+02  0.10566000000E+00 0.  1.
         13    1    1    2    0    0 -0.24466731806E+02  0.31020660939E+01  0.58041699409E+02  0.63064203901E+02  0.10566000000E+00 0. -1.
          4    1    1    2  501    0  0.11946175766E+02 -0.14419831984E+01 -0.26079873990E+02  0.28721947329E+02  0.00000000000E+00 0.  1.
</event>
<event>
 5    1  0.2540860E-005  0.3404722E+03  0.7818608E-02  0.9918748E-01
         21   -1    0    0  501  502  0.00000000000E+00  0.00000000000E+00  0.14927422441E+03  0.14927422441E+03  0.00000000000E+00 0.  1.
          4   -1    0    0  502    0 -0.00000000000E+00 -0.00000000000E+00 -0.12109636323E+04  0.12109636323E+04  0.00000000000E+00 0.  1.
        -13    1    1    2    0    0  0.37055816193E+03 -0.80298256843E+01 -0.82150399809E+03  0.90124727989E+03  0.10566000000E+00 0.  1.
         13    1    1    2    0    0 -0.28722694877E+03  0.32853460538E+02 -0.23379731793E+03  0.37180622239E+03  0.10566000000E+00 0. -1.
          4    1    1    2  501    0 -0.83331213155E+02 -0.24823634854E+02 -0.63880918426E+01  0.87184354391E+02  0.00000000000E+00 0.  1.
</event>
<event>
 5    1  0.2540860E-005  0.4942034E+03  0.7818608E-02  0.1002791E+00
         21   -1    0    0  501  502  0.00000000000E+00  0.00000000000E+00  0.46648886706E+03  0.46648886706E+03  0.00000000000E+00 0.  1.
          4   -1    0    0  502    0 -0.00000000000E+00 -0.00000000000E+00 -0.68893083981E+03  0.68893083981E+03  0.00000000000E+00 0.  1.
        -13    1    1    2    0    0 -0.30196686177E+03 -0.37066860890E+03  0.37640293034E+02  0.47957898834E+03  0.10566000000E+00 0.  1.
         13    1    1    2    0    0 -0.76869302974E+02  0.11268827116E+02 -0.10593815388E+03  0.13137267530E+03  0.10566000000E+00 0. -1.
          4    1    1    2  501    0  0.37883616475E+03  0.35939978178E+03 -0.15414411190E+03  0.54446804323E+03  0.00000000000E+00 0.  1.
</event>
<event>
 5    1  0.2540860E-005  0.4731676E+02  0.7818608E-02  0.1326374E+00
         -4   -1    0    0    0  501 -0.00000000000E+00  0.00000000000E+00  0.23909312685E+02  0.23909312685E+02  0.00000000000E+00 0. -1.
         21   -1    0    0  501  502  0.00000000000E+00 -0.00000000000E+00 -0.25250828870E+03  0.25250828870E+03  0.00000000000E+00 0. -1.
        -13    1    1    2    0    0 -0.86045368517E+00  0.30429313996E+02 -0.99023899214E+02  0.10359742907E+03  0.10566000000E+00 0.  1.
         13    1    1    2    0    0 -0.33758192678E+02 -0.55495492231E+02 -0.48140978658E+02  0.80851284597E+02  0.10566000000E+00 0. -1.
         -4    1    1    2    0  502  0.34618646364E+02  0.25066178235E+02 -0.81434098140E+02  0.91968887713E+02  0.00000000000E+00 0. -1.
</event>
<event>
 5    1  0.2540860E-005  0.2120358E+03  0.7818608E-02  0.1052184E+00
         -4   -1    0    0    0  501 -0.00000000000E+00  0.00000000000E+00  0.10429712119E+03  0.10429712119E+03  0.00000000000E+00 0. -1.
         21   -1    0    0  501  502  0.00000000000E+00 -0.00000000000E+00 -0.14030777080E+04  0.14030777080E+04  0.00000000000E+00 0. -1.
        -13    1    1    2    0    0  0.73111329132E+02 -0.17642900907E+03 -0.20886730424E+03  0.28301594237E+03  0.10566000000E+00 0.  1.
         13    1    1    2    0    0 -0.21124252799E+03  0.14094745330E+03 -0.20042924559E+03  0.32351427152E+03  0.10566000000E+00 0. -1.
         -4    1    1    2    0  502  0.13813119886E+03  0.35481555769E+02 -0.88948403700E+03  0.90084461533E+03  0.00000000000E+00 0. -1.
</event>
<event>
 5    1  0.2540860E-005  0.2215838E+03  0.7818608E-02  0.1046268E+00
          4   -1    0    0  502    0 -0.00000000000E+00  0.00000000000E+00  0.30486071990E+03  0.30486071990E+03  0.00000000000E+00 0.  1.
         21   -1    0    0  501  502  0.00000000000E+00 -0.00000000000E+00 -0.39365148253E+03  0.39365148253E+03  0.00000000000E+00 0.  1.
        -13    1    1    2    0    0 -0.92634861169E+01  0.27522206299E+03 -0.17130570329E+03  0.32431258266E+03  0.10566000000E+00 0.  1.
         13    1    1    2    0    0 -0.27388481083E+02 -0.20908342996E+03  0.16093196962E+03  0.26526424484E+03  0.10566000000E+00 0. -1.
          4    1    1    2  501    0  0.36651967200E+02 -0.66138633030E+02 -0.78417028962E+02  0.10893537492E+03  0.00000000000E+00 0.  1.
</event>
<event>
 5    1  0.2540860E-005  0.2460930E+03  0.7818608E-02  0.1034987E+00
         21   -1    0    0  501  502  0.00000000000E+00  0.00000000000E+00  0.56096529146E+03  0.56096529146E+03  0.00000000000E+00 0.  1.
          4   -1    0    0  502    0 -0.00000000000E+00 -0.00000000000E+00 -0.70557994013E+03  0.70557994013E+03  0.00000000000E+00 0.  1.
        -13    1    1    2    0    0 -0.38707122179E+03  0.22360655288E+03 -0.46884497150E+03  0.64779598617E+03  0.10566000000E+00 0.  1.
         13    1    1    2    0    0  0.16334698975E+03 -0.15845850972E+03  0.10326379208E+02  0.22781128952E+03  0.10566000000E+00 0. -1.
          4    1    1    2  501    0  0.22372423204E+03 -0.65148043168E+02  0.31390394363E+03  0.39093795589E+03  0.00000000000E+00 0.  1.
</event>
<event>
 5    1  0.2540860E-005  0.5031079E+03  0.7818608E-02  0.9738744E-01
         21   -1    0    0  501  502  0.00000000000E+00  0.00000000000E+00  0.40339833263E+03  0.40339833263E+03  0.00000000000E+00 0.  1.
          4   -1    0    0  502    0 -0.00000000000E+00 -0.00000000000E+00 -0.10337929959E+04  0.10337929959E+04  0.00000000000E+00 0.  1.
        -13    1    1    2    0    0 -0.58665800077E+02  0.58288274239E+03 -0.14962868282E+03  0.60463436998E+03  0.10566000000E+00 0.  1.
         13    1    1    2    0    0  0.12478035986E+03 -0.14906240773E+03 -0.30103873844E+03  0.35834909350E+03  0.10566000000E+00 0. -1.
          4    1    1    2  501    0 -0.66114559788E+02 -0.43382033466E+03 -0.17972724207E+03  0.47420786510E+03  0.00000000000E+00 0.  1.
</event>
<event>
 5    1  0.2540860E-005  0.4981907E+03  0.7818608E-02  0.9586527E-01
         -4   -1    0    0    0  501 -0.00000000000E+00  0.00000000000E+00  0.13683090495E+04  0.13683090495E+04  0.00000000000E+00 0. -1.
         21   -1    0    0  501  502  0.00000000000E+00 -0.00000000000E+00 -0.62993562255E+03  0.62993562255E+03  0.00000000000E+00 0. -1.
        -13    1    1    2    0    0 -0.31547349292E+03 -0.13110947764E+03  0.86201957809E+03  0.92724914885E+03  0.10566000000E+00 0.  1.
         13    1    1    2    0    0  0.37849742137E+03 -0.38215021391E+03  0.59132472467E+01  0.53789781709E+03  0.10566000000E+00 0. -1.
         -4    1    1    2    0  502 -0.63023928445E+02  0.51325969155E+03 -0.12955939840E+03  0.53309770610E+03  0.00000000000E+00 0. -1.
</event>
<event>
 5    1  0.2540860E-005  0.5005726E+03  0.7818608E-02  0.9752833E-01
         -4   -1    0    0    0  501 -0.00000000000E+00  0.00000000000E+00  0.10834609962E+04  0.10834609962E+04  0.00000000000E+00 0. -1.
         21   -1    0    0  501  502  0.00000000000E+00 -0.00000000000E+00 -0.36652913463E+03  0.36652913463E+03  0.00000000000E+00 0. -1.
        -13    1    1    2    0    0  0.18121567656E+03  0.50039707736E+02  0.28707842535E+03  0.34315758370E+03  0.10566000000E+00 0.  1.
         13    1    1    2    0    0 -0.50803563511E+03 -0.29281279656E+03  0.12845267596E+03  0.60028296786E+03  0.10566000000E+00 0. -1.
         -4    1    1    2    0  502  0.32681995855E+03  0.24277308883E+03  0.30140076024E+03  0.50654957925E+03  0.00000000000E+00 0. -1.
</event>
<event>
 5    1  0.1300009E-004  0.3691390E+03  0.7818608E-02  0.1054231E+00
         21   -1    0    0  501  502  0.00000000000E+00  0.00000000000E+00  0.21950744321E+03  0.21950744321E+03  0.00000000000E+00 0.  1.
          4   -1    0    0  502    0 -0.00000000000E+00 -0.00000000000E+00 -0.13482050182E+04  0.13482050182E+04  0.00000000000E+00 0.  1.
        -13    1    1    2    0    0 -0.24637913524E+03  0.30097972498E+03 -0.93239055037E+03  0.10102690843E+04  0.10566000000E+00 0.  1.
         13    1    1    2    0    0 -0.66798692012E+01 -0.37230576706E+02 -0.18806770327E+03  0.19183380482E+03  0.10566000000E+00 0. -1.
          4    1    1    2  501    0  0.25305900444E+03 -0.26374914827E+03 -0.82393213664E+01  0.36560957230E+03  0.00000000000E+00 0.  1.
</event>
<event>
 5    1  0.2540860E-005  0.6772774E+02  0.7818608E-02  0.1245800E+00
          4   -1    0    0  502    0 -0.00000000000E+00  0.00000000000E+00  0.10980331152E+03  0.10980331152E+03  0.00000000000E+00 0.  1.
         21   -1    0    0  501  502  0.00000000000E+00 -0.00000000000E+00 -0.19572936587E+03  0.19572936587E+03  0.00000000000E+00 0. -1.
        -13    1    1    2    0    0  0.10794713066E+03 -0.35766175397E+00  0.56811893300E+02  0.12198488973E+03  0.10566000000E+00 0.  1.
         13    1    1    2    0    0 -0.48164133162E+02 -0.17769997353E+02 -0.79664957570E+02  0.94773799955E+02  0.10566000000E+00 0. -1.
          4    1    1    2  501    0 -0.59782997495E+02  0.18127659107E+02 -0.63072990083E+02  0.88773987700E+02  0.00000000000E+00 0.  1.
</event>
<event>
 5    1  0.2540860E-005  0.2078171E+03  0.7818608E-02  0.1054905E+00
         21   -1    0    0  501  502  0.00000000000E+00  0.00000000000E+00  0.12269893057E+03  0.12269893057E+03  0.00000000000E+00 0. -1.
          4   -1    0    0  502    0 -0.00000000000E+00 -0.00000000000E+00 -0.13012757095E+04  0.13012757095E+04  0.00000000000E+00 0.  1.
        -13    1    1    2    0    0 -0.19600679312E+03 -0.59534179667E+02 -0.10408294309E+04  0.10607963504E+04  0.10566000000E+00 0.  1.
         13    1    1    2    0    0  0.21467725904E+03  0.59148055454E+02 -0.19930936617E+03  0.29884620228E+03  0.10566000000E+00 0. -1.
          4    1    1    2  501    0 -0.18670465913E+02  0.38612421224E+00  0.61562018172E+02  0.64332087412E+02  0.00000000000E+00 0.  1.
</event>
<event>
 5    1  0.2540860E-005  0.3862056E+03  0.7818608E-02  0.9769751E-01
         21   -1    0    0  501  502  0.00000000000E+00  0.00000000000E+00  0.56452990238E+03  0.56452990238E+03  0.00000000000E+00 0.  1.
         -4   -1    0    0    0  501 -0.00000000000E+00 -0.00000000000E+00 -0.52938325857E+03  0.52938325857E+03  0.00000000000E+00 0. -1.
        -13    1    1    2    0    0  0.35682918059E+03  0.27723410399E+02  0.11997608134E+03  0.37747837403E+03  0.10566000000E+00 0.  1.
         13    1    1    2    0    0 -0.39349250369E+03 -0.58140947337E+02 -0.29863087183E+03  0.49739031856E+03  0.10566000000E+00 0. -1.
         -4    1    1    2    0  502  0.36663323106E+02  0.30417536937E+02  0.21380143430E+03  0.21904446837E+03  0.00000000000E+00 0. -1.
</event>
<event>
 5    1  0.2540860E-005  0.2970257E+03  0.7818608E-02  0.1008541E+00
         -4   -1    0    0    0  501 -0.00000000000E+00  0.00000000000E+00  0.24349434800E+04  0.24349434800E+04  0.00000000000E+00 0. -1.
         21   -1    0    0  501  502  0.00000000000E+00 -0.00000000000E+00 -0.45790520650E+02  0.45790520650E+02  0.00000000000E+00 0.  1.
        -13    1    1    2    0    0 -0.28635586163E+03 -0.25285228825E+02  0.63838704160E+03  0.70012645168E+03  0.10566000000E+00 0.  1.
         13    1    1    2    0    0  0.30033279509E+03  0.21153433812E+02  0.17243539831E+04  0.17504410661E+04  0.10566000000E+00 0. -1.
         -4    1    1    2    0  502 -0.13976933468E+02  0.41317950129E+01  0.26411934624E+02  0.30166482888E+02  0.00000000000E+00 0. -1.
</event>
<event>
 5    1  0.2540860E-005  0.2851166E+03  0.7818608E-02  0.1013645E+00
          4   -1    0    0  502    0 -0.00000000000E+00  0.00000000000E+00  0.17119773870E+04  0.17119773870E+04  0.00000000000E+00 0.  1.
         21   -1    0    0  501  502  0.00000000000E+00 -0.00000000000E+00 -0.10188169964E+03  0.10188169964E+03  0.00000000000E+00 0. -1.
        -13    1    1    2    0    0  0.28478718125E+03 -0.19740234600E+02  0.14359042284E+04  0.14640062772E+04  0.10566000000E+00 0.  1.
         13    1    1    2    0    0 -0.28161894488E+03  0.31468340629E+02  0.18068748701E+03  0.33607657714E+03  0.10566000000E+00 0. -1.
          4    1    1    2  501    0 -0.31682363745E+01 -0.11728106029E+02 -0.64960281075E+01  0.13776232211E+02  0.00000000000E+00 0.  1.
</event>
<event>
 5    1  0.2540860E-005  0.4298210E+02  0.7818608E-02  0.1323337E+00
         21   -1    0    0  501  502  0.00000000000E+00  0.00000000000E+00  0.55404753832E+02  0.55404753832E+02  0.00000000000E+00 0. -1.
          4   -1    0    0  502    0 -0.00000000000E+00 -0.00000000000E+00 -0.11797465904E+03  0.11797465904E+03  0.00000000000E+00 0.  1.
        -13    1    1    2    0    0 -0.26585191653E+02 -0.37424262762E+02 -0.66825945309E+02  0.81074447201E+02  0.10566000000E+00 0.  1.
         13    1    1    2    0    0 -0.15699500103E+02  0.44507739505E+02  0.12093983677E+02  0.48720517080E+02  0.10566000000E+00 0. -1.
          4    1    1    2  501    0  0.42284691756E+02 -0.70834767436E+01 -0.78379435782E+01  0.43584448593E+02  0.00000000000E+00 0.  1.
</event>
<event>
 5    1  0.2540860E-005  0.8466743E+02  0.7818608E-02  0.1192765E+00
         21   -1    0    0  501  502  0.00000000000E+00  0.00000000000E+00  0.32553226080E+02  0.32553226080E+02  0.00000000000E+00 0. -1.
          4   -1    0    0  502    0 -0.00000000000E+00 -0.00000000000E+00 -0.77220636888E+03  0.77220636888E+03  0.00000000000E+00 0.  1.
        -13    1    1    2    0    0  0.80114558764E+02 -0.47166123836E+02 -0.50199162854E+03  0.51052775836E+03  0.10566000000E+00 0.  1.
         13    1    1    2    0    0 -0.50359810090E+02  0.56892394683E+02 -0.24946304818E+03  0.26077706689E+03  0.10566000000E+00 0. -1.
          4    1    1    2  501    0 -0.29754748675E+02 -0.97262708476E+01  0.11801533925E+02  0.33454769709E+02  0.00000000000E+00 0.  1.
</event>
<event>
 5    1  0.2540860E-005  0.3086971E+03  0.7818608E-02  0.1008216E+00
         21   -1    0    0  501  502  0.00000000000E+00  0.00000000000E+00  0.24672776382E+03  0.24672776382E+03  0.00000000000E+00 0. -1.
         -4   -1    0    0    0  501 -0.00000000000E+00 -0.00000000000E+00 -0.22670413329E+04  0.22670413329E+04  0.00000000000E+00 0. -1.
        -13    1    1    2    0    0  0.60541144981E+02  0.26043685618E+03 -0.11062946461E+04  0.11381478117E+04  0.10566000000E+00 0.  1.
         13    1    1    2    0    0  0.28355621721E+03 -0.13371224487E+03  0.73686274421E+02  0.32204467229E+03  0.10566000000E+00 0. -1.
         -4    1    1    2    0  502 -0.34409736219E+03 -0.12672461131E+03 -0.98770519743E+03  0.10535766127E+04  0.00000000000E+00 0. -1.
</event>
<event>
 5    1  0.2540860E-005  0.5061333E+03  0.7818608E-02  0.9724679E-01
         21   -1    0    0  501  502  0.00000000000E+00  0.00000000000E+00  0.13701061369E+03  0.13701061369E+03  0.00000000000E+00 0.  1.
          4   -1    0    0  502    0 -0.00000000000E+00 -0.00000000000E+00 -0.28383024080E+04  0.28383024080E+04  0.00000000000E+00 0.  1.
        -13    1    1    2    0    0  0.49106701207E+03 -0.97981756977E+01 -0.13162243200E+04  0.14048805238E+04  0.10566000000E+00 0.  1.
         13    1    1    2    0    0  0.62764509282E+01  0.20035576569E+03 -0.48179409197E+03  0.52183080103E+03  0.10566000000E+00 0. -1.
          4    1    1    2  501    0 -0.49734346300E+03 -0.19055758999E+03 -0.90327338238E+03  0.10486016968E+04  0.00000000000E+00 0.  1.
</event>
<event>
 5    1  0.2540860E-005  0.4809673E+03  0.7818608E-02  0.1019675E+00
          4   -1    0    0  502    0 -0.00000000000E+00  0.00000000000E+00  0.22807005038E+04  0.22807005038E+04  0.00000000000E+00 0.  1.
         21   -1    0    0  501  502  0.00000000000E+00 -0.00000000000E+00 -0.13029525260E+03  0.13029525260E+03  0.00000000000E+00 0.  1.
        -13    1    1    2    0    0  0.46806282601E+03 -0.60992701530E+01  0.60777139949E+03  0.76714150936E+03  0.10566000000E+00 0.  1.
         13    1    1    2    0    0  0.37725015827E+02  0.31352531033E+02  0.26525466178E+03  0.26975211729E+03  0.10566000000E+00 0. -1.
          4    1    1    2  501    0 -0.50578784184E+03 -0.25253260880E+02  0.12773791900E+04  0.13741021298E+04  0.00000000000E+00 0.  1.
</event>
<event>
 5    1  0.2540860E-005  0.5829727E+03  0.7818608E-02  0.9377136E-01
          4   -1    0    0  502    0 -0.00000000000E+00  0.00000000000E+00  0.14581908373E+04  0.14581908373E+04  0.00000000000E+00 0.  1.
         21   -1    0    0  501  502  0.00000000000E+00 -0.00000000000E+00 -0.65890662775E+03  0.65890662775E+03  0.00000000000E+00 0.  1.
        -13    1    1    2    0    0 -0.17736493248E+03 -0.80697753155E+02  0.34353228923E+03  0.39494922654E+03  0.10566000000E+00 0.  1.
         13    1    1    2    0    0 -0.46316546325E+03 -0.46741379202E+03  0.57105721805E+03  0.87126589327E+03  0.10566000000E+00 0. -1.
          4    1    1    2  501    0  0.64053039573E+03  0.54811154518E+03 -0.11530529771E+03  0.85088234527E+03  0.00000000000E+00 0.  1.
</event>
<event>
 5    1  0.2540860E-005  0.5167111E+03  0.7818608E-02  0.9563410E-01
         21   -1    0    0  501  502  0.00000000000E+00  0.00000000000E+00  0.52179252114E+03  0.52179252114E+03  0.00000000000E+00 0. -1.
         -4   -1    0    0    0  501 -0.00000000000E+00 -0.00000000000E+00 -0.97612156947E+03  0.97612156947E+03  0.00000000000E+00 0. -1.
        -13    1    1    2    0    0  0.39671400011E+02 -0.33021358824E+03 -0.99331809521E+02  0.34710467208E+03  0.10566000000E+00 0.  1.
         13    1    1    2    0    0  0.43068055981E+03 -0.60850011888E+02 -0.31647904732E+03  0.53791027793E+03  0.10566000000E+00 0. -1.
         -4    1    1    2    0  502 -0.47035195983E+03  0.39106360012E+03 -0.38518191484E+02  0.61289914059E+03  0.00000000000E+00 0. -1.
</event>
<event>
 5    1  0.2540860E-005  0.1972921E+03  0.7818608E-02  0.1062008E+00
         21   -1    0    0  501  502  0.00000000000E+00  0.00000000000E+00  0.86962248340E+03  0.86962248340E+03  0.00000000000E+00 0.  1.
         -4   -1    0    0    0  501 -0.00000000000E+00 -0.00000000000E+00 -0.86986557434E+03  0.86986557434E+03  0.00000000000E+00 0. -1.
        -13    1    1    2    0    0 -0.17596754913E+03  0.13488694622E+03  0.53179254521E+03  0.57616177321E+03  0.10566000000E+00 0.  1.
         13    1    1    2    0    0  0.15873987574E+03 -0.11630826743E+03 -0.83572514502E+03  0.85858167370E+03  0.10566000000E+00 0. -1.
         -4    1    1    2    0  502  0.17227673390E+02 -0.18578678796E+02  0.30368950887E+03  0.30474461083E+03  0.00000000000E+00 0. -1.
</event>
<event>
 5    1  0.2540860E-005  0.8413813E+02  0.7818608E-02  0.1196977E+00
         -4   -1    0    0    0  501 -0.00000000000E+00  0.00000000000E+00  0.87749939660E+03  0.87749939660E+03  0.00000000000E+00 0. -1.
         21   -1    0    0  501  502  0.00000000000E+00 -0.00000000000E+00 -0.42352429687E+02  0.42352429687E+02  0.00000000000E+00 0.  1.
        -13    1    1    2    0    0 -0.31128814196E+02 -0.71872948539E+02  0.32157515140E+02  0.84669007015E+02  0.10566000000E+00 0.  1.
         13    1    1    2    0    0  0.10944825220E+03  0.57636720205E+02  0.66034171546E+03  0.67182743600E+03  0.10566000000E+00 0. -1.
         -4    1    1    2    0  502 -0.78319438008E+02  0.14236228334E+02  0.14264773631E+03  0.16335538327E+03  0.00000000000E+00 0. -1.
</event>
<event>
 5    1  0.2540860E-005  0.2072822E+03  0.7818608E-02  0.1055255E+00
          4   -1    0    0  502    0 -0.00000000000E+00  0.00000000000E+00  0.45446137957E+03  0.45446137957E+03  0.00000000000E+00 0.  1.
         21   -1    0    0  501  502  0.00000000000E+00 -0.00000000000E+00 -0.86676600474E+03  0.86676600474E+03  0.00000000000E+00 0.  1.
        -13    1    1    2    0    0  0.14371953024E+03  0.16916777308E+03 -0.66007159981E+03  0.69639612784E+03  0.10566000000E+00 0.  1.
         13    1    1    2    0    0 -0.20342328941E+03 -0.57222505072E+02 -0.11495434970E+03  0.24056176637E+03  0.10566000000E+00 0. -1.
          4    1    1    2  501    0  0.59703759167E+02 -0.11194526801E+03  0.36272132434E+03  0.38426949010E+03  0.00000000000E+00 0.  1.
</event>
<event>
 5    1  0.2540860E-005  0.1303417E+03  0.7818608E-02  0.1122297E+00
         21   -1    0    0  501  502  0.00000000000E+00  0.00000000000E+00  0.15031639342E+03  0.15031639342E+03  0.00000000000E+00 0.  1.
         -4   -1    0    0    0  501 -0.00000000000E+00 -0.00000000000E+00 -0.20898224845E+03  0.20898224845E+03  0.00000000000E+00 0. -1.
        -13    1    1    2    0    0  0.10875579249E+03 -0.61397613764E+02  0.78691432327E+02  0.14761382748E+03  0.10566000000E+00 0.  1.
         13    1    1    2    0    0 -0.12033649276E+03  0.53453351450E+02 -0.14486097150E+03  0.19576221417E+03  0.10566000000E+00 0. -1.
         -4    1    1    2    0  502  0.11580700262E+02  0.79442623138E+01  0.75036841404E+01  0.15922600226E+02  0.00000000000E+00 0. -1.
</event>
<event>
 5    1  0.2540860E-005  0.5156780E+03  0.7818608E-02  0.9565655E-01
          4   -1    0    0  502    0 -0.00000000000E+00  0.00000000000E+00  0.26942747948E+04  0.26942747948E+04  0.00000000000E+00 0.  1.
         21   -1    0    0  501  502  0.00000000000E+00 -0.00000000000E+00 -0.24175973736E+03  0.24175973736E+03  0.00000000000E+00 0.  1.
        -13    1    1    2    0    0  0.58159677586E+03  0.13431969211E+03  0.39869647603E+03  0.71781298438E+03  0.10566000000E+00 0.  1.
         13    1    1    2    0    0 -0.27299742946E+03  0.18877677299E+03  0.13021930294E+04  0.13438269843E+04  0.10566000000E+00 0. -1.
          4    1    1    2  501    0 -0.30859934640E+03 -0.32309646511E+03  0.75162555196E+03  0.87439456353E+03  0.00000000000E+00 0.  1.
</event>
<event>
 5    1  0.2540860E-005  0.5592609E+03  0.7818608E-02  0.9489498E-01
          4   -1    0    0  502    0 -0.00000000000E+00  0.00000000000E+00  0.11882447868E+04  0.11882447868E+04  0.00000000000E+00 0.  1.
         21   -1    0    0  501  502  0.00000000000E+00 -0.00000000000E+00 -0.56586437030E+03  0.56586437030E+03  0.00000000000E+00 0.  1.
        -13    1    1    2    0    0 -0.39994308691E+03  0.41386004876E+03  0.12399804412E+03  0.58873605193E+03  0.10566000000E+00 0.  1.
         13    1    1    2    0    0 -0.18026329863E+03 -0.29134167444E+03  0.45668477075E+03  0.57090789020E+03  0.10566000000E+00 0. -1.
          4    1    1    2  501    0  0.58020638554E+03 -0.12251837432E+03  0.41697601671E+02  0.59446521501E+03  0.00000000000E+00 0.  1.
</event>
<event>
 5    1  0.2540860E-005  0.1073088E+04  0.7818608E-02  0.8708795E-01
         -4   -1    0    0    0  501 -0.00000000000E+00  0.00000000000E+00  0.13141546682E+04  0.13141546682E+04  0.00000000000E+00 0. -1.
         21   -1    0    0  501  502  0.00000000000E+00 -0.00000000000E+00 -0.10899661134E+04  0.10899661134E+04  0.00000000000E+00 0.  1.
        -13    1    1    2    0    0  0.95808135644E+03 -0.18654275644E+03  0.88742885448E+02  0.98009866667E+03  0.10566000000E+00 0.  1.
         13    1    1    2    0    0 -0.11732068302E+04  0.15653706379E+03  0.19319691123E+03  0.11992677668E+04  0.10566000000E+00 0. -1.
         -4    1    1    2    0  502  0.21512547381E+03  0.30005692648E+02 -0.57751241839E+02  0.22475434814E+03  0.00000000000E+00 0. -1.
</event>
<event>
 5    1  0.2540860E-005  0.4959130E+03  0.7818608E-02  0.9554852E-01
         21   -1    0    0  501  502  0.00000000000E+00  0.00000000000E+00  0.33024735906E+03  0.33024735906E+03  0.00000000000E+00 0. -1.
         -4   -1    0    0    0  501 -0.00000000000E+00 -0.00000000000E+00 -0.27078019929E+04  0.27078019929E+04  0.00000000000E+00 0. -1.
        -13    1    1    2    0    0 -0.32396568549E+03  0.21342120726E+03 -0.17341519759E+04  0.17770158873E+04  0.10566000000E+00 0.  1.
         13    1    1    2    0    0 -0.28431754443E+03 -0.21589978731E+00 -0.53716866755E+03  0.60777191548E+03  0.10566000000E+00 0. -1.
         -4    1    1    2    0  502  0.60828322993E+03 -0.21320530747E+03 -0.10623399044E+03  0.65326154921E+03  0.00000000000E+00 0. -1.
</event>
<event>
 5    1  0.2540860E-005  0.2758085E+03  0.7818608E-02  0.1017823E+00
         21   -1    0    0  501  502  0.00000000000E+00  0.00000000000E+00  0.68340189888E+03  0.68340189888E+03  0.00000000000E+00 0. -1.
         -4   -1    0    0    0  501 -0.00000000000E+00 -0.00000000000E+00 -0.11450712952E+04  0.11450712952E+04  0.00000000000E+00 0. -1.
        -13    1    1    2    0    0 -0.51684628501E+02 -0.35371928065E+03 -0.66663445153E+03  0.75643250423E+03  0.10566000000E+00 0.  1.
         13    1    1    2    0    0  0.71683071149E+02  0.21222923947E+03 -0.39564873558E+03  0.45466212280E+03  0.10566000000E+00 0. -1.
         -4    1    1    2    0  502 -0.19998442647E+02  0.14149004118E+03  0.60061379075E+03  0.61737856709E+03  0.00000000000E+00 0. -1.
</event>
<event>
 5    1  0.2540860E-005  0.4160146E+03  0.7818608E-02  0.9683900E-01
         21   -1    0    0  501  502  0.00000000000E+00  0.00000000000E+00  0.34539332778E+03  0.34539332778E+03  0.00000000000E+00 0.  1.
          4   -1    0    0  502    0 -0.00000000000E+00 -0.00000000000E+00 -0.16525286645E+04  0.16525286645E+04  0.00000000000E+00 0.  1.
        -13    1    1    2    0    0 -0.33504322811E+03 -0.27232157559E+03  0.15157608667E+03  0.45758969224E+03  0.10566000000E+00 0.  1.
         13    1    1    2    0    0  0.29702286378E+03  0.28861676814E+03 -0.10376893783E+04  0.11172830785E+04  0.10566000000E+00 0. -1.
          4    1    1    2  501    0  0.38020364330E+02 -0.16295192554E+02 -0.42102204502E+03  0.42304922148E+03  0.00000000000E+00 0.  1.
</event>
<event>
 5    1  0.2540860E-005  0.3999429E+03  0.7818608E-02  0.9729211E-01
         21   -1    0    0  501  502  0.00000000000E+00  0.00000000000E+00  0.65049597846E+03  0.65049597846E+03  0.00000000000E+00 0.  1.
         -4   -1    0    0    0  501 -0.00000000000E+00 -0.00000000000E+00 -0.28129056080E+03  0.28129056080E+03  0.00000000000E+00 0. -1.
        -13    1    1    2    0    0  0.83143419147E+02 -0.39502145084E+03  0.98642702589E+02  0.41555405029E+03  0.10566000000E+00 0.  1.
         13    1    1    2    0    0 -0.52461289179E+02  0.39229987342E+03  0.20944870181E+03  0.44779476035E+03  0.10566000000E+00 0. -1.
         -4    1    1    2    0  502 -0.30682129968E+02  0.27215774242E+01  0.61114013260E+02  0.68437728628E+02  0.00000000000E+00 0. -1.
</event>
<event>
 5    1  0.2540860E-005  0.2973377E+03  0.7818608E-02  0.1016083E+00
         21   -1    0    0  501  502  0.00000000000E+00  0.00000000000E+00  0.20303464964E+03  0.20303464964E+03  0.00000000000E+00 0.  1.
          4   -1    0    0  502    0 -0.00000000000E+00 -0.00000000000E+00 -0.19944480664E+04  0.19944480664E+04  0.00000000000E+00 0.  1.
        -13    1    1    2    0    0 -0.50417310399E+02 -0.41843537151E+03 -0.14148795526E+04  0.14763177926E+04  0.10566000000E+00 0.  1.
         13    1    1    2    0    0  0.17300758478E+03  0.15548984479E+03 -0.36249083352E+03  0.43070678167E+03  0.10566000000E+00 0. -1.
          4    1    1    2  501    0 -0.12259027438E+03  0.26294552671E+03 -0.14043030637E+02  0.29045814173E+03  0.00000000000E+00 0.  1.
</event>
<event>
 5    1  0.2540860E-005  0.4833838E+03  0.7818608E-02  0.9664890E-01
         -4   -1    0    0    0  501 -0.00000000000E+00  0.00000000000E+00  0.23763832973E+04  0.23763832973E+04  0.00000000000E+00 0. -1.
         21   -1    0    0  501  502  0.00000000000E+00 -0.00000000000E+00 -0.26003809005E+03  0.26003809005E+03  0.00000000000E+00 0. -1.
        -13    1    1    2    0    0  0.22518447419E+03  0.17213878956E+03  0.12259081176E+04  0.12582489953E+04  0.10566000000E+00 0.  1.
         13    1    1    2    0    0  0.28939086052E+03  0.97772200070E+02  0.70484058161E+03  0.76818404690E+03  0.10566000000E+00 0. -1.
         -4    1    1    2    0  502 -0.51457533472E+03 -0.26991098963E+03  0.18559650810E+03  0.60998834517E+03  0.00000000000E+00 0. -1.
</event>
<event>
 5    1  0.2540860E-005  0.4893419E+03  0.7818608E-02  0.9728795E-01
         21   -1    0    0  501  502  0.00000000000E+00  0.00000000000E+00  0.11240951355E+04  0.11240951355E+04  0.00000000000E+00 0. -1.
         -4   -1    0    0    0  501 -0.00000000000E+00 -0.00000000000E+00 -0.38830694606E+03  0.38830694606E+03  0.00000000000E+00 0. -1.
        -13    1    1    2    0    0  0.11162045190E+03 -0.18803029839E+03 -0.46916554100E+02  0.22364188474E+03  0.10566000000E+00 0.  1.
         13    1    1    2    0    0 -0.53262175786E+03  0.10600109792E+03  0.63400730093E+03  0.83479784289E+03  0.10566000000E+00 0. -1.
         -4    1    1    2    0  502  0.42100130596E+03  0.82029200476E+02  0.14869744260E+03  0.45396235393E+03  0.00000000000E+00 0. -1.
</event>
<event>
 5    1  0.2540860E-005  0.3271206E+03  0.7818608E-02  0.9967001E-01
         21   -1    0    0  501  502  0.00000000000E+00  0.00000000000E+00  0.57012789062E+03  0.57012789062E+03  0.00000000000E+00 0. -1.
         -4   -1    0    0    0  501 -0.00000000000E+00 -0.00000000000E+00 -0.20614255055E+04  0.20614255055E+04  0.00000000000E+00 0. -1.
        -13    1    1    2    0    0 -0.64648479482E+02 -0.33819680441E+03 -0.14736959390E+04  0.15133856865E+04  0.10566000000E+00 0.  1.
         13    1    1    2    0    0  0.22324456765E+03  0.23421510752E+03 -0.50240992382E+03  0.59758731269E+03  0.10566000000E+00 0. -1.
         -4    1    1    2    0  502 -0.15859608817E+03  0.10398169689E+03  0.48480824789E+03  0.52058039695E+03  0.00000000000E+00 0. -1.
</event>
<event>
 5    1  0.2540860E-005  0.4925222E+03  0.7818608E-02  0.9780623E-01
         21   -1    0    0  501  502  0.00000000000E+00  0.00000000000E+00  0.15298083792E+03  0.15298083792E+03  0.00000000000E+00 0.  1.
          4   -1    0    0  502    0 -0.00000000000E+00 -0.00000000000E+00 -0.24587784363E+04  0.24587784363E+04  0.00000000000E+00 0.  1.
        -13    1    1    2    0    0  0.57320360013E+03  0.39744435920E+02 -0.13138596507E+04  0.14340045956E+04  0.10566000000E+00 0.  1.
         13    1    1    2    0    0 -0.14770877561E+03  0.10179733495E+03 -0.20840079922E+03  0.27497542449E+03  0.10566000000E+00 0. -1.
          4    1    1    2  501    0 -0.42549482452E+03 -0.14154177088E+03 -0.78353714847E+03  0.90277925409E+03  0.00000000000E+00 0.  1.
</event>
<event>
 5    1  0.2540860E-005  0.1475920E+03  0.7818608E-02  0.1103511E+00
         -4   -1    0    0    0  501 -0.00000000000E+00  0.00000000000E+00  0.66392181058E+03  0.66392181058E+03  0.00000000000E+00 0. -1.
         21   -1    0    0  501  502  0.00000000000E+00 -0.00000000000E+00 -0.54515076055E+02  0.54515076055E+02  0.00000000000E+00 0.  1.
        -13    1    1    2    0    0  0.45066750158E+02 -0.14246187949E+03  0.12439418392E+03  0.19442305223E+03  0.10566000000E+00 0.  1.
         13    1    1    2    0    0 -0.28001222416E+02  0.14456878811E+03  0.48495455570E+03  0.50681864134E+03  0.10566000000E+00 0. -1.
         -4    1    1    2    0  502 -0.17065527742E+02 -0.21069086120E+01  0.57994893367E-01  0.17195193061E+02  0.00000000000E+00 0. -1.
</event>
<event>
 5    1  0.2563051E-005  0.5613200E+03  0.7818608E-02  0.9445538E-01
         21   -1    0    0  501  502  0.00000000000E+00  0.00000000000E+00  0.97895840092E+03  0.97895840092E+03  0.00000000000E+00 0. -1.
         -4   -1    0    0    0  501 -0.00000000000E+00 -0.00000000000E+00 -0.12369079779E+04  0.12369079779E+04  0.00000000000E+00 0. -1.
        -13    1    1    2    0    0  0.25571591348E+03  0.78740534658E+03 -0.37156373977E+03  0.90744555324E+03  0.10566000000E+00 0.  1.
         13    1    1    2    0    0 -0.23002782529E+03 -0.22667348915E+03 -0.42278524656E+03  0.53201602134E+03  0.10566000000E+00 0. -1.
         -4    1    1    2    0  502 -0.25688088181E+02 -0.56073185743E+03  0.53639940931E+03  0.77640480429E+03  0.00000000000E+00 0. -1.
</event>
<event>
 5    1  0.2540860E-005  0.4960394E+03  0.7818608E-02  0.9772310E-01
         21   -1    0    0  501  502  0.00000000000E+00  0.00000000000E+00  0.20814051084E+03  0.20814051084E+03  0.00000000000E+00 0. -1.
         -4   -1    0    0    0  501 -0.00000000000E+00 -0.00000000000E+00 -0.18859391686E+04  0.18859391686E+04  0.00000000000E+00 0. -1.
        -13    1    1    2    0    0 -0.14035560636E+02  0.18013387411E+03 -0.54022350181E+03  0.56963729919E+03  0.10566000000E+00 0.  1.
         13    1    1    2    0    0  0.24046171764E+03  0.35745606779E+03 -0.51086952936E+03  0.66826968003E+03  0.10566000000E+00 0. -1.
         -4    1    1    2    0  502 -0.22642615700E+03 -0.53758994190E+03 -0.62670562659E+03  0.85617270022E+03  0.00000000000E+00 0. -1.
</event>
<event>
 5    1  0.2540860E-005  0.3142117E+02  0.7818608E-02  0.1419921E+00
          4   -1    0    0  502    0 -0.00000000000E+00  0.00000000000E+00  0.13941257124E+02  0.13941257124E+02  0.00000000000E+00 0.  1.
         21   -1    0    0  501  502  0.00000000000E+00 -0.00000000000E+00 -0.16158752981E+03  0.16158752981E+03  0.00000000000E+00 0.  1.
        -13    1    1    2    0    0  0.14354685324E+02  0.19103099958E+02 -0.25385083498E+02  0.34862573729E+02  0.10566000000E+00 0.  1.
         13    1    1    2    0    0  0.20082765369E+02 -0.35958336311E+01 -0.11019679459E+02  0.23188186298E+02  0.10566000000E+00 0. -1.
          4    1    1    2  501    0 -0.34437450694E+02 -0.15507266327E+02 -0.11124150973E+03  0.11747802690E+03  0.00000000000E+00 0.  1.
</event>
<event>
 5    1  0.2540860E-005  0.5009424E+03  0.7818608E-02  0.9845181E-01
          4   -1    0    0  502    0 -0.00000000000E+00  0.00000000000E+00  0.28689404837E+03  0.28689404837E+03  0.00000000000E+00 0.  1.
         21   -1    0    0  501  502  0.00000000000E+00 -0.00000000000E+00 -0.15337023958E+04  0.15337023958E+04  0.00000000000E+00 0.  1.
        -13    1    1    2    0    0 -0.26842284863E+02  0.54533742159E+03 -0.86391173274E+03  0.10219867439E+04  0.10566000000E+00 0.  1.
         13    1    1    2    0    0  0.96043848519E+02 -0.97484419376E+02  0.73591624398E+02  0.15538137342E+03  0.10566000000E+00 0. -1.
          4    1    1    2  501    0 -0.69201563656E+02 -0.44785300221E+03 -0.45648823908E+03  0.64322832682E+03  0.00000000000E+00 0.  1.
</event>
<event>
 5    1  0.2540860E-005  0.2419754E+03  0.7818608E-02  0.1034637E+00
          4   -1    0    0  502    0 -0.00000000000E+00  0.00000000000E+00  0.10627339693E+03  0.10627339693E+03  0.00000000000E+00 0.  1.
         21   -1    0    0  501  502  0.00000000000E+00 -0.00000000000E+00 -0.90972275932E+03  0.90972275932E+03  0.00000000000E+00 0. -1.
        -13    1    1    2    0    0 -0.17735112040E+03  0.14142569376E+03 -0.44109748512E+03  0.49600569483E+03  0.10566000000E+00 0.  1.
         13    1    1    2    0    0  0.19029864403E+03 -0.15958860742E+03 -0.11860623935E+03  0.27522635905E+03  0.10566000000E+00 0. -1.
          4    1    1    2  501    0 -0.12947523639E+02  0.18162913656E+02 -0.24374563792E+03  0.24476410236E+03  0.00000000000E+00 0.  1.
</event>
<event>
 5    1  0.2540860E-005  0.4134973E+02  0.7818608E-02  0.1331661E+00
          4   -1    0    0  502    0 -0.00000000000E+00  0.00000000000E+00  0.12814140017E+02  0.12814140017E+02  0.00000000000E+00 0.  1.
         21   -1    0    0  501  502  0.00000000000E+00 -0.00000000000E+00 -0.17217418766E+03  0.17217418766E+03  0.00000000000E+00 0. -1.
        -13    1    1    2    0    0  0.45624866873E+02  0.66594543680E+01 -0.71400074711E+02  0.84993874147E+02  0.10566000000E+00 0.  1.
         13    1    1    2    0    0 -0.36972824235E+02 -0.62506573471E+00 -0.69951440696E+02  0.79123925955E+02  0.10566000000E+00 0. -1.
          4    1    1    2  501    0 -0.86520426379E+01 -0.60343886333E+01 -0.18008532233E+02  0.20870527573E+02  0.00000000000E+00 0.  1.
</event>
<event>
 5    1  0.2540860E-005  0.3361425E+03  0.7818608E-02  0.1015927E+00
         21   -1    0    0  501  502  0.00000000000E+00  0.00000000000E+00  0.10470098002E+04  0.10470098002E+04  0.00000000000E+00 0. -1.
         -4   -1    0    0    0  501 -0.00000000000E+00 -0.00000000000E+00 -0.41909179990E+03  0.41909179990E+03  0.00000000000E+00 0. -1.
        -13    1    1    2    0    0 -0.13452458716E+03  0.89894645243E+02 -0.23295097411E+03  0.28362665477E+03  0.10566000000E+00 0.  1.
         13    1    1    2    0    0  0.35530258283E+03 -0.11101884824E+03  0.88430056572E+03  0.95945433019E+03  0.10566000000E+00 0. -1.
         -4    1    1    2    0  502 -0.22077799567E+03  0.21124203000E+02 -0.23431591264E+02  0.22302061518E+03  0.00000000000E+00 0. -1.
</event>
<event>
 5    1  0.2540860E-005  0.1168547E+03  0.7818608E-02  0.1150966E+00
         21   -1    0    0  501  502  0.00000000000E+00  0.00000000000E+00  0.29982704296E+03  0.29982704296E+03  0.00000000000E+00 0.  1.
         -4   -1    0    0    0  501 -0.00000000000E+00 -0.00000000000E+00 -0.26036507316E+03  0.26036507316E+03  0.00000000000E+00 0. -1.
        -13    1    1    2    0    0 -0.16335636220E+03  0.37858293055E+02  0.27390332471E+02  0.16990818963E+03  0.10566000000E+00 0.  1.
         13    1    1    2    0    0  0.49892578202E+02 -0.65804334064E+02 -0.16129865895E+03  0.18120912859E+03  0.10566000000E+00 0. -1.
         -4    1    1    2    0  502  0.11346378400E+03  0.27946041008E+02  0.17337029627E+03  0.20907479790E+03  0.00000000000E+00 0. -1.
</event>
<event>
 5    1  0.2540860E-005  0.5273776E+03  0.7818608E-02  0.9419903E-01
         -4   -1    0    0    0  501 -0.00000000000E+00  0.00000000000E+00  0.14202017845E+04  0.14202017845E+04  0.00000000000E+00 0. -1.
         21   -1    0    0  501  502  0.00000000000E+00 -0.00000000000E+00 -0.46228328290E+03  0.46228328290E+03  0.00000000000E+00 0.  1.
        -13    1    1    2    0    0 -0.53759718324E+02  0.49766541629E+03  0.38769971748E+03  0.63314457747E+03  0.10566000000E+00 0.  1.
         13    1    1    2    0    0 -0.32989822255E+03 -0.52451561703E+03  0.60137770598E+03  0.86348400458E+03  0.10566000000E+00 0. -1.
         -4    1    1    2    0  502  0.38365794087E+03  0.26850200739E+02 -0.31158921868E+02  0.38585648535E+03  0.00000000000E+00 0. -1.
</event>
<event>
 5    1  0.2540860E-005  0.4784186E+03  0.7818608E-02  0.9817962E-01
         -4   -1    0    0    0  501 -0.00000000000E+00  0.00000000000E+00  0.14138144700E+04  0.14138144700E+04  0.00000000000E+00 0. -1.
         21   -1    0    0  501  502  0.00000000000E+00 -0.00000000000E+00 -0.25684512362E+03  0.25684512362E+03  0.00000000000E+00 0. -1.
        -13    1    1    2    0    0 -0.13261572437E+03  0.10999974148E+03  0.87595642941E+02  0.19328704381E+03  0.10566000000E+00 0.  1.
         13    1    1    2    0    0 -0.41496979140E+03  0.89474913728E+02  0.34075112463E+03  0.54435009697E+03  0.10566000000E+00 0. -1.
         -4    1    1    2    0  502  0.54758551578E+03 -0.19947465521E+03  0.72862257876E+03  0.93302245281E+03  0.00000000000E+00 0. -1.
</event>
<event>
 5    1  0.2540860E-005  0.4467949E+03  0.7818608E-02  0.9602893E-01
         21   -1    0    0  501  502  0.00000000000E+00  0.00000000000E+00  0.19276322492E+04  0.19276322492E+04  0.00000000000E+00 0.  1.
          4   -1    0    0  502    0 -0.00000000000E+00 -0.00000000000E+00 -0.33167322713E+03  0.33167322713E+03  0.00000000000E+00 0.  1.
        -13    1    1    2    0    0  0.47360779266E+03 -0.33543974525E+03  0.32249894660E+03  0.66395010783E+03  0.10566000000E+00 0.  1.
         13    1    1    2    0    0 -0.18920305990E+03  0.34333159689E+03  0.12392550467E+03  0.41113492332E+03  0.10566000000E+00 0. -1.
          4    1    1    2  501    0 -0.28440473276E+03 -0.78918516432E+01  0.11495345708E+04  0.11842204452E+04  0.00000000000E+00 0.  1.
</event>
<event>
 5    1  0.2540860E-005  0.4231365E+03  0.7818608E-02  0.9877663E-01
          4   -1    0    0  502    0 -0.00000000000E+00  0.00000000000E+00  0.16707429252E+04  0.16707429252E+04  0.00000000000E+00 0.  1.
         21   -1    0    0  501  502  0.00000000000E+00 -0.00000000000E+00 -0.27235770572E+03  0.27235770572E+03  0.00000000000E+00 0.  1.
        -13    1    1    2    0    0 -0.55633348701E+03 -0.53639527175E+02  0.62431051402E+03  0.83794258558E+03  0.10566000000E+00 0.  1.
         13    1    1    2    0    0  0.17780104359E+03  0.99023680752E+02  0.68370247883E+03  0.71334983785E+03  0.10566000000E+00 0. -1.
          4    1    1    2  501    0  0.37853244343E+03 -0.45384153577E+02  0.90372226655E+02  0.39180820751E+03  0.00000000000E+00 0.  1.
</event>
<event>
 5    1  0.2540860E-005  0.8218256E+03  0.7818608E-02  0.8962864E-01
         21   -1    0    0  501  502  0.00000000000E+00  0.00000000000E+00  0.40251974463E+03  0.40251974463E+03  0.00000000000E+00 0. -1.
         -4   -1    0    0    0  501 -0.00000000000E+00 -0.00000000000E+00 -0.27716288526E+04  0.27716288526E+04  0.00000000000E+00 0. -1.
        -13    1    1    2    0    0  0.72986948207E+03  0.23283292726E+03 -0.14884155954E+04  0.16740076549E+04  0.10566000000E+00 0.  1.
         13    1    1    2    0    0 -0.88265400677E+03 -0.32763179275E+03 -0.91969616110E+03  0.13161541426E+04  0.10566000000E+00 0. -1.
         -4    1    1    2    0  502  0.15278452470E+03  0.94798865489E+02  0.39002648484E+02  0.18398679973E+03  0.00000000000E+00 0. -1.
</event>
<event>
 5    1  0.2540860E-005  0.2197970E+03  0.7818608E-02  0.1047351E+00
          4   -1    0    0  502    0 -0.00000000000E+00  0.00000000000E+00  0.18414998645E+03  0.18414998645E+03  0.00000000000E+00 0.  1.
         21   -1    0    0  501  502  0.00000000000E+00 -0.00000000000E+00 -0.73678864426E+03  0.73678864426E+03  0.00000000000E+00 0. -1.
        -13    1    1    2    0    0 -0.15231756388E+02 -0.22212520631E+03  0.54042166296E+02  0.22911172074E+03  0.10566000000E+00 0.  1.
         13    1    1    2    0    0  0.89004421624E+02  0.20108489074E+03 -0.27877467351E+03  0.35506654321E+03  0.10566000000E+00 0. -1.
          4    1    1    2  501    0 -0.73772665236E+02  0.21040315568E+02 -0.32790615060E+03  0.33676036676E+03  0.00000000000E+00 0.  1.
</event>
<event>
 5    1  0.2540860E-005  0.3772353E+03  0.7818608E-02  0.1021707E+00
          4   -1    0    0  502    0 -0.00000000000E+00  0.00000000000E+00  0.18202970869E+04  0.18202970869E+04  0.00000000000E+00 0.  1.
         21   -1    0    0  501  502  0.00000000000E+00 -0.00000000000E+00 -0.18433690541E+03  0.18433690541E+03  0.00000000000E+00 0.  1.
        -13    1    1    2    0    0 -0.13192040049E+03  0.34073731268E+03  0.11915518769E+04  0.12463148859E+04  0.10566000000E+00 0.  1.
         13    1    1    2    0    0  0.87395037130E+02  0.38172371430E+02  0.35347632781E+03  0.36611548444E+03  0.10566000000E+00 0. -1.
          4    1    1    2  501    0  0.44525363363E+02 -0.37890968411E+03  0.90931976792E+02  0.39220362198E+03  0.00000000000E+00 0.  1.
</event>
<event>
 5    1  0.2540860E-005  0.4686394E+03  0.7818608E-02  0.1012632E+00
          4   -1    0    0  502    0 -0.00000000000E+00  0.00000000000E+00  0.89983690058E+03  0.89983690058E+03  0.00000000000E+00 0.  1.
         21   -1    0    0  501  502  0.00000000000E+00 -0.00000000000E+00 -0.32550875344E+03  0.32550875344E+03  0.00000000000E+00 0.  1.
        -13    1    1    2    0    0 -0.35696063044E+03 -0.33203155028E+03  0.38425384790E+03  0.62073897320E+03  0.10566000000E+00 0.  1.
         13    1    1    2    0    0 -0.16957379353E+02  0.64112482803E+02  0.12301131228E+03  0.13974890797E+03  0.10566000000E+00 0. -1.
          4    1    1    2  501    0  0.37391800979E+03  0.26791906748E+03  0.67062986963E+02  0.46485777286E+03  0.00000000000E+00 0.  1.
</event>
<event>
 5    1  0.2540860E-005  0.5473490E+03  0.7818608E-02  0.9402609E-01
         21   -1    0    0  501  502  0.00000000000E+00  0.00000000000E+00  0.53495988319E+03  0.53495988319E+03  0.00000000000E+00 0.  1.
          4   -1    0    0  502    0 -0.00000000000E+00 -0.00000000000E+00 -0.14335549441E+04  0.14335549441E+04  0.00000000000E+00 0.  1.
        -13    1    1    2    0    0 -0.29699902311E+03  0.46565072125E+03 -0.56156804409E+03  0.78765328237E+03  0.10566000000E+00 0.  1.
         13    1    1    2    0    0  0.48471954477E+03  0.13403593573E+03 -0.13322899000E+03  0.52025824750E+03  0.10566000000E+00 0. -1.
          4    1    1    2  501    0 -0.18772052166E+03 -0.59968665697E+03 -0.20379802680E+03  0.66060329740E+03  0.00000000000E+00 0.  1.
</event>
<event>
 5    1  0.2540860E-005  0.4982419E+03  0.7818608E-02  0.9809996E-01
         21   -1    0    0  501  502  0.00000000000E+00  0.00000000000E+00  0.55205958614E+03  0.55205958614E+03  0.00000000000E+00 0. -1.
         -4   -1    0    0    0  501 -0.00000000000E+00 -0.00000000000E+00 -0.96261966010E+03  0.96261966010E+03  0.00000000000E+00 0. -1.
        -13    1    1    2    0    0 -0.10782893773E+03 -0.11374744373E+03 -0.47044255963E+03  0.49586467292E+03  0.10566000000E+00 0.  1.
         13    1    1    2    0    0 -0.32518706851E+03 -0.28177253413E+03  0.12950056678E+02  0.43047660290E+03  0.10566000000E+00 0. -1.
         -4    1    1    2    0  502  0.43301600625E+03  0.39551997785E+03  0.46932428994E+02  0.58833797042E+03  0.00000000000E+00 0. -1.
</event>
<event>
 5    1  0.2540860E-005  0.4185344E+03  0.7818608E-02  0.9874860E-01
         -4   -1    0    0    0  501 -0.00000000000E+00  0.00000000000E+00  0.48584081717E+03  0.48584081717E+03  0.00000000000E+00 0. -1.
         21   -1    0    0  501  502  0.00000000000E+00 -0.00000000000E+00 -0.14601435694E+04  0.14601435694E+04  0.00000000000E+00 0. -1.
        -13    1    1    2    0    0 -0.20463984681E+03  0.56493580581E+02  0.28480395363E+03  0.35522147277E+03  0.10566000000E+00 0.  1.
         13    1    1    2    0    0  0.10952038296E+03 -0.45806761692E+03 -0.33282743568E+03  0.57671029908E+03  0.10566000000E+00 0. -1.
         -4    1    1    2    0  502  0.95119463854E+02  0.40157403634E+03 -0.92627927020E+03  0.10140526147E+04  0.00000000000E+00 0. -1.
</event>
<event>
 5    1  0.2540860E-005  0.3090873E+03  0.7818608E-02  0.1030444E+00
         21   -1    0    0  501  502  0.00000000000E+00  0.00000000000E+00  0.70868716108E+03  0.70868716108E+03  0.00000000000E+00 0.  1.
          4   -1    0    0  502    0 -0.00000000000E+00 -0.00000000000E+00 -0.40996857783E+03  0.40996857783E+03  0.00000000000E+00 0.  1.
        -13    1    1    2    0    0  0.27010337206E+03  0.11295320223E+03  0.46125604053E+03  0.54632536422E+03  0.10566000000E+00 0.  1.
         13    1    1    2    0    0  0.77393719087E+02  0.10702611865E+03 -0.74855872496E+02  0.15181498819E+03  0.10566000000E+00 0. -1.
          4    1    1    2  501    0 -0.34749709115E+03 -0.21997932088E+03 -0.87681584791E+02  0.42051538650E+03  0.00000000000E+00 0.  1.
</event>
<event>
 5    1  0.2540860E-005  0.6280972E+02  0.7818608E-02  0.1246959E+00
         21   -1    0    0  501  502  0.00000000000E+00  0.00000000000E+00  0.35335592485E+02  0.35335592485E+02  0.00000000000E+00 0.  1.
         -4   -1    0    0    0  501 -0.00000000000E+00 -0.00000000000E+00 -0.22473114391E+03  0.22473114391E+03  0.00000000000E+00 0. -1.
        -13    1    1    2    0    0 -0.52974663236E+02 -0.23156764736E+02 -0.45512319977E+01  0.57993754618E+02  0.10566000000E+00 0.  1.
         13    1    1    2    0    0  0.62295715911E+02  0.14834571097E+02 -0.17440645901E+03  0.18579140139E+03  0.10566000000E+00 0. -1.
         -4    1    1    2    0  502 -0.93210526749E+01  0.83221936392E+01 -0.10437860416E+02  0.16281580390E+02  0.00000000000E+00 0. -1.
</event>
<event>
 5    1  0.2540860E-005  0.3628837E+03  0.7818608E-02  0.9842824E-01
         21   -1    0    0  501  502  0.00000000000E+00  0.00000000000E+00  0.82399444142E+03  0.82399444142E+03  0.00000000000E+00 0.  1.
          4   -1    0    0  502    0 -0.00000000000E+00 -0.00000000000E+00 -0.78191884527E+03  0.78191884527E+03  0.00000000000E+00 0.  1.
        -13    1    1    2    0    0 -0.23875255058E+03  0.40185976646E+03  0.62889740447E+03  0.78358535517E+03  0.10566000000E+00 0.  1.
         13    1    1    2    0    0  0.29494256411E+02 -0.35436602730E+03 -0.30756567394E+03  0.47015087729E+03  0.10566000000E+00 0. -1.
          4    1    1    2  501    0  0.20925829417E+03 -0.47493739165E+02 -0.27925613439E+03  0.35217705424E+03  0.00000000000E+00 0.  1.
</event>
<event>
 5    1  0.2540860E-005  0.4195546E+03  0.7818608E-02  0.9809472E-01
         21   -1    0    0  501  502  0.00000000000E+00  0.00000000000E+00  0.25780869296E+03  0.25780869296E+03  0.00000000000E+00 0.  1.
          4   -1    0    0  502    0 -0.00000000000E+00 -0.00000000000E+00 -0.17943984102E+04  0.17943984102E+04  0.00000000000E+00 0.  1.
        -13    1    1    2    0    0  0.61742625505E+02 -0.37623590411E+03 -0.12834861315E+03  0.40229216374E+03  0.10566000000E+00 0.  1.
         13    1    1    2    0    0 -0.18768577761E+03 -0.18418288010E+03 -0.62981249926E+03  0.68250500352E+03  0.10566000000E+00 0. -1.
          4    1    1    2  501    0  0.12594315210E+03  0.56041878421E+03 -0.77842860482E+03  0.96740993589E+03  0.00000000000E+00 0.  1.
</event>
<event>
 5    1  0.2540860E-005  0.7610903E+02  0.7818608E-02  0.1211554E+00
         -4   -1    0    0    0  501 -0.00000000000E+00  0.00000000000E+00  0.17276895641E+03  0.17276895641E+03  0.00000000000E+00 0. -1.
         21   -1    0    0  501  502  0.00000000000E+00 -0.00000000000E+00 -0.75990935476E+03  0.75990935476E+03  0.00000000000E+00 0. -1.
        -13    1    1    2    0    0 -0.12985058371E+03  0.26438098829E+01 -0.18721016837E+02  0.13121985923E+03  0.10566000000E+00 0.  1.
         13    1    1    2    0    0  0.67495698256E+02 -0.14050806742E+02  0.10470032622E+03  0.12536053576E+03  0.10566000000E+00 0. -1.
         -4    1    1    2    0  502  0.62354885455E+02  0.11406996859E+02 -0.67311970773E+03  0.67609791617E+03  0.00000000000E+00 0. -1.
</event>
<event>
 5    1  0.2540860E-005  0.7626402E+02  0.7818608E-02  0.1211190E+00
         21   -1    0    0  501  502  0.00000000000E+00  0.00000000000E+00  0.15503409772E+03  0.15503409772E+03  0.00000000000E+00 0. -1.
         -4   -1    0    0    0  501 -0.00000000000E+00 -0.00000000000E+00 -0.79808497374E+02  0.79808497374E+02  0.00000000000E+00 0. -1.
        -13    1    1    2    0    0  0.13602753021E+02  0.61616198959E+02  0.48518709100E+02  0.79596904216E+02  0.10566000000E+00 0.  1.
         13    1    1    2    0    0 -0.45251922170E+02 -0.70288024658E+02 -0.30755418573E+02  0.89073283346E+02  0.10566000000E+00 0. -1.
         -4    1    1    2    0  502  0.31649169149E+02  0.86718256988E+01  0.57462309817E+02  0.66172407529E+02  0.00000000000E+00 0. -1.
</event>
<event>
 5    1  0.2540860E-005  0.4989583E+03  0.7818608E-02  0.9562494E-01
         21   -1    0    0  501  502  0.00000000000E+00  0.00000000000E+00  0.49943699900E+03  0.49943699900E+03  0.00000000000E+00 0. -1.
          4   -1    0    0  502    0 -0.00000000000E+00 -0.00000000000E+00 -0.12616584890E+04  0.12616584890E+04  0.00000000000E+00 0.  1.
        -13    1    1    2    0    0 -0.43776883443E+03 -0.43814625190E+02 -0.22454942695E+03  0.49394709240E+03  0.10566000000E+00 0.  1.
         13    1    1    2    0    0 -0.63007456642E+02  0.36518689412E+03 -0.56021617996E+03  0.67169456354E+03  0.10566000000E+00 0. -1.
          4    1    1    2  501    0  0.50077629108E+03 -0.32137226893E+03  0.22544116894E+02  0.59545383209E+03  0.00000000000E+00 0.  1.
</event>
<event>
 5    1  0.2540860E-005  0.4527969E+03  0.7818608E-02  0.9639485E-01
         21   -1    0    0  501  502  0.00000000000E+00  0.00000000000E+00  0.16882748294E+03  0.16882748294E+03  0.00000000000E+00 0. -1.
         -4   -1    0    0    0  501 -0.00000000000E+00 -0.00000000000E+00 -0.31729027437E+04  0.31729027437E+04  0.00000000000E+00 0. -1.
        -13    1    1    2    0    0 -0.29516241489E+03  0.23468267367E+03 -0.10121788869E+04  0.10801402310E+04  0.10566000000E+00 0.  1.
         13    1    1    2    0    0  0.56405029925E+02  0.25796782785E+03 -0.15079504625E+04  0.15308963179E+04  0.10566000000E+00 0. -1.
         -4    1    1    2    0  502  0.23875738497E+03 -0.49265050152E+03 -0.48394591137E+03  0.73069367772E+03  0.00000000000E+00 0. -1.
</event>
<event>
 5    1  0.2540860E-005  0.4494390E+03  0.7818608E-02  0.9695733E-01
         21   -1    0    0  501  502  0.00000000000E+00  0.00000000000E+00  0.30810206233E+03  0.30810206233E+03  0.00000000000E+00 0.  1.
          4   -1    0    0  502    0 -0.00000000000E+00 -0.00000000000E+00 -0.18887211905E+04  0.18887211905E+04  0.00000000000E+00 0.  1.
        -13    1    1    2    0    0 -0.47030074043E+03 -0.12687026305E+03 -0.59702105335E+03  0.77052774084E+03  0.10566000000E+00 0.  1.
         13    1    1    2    0    0  0.43922764447E+02  0.31352190168E+03 -0.89914782140E+03  0.95325338078E+03  0.10566000000E+00 0. -1.
          4    1    1    2  501    0  0.42637797598E+03 -0.18665163863E+03 -0.84450253419E+02  0.47304213122E+03  0.00000000000E+00 0.  1.
</event>
<event>
 5    1  0.2540860E-005  0.4846816E+03  0.7818608E-02  0.1027362E+00
         21   -1    0    0  501  502  0.00000000000E+00  0.00000000000E+00  0.50611754843E+03  0.50611754843E+03  0.00000000000E+00 0.  1.
          4   -1    0    0  502    0 -0.00000000000E+00 -0.00000000000E+00 -0.54490734706E+03  0.54490734706E+03  0.00000000000E+00 0.  1.
        -13    1    1    2    0    0 -0.50728128908E+03  0.98128319767E+01 -0.81650089969E+02  0.51390402438E+03  0.10566000000E+00 0.  1.
         13    1    1    2    0    0  0.37605873456E+02  0.24101544872E+01 -0.45469931829E+02  0.59055367475E+02  0.10566000000E+00 0. -1.
          4    1    1    2  501    0  0.46967541562E+03 -0.12222986464E+02  0.88330223162E+02  0.47806550363E+03  0.00000000000E+00 0.  1.
</event>
<event>
 5    1  0.2540860E-005  0.3325457E+03  0.7818608E-02  0.9947103E-01
         -4   -1    0    0    0  501 -0.00000000000E+00  0.00000000000E+00  0.80873626546E+03  0.80873626546E+03  0.00000000000E+00 0. -1.
         21   -1    0    0  501  502  0.00000000000E+00 -0.00000000000E+00 -0.19402221692E+03  0.19402221692E+03  0.00000000000E+00 0. -1.
        -13    1    1    2    0    0  0.24841071983E+03  0.18865078923E+03  0.30108873437E+03  0.43353367013E+03  0.10566000000E+00 0.  1.
         13    1    1    2    0    0 -0.26525678847E+03 -0.23764592479E+03  0.35505075367E+03  0.50288944932E+03  0.10566000000E+00 0. -1.
         -4    1    1    2    0  502  0.16846068634E+02  0.48995135559E+02 -0.41425439500E+02  0.66335362927E+02  0.00000000000E+00 0. -1.
</event>
<event>
 5    1  0.2540860E-005  0.1261085E+03  0.7818608E-02  0.1127393E+00
         21   -1    0    0  501  502  0.00000000000E+00  0.00000000000E+00  0.11016137599E+04  0.11016137599E+04  0.00000000000E+00 0.  1.
          4   -1    0    0  502    0 -0.00000000000E+00 -0.00000000000E+00 -0.33504412882E+03  0.33504412882E+03  0.00000000000E+00 0.  1.
        -13    1    1    2    0    0  0.89719639826E+02 -0.12456075038E+03 -0.19788426586E+03  0.25044597850E+03  0.10566000000E+00 0.  1.
         13    1    1    2    0    0 -0.37390757556E+02  0.95877284986E+02 -0.85969802123E+02  0.13409452102E+03  0.10566000000E+00 0. -1.
          4    1    1    2  501    0 -0.52328882270E+02  0.28683465394E+02  0.10504236990E+04  0.10521173892E+04  0.00000000000E+00 0.  1.
</event>
<event>
 5    1  0.2540860E-005  0.4214449E+03  0.7818608E-02  0.1009563E+00
          4   -1    0    0  502    0 -0.00000000000E+00  0.00000000000E+00  0.17678184822E+04  0.17678184822E+04  0.00000000000E+00 0.  1.
         21   -1    0    0  501  502  0.00000000000E+00 -0.00000000000E+00 -0.17731260747E+03  0.17731260747E+03  0.00000000000E+00 0.  1.
        -13    1    1    2    0    0  0.15103406784E+03 -0.31104336115E+03  0.12499602901E+04  0.12969040058E+04  0.10566000000E+00 0.  1.
         13    1    1    2    0    0  0.67065741159E+02 -0.75004619700E+02  0.10778842548E+03  0.14745122056E+03  0.10566000000E+00 0. -1.
          4    1    1    2  501    0 -0.21809980900E+03  0.38604798085E+03  0.23275715920E+03  0.50077586340E+03  0.00000000000E+00 0.  1.
</event>
<event>
 5    1  0.2540860E-005  0.4006604E+03  0.7818608E-02  0.9727141E-01
          4   -1    0    0  502    0 -0.00000000000E+00  0.00000000000E+00  0.26639095446E+04  0.26639095446E+04  0.00000000000E+00 0.  1.
         21   -1    0    0  501  502  0.00000000000E+00 -0.00000000000E+00 -0.67721290572E+02  0.67721290572E+02  0.00000000000E+00 0. -1.
        -13    1    1    2    0    0  0.16073509534E+03 -0.36402972002E+03  0.13987324207E+04  0.14542371897E+04  0.10566000000E+00 0.  1.
         13    1    1    2    0    0 -0.15013101888E+03  0.37512851095E+03  0.11954803787E+04  0.12619168235E+04  0.10566000000E+00 0. -1.
          4    1    1    2  501    0 -0.10604076457E+02 -0.11098790923E+02  0.19754546624E+01  0.15476821979E+02  0.00000000000E+00 0.  1.
</event>
<event>
 5    1  0.2540860E-005  0.5122739E+03  0.7818608E-02  0.9451469E-01
          4   -1    0    0  502    0 -0.00000000000E+00  0.00000000000E+00  0.13631842687E+04  0.13631842687E+04  0.00000000000E+00 0.  1.
         21   -1    0    0  501  502  0.00000000000E+00 -0.00000000000E+00 -0.54292974889E+03  0.54292974889E+03  0.00000000000E+00 0.  1.
        -13    1    1    2    0    0 -0.48184652576E+03  0.17992423773E+03  0.88673766010E+03  0.10251109670E+04  0.10566000000E+00 0.  1.
         13    1    1    2    0    0  0.54400128562E+03  0.49083170019E+02  0.14284031020E+03  0.56457942020E+03  0.10566000000E+00 0. -1.
          4    1    1    2  501    0 -0.62154759858E+02 -0.22900740774E+03 -0.20932345044E+03  0.31642363041E+03  0.00000000000E+00 0.  1.
</event>
<event>
 5    1  0.2540860E-005  0.3043286E+03  0.7818608E-02  0.1005535E+00
          4   -1    0    0  502    0 -0.00000000000E+00  0.00000000000E+00  0.64527258257E+03  0.64527258257E+03  0.00000000000E+00 0.  1.
         21   -1    0    0  501  502  0.00000000000E+00 -0.00000000000E+00 -0.17263207497E+03  0.17263207497E+03  0.00000000000E+00 0. -1.
        -13    1    1    2    0    0  0.28981756296E+03  0.63251477113E+02  0.24639515192E+03  0.38562358747E+03  0.10566000000E+00 0.  1.
         13    1    1    2    0    0 -0.30555266864E+03 -0.65903995520E+02  0.25232061428E+03  0.40171068382E+03  0.10566000000E+00 0. -1.
          4    1    1    2  501    0  0.15735105675E+02  0.26525184063E+01 -0.26075258603E+02  0.30570386254E+02  0.00000000000E+00 0.  1.
</event>
<event>
 5    1  0.2540860E-005  0.5182036E+03  0.7818608E-02  0.9714423E-01
         -4   -1    0    0    0  501 -0.00000000000E+00  0.00000000000E+00  0.84365835980E+03  0.84365835980E+03  0.00000000000E+00 0. -1.
         21   -1    0    0  501  502  0.00000000000E+00 -0.00000000000E+00 -0.71836699307E+03  0.71836699307E+03  0.00000000000E+00 0. -1.
        -13    1    1    2    0    0 -0.11212266346E+03 -0.15774783670E+03  0.41648936325E+03  0.45925948276E+03  0.10566000000E+00 0.  1.
         13    1    1    2    0    0  0.52044448866E+03 -0.15511058463E+03 -0.90278293513E+02  0.55051970055E+03  0.10566000000E+00 0. -1.
         -4    1    1    2    0  502 -0.40832182520E+03  0.31285842133E+03 -0.20091970301E+03  0.55224616956E+03  0.00000000000E+00 0. -1.
</event>
<event>
 5    1  0.2540860E-005  0.2914736E+03  0.7818608E-02  0.1010888E+00
         21   -1    0    0  501  502  0.00000000000E+00  0.00000000000E+00  0.67387755978E+03  0.67387755978E+03  0.00000000000E+00 0. -1.
         -4   -1    0    0    0  501 -0.00000000000E+00 -0.00000000000E+00 -0.50243621398E+03  0.50243621398E+03  0.00000000000E+00 0. -1.
        -13    1    1    2    0    0 -0.21186290181E+03 -0.19577068366E+00 -0.13155028420E+02  0.21227103766E+03  0.10566000000E+00 0.  1.
         13    1    1    2    0    0  0.35987140451E+03 -0.37213064951E-01 -0.29298282006E+03  0.46405427827E+03  0.10566000000E+00 0. -1.
         -4    1    1    2    0  502 -0.14800850270E+03  0.23298374861E+00  0.47757919428E+03  0.49998845782E+03  0.00000000000E+00 0. -1.
</event>
<event>
 5    1  0.2540860E-005  0.5540707E+03  0.7818608E-02  0.9366732E-01
         21   -1    0    0  501  502  0.00000000000E+00  0.00000000000E+00  0.46275500096E+03  0.46275500096E+03  0.00000000000E+00 0. -1.
         -4   -1    0    0    0  501 -0.00000000000E+00 -0.00000000000E+00 -0.21693939328E+04  0.21693939328E+04  0.00000000000E+00 0. -1.
        -13    1    1    2    0    0  0.12404360936E+03  0.60403893743E+03 -0.34403990674E+03  0.70612557208E+03  0.10566000000E+00 0.  1.
         13    1    1    2    0    0 -0.18314351624E+03 -0.50783707278E+03 -0.15861907852E+04  0.16755420790E+04  0.10566000000E+00 0. -1.
         -4    1    1    2    0  502  0.59099906881E+02 -0.96201864647E+02  0.22359176018E+03  0.25048128268E+03  0.00000000000E+00 0. -1.
</event>
<event>
 5    1  0.2540860E-005  0.4293717E+03  0.7818608E-02  0.9678583E-01
          4   -1    0    0  502    0 -0.00000000000E+00  0.00000000000E+00  0.11800905712E+04  0.11800905712E+04  0.00000000000E+00 0.  1.
         21   -1    0    0  501  502  0.00000000000E+00 -0.00000000000E+00 -0.51752377561E+03  0.51752377561E+03  0.00000000000E+00 0.  1.
        -13    1    1    2    0    0 -0.22592682840E+02 -0.35820108945E+03  0.58957079596E+03  0.69022618352E+03  0.10566000000E+00 0.  1.
         13    1    1    2    0    0 -0.41147893075E+03  0.18982629328E+03  0.23996642835E+03  0.51276976312E+03  0.10566000000E+00 0. -1.
          4    1    1    2  501    0  0.43407161359E+03  0.16837479617E+03 -0.16697042873E+03  0.49461840016E+03  0.00000000000E+00 0.  1.
</event>
<event>
 5    1  0.2540860E-005  0.4003731E+03  0.7818608E-02  0.9970434E-01
          4   -1    0    0  502    0 -0.00000000000E+00  0.00000000000E+00  0.93010342464E+03  0.93010342464E+03  0.00000000000E+00 0.  1.
         21   -1    0    0  501  502  0.00000000000E+00 -0.00000000000E+00 -0.67177042479E+03  0.67177042479E+03  0.00000000000E+00 0. -1.
        -13    1    1    2    0    0  0.32823926701E+03 -0.19971660024E+03 -0.39333557666E+03  0.54985509350E+03  0.10566000000E+00 0.  1.
         13    1    1    2    0    0  0.14754488517E+03  0.96697454184E+02  0.51796566718E+03  0.54718217654E+03  0.10566000000E+00 0. -1.
          4    1    1    2  501    0 -0.47578415218E+03  0.10301914605E+03  0.13370290934E+03  0.50483657939E+03  0.00000000000E+00 0.  1.
</event>
<event>
 5    1  0.2540860E-005  0.4796470E+03  0.7818608E-02  0.9830336E-01
         21   -1    0    0  501  502  0.00000000000E+00  0.00000000000E+00  0.20471986851E+03  0.20471986851E+03  0.00000000000E+00 0. -1.
         -4   -1    0    0    0  501 -0.00000000000E+00 -0.00000000000E+00 -0.18380829280E+04  0.18380829280E+04  0.00000000000E+00 0. -1.
        -13    1    1    2    0    0  0.91293458948E+02  0.13616772469E+03 -0.47769105808E+03  0.50503950641E+03  0.10566000000E+00 0.  1.
         13    1    1    2    0    0 -0.47793140553E+02 -0.52801323817E+03 -0.33456177053E+03  0.62690809010E+03  0.10566000000E+00 0. -1.
         -4    1    1    2    0  502 -0.43500318395E+02  0.39184551348E+03 -0.82111023089E+03  0.91085520002E+03  0.00000000000E+00 0. -1.
</event>
<event>
 5    1  0.2540860E-005  0.3976484E+03  0.7818608E-02  0.1015603E+00
          4   -1    0    0  502    0 -0.00000000000E+00  0.00000000000E+00  0.54335664258E+03  0.54335664258E+03  0.00000000000E+00 0.  1.
         21   -1    0    0  501  502  0.00000000000E+00 -0.00000000000E+00 -0.76306202680E+03  0.76306202680E+03  0.00000000000E+00 0.  1.
        -13    1    1    2    0    0  0.45151254401E+03  0.56468021510E+02  0.88058445664E+02  0.46347223851E+03  0.10566000000E+00 0.  1.
         13    1    1    2    0    0 -0.66730804488E+02 -0.72783953838E+02  0.18967858343E+03  0.21384218569E+03  0.10566000000E+00 0. -1.
          4    1    1    2  501    0 -0.38478173953E+03  0.16315932328E+02 -0.49744241332E+03  0.62910424517E+03  0.00000000000E+00 0.  1.
</event>
<event>
 5    1  0.2540860E-005  0.1004583E+03  0.7818608E-02  0.1163799E+00
         21   -1    0    0  501  502  0.00000000000E+00  0.00000000000E+00  0.44686931964E+02  0.44686931964E+02  0.00000000000E+00 0. -1.
          4   -1    0    0  502    0 -0.00000000000E+00 -0.00000000000E+00 -0.63827385672E+03  0.63827385672E+03  0.00000000000E+00 0.  1.
        -13    1    1    2    0    0 -0.91047935294E+02 -0.29623660447E+02 -0.41438079193E+03  0.42529841249E+03  0.10566000000E+00 0.  1.
         13    1    1    2    0    0  0.10408740402E+03  0.46617957897E+02 -0.19843630308E+03  0.22887638415E+03  0.10566000000E+00 0. -1.
          4    1    1    2  501    0 -0.13039468729E+02 -0.16994297450E+02  0.19230170253E+02  0.28785992054E+02  0.00000000000E+00 0.  1.
</event>
<event>
 5    1  0.2540860E-005  0.3581970E+03  0.7818608E-02  0.9858211E-01
          4   -1    0    0  502    0 -0.00000000000E+00  0.00000000000E+00  0.65590894515E+03  0.65590894515E+03  0.00000000000E+00 0.  1.
         21   -1    0    0  501  502  0.00000000000E+00 -0.00000000000E+00 -0.79556315204E+03  0.79556315204E+03  0.00000000000E+00 0.  1.
        -13    1    1    2    0    0  0.21560092218E+02 -0.36467245580E+03  0.25779441088E+03  0.44711162704E+03  0.10566000000E+00 0.  1.
         13    1    1    2    0    0 -0.53987365338E+02  0.34720842244E+03  0.20098112135E+03  0.40479840233E+03  0.10566000000E+00 0. -1.
          4    1    1    2  501    0  0.32427273120E+02  0.17464033362E+02 -0.59842973911E+03  0.59956206781E+03  0.00000000000E+00 0.  1.
</event>
<event>
 5    1  0.2540860E-005  0.5358769E+03  0.7818608E-02  0.9477597E-01
         21   -1    0    0  501  502  0.00000000000E+00  0.00000000000E+00  0.45849249456E+03  0.45849249456E+03  0.00000000000E+00 0.  1.
          4   -1    0    0  502    0 -0.00000000000E+00 -0.00000000000E+00 -0.25587698887E+04  0.25587698887E+04  0.00000000000E+00 0.  1.
        -13    1    1    2    0    0  0.39385910745E+03 -0.29559612161E+03  0.68330671465E+01  0.49249240157E+03  0.10566000000E+00 0.  1.
         13    1    1    2    0    0  0.19347279523E+03  0.58389843144E+03 -0.15422576157E+04  0.16603998509E+04  0.10566000000E+00 0. -1.
          4    1    1    2  501    0 -0.58733190268E+03 -0.28830230984E+03 -0.56485284567E+03  0.86437013080E+03  0.00000000000E+00 0.  1.
</event>
<event>
 5    1  0.2540860E-005  0.1883279E+03  0.7818608E-02  0.1105171E+00
          4   -1    0    0  502    0 -0.00000000000E+00  0.00000000000E+00  0.28461140649E+03  0.28461140649E+03  0.00000000000E+00 0.  1.
         21   -1    0    0  501  502  0.00000000000E+00 -0.00000000000E+00 -0.55204559354E+03  0.55204559354E+03  0.00000000000E+00 0.  1.
        -13    1    1    2    0    0 -0.18440981243E+03  0.46520729527E+02  0.21504629701E+03  0.28708200608E+03  0.10566000000E+00 0.  1.
         13    1    1    2    0    0 -0.37153793236E+01 -0.67839230581E+02 -0.18366968994E+03  0.19583291709E+03  0.10566000000E+00 0. -1.
          4    1    1    2  501    0  0.18812519175E+03  0.21318501054E+02 -0.29881079412E+03  0.35374207686E+03  0.00000000000E+00 0.  1.
</event>
<event>
 5    1  0.2540860E-005  0.4793851E+03  0.7818608E-02  0.9870781E-01
         21   -1    0    0  501  502  0.00000000000E+00  0.00000000000E+00  0.54370836138E+03  0.54370836138E+03  0.00000000000E+00 0.  1.
          4   -1    0    0  502    0 -0.00000000000E+00 -0.00000000000E+00 -0.62411886595E+03  0.62411886595E+03  0.00000000000E+00 0.  1.
        -13    1    1    2    0    0  0.29430707633E+03 -0.46327737064E+03 -0.14318338078E+03  0.56722488399E+03  0.10566000000E+00 0.  1.
         13    1    1    2    0    0 -0.13586510382E+03  0.45341286868E+02 -0.24190377491E+02  0.14525957545E+03  0.10566000000E+00 0. -1.
          4    1    1    2  501    0 -0.15844197250E+03  0.41793608377E+03  0.86963253705E+02  0.45534276789E+03  0.00000000000E+00 0.  1.
</event>
<event>
 5    1  0.2540860E-005  0.1519360E+03  0.7818608E-02  0.1118865E+00
         21   -1    0    0  501  502  0.00000000000E+00  0.00000000000E+00  0.77436358907E+02  0.77436358907E+02  0.00000000000E+00 0.  1.
          4   -1    0    0  502    0 -0.00000000000E+00 -0.00000000000E+00 -0.82607631652E+03  0.82607631652E+03  0.00000000000E+00 0.  1.
        -13    1    1    2    0    0 -0.13715665886E+03  0.16857376071E+03 -0.58166125380E+03  0.62093388311E+03  0.10566000000E+00 0.  1.
         13    1    1    2    0    0  0.78602264015E+02 -0.43843850093E+02 -0.60617834510E+02  0.10851328086E+03  0.10566000000E+00 0. -1.
          4    1    1    2  501    0  0.58554394842E+02 -0.12472991061E+03 -0.10636086931E+03  0.17406551145E+03  0.00000000000E+00 0.  1.
</event>
<event>
 5    1  0.2540860E-005  0.5610807E+02  0.7818608E-02  0.1268738E+00
         21   -1    0    0  501  502  0.00000000000E+00  0.00000000000E+00  0.31187135307E+03  0.31187135307E+03  0.00000000000E+00 0.  1.
          4   -1    0    0  502    0 -0.00000000000E+00 -0.00000000000E+00 -0.61164905832E+02  0.61164905832E+02  0.00000000000E+00 0.  1.
        -13    1    1    2    0    0 -0.58790690053E+02  0.54047524695E+01 -0.25472234513E+02  0.64299319446E+02  0.10566000000E+00 0.  1.
         13    1    1    2    0    0  0.48554455224E+02  0.27431082546E+02  0.36607056234E+02  0.66708973473E+02  0.10566000000E+00 0. -1.
          4    1    1    2  501    0  0.10236234829E+02 -0.32835835015E+02  0.23957162552E+03  0.24202796598E+03  0.00000000000E+00 0.  1.
</event>
<event>
 5    1  0.2540860E-005  0.4802088E+03  0.7818608E-02  0.9742232E-01
         -4   -1    0    0    0  501 -0.00000000000E+00  0.00000000000E+00  0.75124427354E+03  0.75124427354E+03  0.00000000000E+00 0. -1.
         21   -1    0    0  501  502  0.00000000000E+00 -0.00000000000E+00 -0.52268061590E+03  0.52268061590E+03  0.00000000000E+00 0. -1.
        -13    1    1    2    0    0 -0.85819531839E+01 -0.22070829459E+03  0.95652171967E+02  0.24069721724E+03  0.10566000000E+00 0.  1.
         13    1    1    2    0    0  0.28658797458E+03  0.53063785334E+03  0.12968751154E+03  0.61686956513E+03  0.10566000000E+00 0. -1.
         -4    1    1    2    0  502 -0.27800602140E+03 -0.30992955875E+03  0.32239741379E+01  0.41635810708E+03  0.00000000000E+00 0. -1.
</event>
<event>
 5    1  0.2540860E-005  0.4953199E+03  0.7818608E-02  0.9810652E-01
         21   -1    0    0  501  502  0.00000000000E+00  0.00000000000E+00  0.10966024419E+04  0.10966024419E+04  0.00000000000E+00 0.  1.
          4   -1    0    0  502    0 -0.00000000000E+00 -0.00000000000E+00 -0.53104169644E+03  0.53104169644E+03  0.00000000000E+00 0.  1.
        -13    1    1    2    0    0  0.48531061795E+03 -0.29622658827E+03  0.51776678374E+03  0.76899872627E+03  0.10566000000E+00 0.  1.
         13    1    1    2    0    0 -0.80401286884E+02  0.13736839254E+03 -0.27449034217E+03  0.31730017540E+03  0.10566000000E+00 0. -1.
          4    1    1    2  501    0 -0.40490933107E+03  0.15885819573E+03  0.32228430390E+03  0.54134523668E+03  0.00000000000E+00 0.  1.
</event>
<event>
 5    1  0.2540860E-005  0.4362451E+03  0.7818608E-02  0.9766721E-01
         -4   -1    0    0    0  501 -0.00000000000E+00  0.00000000000E+00  0.32757242849E+04  0.32757242849E+04  0.00000000000E+00 0. -1.
         21   -1    0    0  501  502  0.00000000000E+00 -0.00000000000E+00 -0.11856129872E+03  0.11856129872E+03  0.00000000000E+00 0. -1.
        -13    1    1    2    0    0  0.86447983965E+02 -0.25660118895E+03  0.44086685558E+03  0.51737899032E+03  0.10566000000E+00 0.  1.
         13    1    1    2    0    0  0.71081196285E+02  0.51671336303E+03  0.94217057758E+03  0.10769079090E+04  0.10566000000E+00 0. -1.
         -4    1    1    2    0  502 -0.15752918025E+03 -0.26011217408E+03  0.17741255530E+04  0.17999986843E+04  0.00000000000E+00 0. -1.
</event>
<event>
 5    1  0.2540860E-005  0.1298554E+03  0.7818608E-02  0.1122872E+00
          4   -1    0    0  502    0 -0.00000000000E+00  0.00000000000E+00  0.49779350135E+03  0.49779350135E+03  0.00000000000E+00 0.  1.
         21   -1    0    0  501  502  0.00000000000E+00 -0.00000000000E+00 -0.66521340166E+03  0.66521340166E+03  0.00000000000E+00 0.  1.
        -13    1    1    2    0    0 -0.66812822320E+02 -0.11134472103E+03  0.46454083088E+03  0.48234820913E+03  0.10566000000E+00 0.  1.
         13    1    1    2    0    0  0.78417467056E+02  0.10441625072E+03 -0.15151191098E+03  0.20001980624E+03  0.10566000000E+00 0. -1.
          4    1    1    2  501    0 -0.11604644736E+02  0.69284703180E+01 -0.48044882020E+03  0.48063888764E+03  0.00000000000E+00 0.  1.
</event>
<event>
 5    1  0.2540860E-005  0.4696294E+03  0.7818608E-02  0.9791013E-01
         21   -1    0    0  501  502  0.00000000000E+00  0.00000000000E+00  0.23080602655E+04  0.23080602655E+04  0.00000000000E+00 0.  1.
          4   -1    0    0  502    0 -0.00000000000E+00 -0.00000000000E+00 -0.20836436652E+03  0.20836436652E+03  0.00000000000E+00 0.  1.
        -13    1    1    2    0    0  0.97105153475E+02  0.47923360020E+03  0.14622024624E+04  0.15417945086E+04  0.10566000000E+00 0.  1.
         13    1    1    2    0    0 -0.19735328115E+03 -0.30473436313E+02  0.14360649870E+02  0.20020786031E+03  0.10566000000E+00 0. -1.
          4    1    1    2  501    0  0.10024812768E+03 -0.44876016389E+03  0.62313278668E+03  0.77442226313E+03  0.00000000000E+00 0.  1.
</event>
<event>
 5    1  0.2540860E-005  0.6909975E+03  0.7818608E-02  0.9136141E-01
         -4   -1    0    0    0  501 -0.00000000000E+00  0.00000000000E+00  0.31528202975E+04  0.31528202975E+04  0.00000000000E+00 0. -1.
         21   -1    0    0  501  502  0.00000000000E+00 -0.00000000000E+00 -0.31201945552E+03  0.31201945552E+03  0.00000000000E+00 0. -1.
        -13    1    1    2    0    0 -0.67569632598E+03 -0.25176696970E+03  0.12300515808E+04  0.14258257378E+04  0.10566000000E+00 0.  1.
         13    1    1    2    0    0  0.70884274003E+03 -0.24670626738E+03  0.97992139023E+03  0.12343289491E+04  0.10566000000E+00 0. -1.
         -4    1    1    2    0  502 -0.33146414055E+02  0.49847323707E+03  0.63082787098E+03  0.80468506613E+03  0.00000000000E+00 0. -1.
</event>
<event>
 5    1  0.2540860E-005  0.6097743E+03  0.7818608E-02  0.9265270E-01
         21   -1    0    0  501  502  0.00000000000E+00  0.00000000000E+00  0.78900851025E+03  0.78900851025E+03  0.00000000000E+00 0.  1.
          4   -1    0    0  502    0 -0.00000000000E+00 -0.00000000000E+00 -0.11300012650E+04  0.11300012650E+04  0.00000000000E+00 0.  1.
        -13    1    1    2    0    0  0.18398726184E+03 -0.82446928107E+03  0.11306218002E+03  0.85228162931E+03  0.10566000000E+00 0.  1.
         13    1    1    2    0    0 -0.11318839367E+03  0.54065833733E+03 -0.52893821417E+03  0.76478669952E+03  0.10566000000E+00 0. -1.
          4    1    1    2  501    0 -0.70798868163E+02  0.28381094374E+03  0.74883279421E+02  0.30194144641E+03  0.00000000000E+00 0.  1.
</event>
<event>
 5    1  0.2540860E-005  0.2975521E+03  0.7818608E-02  0.1011910E+00
         21   -1    0    0  501  502  0.00000000000E+00  0.00000000000E+00  0.61375752970E+03  0.61375752970E+03  0.00000000000E+00 0.  1.
          4   -1    0    0  502    0 -0.00000000000E+00 -0.00000000000E+00 -0.98630709711E+03  0.98630709711E+03  0.00000000000E+00 0.  1.
        -13    1    1    2    0    0  0.28337555426E+03 -0.38695097719E+03 -0.28247484944E+03  0.55661909349E+03  0.10566000000E+00 0.  1.
         13    1    1    2    0    0 -0.24268060222E+03  0.10682460342E+03 -0.48783938618E+03  0.55524107239E+03  0.10566000000E+00 0. -1.
          4    1    1    2  501    0 -0.40694952042E+02  0.28012637378E+03  0.39776466821E+03  0.48820446094E+03  0.00000000000E+00 0.  1.
</event>
<event>
 5    1  0.2540860E-005  0.4996208E+03  0.7818608E-02  0.9860914E-01
         -4   -1    0    0    0  501 -0.00000000000E+00  0.00000000000E+00  0.13793266427E+04  0.13793266427E+04  0.00000000000E+00 0. -1.
         21   -1    0    0  501  502  0.00000000000E+00 -0.00000000000E+00 -0.32426830701E+03  0.32426830701E+03  0.00000000000E+00 0. -1.
        -13    1    1    2    0    0 -0.51882265952E+02  0.12006958510E+03  0.55374057334E+03  0.56897900534E+03  0.10566000000E+00 0.  1.
         13    1    1    2    0    0  0.33329011884E+03  0.33947403798E+03  0.18987794396E+03  0.51222902157E+03  0.10566000000E+00 0. -1.
         -4    1    1    2    0  502 -0.28140785288E+03 -0.45954362308E+03  0.31143981839E+03  0.62238692279E+03  0.00000000000E+00 0. -1.
</event>
<event>
 5    1  0.2540860E-005  0.4444587E+03  0.7818608E-02  0.9608796E-01
         -4   -1    0    0    0  501 -0.00000000000E+00  0.00000000000E+00  0.29489918478E+04  0.29489918478E+04  0.00000000000E+00 0. -1.
         21   -1    0    0  501  502  0.00000000000E+00 -0.00000000000E+00 -0.17712496971E+03  0.17712496971E+03  0.00000000000E+00 0. -1.
        -13    1    1    2    0    0 -0.36529052467E+03  0.17766940579E+02  0.97807287747E+03  0.10442123330E+04  0.10566000000E+00 0.  1.
         13    1    1    2    0    0  0.67489107615E+03  0.16687724441E+03  0.11375770403E+04  0.13331944768E+04  0.10566000000E+00 0. -1.
         -4    1    1    2    0  502 -0.30960055149E+03 -0.18464418498E+03  0.65621696041E+03  0.74871000772E+03  0.00000000000E+00 0. -1.
</event>
<event>
 5    1  0.2540860E-005  0.2469771E+03  0.7818608E-02  0.1031971E+00
         21   -1    0    0  501  502  0.00000000000E+00  0.00000000000E+00  0.11236391228E+03  0.11236391228E+03  0.00000000000E+00 0.  1.
          4   -1    0    0  502    0 -0.00000000000E+00 -0.00000000000E+00 -0.13393014948E+04  0.13393014948E+04  0.00000000000E+00 0.  1.
        -13    1    1    2    0    0 -0.29437201278E+02 -0.24589677297E+03 -0.10111539400E+04  0.10410399000E+04  0.10566000000E+00 0.  1.
         13    1    1    2    0    0  0.15659690997E+02  0.24458748940E+03 -0.26413821560E+03  0.36032939652E+03  0.10566000000E+00 0. -1.
          4    1    1    2  501    0  0.13777510281E+02  0.13092835736E+01  0.48354573024E+02  0.50296110638E+02  0.00000000000E+00 0.  1.
</event>
<event>
 5    1  0.2540860E-005  0.4951420E+03  0.7818608E-02  0.9956098E-01
         21   -1    0    0  501  502  0.00000000000E+00  0.00000000000E+00  0.17651247013E+04  0.17651247013E+04  0.00000000000E+00 0.  1.
          4   -1    0    0  502    0 -0.00000000000E+00 -0.00000000000E+00 -0.17342835874E+03  0.17342835874E+03  0.00000000000E+00 0.  1.
        -13    1    1    2    0    0  0.48460949482E+03  0.99342675206E+02  0.62961245378E+03  0.80070417927E+03  0.10566000000E+00 0.  1.
         13    1    1    2    0    0 -0.24147842303E+02  0.94759288957E+02  0.90814334352E+02  0.13345297156E+03  0.10566000000E+00 0. -1.
          4    1    1    2  501    0 -0.46046165251E+03 -0.19410196416E+03  0.87126955439E+03  0.10043959092E+04  0.00000000000E+00 0.  1.
</event>
<event>
 5    1  0.2540860E-005  0.5611900E+03  0.7818608E-02  0.9353078E-01
         21   -1    0    0  501  502  0.00000000000E+00  0.00000000000E+00  0.35981658656E+03  0.35981658656E+03  0.00000000000E+00 0.  1.
         -4   -1    0    0    0  501 -0.00000000000E+00 -0.00000000000E+00 -0.99848779118E+03  0.99848779118E+03  0.00000000000E+00 0. -1.
        -13    1    1    2    0    0 -0.95341213323E+01  0.56736273319E+03 -0.36884209637E+03  0.67678347623E+03  0.10566000000E+00 0.  1.
         13    1    1    2    0    0  0.11385369555E+02 -0.55449655464E+03 -0.31272084359E+03  0.63670275083E+03  0.10566000000E+00 0. -1.
         -4    1    1    2    0  502 -0.18512482228E+01 -0.12866178555E+02  0.42891735330E+02  0.44818150678E+02  0.00000000000E+00 0. -1.
</event>
<event>
 5    1  0.2540860E-005  0.4332062E+02  0.7818608E-02  0.1328761E+00
         21   -1    0    0  501  502  0.00000000000E+00  0.00000000000E+00  0.88415082290E+02  0.88415082290E+02  0.00000000000E+00 0.  1.
          4   -1    0    0  502    0 -0.00000000000E+00 -0.00000000000E+00 -0.19689822696E+03  0.19689822696E+03  0.00000000000E+00 0.  1.
        -13    1    1    2    0    0 -0.10291886212E+02 -0.72742832308E+02 -0.79381653650E+02  0.10816145651E+03  0.10566000000E+00 0.  1.
         13    1    1    2    0    0  0.19995603398E+02  0.32247900594E+02 -0.93249168342E+02  0.10067358049E+03  0.10566000000E+00 0. -1.
          4    1    1    2  501    0 -0.97037171854E+01  0.40494931714E+02  0.64147677319E+02  0.76478272255E+02  0.00000000000E+00 0.  1.
</event>
<event>
 5    1  0.2540860E-005  0.1612717E+03  0.7818608E-02  0.1096087E+00
         21   -1    0    0  501  502  0.00000000000E+00  0.00000000000E+00  0.20929559666E+03  0.20929559666E+03  0.00000000000E+00 0. -1.
         -4   -1    0    0    0  501 -0.00000000000E+00 -0.00000000000E+00 -0.85587897513E+03  0.85587897513E+03  0.00000000000E+00 0. -1.
        -13    1    1    2    0    0  0.65223056620E+00 -0.13834486234E+03 -0.16821461748E+02  0.13936534390E+03  0.10566000000E+00 0.  1.
         13    1    1    2    0    0 -0.14945869293E+03  0.19171816936E+03 -0.70861059092E+03  0.74914800813E+03  0.10566000000E+00 0. -1.
         -4    1    1    2    0  502  0.14880646236E+03 -0.53373307017E+02  0.78848674199E+02  0.17666121975E+03  0.00000000000E+00 0. -1.
</event>
<event>
 5    1  0.2540860E-005  0.2359192E+03  0.7818608E-02  0.1037959E+00
         21   -1    0    0  501  502  0.00000000000E+00  0.00000000000E+00  0.58204782006E+02  0.58204782006E+02  0.00000000000E+00 0. -1.
          4   -1    0    0  502    0 -0.00000000000E+00 -0.00000000000E+00 -0.16328734440E+04  0.16328734440E+04  0.00000000000E+00 0.  1.
        -13    1    1    2    0    0  0.24103324792E+03 -0.92526485420E+01 -0.12698418842E+04  0.12925482815E+04  0.10566000000E+00 0.  1.
         13    1    1    2    0    0 -0.21593258819E+03  0.37029836063E+02 -0.26573134533E+03  0.34439984096E+03  0.10566000000E+00 0. -1.
          4    1    1    2  501    0 -0.25100659736E+02 -0.27777187521E+02 -0.39095432509E+02  0.54130103536E+02  0.00000000000E+00 0.  1.
</event>
<event>
 5    1  0.2540860E-005  0.5109681E+03  0.7818608E-02  0.9667814E-01
         21   -1    0    0  501  502  0.00000000000E+00  0.00000000000E+00  0.35893593547E+03  0.35893593547E+03  0.00000000000E+00 0.  1.
          4   -1    0    0  502    0 -0.00000000000E+00 -0.00000000000E+00 -0.16029701354E+04  0.16029701354E+04  0.00000000000E+00 0.  1.
        -13    1    1    2    0    0 -0.43451950752E+02  0.58199789022E+03 -0.82127688685E+02  0.58936795354E+03  0.10566000000E+00 0.  1.
         13    1    1    2    0    0  0.15640876295E+03 -0.17875534116E+03 -0.74370333832E+03  0.78071239245E+03  0.10566000000E+00 0. -1.
          4    1    1    2  501    0 -0.11295681220E+03 -0.40324254906E+03 -0.41820317295E+03  0.59182572491E+03  0.00000000000E+00 0.  1.
</event>
<event>
 5    1  0.2540860E-005  0.1613850E+03  0.7818608E-02  0.1090396E+00
         21   -1    0    0  501  502  0.00000000000E+00  0.00000000000E+00  0.47955481763E+02  0.47955481763E+02  0.00000000000E+00 0.  1.
         -4   -1    0    0    0  501 -0.00000000000E+00 -0.00000000000E+00 -0.65487572437E+03  0.65487572437E+03  0.00000000000E+00 0. -1.
        -13    1    1    2    0    0  0.55064569510E+02  0.15079656729E+03 -0.27267284679E+03  0.31642092861E+03  0.10566000000E+00 0.  1.
         13    1    1    2    0    0 -0.46122845316E+02 -0.15554760796E+03 -0.33854283800E+03  0.37541129382E+03  0.10566000000E+00 0. -1.
         -4    1    1    2    0  502 -0.89417241932E+01  0.47510406656E+01  0.42954421823E+01  0.10998983703E+02  0.00000000000E+00 0. -1.
</event>
<event>
 5    1  0.2540860E-005  0.2810751E+03  0.7818608E-02  0.1035106E+00
         21   -1    0    0  501  502  0.00000000000E+00  0.00000000000E+00  0.56843681537E+03  0.56843681537E+03  0.00000000000E+00 0. -1.
         -4   -1    0    0    0  501 -0.00000000000E+00 -0.00000000000E+00 -0.90089516482E+03  0.90089516482E+03  0.00000000000E+00 0. -1.
        -13    1    1    2    0    0  0.15000598638E+03 -0.25672893716E+02 -0.42974607217E+03  0.45589756649E+03  0.10566000000E+00 0.  1.
         13    1    1    2    0    0  0.60879775998E+02 -0.26894316601E+03  0.43702853727E+03  0.51675015938E+03  0.10566000000E+00 0. -1.
         -4    1    1    2    0  502 -0.21088576238E+03  0.29461605973E+03 -0.33974081455E+03  0.49668425432E+03  0.00000000000E+00 0. -1.
</event>
<event>
 5    1  0.4027012E-005  0.4351235E+03  0.7818608E-02  0.9756249E-01
         21   -1    0    0  501  502  0.00000000000E+00  0.00000000000E+00  0.66053137518E+03  0.66053137518E+03  0.00000000000E+00 0.  1.
          4   -1    0    0  502    0 -0.00000000000E+00 -0.00000000000E+00 -0.10871216495E+04  0.10871216495E+04  0.00000000000E+00 0.  1.
        -13    1    1    2    0    0  0.15886786515E+03  0.24444665247E+03  0.13169202500E+03  0.31989992981E+03  0.10566000000E+00 0.  1.
         13    1    1    2    0    0 -0.11981118487E+03  0.52618799095E+03 -0.27579914058E+03  0.60604760452E+03  0.10566000000E+00 0. -1.
          4    1    1    2  501    0 -0.39056680274E+02 -0.77063464342E+03 -0.28248315878E+03  0.82170549037E+03  0.00000000000E+00 0.  1.
</event>
<event>
 5    1  0.2540860E-005  0.4674352E+03  0.7818608E-02  0.9552354E-01
          4   -1    0    0  502    0 -0.00000000000E+00  0.00000000000E+00  0.24958188465E+04  0.24958188465E+04  0.00000000000E+00 0.  1.
         21   -1    0    0  501  502  0.00000000000E+00 -0.00000000000E+00 -0.28775462752E+03  0.28775462752E+03  0.00000000000E+00 0.  1.
        -13    1    1    2    0    0 -0.47206614376E+03  0.17346230444E+03  0.10027057910E+04  0.11217640258E+04  0.10566000000E+00 0.  1.
         13    1    1    2    0    0  0.23923502466E+03 -0.43346168514E+03  0.12156934893E+04  0.13126435543E+04  0.10566000000E+00 0. -1.
          4    1    1    2  501    0  0.23283111910E+03  0.25999938070E+03 -0.10335061319E+02  0.34916589392E+03  0.00000000000E+00 0.  1.
</event>
<event>
 5    1  0.2540860E-005  0.3079809E+03  0.7818608E-02  0.1009650E+00
         21   -1    0    0  501  502  0.00000000000E+00  0.00000000000E+00  0.51364261753E+03  0.51364261753E+03  0.00000000000E+00 0.  1.
          4   -1    0    0  502    0 -0.00000000000E+00 -0.00000000000E+00 -0.12604404309E+04  0.12604404309E+04  0.00000000000E+00 0.  1.
        -13    1    1    2    0    0 -0.26412169168E+03  0.18516695057E+03  0.39165092547E+03  0.50738301724E+03  0.10566000000E+00 0.  1.
         13    1    1    2    0    0 -0.67283165155E+01 -0.25700700098E+03 -0.70646477504E+03  0.75179143274E+03  0.10566000000E+00 0. -1.
          4    1    1    2  501    0  0.27085000819E+03  0.71840050415E+02 -0.43198396376E+03  0.51490859842E+03  0.00000000000E+00 0.  1.
</event>
<event>
 5    1  0.2540860E-005  0.4249285E+03  0.7818608E-02  0.9659693E-01
          4   -1    0    0  502    0 -0.00000000000E+00  0.00000000000E+00  0.24678989012E+04  0.24678989012E+04  0.00000000000E+00 0.  1.
         21   -1    0    0  501  502  0.00000000000E+00 -0.00000000000E+00 -0.19874317648E+03  0.19874317648E+03  0.00000000000E+00 0.  1.
        -13    1    1    2    0    0 -0.11232568976E+03  0.61051293911E+03  0.59962928435E+03  0.86307496732E+03  0.10566000000E+00 0.  1.
         13    1    1    2    0    0  0.10195877871E+02 -0.35254688243E+03  0.57608715628E+03  0.67547737418E+03  0.10566000000E+00 0. -1.
          4    1    1    2  501    0  0.10212981189E+03 -0.25796605668E+03  0.10934392841E+04  0.11280897362E+04  0.00000000000E+00 0.  1.
</event>
<event>
 5    1  0.2540860E-005  0.4722469E+03  0.7818608E-02  0.9944625E-01
         -4   -1    0    0    0  501 -0.00000000000E+00  0.00000000000E+00  0.75562417450E+03  0.75562417450E+03  0.00000000000E+00 0. -1.
         21   -1    0    0  501  502  0.00000000000E+00 -0.00000000000E+00 -0.39014711414E+03  0.39014711414E+03  0.00000000000E+00 0. -1.
        -13    1    1    2    0    0 -0.11341762471E+03  0.29035194235E+02  0.53078839155E+02  0.12854561225E+03  0.10566000000E+00 0.  1.
         13    1    1    2    0    0 -0.33162698462E+03 -0.27014449571E+03  0.27750023733E+03  0.50986360761E+03  0.10566000000E+00 0. -1.
         -4    1    1    2    0  502  0.44504460933E+03  0.24110930148E+03  0.34897983885E+02  0.50736206877E+03  0.00000000000E+00 0. -1.
</event>
<event>
 5    1  0.2540860E-005  0.3217659E+03  0.7818608E-02  0.9987050E-01
         21   -1    0    0  501  502  0.00000000000E+00  0.00000000000E+00  0.30004538534E+03  0.30004538534E+03  0.00000000000E+00 0. -1.
          4   -1    0    0  502    0 -0.00000000000E+00 -0.00000000000E+00 -0.83816383037E+03  0.83816383037E+03  0.00000000000E+00 0.  1.
        -13    1    1    2    0    0 -0.31946609556E+03  0.92387886794E+02 -0.46818490990E+03  0.57427452395E+03  0.10566000000E+00 0.  1.
         13    1    1    2    0    0  0.29354638639E+03 -0.88656347916E+02 -0.24153650446E+03  0.39034513336E+03  0.10566000000E+00 0. -1.
          4    1    1    2  501    0  0.25919709173E+02 -0.37315388781E+01  0.17160296932E+03  0.17358955840E+03  0.00000000000E+00 0.  1.
</event>
<event>
 5    1  0.2540860E-005  0.4852740E+03  0.7818608E-02  0.9839541E-01
          4   -1    0    0  502    0 -0.00000000000E+00  0.00000000000E+00  0.24257122705E+04  0.24257122705E+04  0.00000000000E+00 0.  1.
         21   -1    0    0  501  502  0.00000000000E+00 -0.00000000000E+00 -0.15538204945E+03  0.15538204945E+03  0.00000000000E+00 0.  1.
        -13    1    1    2    0    0 -0.42923995840E+03  0.35472664920E+03  0.98466862976E+03  0.11312162743E+04  0.10566000000E+00 0.  1.
         13    1    1    2    0    0  0.15330076807E+03 -0.65135044529E+01  0.68952220406E+03  0.70638830136E+03  0.10566000000E+00 0. -1.
          4    1    1    2  501    0  0.27593919033E+03 -0.34821314475E+03  0.59613938724E+03  0.74348974435E+03  0.00000000000E+00 0.  1.
</event>
<event>
 5    1  0.2540860E-005  0.6154032E+02  0.7818608E-02  0.1250844E+00
         21   -1    0    0  501  502  0.00000000000E+00  0.00000000000E+00  0.24883380344E+03  0.24883380344E+03  0.00000000000E+00 0. -1.
          4   -1    0    0  502    0 -0.00000000000E+00 -0.00000000000E+00 -0.12018797706E+03  0.12018797706E+03  0.00000000000E+00 0.  1.
        -13    1    1    2    0    0 -0.33633302731E+02 -0.50871377400E+02 -0.94518643459E+02  0.11248502663E+03  0.10566000000E+00 0.  1.
         13    1    1    2    0    0  0.78152893296E+01  0.81797949991E+02  0.17777764052E+03  0.19584913582E+03  0.10566000000E+00 0. -1.
          4    1    1    2  501    0  0.25818013401E+02 -0.30926572591E+02  0.45386829324E+02  0.60687618048E+02  0.00000000000E+00 0.  1.
</event>
<event>
 5    1  0.2540860E-005  0.2505758E+03  0.7818608E-02  0.1059522E+00
          4   -1    0    0  502    0 -0.00000000000E+00  0.00000000000E+00  0.33851522044E+03  0.33851522044E+03  0.00000000000E+00 0.  1.
         21   -1    0    0  501  502  0.00000000000E+00 -0.00000000000E+00 -0.31300494001E+03  0.31300494001E+03  0.00000000000E+00 0.  1.
        -13    1    1    2    0    0  0.64352946988E+02 -0.22479268198E+03  0.77077746335E+00  0.23382398705E+03  0.10566000000E+00 0.  1.
         13    1    1    2    0    0 -0.82866720079E+02 -0.62065893668E+02 -0.57866505296E+02  0.11860696460E+03  0.10566000000E+00 0. -1.
          4    1    1    2  501    0  0.18513773091E+02  0.28685857564E+03  0.82606008264E+02  0.29908920879E+03  0.00000000000E+00 0.  1.
</event>
<event>
 5    1  0.2540860E-005  0.3988961E+03  0.7818608E-02  0.9732239E-01
         -4   -1    0    0    0  501 -0.00000000000E+00  0.00000000000E+00  0.40371654347E+03  0.40371654347E+03  0.00000000000E+00 0. -1.
         21   -1    0    0  501  502  0.00000000000E+00 -0.00000000000E+00 -0.13092692537E+04  0.13092692537E+04  0.00000000000E+00 0. -1.
        -13    1    1    2    0    0  0.15347399741E+03  0.34243088550E+03  0.26679789221E+02  0.37619808817E+03  0.10566000000E+00 0.  1.
         13    1    1    2    0    0 -0.50568658134E+03 -0.30082629872E+03 -0.69241806920E+03  0.90865734701E+03  0.10566000000E+00 0. -1.
         -4    1    1    2    0  502  0.35221258393E+03 -0.41604586776E+02 -0.23981443029E+03  0.42813036204E+03  0.00000000000E+00 0. -1.
</event>
<event>
 5    1  0.2540860E-005  0.5668425E+03  0.7818608E-02  0.9342388E-01
          4   -1    0    0  502    0 -0.00000000000E+00  0.00000000000E+00  0.22656409313E+04  0.22656409313E+04  0.00000000000E+00 0.  1.
         21   -1    0    0  501  502  0.00000000000E+00 -0.00000000000E+00 -0.33156487593E+03  0.33156487593E+03  0.00000000000E+00 0.  1.
        -13    1    1    2    0    0  0.66746834095E+03 -0.29312706069E+03  0.88550114224E+03  0.11469741688E+04  0.10566000000E+00 0.  1.
         13    1    1    2    0    0 -0.38272645444E+03  0.32806637587E+03  0.10484682721E+04  0.11633541227E+04  0.10566000000E+00 0. -1.
          4    1    1    2  501    0 -0.28474188651E+03 -0.34939315181E+02  0.10664101735E+00  0.28687751576E+03  0.00000000000E+00 0.  1.
</event>
<event>
 5    1  0.2540860E-005  0.1150733E+03  0.7818608E-02  0.1141774E+00
         -4   -1    0    0    0  501 -0.00000000000E+00  0.00000000000E+00  0.16556242622E+03  0.16556242622E+03  0.00000000000E+00 0. -1.
         21   -1    0    0  501  502  0.00000000000E+00 -0.00000000000E+00 -0.11684590216E+03  0.11684590216E+03  0.00000000000E+00 0.  1.
        -13    1    1    2    0    0  0.98429541609E+02  0.82418364339E+02  0.37292951186E+02  0.13368596341E+03  0.10566000000E+00 0.  1.
         13    1    1    2    0    0 -0.73498885516E+02 -0.75156610118E+02  0.37797679460E+02  0.11171068862E+03  0.10566000000E+00 0. -1.
         -4    1    1    2    0  502 -0.24930656093E+02 -0.72617542212E+01 -0.26374106589E+02  0.37011676346E+02  0.00000000000E+00 0. -1.
</event>
<event>
 5    1  0.2540860E-005  0.1006706E+03  0.7818608E-02  0.1163451E+00
         21   -1    0    0  501  502  0.00000000000E+00  0.00000000000E+00  0.99028768447E+02  0.99028768447E+02  0.00000000000E+00 0.  1.
         -4   -1    0    0    0  501 -0.00000000000E+00 -0.00000000000E+00 -0.58820613538E+03  0.58820613538E+03  0.00000000000E+00 0. -1.
        -13    1    1    2    0    0 -0.11715975731E+03 -0.38625142042E+02 -0.15773299969E+02  0.12436687054E+03  0.10566000000E+00 0.  1.
         13    1    1    2    0    0  0.98913305432E+02 -0.10997728824E+02 -0.49562396697E+03  0.50551747727E+03  0.10566000000E+00 0. -1.
         -4    1    1    2    0  502  0.18246451880E+02  0.49622870866E+02  0.22219900005E+02  0.57350556017E+02  0.00000000000E+00 0. -1.
</event>
<event>
 5    1  0.2540860E-005  0.3961703E+03  0.7818608E-02  0.9945885E-01
         -4   -1    0    0    0  501 -0.00000000000E+00  0.00000000000E+00  0.12955170896E+04  0.12955170896E+04  0.00000000000E+00 0. -1.
         21   -1    0    0  501  502  0.00000000000E+00 -0.00000000000E+00 -0.31258017741E+03  0.31258017741E+03  0.00000000000E+00 0. -1.
        -13    1    1    2    0    0  0.13309531434E+03  0.14588401768E+03  0.37085331777E+03  0.42015319085E+03  0.10566000000E+00 0.  1.
         13    1    1    2    0    0 -0.18136773436E+03 -0.50649060889E+03  0.62403889224E+03  0.82392447600E+03  0.10566000000E+00 0. -1.
         -4    1    1    2    0  502  0.48272420020E+02  0.36060659122E+03 -0.11955297812E+02  0.36401960017E+03  0.00000000000E+00 0. -1.
</event>
<event>
 5    1  0.3714105E-005  0.3086883E+03  0.7818608E-02  0.1050904E+00
         -4   -1    0    0    0  501 -0.00000000000E+00  0.00000000000E+00  0.21776581750E+04  0.21776581750E+04  0.00000000000E+00 0. -1.
         21   -1    0    0  501  502  0.00000000000E+00 -0.00000000000E+00 -0.13438246262E+03  0.13438246262E+03  0.00000000000E+00 0. -1.
        -13    1    1    2    0    0 -0.64477741817E+02  0.30616649750E+02  0.27481259541E+03  0.28393085812E+03  0.10566000000E+00 0.  1.
         13    1    1    2    0    0  0.36059409160E+03  0.30942312727E+02  0.16718959305E+04  0.17106202206E+04  0.10566000000E+00 0. -1.
         -4    1    1    2    0  502 -0.29611634978E+03 -0.61558962477E+02  0.96567186413E+02  0.31748955882E+03  0.00000000000E+00 0. -1.
</event>
<event>
 5    1  0.2540860E-005  0.4881544E+03  0.7818608E-02  0.9504320E-01
         21   -1    0    0  501  502  0.00000000000E+00  0.00000000000E+00  0.97772439784E+03  0.97772439784E+03  0.00000000000E+00 0.  1.
         -4   -1    0    0    0  501 -0.00000000000E+00 -0.00000000000E+00 -0.53831950938E+03  0.53831950938E+03  0.00000000000E+00 0. -1.
        -13    1    1    2    0    0 -0.38325778515E+03  0.20256615673E+03  0.62407024397E+03  0.75985739340E+03  0.10566000000E+00 0.  1.
         13    1    1    2    0    0  0.36771535101E+03 -0.34210248047E+03 -0.29064491833E+03  0.58027852469E+03  0.10566000000E+00 0. -1.
         -4    1    1    2    0  502  0.15542434143E+02  0.13953632373E+03  0.10597956282E+03  0.17590798912E+03  0.00000000000E+00 0. -1.
</event>
<event>
 5    1  0.2540860E-005  0.2099838E+03  0.7818608E-02  0.1058860E+00
         -4   -1    0    0    0  501 -0.00000000000E+00  0.00000000000E+00  0.39111923509E+03  0.39111923509E+03  0.00000000000E+00 0. -1.
         21   -1    0    0  501  502  0.00000000000E+00 -0.00000000000E+00 -0.93451787907E+03  0.93451787907E+03  0.00000000000E+00 0. -1.
        -13    1    1    2    0    0 -0.17813000145E+03 -0.21068036024E+02 -0.11523351777E+02  0.17974136519E+03  0.10566000000E+00 0.  1.
         13    1    1    2    0    0 -0.16142182924E+03 -0.12273269302E+03 -0.70855945393E+03  0.73700531329E+03  0.10566000000E+00 0. -1.
         -4    1    1    2    0  502  0.33955183069E+03  0.14380072905E+03  0.17668416173E+03  0.40889043569E+03  0.00000000000E+00 0. -1.
</event>
<event>
 5    1  0.2540860E-005  0.4673602E+03  0.7818608E-02  0.9552532E-01
         21   -1    0    0  501  502  0.00000000000E+00  0.00000000000E+00  0.19848701197E+03  0.19848701197E+03  0.00000000000E+00 0.  1.
         -4   -1    0    0    0  501 -0.00000000000E+00 -0.00000000000E+00 -0.12211106308E+04  0.12211106308E+04  0.00000000000E+00 0. -1.
        -13    1    1    2    0    0 -0.98119929334E+02 -0.46204611632E+03 -0.60318555710E+03  0.76612463843E+03  0.10566000000E+00 0.  1.
         13    1    1    2    0    0  0.11152053519E+03  0.44769462968E+03 -0.43042080954E+03  0.63097495645E+03  0.10566000000E+00 0. -1.
         -4    1    1    2    0  502 -0.13400605853E+02  0.14351486643E+02  0.10982747863E+02  0.22498047842E+02  0.00000000000E+00 0. -1.
</event>
<event>
 5    1  0.2540860E-005  0.1515395E+03  0.7818608E-02  0.1100336E+00
         -4   -1    0    0    0  501 -0.00000000000E+00  0.00000000000E+00  0.27044327916E+03  0.27044327916E+03  0.00000000000E+00 0. -1.
         21   -1    0    0  501  502  0.00000000000E+00 -0.00000000000E+00 -0.30703355033E+03  0.30703355033E+03  0.00000000000E+00 0. -1.
        -13    1    1    2    0    0  0.38435048991E+02  0.14814721717E+03  0.11888967509E+03  0.19380303650E+03  0.10566000000E+00 0.  1.
         13    1    1    2    0    0  0.13122148773E+03 -0.10679399206E+02 -0.70664643733E+02  0.14942098731E+03  0.10566000000E+00 0. -1.
         -4    1    1    2    0  502 -0.16965653672E+03 -0.13746781797E+03 -0.84815302535E+02  0.23425280569E+03  0.00000000000E+00 0. -1.
</event>
<event>
 5    1  0.2540860E-005  0.6466882E+02  0.7818608E-02  0.1241450E+00
         21   -1    0    0  501  502  0.00000000000E+00  0.00000000000E+00  0.11561673126E+04  0.11561673126E+04  0.00000000000E+00 0. -1.
          4   -1    0    0  502    0 -0.00000000000E+00 -0.00000000000E+00 -0.94337057155E+01  0.94337057155E+01  0.00000000000E+00 0.  1.
        -13    1    1    2    0    0 -0.29886517129E+02 -0.54563493099E+02  0.20055084312E+03  0.20997864302E+03  0.10566000000E+00 0.  1.
         13    1    1    2    0    0  0.64201996742E+02  0.38347382305E+02  0.33423965328E+03  0.34250339429E+03  0.10566000000E+00 0. -1.
          4    1    1    2  501    0 -0.34315479613E+02  0.16216110794E+02  0.61194311049E+03  0.61311898100E+03  0.00000000000E+00 0.  1.
</event>
<event>
 5    1  0.2540860E-005  0.4430208E+03  0.7818608E-02  0.9612447E-01
         21   -1    0    0  501  502  0.00000000000E+00  0.00000000000E+00  0.11067624874E+04  0.11067624874E+04  0.00000000000E+00 0. -1.
         -4   -1    0    0    0  501 -0.00000000000E+00 -0.00000000000E+00 -0.59732788405E+03  0.59732788405E+03  0.00000000000E+00 0. -1.
        -13    1    1    2    0    0  0.41737349642E+03 -0.22274764451E+03 -0.98464483617E+01  0.47319563857E+03  0.10566000000E+00 0.  1.
         13    1    1    2    0    0 -0.22790978726E+03  0.27185060991E+03  0.80779498617E+03  0.88225754521E+03  0.10566000000E+00 0. -1.
         -4    1    1    2    0  502 -0.18946370916E+03 -0.49102965401E+02 -0.28851393443E+03  0.34863718771E+03  0.00000000000E+00 0. -1.
</event>
<event>
 5    1  0.2540860E-005  0.9387015E+03  0.7818608E-02  0.8834420E-01
         -4   -1    0    0    0  501 -0.00000000000E+00  0.00000000000E+00  0.22715275913E+04  0.22715275913E+04  0.00000000000E+00 0. -1.
         21   -1    0    0  501  502  0.00000000000E+00 -0.00000000000E+00 -0.57244385085E+03  0.57244385085E+03  0.00000000000E+00 0.  1.
        -13    1    1    2    0    0  0.61628667539E+03 -0.65786914031E+03  0.93114704319E+03  0.12960076771E+04  0.10566000000E+00 0.  1.
         13    1    1    2    0    0 -0.44434233424E+03  0.92255958549E+03  0.63897800278E+03  0.12070000820E+04  0.10566000000E+00 0. -1.
         -4    1    1    2    0  502 -0.17194434115E+03 -0.26469044518E+03  0.12895869447E+03  0.34096368297E+03  0.00000000000E+00 0. -1.
</event>
<event>
 5    1  0.2540860E-005  0.4584260E+02  0.7818608E-02  0.1310937E+00
         21   -1    0    0  501  502  0.00000000000E+00  0.00000000000E+00  0.28842810815E+03  0.28842810815E+03  0.00000000000E+00 0. -1.
         -4   -1    0    0    0  501 -0.00000000000E+00 -0.00000000000E+00 -0.54946922682E+02  0.54946922682E+02  0.00000000000E+00 0. -1.
        -13    1    1    2    0    0  0.39101610660E+02  0.24949397666E+02  0.12012134361E+03  0.12876551074E+03  0.10566000000E+00 0.  1.
         13    1    1    2    0    0  0.65653854502E+01 -0.37794065195E+02 -0.39198562647E+02  0.54845547929E+02  0.10566000000E+00 0. -1.
         -4    1    1    2    0  502 -0.45666996110E+02  0.12844667529E+02  0.15255840451E+03  0.15976397217E+03  0.00000000000E+00 0. -1.
</event>
<event>
 5    1  0.2540860E-005  0.5449606E+03  0.7818608E-02  0.9384521E-01
         21   -1    0    0  501  502  0.00000000000E+00  0.00000000000E+00  0.42498690156E+03  0.42498690156E+03  0.00000000000E+00 0. -1.
          4   -1    0    0  502    0 -0.00000000000E+00 -0.00000000000E+00 -0.13759513295E+04  0.13759513295E+04  0.00000000000E+00 0.  1.
        -13    1    1    2    0    0  0.39996912570E+03  0.37743447862E+03 -0.10167483460E+04  0.11559451966E+04  0.10566000000E+00 0.  1.
         13    1    1    2    0    0 -0.40333357369E+03 -0.34101264497E+03 -0.43294544426E+02  0.52994530325E+03  0.10566000000E+00 0. -1.
          4    1    1    2  501    0  0.33644479818E+01 -0.36421833647E+02  0.10907846251E+03  0.11504773123E+03  0.00000000000E+00 0.  1.
</event>
<event>
 5    1  0.2540860E-005  0.2228587E+03  0.7818608E-02  0.1045503E+00
          4   -1    0    0  502    0 -0.00000000000E+00  0.00000000000E+00  0.31895457195E+03  0.31895457195E+03  0.00000000000E+00 0.  1.
         21   -1    0    0  501  502  0.00000000000E+00 -0.00000000000E+00 -0.54331690510E+03  0.54331690510E+03  0.00000000000E+00 0.  1.
        -13    1    1    2    0    0 -0.13632220856E+01  0.20061288744E+03 -0.97239886040E+02  0.22294168650E+03  0.10566000000E+00 0.  1.
         13    1    1    2    0    0  0.24262974873E+02 -0.22904772388E+03  0.20310620398E+03  0.30708906367E+03  0.10566000000E+00 0. -1.
          4    1    1    2  501    0 -0.22899752787E+02  0.28434836444E+02 -0.33022865109E+03  0.33224072689E+03  0.00000000000E+00 0.  1.
</event>
<event>
 5    1  0.2540860E-005  0.1791514E+03  0.7818608E-02  0.1092501E+00
          4   -1    0    0  502    0 -0.00000000000E+00  0.00000000000E+00  0.57778544178E+03  0.57778544178E+03  0.00000000000E+00 0.  1.
         21   -1    0    0  501  502  0.00000000000E+00 -0.00000000000E+00 -0.54754787094E+03  0.54754787094E+03  0.00000000000E+00 0.  1.
        -13    1    1    2    0    0  0.10326105281E+03 -0.80226560722E+02  0.51100845454E+03  0.52747397836E+03  0.10566000000E+00 0.  1.
         13    1    1    2    0    0 -0.57154570540E+02 -0.95544398514E+02 -0.35373898594E+02  0.11681909470E+03  0.10566000000E+00 0. -1.
          4    1    1    2  501    0 -0.46106482266E+02  0.17577095924E+03 -0.44539698511E+03  0.48104023965E+03  0.00000000000E+00 0.  1.
</event>
<event>
 5    1  0.2540860E-005  0.1479597E+03  0.7818608E-02  0.1113681E+00
         -4   -1    0    0    0  501 -0.00000000000E+00  0.00000000000E+00  0.37252921647E+04  0.37252921647E+04  0.00000000000E+00 0. -1.
         21   -1    0    0  501  502  0.00000000000E+00 -0.00000000000E+00 -0.83194896306E+02  0.83194896306E+02  0.00000000000E+00 0. -1.
        -13    1    1    2    0    0  0.10099150478E+03  0.47712668150E+02  0.30913926171E+03  0.32869876336E+03  0.10566000000E+00 0.  1.
         13    1    1    2    0    0  0.72735694908E+02 -0.12860907520E+03  0.65845655682E+01  0.14789909806E+03  0.10566000000E+00 0. -1.
         -4    1    1    2    0  502 -0.17372719969E+03  0.80896407052E+02  0.33263734411E+04  0.33318891996E+04  0.00000000000E+00 0. -1.
</event>
<event>
 5    1  0.2540860E-005  0.7674701E+02  0.7818608E-02  0.1210061E+00
          4   -1    0    0  502    0 -0.00000000000E+00  0.00000000000E+00  0.20955407206E+03  0.20955407206E+03  0.00000000000E+00 0.  1.
         21   -1    0    0  501  502  0.00000000000E+00 -0.00000000000E+00 -0.68484365576E+02  0.68484365576E+02  0.00000000000E+00 0.  1.
        -13    1    1    2    0    0  0.39710690419E+02  0.67630651153E+02  0.15900339628E+03  0.17729335887E+03  0.10566000000E+00 0.  1.
         13    1    1    2    0    0 -0.26298780628E+02 -0.66499615085E+02  0.75669839730E+01  0.71910326654E+02  0.10566000000E+00 0. -1.
          4    1    1    2  501    0 -0.13411909791E+02 -0.11310360679E+01 -0.25500673765E+02  0.28834752111E+02  0.00000000000E+00 0.  1.
</event>
<event>
 5    1  0.2540860E-005  0.4114723E+03  0.7818608E-02  0.9839457E-01
         21   -1    0    0  501  502  0.00000000000E+00  0.00000000000E+00  0.10866840967E+04  0.10866840967E+04  0.00000000000E+00 0. -1.
         -4   -1    0    0    0  501 -0.00000000000E+00 -0.00000000000E+00 -0.40726615369E+03  0.40726615369E+03  0.00000000000E+00 0. -1.
        -13    1    1    2    0    0  0.10421825316E+03  0.22918353389E+03 -0.32003168826E+01  0.25178719127E+03  0.10566000000E+00 0.  1.
         13    1    1    2    0    0 -0.41483263469E+02  0.36243621792E+03  0.50173248685E+03  0.62033569358E+03  0.10566000000E+00 0. -1.
         -4    1    1    2    0  502 -0.62734989692E+02 -0.59161975181E+03  0.18088577306E+03  0.62182736556E+03  0.00000000000E+00 0. -1.
</event>
<event>
 5    1  0.2540860E-005  0.4510067E+03  0.7818608E-02  0.9592349E-01
         21   -1    0    0  501  502  0.00000000000E+00  0.00000000000E+00  0.52573424787E+03  0.52573424787E+03  0.00000000000E+00 0. -1.
         -4   -1    0    0    0  501 -0.00000000000E+00 -0.00000000000E+00 -0.12647553961E+04  0.12647553961E+04  0.00000000000E+00 0. -1.
        -13    1    1    2    0    0  0.56462156695E+02  0.38995646822E+03 -0.57577340839E+03  0.69768836253E+03  0.10566000000E+00 0.  1.
         13    1    1    2    0    0 -0.23949227487E+03 -0.57370703627E+03 -0.40195750196E+03  0.74031490444E+03  0.10566000000E+00 0. -1.
         -4    1    1    2    0  502  0.18303011817E+03  0.18375056805E+03  0.23870976214E+03  0.35248637698E+03  0.00000000000E+00 0. -1.
</event>
<event>
 5    1  0.2540860E-005  0.4124323E+03  0.7818608E-02  0.9957709E-01
          4   -1    0    0  502    0 -0.00000000000E+00  0.00000000000E+00  0.43968679430E+03  0.43968679430E+03  0.00000000000E+00 0.  1.
         21   -1    0    0  501  502  0.00000000000E+00 -0.00000000000E+00 -0.96162144795E+03  0.96162144795E+03  0.00000000000E+00 0.  1.
        -13    1    1    2    0    0 -0.13415308221E+03  0.50888636571E+03 -0.12657596940E+03  0.54127984432E+03  0.10566000000E+00 0.  1.
         13    1    1    2    0    0 -0.29987923655E+02 -0.16561395449E+03  0.12907423384E+03  0.21210239624E+03  0.10566000000E+00 0. -1.
          4    1    1    2  501    0  0.16414100587E+03 -0.34327241122E+03 -0.52443291808E+03  0.64792600169E+03  0.00000000000E+00 0.  1.
</event>
<event>
 5    1  0.2540860E-005  0.1831399E+03  0.7818608E-02  0.1072352E+00
         21   -1    0    0  501  502  0.00000000000E+00  0.00000000000E+00  0.23513480532E+03  0.23513480532E+03  0.00000000000E+00 0.  1.
          4   -1    0    0  502    0 -0.00000000000E+00 -0.00000000000E+00 -0.21664701759E+04  0.21664701759E+04  0.00000000000E+00 0.  1.
        -13    1    1    2    0    0 -0.21450150665E+03 -0.11134722642E+03  0.15735438800E+03  0.28839125467E+03  0.10566000000E+00 0.  1.
         13    1    1    2    0    0  0.89480522567E+02  0.15892543534E+03 -0.10191154073E+04  0.10353068542E+04  0.10566000000E+00 0. -1.
          4    1    1    2  501    0  0.12502098408E+03 -0.47578208918E+02 -0.10695743512E+04  0.10779068723E+04  0.00000000000E+00 0.  1.
</event>
<event>
 5    1  0.2540860E-005  0.9885941E+02  0.7818608E-02  0.1166457E+00
         21   -1    0    0  501  502  0.00000000000E+00  0.00000000000E+00  0.29751284291E+03  0.29751284291E+03  0.00000000000E+00 0.  1.
         -4   -1    0    0    0  501 -0.00000000000E+00 -0.00000000000E+00 -0.55416478654E+02  0.55416478654E+02  0.00000000000E+00 0. -1.
        -13    1    1    2    0    0  0.90634954554E+02 -0.93590575660E+01  0.77545804842E+02  0.11964802530E+03  0.10566000000E+00 0.  1.
         13    1    1    2    0    0 -0.10379210552E+03  0.18529199059E+02  0.48370150823E+02  0.11599920276E+03  0.10566000000E+00 0. -1.
         -4    1    1    2    0  502  0.13157150967E+02 -0.91701414930E+01  0.11618040859E+03  0.11728209350E+03  0.00000000000E+00 0. -1.
</event>
<event>
 5    1  0.2540860E-005  0.4116745E+02  0.7818608E-02  0.1332618E+00
         -4   -1    0    0    0  501 -0.00000000000E+00  0.00000000000E+00  0.69744125142E+02  0.69744125142E+02  0.00000000000E+00 0. -1.
         21   -1    0    0  501  502  0.00000000000E+00 -0.00000000000E+00 -0.13255123585E+03  0.13255123585E+03  0.00000000000E+00 0. -1.
        -13    1    1    2    0    0 -0.33869763535E+02 -0.16040791370E+01 -0.55750508444E+02  0.65252312661E+02  0.10566000000E+00 0.  1.
         13    1    1    2    0    0  0.39366059031E+02 -0.15562032846E+02  0.56716483082E+02  0.70771704001E+02  0.10566000000E+00 0. -1.
         -4    1    1    2    0  502 -0.54962954956E+01  0.17166111983E+02 -0.63773085345E+02  0.66271344329E+02  0.00000000000E+00 0. -1.
</event>
<event>
 5    1  0.2540860E-005  0.5280592E+03  0.7818608E-02  0.9662141E-01
         21   -1    0    0  501  502  0.00000000000E+00  0.00000000000E+00  0.26099668047E+03  0.26099668047E+03  0.00000000000E+00 0.  1.
          4   -1    0    0  502    0 -0.00000000000E+00 -0.00000000000E+00 -0.16657972908E+04  0.16657972908E+04  0.00000000000E+00 0.  1.
        -13    1    1    2    0    0  0.28144312335E+02  0.51926155097E+03 -0.73417373208E+03  0.89968646798E+03  0.10566000000E+00 0.  1.
         13    1    1    2    0    0  0.21798980132E+03 -0.25915131147E+02 -0.25616724158E+03  0.33736154838E+03  0.10566000000E+00 0. -1.
          4    1    1    2  501    0 -0.24613411366E+03 -0.49334641982E+03 -0.41445963664E+03  0.68974595487E+03  0.00000000000E+00 0.  1.
</event>
<event>
 5    1  0.2540860E-005  0.2152935E+03  0.7818608E-02  0.1050129E+00
         21   -1    0    0  501  502  0.00000000000E+00  0.00000000000E+00  0.62319356957E+03  0.62319356957E+03  0.00000000000E+00 0. -1.
          4   -1    0    0  502    0 -0.00000000000E+00 -0.00000000000E+00 -0.18525495606E+03  0.18525495606E+03  0.00000000000E+00 0.  1.
        -13    1    1    2    0    0 -0.13916408337E+03  0.17241705824E+03 -0.56705030098E+02  0.22871326082E+03  0.10566000000E+00 0.  1.
         13    1    1    2    0    0  0.10982506283E+03 -0.16559521918E+03  0.19439601031E+03  0.27798046879E+03  0.10566000000E+00 0. -1.
          4    1    1    2  501    0  0.29339020544E+02 -0.68218390631E+01  0.30024763330E+03  0.30175479602E+03  0.00000000000E+00 0.  1.
</event>
<event>
 5    1  0.2540860E-005  0.4918702E+03  0.7818608E-02  0.9851412E-01
         -4   -1    0    0    0  501 -0.00000000000E+00  0.00000000000E+00  0.10619152354E+04  0.10619152354E+04  0.00000000000E+00 0. -1.
         21   -1    0    0  501  502  0.00000000000E+00 -0.00000000000E+00 -0.32220228051E+03  0.32220228051E+03  0.00000000000E+00 0. -1.
        -13    1    1    2    0    0  0.12978051093E+03  0.56507192065E+02  0.16751376901E+03  0.21931009495E+03  0.10566000000E+00 0.  1.
         13    1    1    2    0    0 -0.56951514520E+03 -0.13753449480E+02  0.36708188097E+03  0.67770626121E+03  0.10566000000E+00 0. -1.
         -4    1    1    2    0  502  0.43973463426E+03 -0.42753742585E+02  0.20511730493E+03  0.48710115978E+03  0.00000000000E+00 0. -1.
</event>
<event>
 5    1  0.2540860E-005  0.2981873E+03  0.7818608E-02  0.1008057E+00
         21   -1    0    0  501  502  0.00000000000E+00  0.00000000000E+00  0.24133118087E+04  0.24133118087E+04  0.00000000000E+00 0.  1.
          4   -1    0    0  502    0 -0.00000000000E+00 -0.00000000000E+00 -0.14772062552E+03  0.14772062552E+03  0.00000000000E+00 0.  1.
        -13    1    1    2    0    0  0.22411299452E+03  0.20850008712E+03  0.52849530634E+02  0.31063162217E+03  0.10566000000E+00 0.  1.
         13    1    1    2    0    0 -0.20161234855E+03 -0.16246302844E+03  0.89597850610E+03  0.93264101843E+03  0.10566000000E+00 0. -1.
          4    1    1    2  501    0 -0.22500645966E+02 -0.46037058680E+02  0.13167631465E+04  0.13177597937E+04  0.00000000000E+00 0.  1.
</event>
<event>
 5    1  0.2540860E-005  0.1462175E+03  0.7818608E-02  0.1104903E+00
         21   -1    0    0  501  502  0.00000000000E+00  0.00000000000E+00  0.26509370191E+03  0.26509370191E+03  0.00000000000E+00 0. -1.
          4   -1    0    0  502    0 -0.00000000000E+00 -0.00000000000E+00 -0.97239985795E+02  0.97239985795E+02  0.00000000000E+00 0.  1.
        -13    1    1    2    0    0 -0.92308387780E+02 -0.12089142978E+03  0.32368729960E+02  0.15550987779E+03  0.10566000000E+00 0.  1.
         13    1    1    2    0    0  0.79033599187E+02  0.11250312120E+03  0.10670286352E+03  0.17403670396E+03  0.10566000000E+00 0. -1.
          4    1    1    2  501    0  0.13274788593E+02  0.83883085805E+01  0.28782122638E+02  0.32787105950E+02  0.00000000000E+00 0.  1.
</event>
<event>
 5    1  0.2540860E-005  0.3068711E+03  0.7818608E-02  0.1030874E+00
         -4   -1    0    0    0  501 -0.00000000000E+00  0.00000000000E+00  0.10461592150E+04  0.10461592150E+04  0.00000000000E+00 0. -1.
         21   -1    0    0  501  502  0.00000000000E+00 -0.00000000000E+00 -0.69726989803E+03  0.69726989803E+03  0.00000000000E+00 0. -1.
        -13    1    1    2    0    0  0.10690717061E+03 -0.79421304072E+02  0.68005425688E+03  0.69297235885E+03  0.10566000000E+00 0.  1.
         13    1    1    2    0    0 -0.29616466070E+03 -0.10618234608E+03 -0.59713301790E+03  0.67494892333E+03  0.10566000000E+00 0. -1.
         -4    1    1    2    0  502  0.18925749009E+03  0.18560365015E+03  0.26596807795E+03  0.37550783080E+03  0.00000000000E+00 0. -1.
</event>
<event>
 5    1  0.2540860E-005  0.5984597E+02  0.7818608E-02  0.1256196E+00
         -4   -1    0    0    0  501 -0.00000000000E+00  0.00000000000E+00  0.30281050990E+03  0.30281050990E+03  0.00000000000E+00 0. -1.
         21   -1    0    0  501  502  0.00000000000E+00 -0.00000000000E+00 -0.46830061042E+02  0.46830061042E+02  0.00000000000E+00 0.  1.
        -13    1    1    2    0    0 -0.49581457194E+02  0.78789309692E+01  0.74352323171E+01  0.50751278746E+02  0.10566000000E+00 0.  1.
         13    1    1    2    0    0  0.59887744260E+02 -0.13556720075E+02  0.26865891225E+03  0.27558655422E+03  0.10566000000E+00 0. -1.
         -4    1    1    2    0  502 -0.10306287066E+02  0.56777891056E+01 -0.20113695707E+02  0.23302737977E+02  0.00000000000E+00 0. -1.
</event>
<event>
 5    1  0.2540860E-005  0.2751534E+03  0.7818608E-02  0.1018123E+00
         -4   -1    0    0    0  501 -0.00000000000E+00  0.00000000000E+00  0.35623813841E+03  0.35623813841E+03  0.00000000000E+00 0. -1.
         21   -1    0    0  501  502  0.00000000000E+00 -0.00000000000E+00 -0.10555804087E+04  0.10555804087E+04  0.00000000000E+00 0. -1.
        -13    1    1    2    0    0  0.25792357027E+03  0.46938751015E+02 -0.16577627093E+03  0.31017671998E+03  0.10566000000E+00 0.  1.
         13    1    1    2    0    0 -0.27428404267E+03 -0.50490513531E+02  0.21546174042E+03  0.35242701481E+03  0.10566000000E+00 0. -1.
         -4    1    1    2    0  502  0.16360472398E+02  0.35517625166E+01 -0.74902773977E+03  0.74921481233E+03  0.00000000000E+00 0. -1.
</event>
<event>
 5    1  0.2540860E-005  0.1330103E+03  0.7818608E-02  0.1119191E+00
          4   -1    0    0  502    0 -0.00000000000E+00  0.00000000000E+00  0.67180085122E+02  0.67180085122E+02  0.00000000000E+00 0.  1.
         21   -1    0    0  501  502  0.00000000000E+00 -0.00000000000E+00 -0.56103979976E+03  0.56103979976E+03  0.00000000000E+00 0. -1.
        -13    1    1    2    0    0 -0.13299538269E+03 -0.26002973397E+02 -0.34663295422E+02  0.13987666588E+03  0.10566000000E+00 0.  1.
         13    1    1    2    0    0  0.12670123494E+03 -0.11898733858E+02 -0.33586428900E+03  0.35916516339E+03  0.10566000000E+00 0. -1.
          4    1    1    2  501    0  0.62941477566E+01  0.37901707254E+02 -0.12333213021E+03  0.12917805561E+03  0.00000000000E+00 0.  1.
</event>
<event>
 5    1  0.2540860E-005  0.1809663E+02  0.7818608E-02  0.1544061E+00
         21   -1    0    0  501  502  0.00000000000E+00  0.00000000000E+00  0.85177745562E+02  0.85177745562E+02  0.00000000000E+00 0.  1.
          4   -1    0    0  502    0 -0.00000000000E+00 -0.00000000000E+00 -0.19891630606E+02  0.19891630606E+02  0.00000000000E+00 0.  1.
        -13    1    1    2    0    0  0.13043977360E+01  0.11610548559E+02 -0.11147901676E+02  0.16149091835E+02  0.10566000000E+00 0.  1.
         13    1    1    2    0    0  0.16274466221E+02 -0.36944205056E+01  0.93682724120E+01  0.19138513152E+02  0.10566000000E+00 0. -1.
          4    1    1    2  501    0 -0.17578863957E+02 -0.79161280535E+01  0.67065744219E+02  0.69781771180E+02  0.00000000000E+00 0.  1.
</event>
<event>
 5    1  0.2540860E-005  0.3227673E+03  0.7818608E-02  0.1026782E+00
         -4   -1    0    0    0  501 -0.00000000000E+00  0.00000000000E+00  0.26120370690E+04  0.26120370690E+04  0.00000000000E+00 0. -1.
         21   -1    0    0  501  502  0.00000000000E+00 -0.00000000000E+00 -0.13256084519E+03  0.13256084519E+03  0.00000000000E+00 0. -1.
        -13    1    1    2    0    0  0.20090834654E+02 -0.12836117076E+03  0.43919286602E+03  0.45800722322E+03  0.10566000000E+00 0.  1.
         13    1    1    2    0    0  0.29286716069E+03  0.20139774534E+03  0.19050588097E+04  0.19379322241E+04  0.10566000000E+00 0. -1.
         -4    1    1    2    0  502 -0.31295799535E+03 -0.73036574584E+02  0.13522454802E+03  0.34865846679E+03  0.00000000000E+00 0. -1.
</event>
<event>
 5    1  0.2540860E-005  0.3873250E+03  0.7818608E-02  0.1004277E+00
         21   -1    0    0  501  502  0.00000000000E+00  0.00000000000E+00  0.68614603298E+02  0.68614603298E+02  0.00000000000E+00 0. -1.
         -4   -1    0    0    0  501 -0.00000000000E+00 -0.00000000000E+00 -0.49461581500E+04  0.49461581500E+04  0.00000000000E+00 0. -1.
        -13    1    1    2    0    0 -0.12414044717E+03  0.90737427006E+02 -0.65160243106E+03  0.66949971666E+03  0.10566000000E+00 0.  1.
         13    1    1    2    0    0  0.39486903893E+03  0.91083245937E+02 -0.73649097753E+03  0.84061684895E+03  0.10566000000E+00 0. -1.
         -4    1    1    2    0  502 -0.27072859175E+03 -0.18182067294E+03 -0.34894501381E+04  0.35046561877E+04  0.00000000000E+00 0. -1.
</event>
<event>
 5    1  0.2540860E-005  0.4661372E+03  0.7818608E-02  0.9805818E-01
         21   -1    0    0  501  502  0.00000000000E+00  0.00000000000E+00  0.24357824031E+03  0.24357824031E+03  0.00000000000E+00 0.  1.
          4   -1    0    0  502    0 -0.00000000000E+00 -0.00000000000E+00 -0.14445326968E+04  0.14445326968E+04  0.00000000000E+00 0.  1.
        -13    1    1    2    0    0 -0.22910687649E+03 -0.31220262265E+03 -0.36752808133E+03  0.53388888373E+03  0.10566000000E+00 0.  1.
         13    1    1    2    0    0 -0.54833807450E+02 -0.18624078984E+03 -0.36579081602E+03  0.41411992283E+03  0.10566000000E+00 0. -1.
          4    1    1    2  501    0  0.28394068394E+03  0.49844341248E+03 -0.46763555912E+03  0.74010213052E+03  0.00000000000E+00 0.  1.
</event>
<event>
 5    1  0.2540860E-005  0.5306239E+03  0.7818608E-02  0.9605970E-01
         21   -1    0    0  501  502  0.00000000000E+00  0.00000000000E+00  0.29930123177E+03  0.29930123177E+03  0.00000000000E+00 0.  1.
          4   -1    0    0  502    0 -0.00000000000E+00 -0.00000000000E+00 -0.21486285963E+04  0.21486285963E+04  0.00000000000E+00 0.  1.
        -13    1    1    2    0    0 -0.20661327618E+03  0.39251728784E+03 -0.75839795958E+03  0.87859338912E+03  0.10566000000E+00 0.  1.
         13    1    1    2    0    0  0.17907862015E+03  0.19374529232E+03 -0.92140819609E+03  0.95843594750E+03  0.10566000000E+00 0. -1.
          4    1    1    2  501    0  0.27534656027E+02 -0.58626258015E+03 -0.16952120883E+03  0.61090049142E+03  0.00000000000E+00 0.  1.
</event>
<event>
 5    1  0.2540860E-005  0.1252752E+03  0.7818608E-02  0.1139410E+00
         21   -1    0    0  501  502  0.00000000000E+00  0.00000000000E+00  0.10183763488E+03  0.10183763488E+03  0.00000000000E+00 0.  1.
          4   -1    0    0  502    0 -0.00000000000E+00 -0.00000000000E+00 -0.58213674373E+03  0.58213674373E+03  0.00000000000E+00 0.  1.
        -13    1    1    2    0    0  0.11986900412E+03  0.60649925602E+02  0.29879855491E+02  0.13762197700E+03  0.10566000000E+00 0.  1.
         13    1    1    2    0    0 -0.27890648586E+02 -0.90458864990E+02 -0.19654148061E+03  0.21814962594E+03  0.10566000000E+00 0. -1.
          4    1    1    2  501    0 -0.91978355532E+02  0.29808939387E+02 -0.31363748374E+03  0.32820277567E+03  0.00000000000E+00 0.  1.
</event>
<event>
 5    1  0.2540860E-005  0.2634376E+03  0.7818608E-02  0.1041387E+00
         21   -1    0    0  501  502  0.00000000000E+00  0.00000000000E+00  0.32096321680E+03  0.32096321680E+03  0.00000000000E+00 0. -1.
         -4   -1    0    0    0  501 -0.00000000000E+00 -0.00000000000E+00 -0.15292667188E+04  0.15292667188E+04  0.00000000000E+00 0. -1.
        -13    1    1    2    0    0 -0.13114481110E+03 -0.78254192598E+02 -0.72936499132E+03  0.74518184483E+03  0.10566000000E+00 0.  1.
         13    1    1    2    0    0 -0.43976427389E+01 -0.25695297301E+03  0.20677315319E+03  0.32984741570E+03  0.10566000000E+00 0. -1.
         -4    1    1    2    0  502  0.13554245384E+03  0.33520716561E+03 -0.68571166391E+03  0.77520067511E+03  0.00000000000E+00 0. -1.
</event>
<event>
 5    1  0.2540860E-005  0.1007502E+04  0.7818608E-02  0.8767575E-01
         21   -1    0    0  501  502  0.00000000000E+00  0.00000000000E+00  0.96232945589E+03  0.96232945589E+03  0.00000000000E+00 0. -1.
          4   -1    0    0  502    0 -0.00000000000E+00 -0.00000000000E+00 -0.20494310903E+04  0.20494310903E+04  0.00000000000E+00 0.  1.
        -13    1    1    2    0    0  0.90130509819E+03  0.25345353944E+03 -0.48098142093E+03  0.10525838281E+04  0.10566000000E+00 0.  1.
         13    1    1    2    0    0 -0.10246639293E+04 -0.28199676694E+03 -0.10521723485E+04  0.14955015903E+04  0.10566000000E+00 0. -1.
          4    1    1    2  501    0  0.12335883111E+03  0.28543227498E+02  0.44605213496E+03  0.46367512782E+03  0.00000000000E+00 0.  1.
</event>
<event>
 5    1  0.2540860E-005  0.5694318E+02  0.7818608E-02  0.1265843E+00
         21   -1    0    0  501  502  0.00000000000E+00  0.00000000000E+00  0.22822993798E+03  0.22822993798E+03  0.00000000000E+00 0. -1.
          4   -1    0    0  502    0 -0.00000000000E+00 -0.00000000000E+00 -0.87552745933E+02  0.87552745933E+02  0.00000000000E+00 0.  1.
        -13    1    1    2    0    0 -0.38567350307E+02 -0.41018013695E+02 -0.68689026453E+02  0.88815040822E+02  0.10566000000E+00 0.  1.
         13    1    1    2    0    0  0.54846415784E+02  0.38974914396E+02  0.13531011263E+03  0.15111588606E+03  0.10566000000E+00 0. -1.
          4    1    1    2  501    0 -0.16279065477E+02  0.20430992984E+01  0.74056105878E+02  0.75851757035E+02  0.00000000000E+00 0.  1.
</event>
<event>
 5    1  0.2540860E-005  0.4659989E+03  0.7818608E-02  0.9726765E-01
          4   -1    0    0  502    0 -0.00000000000E+00  0.00000000000E+00  0.22264035736E+04  0.22264035736E+04  0.00000000000E+00 0.  1.
         21   -1    0    0  501  502  0.00000000000E+00 -0.00000000000E+00 -0.17860465460E+03  0.17860465460E+03  0.00000000000E+00 0.  1.
        -13    1    1    2    0    0 -0.27314043526E+03 -0.46804085479E+03  0.97632280792E+03  0.11166352025E+04  0.10566000000E+00 0.  1.
         13    1    1    2    0    0 -0.10258233164E+03  0.23344055357E+03  0.53504858797E+03  0.59270112997E+03  0.10566000000E+00 0. -1.
          4    1    1    2  501    0  0.37572276690E+03  0.23460030121E+03  0.53642752310E+03  0.69567189568E+03  0.00000000000E+00 0.  1.
</event>
<event>
 5    1  0.2540860E-005  0.3375872E+03  0.7818608E-02  0.1014686E+00
         21   -1    0    0  501  502  0.00000000000E+00  0.00000000000E+00  0.28490999182E+03  0.28490999182E+03  0.00000000000E+00 0.  1.
          4   -1    0    0  502    0 -0.00000000000E+00 -0.00000000000E+00 -0.13484392216E+04  0.13484392216E+04  0.00000000000E+00 0.  1.
        -13    1    1    2    0    0 -0.33692451217E+03  0.15500121074E+03 -0.77051103486E+03  0.85512032383E+03  0.10566000000E+00 0.  1.
         13    1    1    2    0    0  0.12581716164E+03  0.10852910450E+03 -0.39249765927E+03  0.42621936650E+03  0.10566000000E+00 0. -1.
          4    1    1    2  501    0  0.21110735053E+03 -0.26353031524E+03  0.99479464369E+02  0.35200952307E+03  0.00000000000E+00 0.  1.
</event>
<event>
 5    1  0.2540860E-005  0.1162749E+03  0.7818608E-02  0.1140124E+00
         -4   -1    0    0    0  501 -0.00000000000E+00  0.00000000000E+00  0.33237060151E+02  0.33237060151E+02  0.00000000000E+00 0. -1.
         21   -1    0    0  501  502  0.00000000000E+00 -0.00000000000E+00 -0.10712835928E+04  0.10712835928E+04  0.00000000000E+00 0. -1.
        -13    1    1    2    0    0  0.24582826568E+02  0.10881780497E+03 -0.13773391363E+03  0.17724636010E+03  0.10566000000E+00 0.  1.
         13    1    1    2    0    0 -0.73607234374E+02 -0.11040111930E+03 -0.34242707114E+03  0.36723662985E+03  0.10566000000E+00 0. -1.
         -4    1    1    2    0  502  0.49024407805E+02  0.15833143288E+01 -0.55788554790E+03  0.56003766302E+03  0.00000000000E+00 0. -1.
</event>
<event>
 5    1  0.2540860E-005  0.4746504E+03  0.7818608E-02  0.9649126E-01
         -4   -1    0    0    0  501 -0.00000000000E+00  0.00000000000E+00  0.19148800205E+04  0.19148800205E+04  0.00000000000E+00 0. -1.
         21   -1    0    0  501  502  0.00000000000E+00 -0.00000000000E+00 -0.24482789643E+03  0.24482789643E+03  0.00000000000E+00 0.  1.
        -13    1    1    2    0    0 -0.27159738124E+03  0.16236929173E+03  0.42364023509E+03  0.52877214786E+03  0.10566000000E+00 0.  1.
         13    1    1    2    0    0 -0.14706557200E+03 -0.46504836492E+03  0.36469191171E+03  0.60901433958E+03  0.10566000000E+00 0. -1.
         -4    1    1    2    0  502  0.41866295324E+03  0.30267907319E+03  0.88171997729E+03  0.10219214295E+04  0.00000000000E+00 0. -1.
</event>
<event>
 5    1  0.2540860E-005  0.4658021E+03  0.7818608E-02  0.9905657E-01
         -4   -1    0    0    0  501 -0.00000000000E+00  0.00000000000E+00  0.20374636527E+04  0.20374636527E+04  0.00000000000E+00 0. -1.
         21   -1    0    0  501  502  0.00000000000E+00 -0.00000000000E+00 -0.17615808675E+03  0.17615808675E+03  0.00000000000E+00 0. -1.
        -13    1    1    2    0    0 -0.11166824759E+02 -0.13844781784E+03  0.50859764551E+03  0.52722298169E+03  0.10566000000E+00 0.  1.
         13    1    1    2    0    0 -0.46214748739E+03  0.52304085618E+02  0.37763842470E+03  0.59910500620E+03  0.10566000000E+00 0. -1.
         -4    1    1    2    0  502  0.47331431215E+03  0.86143732220E+02  0.97506949577E+03  0.10872937516E+04  0.00000000000E+00 0. -1.
</event>
<event>
 5    1  0.2540860E-005  0.5093441E+03  0.7818608E-02  0.9457724E-01
          4   -1    0    0  502    0 -0.00000000000E+00  0.00000000000E+00  0.38910630001E+04  0.38910630001E+04  0.00000000000E+00 0.  1.
         21   -1    0    0  501  502  0.00000000000E+00 -0.00000000000E+00 -0.73123039011E+02  0.73123039011E+02  0.00000000000E+00 0. -1.
        -13    1    1    2    0    0  0.23484912196E+03  0.44521670834E+03  0.21204927124E+04  0.21794176704E+04  0.10566000000E+00 0.  1.
         13    1    1    2    0    0 -0.24754195439E+03 -0.45414341206E+03  0.16903363336E+04  0.17676991231E+04  0.10566000000E+00 0. -1.
          4    1    1    2  501    0  0.12692832432E+02  0.89267037239E+01  0.71109151473E+01  0.17069245699E+02  0.00000000000E+00 0.  1.
</event>
<event>
 5    1  0.2540860E-005  0.8089548E+02  0.7818608E-02  0.1200730E+00
         21   -1    0    0  501  502  0.00000000000E+00  0.00000000000E+00  0.54884745756E+02  0.54884745756E+02  0.00000000000E+00 0.  1.
         -4   -1    0    0    0  501 -0.00000000000E+00 -0.00000000000E+00 -0.29389177989E+03  0.29389177989E+03  0.00000000000E+00 0. -1.
        -13    1    1    2    0    0 -0.55498074710E+02 -0.46968893230E+02 -0.12541305965E+02  0.73779460198E+02  0.10566000000E+00 0.  1.
         13    1    1    2    0    0  0.23364103695E+02  0.82871522745E+02 -0.20480722489E+03  0.22217016261E+03  0.10566000000E+00 0. -1.
         -4    1    1    2    0  502  0.32133971015E+02 -0.35902629515E+02 -0.21658503283E+02  0.52826902841E+02  0.00000000000E+00 0. -1.
</event>
<event>
 5    1  0.2540860E-005  0.4261876E+03  0.7818608E-02  0.9829199E-01
         21   -1    0    0  501  502  0.00000000000E+00  0.00000000000E+00  0.39959169980E+03  0.39959169980E+03  0.00000000000E+00 0. -1.
          4   -1    0    0  502    0 -0.00000000000E+00 -0.00000000000E+00 -0.20148221078E+04  0.20148221078E+04  0.00000000000E+00 0.  1.
        -13    1    1    2    0    0 -0.53477070903E+02 -0.31424345235E+03 -0.10031958783E+04  0.10526208842E+04  0.10566000000E+00 0.  1.
         13    1    1    2    0    0 -0.52093105337E+03  0.31976777807E+03 -0.46728990640E+03  0.76940266574E+03  0.10566000000E+00 0. -1.
          4    1    1    2  501    0  0.57440812428E+03 -0.55243257202E+01 -0.14474462332E+03  0.59239025768E+03  0.00000000000E+00 0.  1.
</event>
<event>
 5    1  0.2540860E-005  0.1382811E+02  0.7818608E-02  0.1638929E+00
         21   -1    0    0  501  502  0.00000000000E+00  0.00000000000E+00  0.15836646111E+03  0.15836646111E+03  0.00000000000E+00 0.  1.
         -4   -1    0    0    0  501 -0.00000000000E+00 -0.00000000000E+00 -0.89319721659E+01  0.89319721659E+01  0.00000000000E+00 0. -1.
        -13    1    1    2    0    0  0.10240060295E+02  0.10049062303E+02  0.67531580408E+02  0.69038887625E+02  0.10566000000E+00 0.  1.
         13    1    1    2    0    0 -0.10545182537E+02  0.37756804871E+01 -0.35070469409E+01  0.11737426471E+02  0.10566000000E+00 0. -1.
         -4    1    1    2    0  502  0.30512224205E+00 -0.13824742790E+02  0.85409955476E+02  0.86522119179E+02  0.00000000000E+00 0. -1.
</event>
<event>
 5    1  0.2540860E-005  0.2616954E+03  0.7818608E-02  0.1024504E+00
         21   -1    0    0  501  502  0.00000000000E+00  0.00000000000E+00  0.22347781833E+03  0.22347781833E+03  0.00000000000E+00 0. -1.
         -4   -1    0    0    0  501 -0.00000000000E+00 -0.00000000000E+00 -0.19239804063E+04  0.19239804063E+04  0.00000000000E+00 0. -1.
        -13    1    1    2    0    0  0.90161805839E+01 -0.25561100594E+03 -0.53710686099E+03  0.59489668780E+03  0.10566000000E+00 0.  1.
         13    1    1    2    0    0  0.20598751780E+03  0.21373860802E+03 -0.12733345915E+04  0.13074769761E+04  0.10566000000E+00 0. -1.
         -4    1    1    2    0  502 -0.21500369838E+03  0.41872397922E+02  0.10993886442E+03  0.24508456079E+03  0.00000000000E+00 0. -1.
</event>
<event>
 5    1  0.2540860E-005  0.4871212E+03  0.7818608E-02  0.9891249E-01
          4   -1    0    0  502    0 -0.00000000000E+00  0.00000000000E+00  0.20273671077E+04  0.20273671077E+04  0.00000000000E+00 0.  1.
         21   -1    0    0  501  502  0.00000000000E+00 -0.00000000000E+00 -0.19199239586E+03  0.19199239586E+03  0.00000000000E+00 0.  1.
        -13    1    1    2    0    0  0.30940923105E+02  0.45565799388E+03  0.43699159406E+03  0.63209430669E+03  0.10566000000E+00 0.  1.
         13    1    1    2    0    0 -0.99356783953E+02  0.79817157835E+02  0.66229201749E+03  0.67444293813E+03  0.10566000000E+00 0. -1.
          4    1    1    2  501    0  0.68415860848E+02 -0.53547515171E+03  0.73609110031E+03  0.91282225875E+03  0.00000000000E+00 0.  1.
</event>
<event>
 5    1  0.2540860E-005  0.4772359E+03  0.7818608E-02  0.1006638E+00
         21   -1    0    0  501  502  0.00000000000E+00  0.00000000000E+00  0.61372109185E+03  0.61372109185E+03  0.00000000000E+00 0. -1.
         -4   -1    0    0    0  501 -0.00000000000E+00 -0.00000000000E+00 -0.50408176033E+03  0.50408176033E+03  0.00000000000E+00 0. -1.
        -13    1    1    2    0    0 -0.73554954097E+02  0.19702976752E+02 -0.69673608041E+02  0.10321318417E+03  0.10566000000E+00 0.  1.
         13    1    1    2    0    0  0.42987796036E+03  0.27256471362E+03 -0.26872834965E+02  0.50971437525E+03  0.10566000000E+00 0. -1.
         -4    1    1    2    0  502 -0.35632300626E+03 -0.29226769037E+03  0.20618577453E+03  0.50487529276E+03  0.00000000000E+00 0. -1.
</event>
<event>
 5    1  0.2540860E-005  0.4774475E+03  0.7818608E-02  0.9723227E-01
          4   -1    0    0  502    0 -0.00000000000E+00  0.00000000000E+00  0.34365695737E+03  0.34365695737E+03  0.00000000000E+00 0.  1.
         21   -1    0    0  501  502  0.00000000000E+00 -0.00000000000E+00 -0.11825148124E+04  0.11825148124E+04  0.00000000000E+00 0.  1.
        -13    1    1    2    0    0 -0.10948831339E+03  0.30096015366E+03  0.35022650300E+02  0.32216657502E+03  0.10566000000E+00 0.  1.
         13    1    1    2    0    0 -0.98938394933E+02  0.21866241315E+03 -0.12990848594E+03  0.27290709555E+03  0.10566000000E+00 0. -1.
          4    1    1    2  501    0  0.20842670833E+03 -0.51962256681E+03 -0.74397201934E+03  0.93109809915E+03  0.00000000000E+00 0.  1.
</event>
<event>
 5    1  0.2540860E-005  0.4868914E+02  0.7818608E-02  0.1297220E+00
         21   -1    0    0  501  502  0.00000000000E+00  0.00000000000E+00  0.27164720923E+03  0.27164720923E+03  0.00000000000E+00 0. -1.
          4   -1    0    0  502    0 -0.00000000000E+00 -0.00000000000E+00 -0.11325084733E+03  0.11325084733E+03  0.00000000000E+00 0.  1.
        -13    1    1    2    0    0 -0.12780594462E+02  0.46247241488E+02 -0.98008420816E+02  0.10912292452E+03  0.10566000000E+00 0.  1.
         13    1    1    2    0    0  0.27768837594E+02 -0.68932011573E+02  0.19048829758E+03  0.20447135066E+03  0.10566000000E+00 0. -1.
          4    1    1    2  501    0 -0.14988243131E+02  0.22684770085E+02  0.65916485136E+02  0.71303781377E+02  0.00000000000E+00 0.  1.
</event>
<event>
 5    1  0.2540860E-005  0.1515891E+02  0.7818608E-02  0.1619433E+00
          4   -1    0    0  502    0 -0.00000000000E+00  0.00000000000E+00  0.22133965702E+02  0.22133965702E+02  0.00000000000E+00 0.  1.
         21   -1    0    0  501  502  0.00000000000E+00 -0.00000000000E+00 -0.55777648983E+02  0.55777648983E+02  0.00000000000E+00 0.  1.
        -13    1    1    2    0    0  0.24806370929E+02  0.20153264632E+01  0.86601964448E+01  0.26351997000E+02  0.10566000000E+00 0.  1.
         13    1    1    2    0    0 -0.10567389640E+02  0.20955784779E+00 -0.52505387555E+01  0.11802243836E+02  0.10566000000E+00 0. -1.
          4    1    1    2  501    0 -0.14238981288E+02 -0.22248843110E+01 -0.37053340970E+02  0.39757373849E+02  0.00000000000E+00 0.  1.
</event>
<event>
 5    1  0.2540860E-005  0.5304703E+03  0.7818608E-02  0.9619572E-01
          4   -1    0    0  502    0 -0.00000000000E+00  0.00000000000E+00  0.12386792499E+04  0.12386792499E+04  0.00000000000E+00 0.  1.
         21   -1    0    0  501  502  0.00000000000E+00 -0.00000000000E+00 -0.44637926907E+03  0.44637926907E+03  0.00000000000E+00 0.  1.
        -13    1    1    2    0    0 -0.65151561171E+02 -0.42448454650E+03  0.15737602619E+03  0.45738286033E+03  0.10566000000E+00 0.  1.
         13    1    1    2    0    0  0.41253347726E+02 -0.24821417361E+03  0.47236514443E+03  0.53520178953E+03  0.10566000000E+00 0. -1.
          4    1    1    2  501    0  0.23898213444E+02  0.67269872011E+03  0.16255881023E+03  0.69247386913E+03  0.00000000000E+00 0.  1.
</event>
<event>
 5    1  0.2540860E-005  0.4704705E+03  0.7818608E-02  0.9936700E-01
          4   -1    0    0  502    0 -0.00000000000E+00  0.00000000000E+00  0.14279840644E+04  0.14279840644E+04  0.00000000000E+00 0.  1.
         21   -1    0    0  501  502  0.00000000000E+00 -0.00000000000E+00 -0.22304178065E+03  0.22304178065E+03  0.00000000000E+00 0.  1.
        -13    1    1    2    0    0 -0.39023207738E+03  0.30238612743E+02  0.82378150279E+03  0.91203696385E+03  0.10566000000E+00 0.  1.
         13    1    1    2    0    0 -0.12087881878E+03 -0.12857935173E+02  0.79312120074E+02  0.14514626719E+03  0.10566000000E+00 0. -1.
          4    1    1    2  501    0  0.51111089616E+03 -0.17380677569E+02  0.30184866085E+03  0.59384261398E+03  0.00000000000E+00 0.  1.
</event>
<event>
 5    1  0.2540860E-005  0.2189900E+03  0.7818608E-02  0.1082737E+00
         21   -1    0    0  501  502  0.00000000000E+00  0.00000000000E+00  0.10986216633E+04  0.10986216633E+04  0.00000000000E+00 0. -1.
         -4   -1    0    0    0  501 -0.00000000000E+00 -0.00000000000E+00 -0.28158486877E+03  0.28158486877E+03  0.00000000000E+00 0. -1.
        -13    1    1    2    0    0 -0.75036865173E+02  0.27455211020E+02 -0.14178226745E+02  0.81150188076E+02  0.10566000000E+00 0.  1.
         13    1    1    2    0    0  0.16256551929E+03 -0.15226332453E+03  0.10270266024E+04  0.10509021463E+04  0.10566000000E+00 0. -1.
         -4    1    1    2    0  502 -0.87528654122E+02  0.12480811351E+03 -0.19581158112E+03  0.24815419761E+03  0.00000000000E+00 0. -1.
</event>
<event>
 5    1  0.2540860E-005  0.4682068E+03  0.7818608E-02  0.9746511E-01
         21   -1    0    0  501  502  0.00000000000E+00  0.00000000000E+00  0.71527203882E+03  0.71527203882E+03  0.00000000000E+00 0. -1.
         -4   -1    0    0    0  501 -0.00000000000E+00 -0.00000000000E+00 -0.63928834541E+03  0.63928834541E+03  0.00000000000E+00 0. -1.
        -13    1    1    2    0    0  0.21321598659E+03  0.98349056263E+02  0.22113603029E+03  0.32254418125E+03  0.10566000000E+00 0.  1.
         13    1    1    2    0    0 -0.32497948218E+03 -0.42578723731E+03  0.17208979936E+03  0.56260229781E+03  0.10566000000E+00 0. -1.
         -4    1    1    2    0  502  0.11176349559E+03  0.32743818105E+03 -0.31724213624E+03  0.46941390516E+03  0.00000000000E+00 0. -1.
</event>
<event>
 5    1  0.2540860E-005  0.1147614E+03  0.7818608E-02  0.1142206E+00
         21   -1    0    0  501  502  0.00000000000E+00  0.00000000000E+00  0.85670490133E+03  0.85670490133E+03  0.00000000000E+00 0. -1.
          4   -1    0    0  502    0 -0.00000000000E+00 -0.00000000000E+00 -0.51508298471E+02  0.51508298471E+02  0.00000000000E+00 0.  1.
        -13    1    1    2    0    0  0.10194870518E+02  0.11494201050E+03  0.26070473391E+02  0.11830165641E+03  0.10566000000E+00 0.  1.
         13    1    1    2    0    0  0.81635269971E+01 -0.11017646108E+03  0.63440083828E+03  0.64394870178E+03  0.10566000000E+00 0. -1.
          4    1    1    2  501    0 -0.18358397515E+02 -0.47655494251E+01  0.14472529119E+03  0.14596284161E+03  0.00000000000E+00 0.  1.
</event>
<event>
 5    1  0.2540860E-005  0.1031396E+04  0.7818608E-02  0.8745639E-01
          4   -1    0    0  502    0 -0.00000000000E+00  0.00000000000E+00  0.26177348292E+04  0.26177348292E+04  0.00000000000E+00 0.  1.
         21   -1    0    0  501  502  0.00000000000E+00 -0.00000000000E+00 -0.63559754704E+03  0.63559754704E+03  0.00000000000E+00 0. -1.
        -13    1    1    2    0    0 -0.52535776246E+02 -0.10221267957E+04  0.66444002464E+03  0.12202392191E+04  0.10566000000E+00 0.  1.
         13    1    1    2    0    0  0.48712498525E+03  0.96124100080E+03  0.11118407922E+04  0.15483749453E+04  0.10566000000E+00 0. -1.
          4    1    1    2  501    0 -0.43458920900E+03  0.60885794900E+02  0.20585646534E+03  0.48471821187E+03  0.00000000000E+00 0.  1.
</event>
<event>
 5    1  0.2540860E-005  0.4869610E+03  0.7818608E-02  0.9629700E-01
         21   -1    0    0  501  502  0.00000000000E+00  0.00000000000E+00  0.22009824372E+03  0.22009824372E+03  0.00000000000E+00 0. -1.
         -4   -1    0    0    0  501 -0.00000000000E+00 -0.00000000000E+00 -0.21668017189E+04  0.21668017189E+04  0.00000000000E+00 0. -1.
        -13    1    1    2    0    0 -0.31142520518E+03  0.38691315088E+02 -0.69680697592E+03  0.76421374572E+03  0.10566000000E+00 0.  1.
         13    1    1    2    0    0 -0.45617875667E+02 -0.45386192691E+03 -0.76802233235E+03  0.89326925025E+03  0.10566000000E+00 0. -1.
         -4    1    1    2    0  502  0.35704308085E+03  0.41517061182E+03 -0.48187416688E+03  0.72941696663E+03  0.00000000000E+00 0. -1.
</event>
<event>
 5    1  0.2540860E-005  0.4962853E+03  0.7818608E-02  0.9943983E-01
          4   -1    0    0  502    0 -0.00000000000E+00  0.00000000000E+00  0.44301658349E+03  0.44301658349E+03  0.00000000000E+00 0.  1.
         21   -1    0    0  501  502  0.00000000000E+00 -0.00000000000E+00 -0.11145834623E+04  0.11145834623E+04  0.00000000000E+00 0.  1.
        -13    1    1    2    0    0 -0.28727298503E+03 -0.39322933159E+03 -0.54690865935E+03  0.73230059947E+03  0.10566000000E+00 0.  1.
         13    1    1    2    0    0  0.68304131282E+02 -0.74521488324E+02  0.19377329948E+03  0.21855665016E+03  0.10566000000E+00 0. -1.
          4    1    1    2  501    0  0.21896885375E+03  0.46775081991E+03 -0.31843151895E+03  0.60674279617E+03  0.00000000000E+00 0.  1.
</event>
<event>
 5    1  0.2540860E-005  0.4726794E+03  0.7818608E-02  0.9793825E-01
          4   -1    0    0  502    0 -0.00000000000E+00  0.00000000000E+00  0.89419158440E+03  0.89419158440E+03  0.00000000000E+00 0.  1.
         21   -1    0    0  501  502  0.00000000000E+00 -0.00000000000E+00 -0.64401394962E+03  0.64401394962E+03  0.00000000000E+00 0.  1.
        -13    1    1    2    0    0 -0.31849146856E+03 -0.44221424095E+03 -0.31637715814E+03  0.63014662405E+03  0.10566000000E+00 0.  1.
         13    1    1    2    0    0  0.16439539236E+03  0.10296288112E+03  0.49091676421E+03  0.52785081269E+03  0.10566000000E+00 0. -1.
          4    1    1    2  501    0  0.15409607620E+03  0.33925135984E+03  0.75638028711E+02  0.38020809728E+03  0.00000000000E+00 0.  1.
</event>
<event>
 5    1  0.2540860E-005  0.3425102E+03  0.7818608E-02  0.9911589E-01
         -4   -1    0    0    0  501 -0.00000000000E+00  0.00000000000E+00  0.84024376522E+03  0.84024376522E+03  0.00000000000E+00 0. -1.
         21   -1    0    0  501  502  0.00000000000E+00 -0.00000000000E+00 -0.80034591028E+03  0.80034591028E+03  0.00000000000E+00 0. -1.
        -13    1    1    2    0    0 -0.29494838138E+03  0.17446568762E+03  0.39401819993E+03  0.52219074760E+03  0.10566000000E+00 0.  1.
         13    1    1    2    0    0  0.33616939221E+03 -0.93508768820E+02  0.29867992944E+03  0.45930758922E+03  0.10566000000E+00 0. -1.
         -4    1    1    2    0  502 -0.41221010830E+02 -0.80956918804E+02 -0.65280027443E+03  0.65909133868E+03  0.00000000000E+00 0. -1.
</event>
<event>
 5    1  0.2540860E-005  0.4914936E+03  0.7818608E-02  0.9596022E-01
          4   -1    0    0  502    0 -0.00000000000E+00  0.00000000000E+00  0.30375518887E+04  0.30375518887E+04  0.00000000000E+00 0.  1.
         21   -1    0    0  501  502  0.00000000000E+00 -0.00000000000E+00 -0.16263932659E+03  0.16263932659E+03  0.00000000000E+00 0.  1.
        -13    1    1    2    0    0 -0.18473119900E+03  0.57534894757E+03  0.13486324513E+04  0.14778232395E+04  0.10566000000E+00 0.  1.
         13    1    1    2    0    0 -0.17174105406E+03 -0.29800553158E+03  0.59259593698E+03  0.68518044499E+03  0.10566000000E+00 0. -1.
          4    1    1    2  501    0  0.35647225306E+03 -0.27734341598E+03  0.93368417380E+03  0.10371875308E+04  0.00000000000E+00 0.  1.
</event>
<event>
 5    1  0.2540860E-005  0.1298448E+03  0.7818608E-02  0.1123997E+00
         21   -1    0    0  501  502  0.00000000000E+00  0.00000000000E+00  0.49867287354E+02  0.49867287354E+02  0.00000000000E+00 0. -1.
         -4   -1    0    0    0  501 -0.00000000000E+00 -0.00000000000E+00 -0.13053710335E+04  0.13053710335E+04  0.00000000000E+00 0. -1.
        -13    1    1    2    0    0 -0.18690557413E+03  0.92187242663E+01 -0.34807355806E+03  0.39518842531E+03  0.10566000000E+00 0.  1.
         13    1    1    2    0    0  0.92466452572E+02  0.82627024261E+02 -0.72209789329E+03  0.73266817090E+03  0.10566000000E+00 0. -1.
         -4    1    1    2    0  502  0.94439121558E+02 -0.91845748528E+02 -0.18533229476E+03  0.22738172461E+03  0.00000000000E+00 0. -1.
</event>
<event>
 5    1  0.2540860E-005  0.2684558E+03  0.7818608E-02  0.1021249E+00
         -4   -1    0    0    0  501 -0.00000000000E+00  0.00000000000E+00  0.15867141080E+04  0.15867141080E+04  0.00000000000E+00 0. -1.
         21   -1    0    0  501  502  0.00000000000E+00 -0.00000000000E+00 -0.20100741365E+03  0.20100741365E+03  0.00000000000E+00 0.  1.
        -13    1    1    2    0    0 -0.20938018844E+03  0.11305018141E+03  0.19286953253E+03  0.30629899538E+03  0.10566000000E+00 0.  1.
         13    1    1    2    0    0  0.16565961769E+03 -0.22792055608E+03  0.12927043867E+04  0.13230553773E+04  0.10566000000E+00 0. -1.
         -4    1    1    2    0  502  0.43720570748E+02  0.11487037467E+03 -0.99867224853E+02  0.15836714900E+03  0.00000000000E+00 0. -1.
</event>
<event>
 5    1  0.2540860E-005  0.4864672E+03  0.7818608E-02  0.1005254E+00
          4   -1    0    0  502    0 -0.00000000000E+00  0.00000000000E+00  0.21915804766E+04  0.21915804766E+04  0.00000000000E+00 0.  1.
         21   -1    0    0  501  502  0.00000000000E+00 -0.00000000000E+00 -0.13299199679E+03  0.13299199679E+03  0.00000000000E+00 0.  1.
        -13    1    1    2    0    0  0.48221969388E+03  0.63321048699E+01  0.84775677031E+03  0.97532942204E+03  0.10566000000E+00 0.  1.
         13    1    1    2    0    0  0.62853495845E+01  0.74927641713E+02  0.59364270129E+02  0.95800755968E+02  0.10566000000E+00 0. -1.
          4    1    1    2  501    0 -0.48850504347E+03 -0.81259746582E+02  0.11514674394E+04  0.12534422954E+04  0.00000000000E+00 0.  1.
</event>
<event>
 5    1  0.2540860E-005  0.1007517E+03  0.7818608E-02  0.1163318E+00
          4   -1    0    0  502    0 -0.00000000000E+00  0.00000000000E+00  0.25007140687E+03  0.25007140687E+03  0.00000000000E+00 0.  1.
         21   -1    0    0  501  502  0.00000000000E+00 -0.00000000000E+00 -0.12464047264E+03  0.12464047264E+03  0.00000000000E+00 0. -1.
        -13    1    1    2    0    0  0.54410118546E+02  0.87015387852E+02  0.20977231550E+03  0.23353067087E+03  0.10566000000E+00 0.  1.
         13    1    1    2    0    0 -0.36586399460E+02 -0.76717004214E+02 -0.85506864592E+02  0.12056325484E+03  0.10566000000E+00 0. -1.
          4    1    1    2  501    0 -0.17823719086E+02 -0.10298383638E+02  0.11654833327E+01  0.20617953803E+02  0.00000000000E+00 0.  1.
</event>
<event>
 5    1  0.2540860E-005  0.1173956E+03  0.7818608E-02  0.1142305E+00
         21   -1    0    0  501  502  0.00000000000E+00  0.00000000000E+00  0.76876382669E+03  0.76876382669E+03  0.00000000000E+00 0. -1.
         -4   -1    0    0    0  501 -0.00000000000E+00 -0.00000000000E+00 -0.49940432475E+03  0.49940432475E+03  0.00000000000E+00 0. -1.
        -13    1    1    2    0    0 -0.82270001349E+01  0.12154491619E+03 -0.13478939880E+03  0.18168391062E+03  0.10566000000E+00 0.  1.
         13    1    1    2    0    0 -0.96873478517E+02 -0.69241844701E+02 -0.32594383576E+03  0.34701339907E+03  0.10566000000E+00 0. -1.
         -4    1    1    2    0  502  0.10510047865E+03 -0.52303071490E+02  0.73009273650E+03  0.73947084175E+03  0.00000000000E+00 0. -1.
</event>
<event>
 5    1  0.2540860E-005  0.2012921E+03  0.7818608E-02  0.1059254E+00
         21   -1    0    0  501  502  0.00000000000E+00  0.00000000000E+00  0.87364826624E+03  0.87364826624E+03  0.00000000000E+00 0. -1.
         -4   -1    0    0    0  501 -0.00000000000E+00 -0.00000000000E+00 -0.15479538248E+03  0.15479538248E+03  0.00000000000E+00 0. -1.
        -13    1    1    2    0    0  0.12982774499E+03 -0.64426530597E+02  0.25209602466E+03  0.29078933616E+03  0.10566000000E+00 0.  1.
         13    1    1    2    0    0 -0.22038411724E+03  0.33756830340E+02 -0.36039445632E+02  0.22584847914E+03  0.10566000000E+00 0. -1.
         -4    1    1    2    0  502  0.90556372249E+02  0.30669700257E+02  0.50279630474E+03  0.51180583342E+03  0.00000000000E+00 0. -1.
</event>
<event>
 5    1  0.2540860E-005  0.4992299E+03  0.7818608E-02  0.9815970E-01
          4   -1    0    0  502    0 -0.00000000000E+00  0.00000000000E+00  0.14649101177E+04  0.14649101177E+04  0.00000000000E+00 0.  1.
         21   -1    0    0  501  502  0.00000000000E+00 -0.00000000000E+00 -0.23541030850E+03  0.23541030850E+03  0.00000000000E+00 0.  1.
        -13    1    1    2    0    0 -0.30319046097E+03  0.39152996922E+03  0.55459224125E+03  0.74350032794E+03  0.10566000000E+00 0.  1.
         13    1    1    2    0    0  0.12380389330E+03  0.89331613348E+02  0.23825026564E+03  0.28296773911E+03  0.10566000000E+00 0. -1.
          4    1    1    2  501    0  0.17938656767E+03 -0.48086158257E+03  0.43665730229E+03  0.67385235912E+03  0.00000000000E+00 0.  1.
</event>
<event>
 5    1  0.2540860E-005  0.1440141E+03  0.7818608E-02  0.1122944E+00
          4   -1    0    0  502    0 -0.00000000000E+00  0.00000000000E+00  0.12966809255E+03  0.12966809255E+03  0.00000000000E+00 0.  1.
         21   -1    0    0  501  502  0.00000000000E+00 -0.00000000000E+00 -0.36217700012E+03  0.36217700012E+03  0.00000000000E+00 0.  1.
        -13    1    1    2    0    0 -0.53128430174E+02  0.15156378415E+03 -0.17795371571E+03  0.23971179958E+03  0.10566000000E+00 0.  1.
         13    1    1    2    0    0 -0.45944392065E+02 -0.83171134679E+02 -0.85511476139E+02  0.12783015498E+03  0.10566000000E+00 0. -1.
          4    1    1    2  501    0  0.99072822239E+02 -0.68392649467E+02  0.30956284283E+02  0.12430313811E+03  0.00000000000E+00 0.  1.
</event>
<event>
 5    1  0.2540860E-005  0.1044615E+03  0.7818608E-02  0.1157378E+00
         21   -1    0    0  501  502  0.00000000000E+00  0.00000000000E+00  0.46314760686E+02  0.46314760686E+02  0.00000000000E+00 0. -1.
         -4   -1    0    0    0  501 -0.00000000000E+00 -0.00000000000E+00 -0.56908219639E+03  0.56908219639E+03  0.00000000000E+00 0. -1.
        -13    1    1    2    0    0  0.18116850975E+02  0.92903707894E+02 -0.23301021650E+03  0.25150167273E+03  0.10566000000E+00 0.  1.
         13    1    1    2    0    0  0.58798368548E+01 -0.11767858479E+03 -0.30441258685E+03  0.32641975430E+03  0.10566000000E+00 0. -1.
         -4    1    1    2    0  502 -0.23996687830E+02  0.24774876891E+02  0.14655367643E+02  0.37475530050E+02  0.00000000000E+00 0. -1.
</event>
<event>
 5    1  0.2540860E-005  0.2122436E+03  0.7818608E-02  0.1052052E+00
         -4   -1    0    0    0  501 -0.00000000000E+00  0.00000000000E+00  0.79010205875E+03  0.79010205875E+03  0.00000000000E+00 0. -1.
         21   -1    0    0  501  502  0.00000000000E+00 -0.00000000000E+00 -0.62279954271E+03  0.62279954271E+03  0.00000000000E+00 0. -1.
        -13    1    1    2    0    0  0.18877234016E+03  0.96627277879E+02  0.33012550027E+03  0.39237059565E+03  0.10566000000E+00 0.  1.
         13    1    1    2    0    0 -0.25780788018E+03  0.36552789692E+02 -0.54824915017E+03  0.60694163751E+03  0.10566000000E+00 0. -1.
         -4    1    1    2    0  502  0.69035540018E+02 -0.13318006757E+03  0.38542616594E+03  0.41358936830E+03  0.00000000000E+00 0. -1.
</event>
<event>
 5    1  0.2540860E-005  0.1014803E+03  0.7818608E-02  0.1162129E+00
         21   -1    0    0  501  502  0.00000000000E+00  0.00000000000E+00  0.33509738777E+02  0.33509738777E+02  0.00000000000E+00 0. -1.
          4   -1    0    0  502    0 -0.00000000000E+00 -0.00000000000E+00 -0.68645895823E+03  0.68645895823E+03  0.00000000000E+00 0.  1.
        -13    1    1    2    0    0  0.62268492031E+02 -0.83061720292E+02 -0.57476230425E+03  0.58406192482E+03  0.10566000000E+00 0.  1.
         13    1    1    2    0    0 -0.45161011157E+02  0.76462796254E+02 -0.48964706442E+02  0.10140823330E+03  0.10566000000E+00 0. -1.
          4    1    1    2  501    0 -0.17107480873E+02  0.65989240381E+01 -0.29222208761E+02  0.34498538884E+02  0.00000000000E+00 0.  1.
</event>
<event>
 5    1  0.2540860E-005  0.5064302E+03  0.7818608E-02  0.9463989E-01
         21   -1    0    0  501  502  0.00000000000E+00  0.00000000000E+00  0.61609581400E+03  0.61609581400E+03  0.00000000000E+00 0. -1.
         -4   -1    0    0    0  501 -0.00000000000E+00 -0.00000000000E+00 -0.10977867233E+04  0.10977867233E+04  0.00000000000E+00 0. -1.
        -13    1    1    2    0    0 -0.32061545082E+03  0.29456930643E+03 -0.43694530100E+03  0.61683591888E+03  0.10566000000E+00 0.  1.
         13    1    1    2    0    0  0.59473464886E+03 -0.43364473028E+03 -0.18537004257E+03  0.75902511058E+03  0.10566000000E+00 0. -1.
         -4    1    1    2    0  502 -0.27411919804E+03  0.13907542385E+03  0.14062443426E+03  0.33802150784E+03  0.00000000000E+00 0. -1.
</event>
<event>
 5    1  0.2540860E-005  0.2962189E+03  0.7818608E-02  0.1008879E+00
          4   -1    0    0  502    0 -0.00000000000E+00  0.00000000000E+00  0.20403443600E+04  0.20403443600E+04  0.00000000000E+00 0.  1.
         21   -1    0    0  501  502  0.00000000000E+00 -0.00000000000E+00 -0.15073512879E+03  0.15073512879E+03  0.00000000000E+00 0.  1.
        -13    1    1    2    0    0  0.32982941709E+03 -0.26452810126E+02  0.12103281917E+04  0.12547436146E+04  0.10566000000E+00 0.  1.
         13    1    1    2    0    0 -0.26237945025E+03 -0.37278823934E+02  0.76524857208E+03  0.80983830168E+03  0.10566000000E+00 0. -1.
          4    1    1    2  501    0 -0.67449966843E+02  0.63731634060E+02 -0.85967532552E+02  0.12649757255E+03  0.00000000000E+00 0.  1.
</event>
<event>
 5    1  0.2540860E-005  0.1560787E+03  0.7818608E-02  0.1095267E+00
         21   -1    0    0  501  502  0.00000000000E+00  0.00000000000E+00  0.49596395398E+02  0.49596395398E+02  0.00000000000E+00 0.  1.
         -4   -1    0    0    0  501 -0.00000000000E+00 -0.00000000000E+00 -0.82549541798E+03  0.82549541798E+03  0.00000000000E+00 0. -1.
        -13    1    1    2    0    0  0.74577677976E+02  0.14186196925E+03 -0.33933498029E+03  0.37527974684E+03  0.10566000000E+00 0.  1.
         13    1    1    2    0    0 -0.92383888285E+02 -0.12310073701E+03 -0.44636238860E+03  0.47215248319E+03  0.10566000000E+00 0. -1.
         -4    1    1    2    0  502  0.17806210309E+02 -0.18761232238E+02  0.97983463090E+01  0.27659583349E+02  0.00000000000E+00 0. -1.
</event>
<event>
 5    1  0.2540860E-005  0.4882174E+02  0.7818608E-02  0.1355350E+00
         -4   -1    0    0    0  501 -0.00000000000E+00  0.00000000000E+00  0.72613744988E+02  0.72613744988E+02  0.00000000000E+00 0. -1.
         21   -1    0    0  501  502  0.00000000000E+00 -0.00000000000E+00 -0.69748418508E+02  0.69748418508E+02  0.00000000000E+00 0. -1.
        -13    1    1    2    0    0 -0.13292856631E+02  0.94968724045E+01  0.31404058474E+02  0.35399388068E+02  0.10566000000E+00 0.  1.
         13    1    1    2    0    0 -0.18129346627E+02 -0.46526014738E+02 -0.30225530833E+02  0.58368974076E+02  0.10566000000E+00 0. -1.
         -4    1    1    2    0  502  0.31422203258E+02  0.37029142333E+02  0.16867988382E+01  0.48593801352E+02  0.00000000000E+00 0. -1.
</event>
<event>
 5    1  0.2540860E-005  0.4818550E+03  0.7818608E-02  0.9518654E-01
          4   -1    0    0  502    0 -0.00000000000E+00  0.00000000000E+00  0.17784753991E+04  0.17784753991E+04  0.00000000000E+00 0.  1.
         21   -1    0    0  501  502  0.00000000000E+00 -0.00000000000E+00 -0.32562157208E+03  0.32562157208E+03  0.00000000000E+00 0.  1.
        -13    1    1    2    0    0 -0.35801297117E+03 -0.60959872658E+03  0.70725315288E+03  0.99999546419E+03  0.10566000000E+00 0.  1.
         13    1    1    2    0    0  0.16340800379E+03  0.36375304243E+03  0.67298289212E+03  0.78225599124E+03  0.10566000000E+00 0. -1.
          4    1    1    2  501    0  0.19460496738E+03  0.24584568415E+03  0.72617782035E+02  0.32184551576E+03  0.00000000000E+00 0.  1.
</event>
<event>
 5    1  0.2540860E-005  0.2415117E+03  0.7818608E-02  0.1034888E+00
         21   -1    0    0  501  502  0.00000000000E+00  0.00000000000E+00  0.15005909289E+03  0.15005909289E+03  0.00000000000E+00 0.  1.
         -4   -1    0    0    0  501 -0.00000000000E+00 -0.00000000000E+00 -0.50637861348E+03  0.50637861348E+03  0.00000000000E+00 0. -1.
        -13    1    1    2    0    0 -0.22559393774E+03  0.13011869382E+03 -0.23886306829E+03  0.35338233655E+03  0.10566000000E+00 0.  1.
         13    1    1    2    0    0  0.19358078057E+03 -0.10682444041E+03 -0.13574416008E+03  0.25944453711E+03  0.10566000000E+00 0. -1.
         -4    1    1    2    0  502  0.32013157171E+02 -0.23294253408E+02  0.18287707786E+02  0.43610832713E+02  0.00000000000E+00 0. -1.
</event>
<event>
 5    1  0.2540860E-005  0.4707863E+03  0.7818608E-02  0.9908351E-01
         -4   -1    0    0    0  501 -0.00000000000E+00  0.00000000000E+00  0.28644413695E+04  0.28644413695E+04  0.00000000000E+00 0. -1.
         21   -1    0    0  501  502  0.00000000000E+00 -0.00000000000E+00 -0.12307852474E+03  0.12307852474E+03  0.00000000000E+00 0. -1.
        -13    1    1    2    0    0  0.33866890539E+02  0.12895392514E+03  0.12410863782E+03  0.18215116313E+03  0.10566000000E+00 0.  1.
         13    1    1    2    0    0  0.21358480809E+03 -0.49359110747E+03  0.17765142032E+04  0.18561393743E+04  0.10566000000E+00 0. -1.
         -4    1    1    2    0  502 -0.24745169863E+03  0.36463718233E+03  0.84074000378E+03  0.94922935682E+03  0.00000000000E+00 0. -1.
</event>
<event>
 5    1  0.2540860E-005  0.4977438E+03  0.7818608E-02  0.9564467E-01
         21   -1    0    0  501  502  0.00000000000E+00  0.00000000000E+00  0.25794963575E+03  0.25794963575E+03  0.00000000000E+00 0.  1.
         -4   -1    0    0    0  501 -0.00000000000E+00 -0.00000000000E+00 -0.23342405398E+04  0.23342405398E+04  0.00000000000E+00 0. -1.
        -13    1    1    2    0    0 -0.23843112127E+03 -0.28380810184E+03 -0.16900933010E+03  0.40738262492E+03  0.10566000000E+00 0.  1.
         13    1    1    2    0    0 -0.36699646258E+03  0.19076686842E+03 -0.10717992296E+04  0.11488394150E+04  0.10566000000E+00 0. -1.
         -4    1    1    2    0  502  0.60542758385E+03  0.93041233418E+02 -0.83548234438E+03  0.10359681357E+04  0.00000000000E+00 0. -1.
</event>
<event>
 5    1  0.2540860E-005  0.1522222E+03  0.7818608E-02  0.1098941E+00
          4   -1    0    0  502    0 -0.00000000000E+00  0.00000000000E+00  0.35386715072E+03  0.35386715072E+03  0.00000000000E+00 0.  1.
         21   -1    0    0  501  502  0.00000000000E+00 -0.00000000000E+00 -0.23525189720E+03  0.23525189720E+03  0.00000000000E+00 0.  1.
        -13    1    1    2    0    0 -0.72305639830E+02  0.14399653863E+03  0.14919055104E+03  0.21959266921E+03  0.10566000000E+00 0.  1.
         13    1    1    2    0    0 -0.28077914529E+02 -0.15695876046E+03  0.11187140820E+03  0.19478101782E+03  0.10566000000E+00 0. -1.
          4    1    1    2  501    0  0.10038355436E+03  0.12962221825E+02 -0.14244670571E+03  0.17474536088E+03  0.00000000000E+00 0.  1.
</event>
<event>
 5    1  0.2540860E-005  0.1284579E+03  0.7818608E-02  0.1124538E+00
         21   -1    0    0  501  502  0.00000000000E+00  0.00000000000E+00  0.17438784583E+03  0.17438784583E+03  0.00000000000E+00 0.  1.
         -4   -1    0    0    0  501 -0.00000000000E+00 -0.00000000000E+00 -0.13082258568E+03  0.13082258568E+03  0.00000000000E+00 0. -1.
        -13    1    1    2    0    0 -0.11463737730E+03  0.20747990874E+02  0.18362772770E+02  0.11793816171E+03  0.10566000000E+00 0.  1.
         13    1    1    2    0    0  0.14013187962E+03 -0.72636810049E+01 -0.11273053328E+02  0.14077214797E+03  0.10566000000E+00 0. -1.
         -4    1    1    2    0  502 -0.25494502328E+02 -0.13484309869E+02  0.36475540705E+02  0.46500121842E+02  0.00000000000E+00 0. -1.
</event>
<event>
 5    1  0.2540860E-005  0.4772346E+03  0.7818608E-02  0.9784328E-01
          4   -1    0    0  502    0 -0.00000000000E+00  0.00000000000E+00  0.36396612372E+03  0.36396612372E+03  0.00000000000E+00 0.  1.
         21   -1    0    0  501  502  0.00000000000E+00 -0.00000000000E+00 -0.10057990262E+04  0.10057990262E+04  0.00000000000E+00 0.  1.
        -13    1    1    2    0    0  0.67014257213E+02  0.54223620618E+03 -0.17301160809E+03  0.57310037660E+03  0.10566000000E+00 0.  1.
         13    1    1    2    0    0  0.13444841039E+03 -0.14082544471E+03 -0.13101976281E+03  0.23467929254E+03  0.10566000000E+00 0. -1.
          4    1    1    2  501    0 -0.20146266761E+03 -0.40141076147E+03 -0.33780153154E+03  0.56198548075E+03  0.00000000000E+00 0.  1.
</event>
<event>
 5    1  0.2540860E-005  0.4851386E+03  0.7818608E-02  0.9711826E-01
         -4   -1    0    0    0  501 -0.00000000000E+00  0.00000000000E+00  0.32435264671E+04  0.32435264671E+04  0.00000000000E+00 0. -1.
         21   -1    0    0  501  502  0.00000000000E+00 -0.00000000000E+00 -0.12736462719E+03  0.12736462719E+03  0.00000000000E+00 0. -1.
        -13    1    1    2    0    0 -0.21458439799E+03  0.10295071104E+03  0.94241493553E+03  0.97200372151E+03  0.10566000000E+00 0.  1.
         13    1    1    2    0    0 -0.24588868457E+03 -0.39417474411E+03  0.88023377881E+03  0.99531225784E+03  0.10566000000E+00 0. -1.
         -4    1    1    2    0  502  0.46047308257E+03  0.29122403307E+03  0.12935131256E+04  0.14035751149E+04  0.00000000000E+00 0. -1.
</event>
<event>
 5    1  0.2540860E-005  0.2162623E+03  0.7818608E-02  0.1049525E+00
         21   -1    0    0  501  502  0.00000000000E+00  0.00000000000E+00  0.37975598974E+02  0.37975598974E+02  0.00000000000E+00 0. -1.
          4   -1    0    0  502    0 -0.00000000000E+00 -0.00000000000E+00 -0.15651995493E+04  0.15651995493E+04  0.00000000000E+00 0.  1.
        -13    1    1    2    0    0  0.20428560543E+03  0.85385525737E+02 -0.60213659576E+03  0.64155419702E+03  0.10566000000E+00 0.  1.
         13    1    1    2    0    0 -0.18200243746E+03 -0.11041612079E+03 -0.63785118563E+03  0.67243643056E+03  0.10566000000E+00 0. -1.
          4    1    1    2  501    0 -0.22283167972E+02  0.25030595058E+02 -0.28723616893E+03  0.28918452069E+03  0.00000000000E+00 0.  1.
</event>
<event>
 5    1  0.2540860E-005  0.1870054E+03  0.7818608E-02  0.1069429E+00
         21   -1    0    0  501  502  0.00000000000E+00  0.00000000000E+00  0.93743883564E+03  0.93743883564E+03  0.00000000000E+00 0.  1.
          4   -1    0    0  502    0 -0.00000000000E+00 -0.00000000000E+00 -0.81981325572E+02  0.81981325572E+02  0.00000000000E+00 0.  1.
        -13    1    1    2    0    0  0.19002469399E+03  0.22609298887E+02  0.12851640712E+03  0.23051473442E+03  0.10566000000E+00 0.  1.
         13    1    1    2    0    0 -0.17527684942E+03 -0.47714571529E+02  0.23951050047E+03  0.30060596348E+03  0.10566000000E+00 0. -1.
          4    1    1    2  501    0 -0.14747844571E+02  0.25105272642E+02  0.48743060247E+03  0.48829946330E+03  0.00000000000E+00 0.  1.
</event>
<event>
 5    1  0.2540860E-005  0.3199645E+03  0.7818608E-02  0.9993889E-01
         21   -1    0    0  501  502  0.00000000000E+00  0.00000000000E+00  0.44447725389E+02  0.44447725389E+02  0.00000000000E+00 0. -1.
          4   -1    0    0  502    0 -0.00000000000E+00 -0.00000000000E+00 -0.30399435982E+04  0.30399435982E+04  0.00000000000E+00 0.  1.
        -13    1    1    2    0    0 -0.17819429115E+03 -0.26453254980E+03 -0.19241685070E+04  0.19504243461E+04  0.10566000000E+00 0.  1.
         13    1    1    2    0    0  0.18972481133E+03  0.26008158153E+03 -0.10740943178E+04  0.11213012743E+04  0.10566000000E+00 0. -1.
          4    1    1    2  501    0 -0.11530520180E+02  0.44509682686E+01  0.27669519860E+01  0.12665703196E+02  0.00000000000E+00 0.  1.
</event>
<event>
 5    1  0.2540860E-005  0.5306068E+03  0.7818608E-02  0.9413298E-01
         -4   -1    0    0    0  501 -0.00000000000E+00  0.00000000000E+00  0.26445858778E+04  0.26445858778E+04  0.00000000000E+00 0. -1.
         21   -1    0    0  501  502  0.00000000000E+00 -0.00000000000E+00 -0.37449993654E+03  0.37449993654E+03  0.00000000000E+00 0. -1.
        -13    1    1    2    0    0 -0.40695439174E+03 -0.38469761230E+03  0.14501072496E+04  0.15544822857E+04  0.10566000000E+00 0.  1.
         13    1    1    2    0    0  0.54658553629E+03 -0.58442974678E+02  0.32979101666E+02  0.55068953329E+03  0.10566000000E+00 0. -1.
         -4    1    1    2    0  502 -0.13963114455E+03  0.44314058698E+03  0.78699958999E+03  0.91391399541E+03  0.00000000000E+00 0. -1.
</event>
<event>
 5    1  0.2540860E-005  0.4890815E+03  0.7818608E-02  0.9606373E-01
         21   -1    0    0  501  502  0.00000000000E+00  0.00000000000E+00  0.13379250723E+04  0.13379250723E+04  0.00000000000E+00 0.  1.
          4   -1    0    0  502    0 -0.00000000000E+00 -0.00000000000E+00 -0.76074255929E+03  0.76074255929E+03  0.00000000000E+00 0.  1.
        -13    1    1    2    0    0  0.59817603780E+03  0.74543741474E+02  0.76588017944E+03  0.97465060509E+03  0.10566000000E+00 0.  1.
         13    1    1    2    0    0 -0.22280250266E+03 -0.25210470189E+03 -0.50166052886E+03  0.60403727806E+03  0.10566000000E+00 0. -1.
          4    1    1    2  501    0 -0.37537353513E+03  0.17756096041E+03  0.31296286248E+03  0.51997974848E+03  0.00000000000E+00 0.  1.
</event>
<event>
 5    1  0.2540860E-005  0.1145323E+04  0.7818608E-02  0.8648914E-01
         -4   -1    0    0    0  501 -0.00000000000E+00  0.00000000000E+00  0.34743885215E+04  0.34743885215E+04  0.00000000000E+00 0. -1.
         21   -1    0    0  501  502  0.00000000000E+00 -0.00000000000E+00 -0.52424544050E+03  0.52424544050E+03  0.00000000000E+00 0.  1.
        -13    1    1    2    0    0  0.11670064093E+04  0.75509987775E+02  0.13129297885E+04  0.17582350122E+04  0.10566000000E+00 0.  1.
         13    1    1    2    0    0 -0.11178485971E+04  0.25593886847E+03  0.14743747571E+04  0.18678520086E+04  0.10566000000E+00 0. -1.
         -4    1    1    2    0  502 -0.49157812185E+02 -0.33144885625E+03  0.16283853551E+03  0.37254694128E+03  0.00000000000E+00 0. -1.
</event>
<event>
 5    1  0.2540860E-005  0.4989700E+03  0.7818608E-02  0.9627420E-01
          4   -1    0    0  502    0 -0.00000000000E+00  0.00000000000E+00  0.21684062889E+04  0.21684062889E+04  0.00000000000E+00 0.  1.
         21   -1    0    0  501  502  0.00000000000E+00 -0.00000000000E+00 -0.22364296898E+03  0.22364296898E+03  0.00000000000E+00 0. -1.
        -13    1    1    2    0    0  0.46763677018E+03  0.47164308368E+03  0.65925569288E+03  0.93581484652E+03  0.10566000000E+00 0.  1.
         13    1    1    2    0    0 -0.22791525154E+03 -0.18581542335E+03  0.73090968653E+03  0.78784625052E+03  0.10566000000E+00 0. -1.
          4    1    1    2  501    0 -0.23972151864E+03 -0.28582766034E+03  0.55459794047E+03  0.66838816079E+03  0.00000000000E+00 0.  1.
</event>
<event>
 5    1  0.2540860E-005  0.3191624E+03  0.7818608E-02  0.9996949E-01
         21   -1    0    0  501  502  0.00000000000E+00  0.00000000000E+00  0.74698621052E+03  0.74698621052E+03  0.00000000000E+00 0. -1.
          4   -1    0    0  502    0 -0.00000000000E+00 -0.00000000000E+00 -0.37207967155E+03  0.37207967155E+03  0.00000000000E+00 0.  1.
        -13    1    1    2    0    0 -0.14554642314E+03  0.28187628373E+03 -0.23892174161E+03  0.39714180137E+03  0.10566000000E+00 0.  1.
         13    1    1    2    0    0  0.14376303435E+03 -0.29903389322E+03  0.46024523609E+03  0.56737533242E+03  0.10566000000E+00 0. -1.
          4    1    1    2  501    0  0.17833887899E+01  0.17157609489E+02  0.15358304449E+03  0.15454874828E+03  0.00000000000E+00 0.  1.
</event>
<event>
 5    1  0.2540860E-005  0.3515046E+03  0.7818608E-02  0.9946572E-01
          4   -1    0    0  502    0 -0.00000000000E+00  0.00000000000E+00  0.21697020407E+04  0.21697020407E+04  0.00000000000E+00 0.  1.
         21   -1    0    0  501  502  0.00000000000E+00 -0.00000000000E+00 -0.29977277820E+03  0.29977277820E+03  0.00000000000E+00 0.  1.
        -13    1    1    2    0    0  0.29078297034E+03  0.83697618045E+02  0.11924944885E+04  0.12302857974E+04  0.10566000000E+00 0.  1.
         13    1    1    2    0    0 -0.42110407487E+03  0.28640942321E+03  0.67655244730E+03  0.84680707643E+03  0.10566000000E+00 0. -1.
          4    1    1    2  501    0  0.13032110453E+03 -0.37010704125E+03  0.88232667277E+00  0.39238194501E+03  0.00000000000E+00 0.  1.
</event>
<event>
 5    1  0.2540860E-005  0.3864670E+03  0.7818608E-02  0.9898749E-01
          4   -1    0    0  502    0 -0.00000000000E+00  0.00000000000E+00  0.16622690473E+04  0.16622690473E+04  0.00000000000E+00 0.  1.
         21   -1    0    0  501  502  0.00000000000E+00 -0.00000000000E+00 -0.24765555061E+03  0.24765555061E+03  0.00000000000E+00 0.  1.
        -13    1    1    2    0    0  0.21330755151E+03 -0.45615175437E+03  0.98465079750E+03  0.11059438226E+04  0.10566000000E+00 0.  1.
         13    1    1    2    0    0  0.83626376192E+02  0.23441134140E+03  0.34220667777E+03  0.42314001140E+03  0.10566000000E+00 0. -1.
          4    1    1    2  501    0 -0.29693392771E+03  0.22174041297E+03  0.87756021430E+02  0.38084076392E+03  0.00000000000E+00 0.  1.
</event>
<event>
 5    1  0.2540860E-005  0.1738108E+03  0.7818608E-02  0.1079741E+00
         -4   -1    0    0    0  501 -0.00000000000E+00  0.00000000000E+00  0.91812590339E+03  0.91812590339E+03  0.00000000000E+00 0. -1.
         21   -1    0    0  501  502  0.00000000000E+00 -0.00000000000E+00 -0.58246171324E+02  0.58246171324E+02  0.00000000000E+00 0. -1.
        -13    1    1    2    0    0 -0.12839781024E+03  0.30894284114E+02  0.16257415438E+03  0.20945362566E+03  0.10566000000E+00 0.  1.
         13    1    1    2    0    0  0.19660172450E+03 -0.39101084997E+02  0.65781966033E+03  0.68768295719E+03  0.10566000000E+00 0. -1.
         -4    1    1    2    0  502 -0.68203914267E+02  0.82068008835E+01  0.39485917351E+02  0.79235491865E+02  0.00000000000E+00 0. -1.
</event>
<event>
 5    1  0.2540860E-005  0.3962048E+03  0.7818608E-02  0.9813073E-01
         21   -1    0    0  501  502  0.00000000000E+00  0.00000000000E+00  0.13669889624E+04  0.13669889624E+04  0.00000000000E+00 0. -1.
         -4   -1    0    0    0  501 -0.00000000000E+00 -0.00000000000E+00 -0.46413551946E+03  0.46413551946E+03  0.00000000000E+00 0. -1.
        -13    1    1    2    0    0  0.10894489029E+03  0.28855993643E+03  0.69564136689E+02  0.31618824506E+03  0.10566000000E+00 0.  1.
         13    1    1    2    0    0 -0.48780089706E+03 -0.19511711714E+03 -0.70901983731E+02  0.53013913931E+03  0.10566000000E+00 0. -1.
         -4    1    1    2    0  502  0.37885600677E+03 -0.93442819296E+02  0.90419129001E+03  0.98479709751E+03  0.00000000000E+00 0. -1.
</event>
<event>
 5    1  0.2540860E-005  0.3408420E+03  0.7818608E-02  0.1010126E+00
         21   -1    0    0  501  502  0.00000000000E+00  0.00000000000E+00  0.42297844495E+03  0.42297844495E+03  0.00000000000E+00 0. -1.
         -4   -1    0    0    0  501 -0.00000000000E+00 -0.00000000000E+00 -0.98057409031E+03  0.98057409031E+03  0.00000000000E+00 0. -1.
        -13    1    1    2    0    0  0.18105934359E+03  0.45931421221E+02  0.71319044936E+02  0.19994648957E+03  0.10566000000E+00 0.  1.
         13    1    1    2    0    0 -0.16933341740E+03  0.30073011940E+03 -0.75850230392E+03  0.83332956697E+03  0.10566000000E+00 0. -1.
         -4    1    1    2    0  502 -0.11725926190E+02 -0.34666154062E+03  0.12958761362E+03  0.37027647872E+03  0.00000000000E+00 0. -1.
</event>
<event>
 5    1  0.2540860E-005  0.7195929E+03  0.7818608E-02  0.9449551E-01
         -4   -1    0    0    0  501 -0.00000000000E+00  0.00000000000E+00  0.23583380760E+04  0.23583380760E+04  0.00000000000E+00 0. -1.
         21   -1    0    0  501  502  0.00000000000E+00 -0.00000000000E+00 -0.53872025155E+03  0.53872025155E+03  0.00000000000E+00 0. -1.
        -13    1    1    2    0    0 -0.84903389563E+02 -0.16563224746E+03 -0.16531709633E+03  0.24894252441E+03  0.10566000000E+00 0.  1.
         13    1    1    2    0    0 -0.31760414670E+02  0.84239840176E+03  0.17135591649E+04  0.19096933822E+04  0.10566000000E+00 0. -1.
         -4    1    1    2    0  502  0.11666380423E+03 -0.67676615430E+03  0.27137575583E+03  0.73842242089E+03  0.00000000000E+00 0. -1.
</event>
<event>
 5    1  0.2540860E-005  0.4133291E+03  0.7818608E-02  0.9699506E-01
          4   -1    0    0  502    0 -0.00000000000E+00  0.00000000000E+00  0.16028426760E+04  0.16028426760E+04  0.00000000000E+00 0.  1.
         21   -1    0    0  501  502  0.00000000000E+00 -0.00000000000E+00 -0.11990236493E+04  0.11990236493E+04  0.00000000000E+00 0.  1.
        -13    1    1    2    0    0  0.21167079522E+03  0.31157425704E+03 -0.61612492953E+03  0.72214471067E+03  0.10566000000E+00 0.  1.
         13    1    1    2    0    0 -0.27821968479E+03  0.31365567185E+03  0.13185878721E+04  0.13836401487E+04  0.10566000000E+00 0. -1.
          4    1    1    2  501    0  0.66548889565E+02 -0.62522992889E+03 -0.29864391588E+03  0.69608146590E+03  0.00000000000E+00 0.  1.
</event>
<event>
 5    1  0.2540860E-005  0.4971339E+03  0.7818608E-02  0.9702914E-01
         -4   -1    0    0    0  501 -0.00000000000E+00  0.00000000000E+00  0.33585440216E+04  0.33585440216E+04  0.00000000000E+00 0. -1.
         21   -1    0    0  501  502  0.00000000000E+00 -0.00000000000E+00 -0.11871286776E+03  0.11871286776E+03  0.00000000000E+00 0. -1.
        -13    1    1    2    0    0  0.19089324983E+03 -0.12494648118E+03  0.47790960971E+03  0.52957479378E+03  0.10566000000E+00 0.  1.
         13    1    1    2    0    0 -0.57163018481E+03  0.13975736769E+03  0.11558050109E+04  0.12969882129E+04  0.10566000000E+00 0. -1.
         -4    1    1    2    0  502  0.38073693498E+03 -0.14810886507E+02  0.16061165333E+04  0.16506938827E+04  0.00000000000E+00 0. -1.
</event>
<event>
 5    1  0.2540860E-005  0.2330510E+03  0.7818608E-02  0.1039571E+00
          4   -1    0    0  502    0 -0.00000000000E+00  0.00000000000E+00  0.11223323601E+04  0.11223323601E+04  0.00000000000E+00 0.  1.
         21   -1    0    0  501  502  0.00000000000E+00 -0.00000000000E+00 -0.83375189734E+03  0.83375189734E+03  0.00000000000E+00 0.  1.
        -13    1    1    2    0    0  0.47045623780E+02  0.23017061147E+03  0.98658718251E+03  0.10141726091E+04  0.10566000000E+00 0.  1.
         13    1    1    2    0    0 -0.78647133013E+02 -0.20738399060E+03  0.20140270574E+02  0.22270862748E+03  0.10566000000E+00 0. -1.
          4    1    1    2  501    0  0.31601509233E+02 -0.22786620871E+02 -0.71814699036E+03  0.71920302088E+03  0.00000000000E+00 0.  1.
</event>
<event>
 5    1  0.2540860E-005  0.1292542E+03  0.7818608E-02  0.1123586E+00
         21   -1    0    0  501  502  0.00000000000E+00  0.00000000000E+00  0.10852667354E+03  0.10852667354E+03  0.00000000000E+00 0.  1.
          4   -1    0    0  502    0 -0.00000000000E+00 -0.00000000000E+00 -0.23738130347E+03  0.23738130347E+03  0.00000000000E+00 0.  1.
        -13    1    1    2    0    0 -0.10644551756E+03 -0.83045862106E+02 -0.90346518662E+02  0.16244927830E+03  0.10566000000E+00 0.  1.
         13    1    1    2    0    0  0.11380855858E+03  0.51843830652E+02 -0.65837232960E+02  0.14133196097E+03  0.10566000000E+00 0. -1.
          4    1    1    2  501    0 -0.73630410179E+01  0.31202031455E+02  0.27329121693E+02  0.42126737738E+02  0.00000000000E+00 0.  1.
</event>
<event>
 5    1  0.2540860E-005  0.1880525E+03  0.7818608E-02  0.1079343E+00
         -4   -1    0    0    0  501 -0.00000000000E+00  0.00000000000E+00  0.52004774501E+03  0.52004774501E+03  0.00000000000E+00 0. -1.
         21   -1    0    0  501  502  0.00000000000E+00 -0.00000000000E+00 -0.80222926803E+03  0.80222926803E+03  0.00000000000E+00 0. -1.
        -13    1    1    2    0    0  0.21425327665E+03  0.44871043386E+02  0.83609228843E+02  0.23432539641E+03  0.10566000000E+00 0.  1.
         13    1    1    2    0    0 -0.57394536869E+02  0.15186740645E+03 -0.67216713852E+03  0.69149585341E+03  0.10566000000E+00 0. -1.
         -4    1    1    2    0  502 -0.15685873979E+03 -0.19673844984E+03  0.30637638666E+03  0.39645576322E+03  0.00000000000E+00 0. -1.
</event>
<event>
 5    1  0.2540860E-005  0.4519542E+03  0.7818608E-02  0.9626176E-01
         21   -1    0    0  501  502  0.00000000000E+00  0.00000000000E+00  0.12012386409E+03  0.12012386409E+03  0.00000000000E+00 0.  1.
          4   -1    0    0  502    0 -0.00000000000E+00 -0.00000000000E+00 -0.45811064134E+04  0.45811064134E+04  0.00000000000E+00 0.  1.
        -13    1    1    2    0    0  0.38648520672E+02 -0.50193925793E+03 -0.25272119732E+04  0.25768657504E+04  0.10566000000E+00 0.  1.
         13    1    1    2    0    0  0.33931490433E+03  0.20697371871E+03 -0.95776831399E+03  0.10369632968E+04  0.10566000000E+00 0. -1.
          4    1    1    2  501    0 -0.37796342500E+03  0.29496553922E+03 -0.97600226212E+03  0.10874012303E+04  0.00000000000E+00 0.  1.
</event>
<event>
 5    1  0.2540860E-005  0.5012287E+03  0.7818608E-02  0.9723601E-01
         -4   -1    0    0    0  501 -0.00000000000E+00  0.00000000000E+00  0.18420734620E+04  0.18420734620E+04  0.00000000000E+00 0. -1.
         21   -1    0    0  501  502  0.00000000000E+00 -0.00000000000E+00 -0.30933809722E+03  0.30933809722E+03  0.00000000000E+00 0. -1.
        -13    1    1    2    0    0 -0.19432085211E+03  0.71820883746E+02  0.95200844288E+03  0.97428893014E+03  0.10566000000E+00 0.  1.
         13    1    1    2    0    0  0.57746576141E+03  0.11387237997E+03  0.25695616050E+03  0.64223056927E+03  0.10566000000E+00 0. -1.
         -4    1    1    2    0  502 -0.38314490930E+03 -0.18569326372E+03  0.32377076141E+03  0.53489205982E+03  0.00000000000E+00 0. -1.
</event>
<event>
 5    1  0.2540860E-005  0.1510219E+03  0.7818608E-02  0.1100108E+00
          4   -1    0    0  502    0 -0.00000000000E+00  0.00000000000E+00  0.10620709378E+04  0.10620709378E+04  0.00000000000E+00 0.  1.
         21   -1    0    0  501  502  0.00000000000E+00 -0.00000000000E+00 -0.47344475023E+02  0.47344475023E+02  0.00000000000E+00 0. -1.
        -13    1    1    2    0    0 -0.62365223367E+02 -0.14123354176E+03  0.74216735010E+03  0.75805588259E+03  0.10566000000E+00 0.  1.
         13    1    1    2    0    0  0.50099441900E+02  0.13511367094E+03  0.29313240003E+03  0.32663783196E+03  0.10566000000E+00 0. -1.
          4    1    1    2  501    0  0.12265781467E+02  0.61198708153E+01 -0.20573287348E+02  0.24721698285E+02  0.00000000000E+00 0.  1.
</event>
<event>
 5    1  0.2540860E-005  0.4612489E+03  0.7818608E-02  0.9790292E-01
         21   -1    0    0  501  502  0.00000000000E+00  0.00000000000E+00  0.16333245105E+03  0.16333245105E+03  0.00000000000E+00 0. -1.
          4   -1    0    0  502    0 -0.00000000000E+00 -0.00000000000E+00 -0.21314614806E+04  0.21314614806E+04  0.00000000000E+00 0.  1.
        -13    1    1    2    0    0  0.39695544840E+03 -0.11201908970E+03 -0.10239653153E+04  0.11039143457E+04  0.10566000000E+00 0.  1.
         13    1    1    2    0    0 -0.57746976612E+01 -0.21121719809E+03 -0.35679418057E+03  0.41466631206E+03  0.10566000000E+00 0. -1.
          4    1    1    2  501    0 -0.39118075074E+03  0.32323628779E+03 -0.58736953358E+03  0.77621327383E+03  0.00000000000E+00 0.  1.
</event>
<event>
 5    1  0.2540860E-005  0.4947111E+03  0.7818608E-02  0.9851106E-01
          4   -1    0    0  502    0 -0.00000000000E+00  0.00000000000E+00  0.40988270502E+04  0.40988270502E+04  0.00000000000E+00 0.  1.
         21   -1    0    0  501  502  0.00000000000E+00 -0.00000000000E+00 -0.80247764205E+02  0.80247764205E+02  0.00000000000E+00 0.  1.
        -13    1    1    2    0    0 -0.40988601889E+02 -0.42468005732E+03  0.20278026353E+04  0.20722009448E+04  0.10566000000E+00 0.  1.
         13    1    1    2    0    0 -0.85987209776E+02 -0.10955250986E+03  0.45797231984E+03  0.47867965234E+03  0.10566000000E+00 0. -1.
          4    1    1    2  501    0  0.12697581166E+03  0.53423256718E+03  0.15328043309E+04  0.16281942173E+04  0.00000000000E+00 0.  1.
</event>
<event>
 5    1  0.2540860E-005  0.5160325E+03  0.7818608E-02  0.1033334E+00
         -4   -1    0    0    0  501 -0.00000000000E+00  0.00000000000E+00  0.23177930304E+03  0.23177930304E+03  0.00000000000E+00 0. -1.
         21   -1    0    0  501  502  0.00000000000E+00 -0.00000000000E+00 -0.12371718164E+04  0.12371718164E+04  0.00000000000E+00 0. -1.
        -13    1    1    2    0    0  0.25460655661E+02  0.50972028974E+01 -0.20142867773E+01  0.26044096823E+02  0.10566000000E+00 0.  1.
         13    1    1    2    0    0  0.40189137955E+03  0.30281214899E+03 -0.40672292480E+03  0.64702042259E+03  0.10566000000E+00 0. -1.
         -4    1    1    2    0  502 -0.42735203521E+03 -0.30790935188E+03 -0.59665530184E+03  0.79588660008E+03  0.00000000000E+00 0. -1.
</event>
<event>
 5    1  0.2540860E-005  0.4610715E+03  0.7818608E-02  0.9663686E-01
         -4   -1    0    0    0  501 -0.00000000000E+00  0.00000000000E+00  0.24223207656E+04  0.24223207656E+04  0.00000000000E+00 0. -1.
         21   -1    0    0  501  502  0.00000000000E+00 -0.00000000000E+00 -0.26925572340E+03  0.26925572340E+03  0.00000000000E+00 0. -1.
        -13    1    1    2    0    0  0.13504004465E+03  0.29890963597E+03  0.12457874183E+04  0.12882426351E+04  0.10566000000E+00 0.  1.
         13    1    1    2    0    0  0.24023884412E+03  0.28124397757E+03  0.22860611475E+03  0.43482599279E+03  0.10566000000E+00 0. -1.
         -4    1    1    2    0  502 -0.37527888877E+03 -0.58015361354E+03  0.67867150909E+03  0.96850786105E+03  0.00000000000E+00 0. -1.
</event>
<event>
 5    1  0.2540860E-005  0.4274633E+03  0.7818608E-02  0.9701070E-01
         21   -1    0    0  501  502  0.00000000000E+00  0.00000000000E+00  0.89386409132E+03  0.89386409132E+03  0.00000000000E+00 0.  1.
          4   -1    0    0  502    0 -0.00000000000E+00 -0.00000000000E+00 -0.65107776382E+03  0.65107776382E+03  0.00000000000E+00 0.  1.
        -13    1    1    2    0    0  0.23399957994E+03 -0.46799450433E+02 -0.22855159124E+03  0.33042674377E+03  0.10566000000E+00 0.  1.
         13    1    1    2    0    0  0.19958630430E+03  0.30103141250E+03 -0.17040750886E+03  0.39936616584E+03  0.10566000000E+00 0. -1.
          4    1    1    2  501    0 -0.43358588424E+03 -0.25423196207E+03  0.64174542760E+03  0.81514894553E+03  0.00000000000E+00 0.  1.
</event>
<event>
 5    1  0.2540860E-005  0.8003915E+02  0.7818608E-02  0.1202605E+00
         21   -1    0    0  501  502  0.00000000000E+00  0.00000000000E+00  0.44815180543E+03  0.44815180543E+03  0.00000000000E+00 0.  1.
         -4   -1    0    0    0  501 -0.00000000000E+00 -0.00000000000E+00 -0.42319932307E+02  0.42319932307E+02  0.00000000000E+00 0. -1.
        -13    1    1    2    0    0 -0.85622144149E+02  0.38053388399E+01  0.35575165036E+03  0.36593015736E+03  0.10566000000E+00 0.  1.
         13    1    1    2    0    0  0.79280396840E+02  0.45228360734E+01  0.64474239802E+01  0.79670683500E+02  0.10566000000E+00 0. -1.
         -4    1    1    2    0  502  0.63417473086E+01 -0.83281749133E+01  0.43632798787E+02  0.44870896874E+02  0.00000000000E+00 0. -1.
</event>
<event>
 5    1  0.2540860E-005  0.1453615E+03  0.7818608E-02  0.1105778E+00
          4   -1    0    0  502    0 -0.00000000000E+00  0.00000000000E+00  0.86579812715E+03  0.86579812715E+03  0.00000000000E+00 0.  1.
         21   -1    0    0  501  502  0.00000000000E+00 -0.00000000000E+00 -0.17784835545E+03  0.17784835545E+03  0.00000000000E+00 0.  1.
        -13    1    1    2    0    0  0.16814188749E+02 -0.14619036271E+03  0.80292805594E+03  0.81630130054E+03  0.10566000000E+00 0.  1.
         13    1    1    2    0    0  0.24235076082E+02  0.12649250155E+03 -0.32020401088E+02  0.13271401249E+03  0.10566000000E+00 0. -1.
          4    1    1    2  501    0 -0.41049264831E+02  0.19697861154E+02 -0.82957883148E+02  0.94631169567E+02  0.00000000000E+00 0.  1.
</event>
<event>
 5    1  0.2540860E-005  0.4276455E+03  0.7818608E-02  0.9652440E-01
         21   -1    0    0  501  502  0.00000000000E+00  0.00000000000E+00  0.25571522644E+04  0.25571522644E+04  0.00000000000E+00 0. -1.
         -4   -1    0    0    0  501 -0.00000000000E+00 -0.00000000000E+00 -0.41832694851E+03  0.41832694851E+03  0.00000000000E+00 0. -1.
        -13    1    1    2    0    0 -0.17673741862E+03 -0.35908392518E+03 -0.16774826073E+03  0.43395491771E+03  0.10566000000E+00 0.  1.
         13    1    1    2    0    0  0.35968328867E+03  0.62451362832E+03  0.13242407328E+04  0.15076481253E+04  0.10566000000E+00 0. -1.
         -4    1    1    2    0  502 -0.18294587005E+03 -0.26542970314E+03  0.98233284380E+03  0.10338761699E+04  0.00000000000E+00 0. -1.
</event>
<event>
 5    1  0.2540860E-005  0.4109627E+03  0.7818608E-02  0.9707737E-01
         21   -1    0    0  501  502  0.00000000000E+00  0.00000000000E+00  0.59635826638E+03  0.59635826638E+03  0.00000000000E+00 0.  1.
          4   -1    0    0  502    0 -0.00000000000E+00 -0.00000000000E+00 -0.11015697869E+04  0.11015697869E+04  0.00000000000E+00 0.  1.
        -13    1    1    2    0    0  0.34825762436E+03 -0.12463399742E+02  0.13561764698E+03  0.37393965636E+03  0.10566000000E+00 0.  1.
         13    1    1    2    0    0  0.27328366637E+03  0.28816208362E+03 -0.48420386424E+03  0.62623856640E+03  0.10566000000E+00 0. -1.
          4    1    1    2  501    0 -0.62154129073E+03 -0.27569868388E+03 -0.15662530327E+03  0.69774983053E+03  0.00000000000E+00 0.  1.
</event>
<event>
 5    1  0.2540860E-005  0.4913998E+03  0.7818608E-02  0.9498114E-01
         21   -1    0    0  501  502  0.00000000000E+00  0.00000000000E+00  0.39683016132E+03  0.39683016132E+03  0.00000000000E+00 0. -1.
         -4   -1    0    0    0  501 -0.00000000000E+00 -0.00000000000E+00 -0.16408510442E+04  0.16408510442E+04  0.00000000000E+00 0. -1.
        -13    1    1    2    0    0 -0.29943211211E+03 -0.40127851832E+03 -0.47570343156E+03  0.69063579765E+03  0.10566000000E+00 0.  1.
         13    1    1    2    0    0 -0.15846930395E+03  0.58227201469E+03 -0.51497484768E+03  0.79331729106E+03  0.10566000000E+00 0. -1.
         -4    1    1    2    0  502  0.45790141606E+03 -0.18099349637E+03 -0.25334260368E+03  0.55372811686E+03  0.00000000000E+00 0. -1.
</event>
<event>
 5    1  0.2540860E-005  0.5254157E+02  0.7818608E-02  0.1281773E+00
         21   -1    0    0  501  502  0.00000000000E+00  0.00000000000E+00  0.11955798628E+03  0.11955798628E+03  0.00000000000E+00 0.  1.
          4   -1    0    0  502    0 -0.00000000000E+00 -0.00000000000E+00 -0.14625155112E+03  0.14625155112E+03  0.00000000000E+00 0.  1.
        -13    1    1    2    0    0  0.29686839315E+02  0.46628960500E+02 -0.78386651582E+02  0.95916873886E+02  0.10566000000E+00 0.  1.
         13    1    1    2    0    0 -0.33406777940E+02 -0.36770641228E+02 -0.48333542185E+02  0.69312591445E+02  0.10566000000E+00 0. -1.
          4    1    1    2  501    0  0.37199386248E+01 -0.98583192715E+01  0.10002662893E+03  0.10058007207E+03  0.00000000000E+00 0.  1.
</event>
<event>
 5    1  0.2540860E-005  0.7609209E+03  0.7818608E-02  0.9038997E-01
          4   -1    0    0  502    0 -0.00000000000E+00  0.00000000000E+00  0.28416331584E+04  0.28416331584E+04  0.00000000000E+00 0.  1.
         21   -1    0    0  501  502  0.00000000000E+00 -0.00000000000E+00 -0.83724186931E+03  0.83724186931E+03  0.00000000000E+00 0. -1.
        -13    1    1    2    0    0  0.39705350341E+03  0.37605641591E+03  0.39433725451E+03  0.67421939603E+03  0.10566000000E+00 0.  1.
         13    1    1    2    0    0 -0.28644938727E+03 -0.91598634364E+03  0.20733195932E+04  0.22846746770E+04  0.10566000000E+00 0. -1.
          4    1    1    2  501    0 -0.11060411615E+03  0.53992992773E+03 -0.46326555857E+03  0.71998095470E+03  0.00000000000E+00 0.  1.
</event>
<event>
 5    1  0.2540860E-005  0.3027593E+03  0.7818608E-02  0.1013626E+00
         21   -1    0    0  501  502  0.00000000000E+00  0.00000000000E+00  0.39526364919E+03  0.39526364919E+03  0.00000000000E+00 0.  1.
          4   -1    0    0  502    0 -0.00000000000E+00 -0.00000000000E+00 -0.14964256196E+04  0.14964256196E+04  0.00000000000E+00 0.  1.
        -13    1    1    2    0    0  0.26823734413E+03 -0.53333809836E+02 -0.74857855282E+03  0.79697279060E+03  0.10566000000E+00 0.  1.
         13    1    1    2    0    0 -0.12622473587E+03  0.36366542877E+03 -0.57164679372E+03  0.68917726019E+03  0.10566000000E+00 0. -1.
          4    1    1    2  501    0 -0.14201260826E+03 -0.31033161893E+03  0.21906337610E+03  0.40553921803E+03  0.00000000000E+00 0.  1.
</event>
<event>
 5    1  0.2540860E-005  0.4741571E+03  0.7818608E-02  0.1002133E+00
         21   -1    0    0  501  502  0.00000000000E+00  0.00000000000E+00  0.69325193280E+03  0.69325193280E+03  0.00000000000E+00 0. -1.
         -4   -1    0    0    0  501 -0.00000000000E+00 -0.00000000000E+00 -0.64037136609E+03  0.64037136609E+03  0.00000000000E+00 0. -1.
        -13    1    1    2    0    0 -0.87943000008E+02  0.18538287700E+02 -0.27840748836E+03  0.29255491809E+03  0.10566000000E+00 0.  1.
         13    1    1    2    0    0  0.45119575061E+03  0.21553895465E+03  0.34700382649E+03  0.60864300957E+03  0.10566000000E+00 0. -1.
         -4    1    1    2    0  502 -0.36325275060E+03 -0.23407724235E+03 -0.15715771409E+02  0.43242537122E+03  0.00000000000E+00 0. -1.
</event>
<event>
 5    1  0.2540860E-005  0.4942436E+03  0.7818608E-02  0.9778545E-01
         21   -1    0    0  501  502  0.00000000000E+00  0.00000000000E+00  0.25940717051E+03  0.25940717051E+03  0.00000000000E+00 0.  1.
          4   -1    0    0  502    0 -0.00000000000E+00 -0.00000000000E+00 -0.17069302228E+04  0.17069302228E+04  0.00000000000E+00 0.  1.
        -13    1    1    2    0    0  0.30059861591E+03  0.25220725848E+03 -0.96873180501E+03  0.10451838835E+04  0.10566000000E+00 0.  1.
         13    1    1    2    0    0  0.71569265643E+02  0.16384140983E+03  0.10155621089E+02  0.17907907517E+03  0.10566000000E+00 0. -1.
          4    1    1    2  501    0 -0.37216788155E+03 -0.41604866831E+03 -0.48894686838E+03  0.74207443465E+03  0.00000000000E+00 0.  1.
</event>
<event>
 5    1  0.2540860E-005  0.2647568E+03  0.7818608E-02  0.1023759E+00
          4   -1    0    0  502    0 -0.00000000000E+00  0.00000000000E+00  0.28414729469E+04  0.28414729469E+04  0.00000000000E+00 0.  1.
         21   -1    0    0  501  502  0.00000000000E+00 -0.00000000000E+00 -0.74379638351E+02  0.74379638351E+02  0.00000000000E+00 0.  1.
        -13    1    1    2    0    0 -0.28648076392E+03 -0.89894231793E+02  0.10377364225E+04  0.10803004650E+04  0.10566000000E+00 0.  1.
         13    1    1    2    0    0  0.23098232052E+03 -0.17214187421E+03  0.12834589056E+04  0.13153906000E+04  0.10566000000E+00 0. -1.
          4    1    1    2  501    0  0.55498443400E+02  0.26203610600E+03  0.44589798049E+03  0.52016152018E+03  0.00000000000E+00 0.  1.
</event>
<event>
 5    1  0.2540860E-005  0.1750417E+03  0.7818608E-02  0.1078738E+00
         21   -1    0    0  501  502  0.00000000000E+00  0.00000000000E+00  0.42580704849E+03  0.42580704849E+03  0.00000000000E+00 0.  1.
         -4   -1    0    0    0  501 -0.00000000000E+00 -0.00000000000E+00 -0.11189898441E+03  0.11189898441E+03  0.00000000000E+00 0. -1.
        -13    1    1    2    0    0  0.76060771847E+01  0.18283003486E+03  0.30381310285E+02  0.18549315145E+03  0.10566000000E+00 0.  1.
         13    1    1    2    0    0 -0.35908893173E+02 -0.15736895240E+03  0.17930927086E+03  0.24125973881E+03  0.10566000000E+00 0. -1.
         -4    1    1    2    0  502  0.28302815989E+02 -0.25461082452E+02  0.10421748294E+03  0.11095314264E+03  0.00000000000E+00 0. -1.
</event>
<event>
 5    1  0.2540860E-005  0.2961764E+03  0.7818608E-02  0.1008896E+00
         21   -1    0    0  501  502  0.00000000000E+00  0.00000000000E+00  0.17219878714E+03  0.17219878714E+03  0.00000000000E+00 0.  1.
         -4   -1    0    0    0  501 -0.00000000000E+00 -0.00000000000E+00 -0.80114695576E+03  0.80114695576E+03  0.00000000000E+00 0. -1.
        -13    1    1    2    0    0 -0.25120312613E+03 -0.16967495441E+03 -0.37767020968E+03  0.48428028989E+03  0.10566000000E+00 0.  1.
         13    1    1    2    0    0  0.26023821076E+03  0.12807282708E+03 -0.30475230269E+03  0.42071433602E+03  0.10566000000E+00 0. -1.
         -4    1    1    2    0  502 -0.90350846276E+01  0.41602127337E+02  0.53474343751E+02  0.68351116983E+02  0.00000000000E+00 0. -1.
</event>
<event>
 5    1  0.2540860E-005  0.8762777E+02  0.7818608E-02  0.1186827E+00
         21   -1    0    0  501  502  0.00000000000E+00  0.00000000000E+00  0.27320458511E+03  0.27320458511E+03  0.00000000000E+00 0.  1.
         -4   -1    0    0    0  501 -0.00000000000E+00 -0.00000000000E+00 -0.15413816195E+03  0.15413816195E+03  0.00000000000E+00 0. -1.
        -13    1    1    2    0    0 -0.12652698655E+03  0.89149054935E+02  0.16001491164E+03  0.22262393274E+03  0.10566000000E+00 0.  1.
         13    1    1    2    0    0  0.69552926100E+02 -0.43241701235E+02 -0.86028385067E+02  0.11877856901E+03  0.10566000000E+00 0. -1.
         -4    1    1    2    0  502  0.56974060449E+02 -0.45907353699E+02  0.45079896587E+02  0.85940245310E+02  0.00000000000E+00 0. -1.
</event>
<event>
 5    1  0.2540860E-005  0.4376274E+03  0.7818608E-02  0.9825474E-01
          4   -1    0    0  502    0 -0.00000000000E+00  0.00000000000E+00  0.19652437442E+04  0.19652437442E+04  0.00000000000E+00 0.  1.
         21   -1    0    0  501  502  0.00000000000E+00 -0.00000000000E+00 -0.44457177994E+03  0.44457177994E+03  0.00000000000E+00 0.  1.
        -13    1    1    2    0    0 -0.49890111181E+03  0.11634444930E+03  0.39253326051E+03  0.64538416623E+03  0.10566000000E+00 0.  1.
         13    1    1    2    0    0  0.81312677990E+02 -0.20381243244E+03  0.12896859509E+04  0.13082205939E+04  0.10566000000E+00 0. -1.
          4    1    1    2  501    0  0.41758843382E+03  0.87467983135E+02 -0.16154724715E+03  0.45621076401E+03  0.00000000000E+00 0.  1.
</event>
<event>
 5    1  0.2540860E-005  0.1992770E+03  0.7818608E-02  0.1060633E+00
         21   -1    0    0  501  502  0.00000000000E+00  0.00000000000E+00  0.14645549561E+03  0.14645549561E+03  0.00000000000E+00 0. -1.
          4   -1    0    0  502    0 -0.00000000000E+00 -0.00000000000E+00 -0.98844931270E+03  0.98844931270E+03  0.00000000000E+00 0.  1.
        -13    1    1    2    0    0  0.35959626454E+02 -0.19877668669E+03 -0.88571684625E+03  0.90846002047E+03  0.10566000000E+00 0.  1.
         13    1    1    2    0    0 -0.22887625934E+00  0.17787687782E+03  0.20696717498E+02  0.17907708208E+03  0.10566000000E+00 0. -1.
          4    1    1    2  501    0 -0.35730750194E+02  0.20899808875E+02  0.23026311658E+02  0.47367705761E+02  0.00000000000E+00 0.  1.
</event>
<event>
 5    1  0.2540860E-005  0.4833689E+03  0.7818608E-02  0.9785097E-01
         21   -1    0    0  501  502  0.00000000000E+00  0.00000000000E+00  0.15743920791E+03  0.15743920791E+03  0.00000000000E+00 0.  1.
          4   -1    0    0  502    0 -0.00000000000E+00 -0.00000000000E+00 -0.25628258519E+04  0.25628258519E+04  0.00000000000E+00 0.  1.
        -13    1    1    2    0    0  0.42496687488E+03  0.25779276965E+03 -0.57604509941E+03  0.76084290399E+03  0.10566000000E+00 0.  1.
         13    1    1    2    0    0 -0.13517212714E+03  0.12905713888E+03 -0.81007867658E+03  0.83135715698E+03  0.10566000000E+00 0. -1.
          4    1    1    2  501    0 -0.28979474774E+03 -0.38684990853E+03 -0.10192628680E+04  0.11280649989E+04  0.00000000000E+00 0.  1.
</event>
<event>
 5    1  0.2540860E-005  0.2332403E+03  0.7818608E-02  0.1075283E+00
          4   -1    0    0  502    0 -0.00000000000E+00  0.00000000000E+00  0.54827277432E+03  0.54827277432E+03  0.00000000000E+00 0.  1.
         21   -1    0    0  501  502  0.00000000000E+00 -0.00000000000E+00 -0.52758176469E+03  0.52758176469E+03  0.00000000000E+00 0.  1.
        -13    1    1    2    0    0  0.89696056140E+02  0.22189146460E+03  0.30066206990E+03  0.38429011956E+03  0.10566000000E+00 0.  1.
         13    1    1    2    0    0 -0.80721568117E+02  0.11761261019E+02  0.16771061428E+03  0.18649707806E+03  0.10566000000E+00 0. -1.
          4    1    1    2  501    0 -0.89744880225E+01 -0.23365272562E+03 -0.44768167455E+03  0.50506734140E+03  0.00000000000E+00 0.  1.
</event>
<event>
 5    1  0.2540860E-005  0.3396469E+03  0.7818608E-02  0.9921661E-01
          4   -1    0    0  502    0 -0.00000000000E+00  0.00000000000E+00  0.46958347080E+03  0.46958347080E+03  0.00000000000E+00 0.  1.
         21   -1    0    0  501  502  0.00000000000E+00 -0.00000000000E+00 -0.37042081010E+03  0.37042081010E+03  0.00000000000E+00 0. -1.
        -13    1    1    2    0    0 -0.18713984554E+03 -0.30725721823E+03  0.20899883463E+03  0.41606350955E+03  0.10566000000E+00 0.  1.
         13    1    1    2    0    0  0.17263476730E+03  0.25633305423E+03 -0.79860248367E+01  0.30914913121E+03  0.10566000000E+00 0. -1.
          4    1    1    2  501    0  0.14505078238E+02  0.50924163998E+02 -0.10185014910E+03  0.11479164013E+03  0.00000000000E+00 0.  1.
</event>
<event>
 5    1  0.2540860E-005  0.3317094E+02  0.7818608E-02  0.1389329E+00
         21   -1    0    0  501  502  0.00000000000E+00  0.00000000000E+00  0.12200172171E+03  0.12200172171E+03  0.00000000000E+00 0.  1.
          4   -1    0    0  502    0 -0.00000000000E+00 -0.00000000000E+00 -0.11480040622E+03  0.11480040622E+03  0.00000000000E+00 0.  1.
        -13    1    1    2    0    0  0.26130308536E+02  0.19492334368E+00 -0.74627826599E+02  0.79070567762E+02  0.10566000000E+00 0.  1.
         13    1    1    2    0    0 -0.59300891294E+02 -0.34907234729E+00 -0.99599902438E+01  0.60132604546E+02  0.10566000000E+00 0. -1.
          4    1    1    2  501    0  0.33170582759E+02  0.15414900360E+00  0.91789132333E+02  0.97598955614E+02  0.00000000000E+00 0.  1.
</event>
<event>
 5    1  0.2540860E-005  0.4371910E+03  0.7818608E-02  0.9720310E-01
         21   -1    0    0  501  502  0.00000000000E+00  0.00000000000E+00  0.10761449372E+04  0.10761449372E+04  0.00000000000E+00 0. -1.
         -4   -1    0    0    0  501 -0.00000000000E+00 -0.00000000000E+00 -0.46481073421E+03  0.46481073421E+03  0.00000000000E+00 0. -1.
        -13    1    1    2    0    0  0.10931742032E+03 -0.29624678976E+03 -0.25456805117E+02  0.31679728364E+03  0.10566000000E+00 0.  1.
         13    1    1    2    0    0 -0.10546182865E+03 -0.21728705750E+03 -0.15020686627E+03  0.28442569592E+03  0.10566000000E+00 0. -1.
         -4    1    1    2    0  502 -0.38555916740E+01  0.51353384727E+03  0.78699787440E+03  0.93973269188E+03  0.00000000000E+00 0. -1.
</event>
<event>
 5    1  0.2540860E-005  0.2653814E+03  0.7818608E-02  0.1022716E+00
         21   -1    0    0  501  502  0.00000000000E+00  0.00000000000E+00  0.14906219201E+03  0.14906219201E+03  0.00000000000E+00 0. -1.
         -4   -1    0    0    0  501 -0.00000000000E+00 -0.00000000000E+00 -0.28694450142E+04  0.28694450142E+04  0.00000000000E+00 0. -1.
        -13    1    1    2    0    0 -0.36204108949E+02  0.24129743332E+03 -0.84128649308E+03  0.87595557161E+03  0.10566000000E+00 0.  1.
         13    1    1    2    0    0  0.70629201547E+02 -0.41608918071E+03 -0.22382260793E+03  0.47771880997E+03  0.10566000000E+00 0. -1.
         -4    1    1    2    0  502 -0.34425092597E+02  0.17479174738E+03 -0.16552737212E+04  0.16648328246E+04  0.00000000000E+00 0. -1.
</event>
<event>
 5    1  0.2540860E-005  0.4537410E+03  0.7818608E-02  0.1005504E+00
          4   -1    0    0  502    0 -0.00000000000E+00  0.00000000000E+00  0.29543009359E+03  0.29543009359E+03  0.00000000000E+00 0.  1.
         21   -1    0    0  501  502  0.00000000000E+00 -0.00000000000E+00 -0.11338432160E+04  0.11338432160E+04  0.00000000000E+00 0.  1.
        -13    1    1    2    0    0  0.41625181794E+03  0.27384109624E+03 -0.19253331511E+03  0.53415691563E+03  0.10566000000E+00 0.  1.
         13    1    1    2    0    0 -0.18470692732E+02 -0.90037815057E+02  0.23679743103E+02  0.94914256188E+02  0.10566000000E+00 0. -1.
          4    1    1    2  501    0 -0.39778112520E+03 -0.18380328118E+03 -0.66955955036E+03  0.80020213773E+03  0.00000000000E+00 0.  1.
</event>
<event>
 5    1  0.2540860E-005  0.1110291E+03  0.7818608E-02  0.1147494E+00
         21   -1    0    0  501  502  0.00000000000E+00  0.00000000000E+00  0.12158971805E+03  0.12158971805E+03  0.00000000000E+00 0.  1.
         -4   -1    0    0    0  501 -0.00000000000E+00 -0.00000000000E+00 -0.15215973638E+03  0.15215973638E+03  0.00000000000E+00 0. -1.
        -13    1    1    2    0    0  0.23769567361E+01 -0.10633851177E+03  0.19423964603E+02  0.10812414427E+03  0.10566000000E+00 0.  1.
         13    1    1    2    0    0  0.13952900834E+02  0.11279295977E+03 -0.74193641932E+02  0.13572635294E+03  0.10566000000E+00 0. -1.
         -4    1    1    2    0  502 -0.16329857570E+02 -0.64544479996E+01  0.24199658992E+02  0.29898957215E+02  0.00000000000E+00 0. -1.
</event>
<event>
 5    1  0.2540860E-005  0.2656226E+03  0.7818608E-02  0.1036797E+00
         21   -1    0    0  501  502  0.00000000000E+00  0.00000000000E+00  0.12091430799E+03  0.12091430799E+03  0.00000000000E+00 0. -1.
         -4   -1    0    0    0  501 -0.00000000000E+00 -0.00000000000E+00 -0.31087219190E+04  0.31087219190E+04  0.00000000000E+00 0. -1.
        -13    1    1    2    0    0  0.14299419897E+03 -0.94225782905E+02 -0.59532099306E+03  0.61946181081E+03  0.10566000000E+00 0.  1.
         13    1    1    2    0    0  0.25114229912E+03  0.53939538272E+02 -0.87465736391E+02  0.27135252791E+03  0.10566000000E+00 0. -1.
         -4    1    1    2    0  502 -0.39413649809E+03  0.40286244634E+02 -0.23050208816E+04  0.23388218883E+04  0.00000000000E+00 0. -1.
</event>
<event>
 5    1  0.2540860E-005  0.1554438E+03  0.7818608E-02  0.1117892E+00
         -4   -1    0    0    0  501 -0.00000000000E+00  0.00000000000E+00  0.35413702008E+03  0.35413702008E+03  0.00000000000E+00 0. -1.
         21   -1    0    0  501  502  0.00000000000E+00 -0.00000000000E+00 -0.16540272239E+03  0.16540272239E+03  0.00000000000E+00 0. -1.
        -13    1    1    2    0    0  0.46854211448E+02 -0.72375967545E+02  0.60900683051E+02  0.10555805118E+03  0.10566000000E+00 0.  1.
         13    1    1    2    0    0 -0.71522150468E+02  0.15753088006E+03 -0.78067582166E+02  0.18980504400E+03  0.10566000000E+00 0. -1.
         -4    1    1    2    0  502  0.24667939020E+02 -0.85154912513E+02  0.20590119681E+03  0.22417664729E+03  0.00000000000E+00 0. -1.
</event>
<event>
 5    1  0.2540860E-005  0.7187074E+02  0.7818608E-02  0.1221903E+00
          4   -1    0    0  502    0 -0.00000000000E+00  0.00000000000E+00  0.42526671309E+03  0.42526671309E+03  0.00000000000E+00 0.  1.
         21   -1    0    0  501  502  0.00000000000E+00 -0.00000000000E+00 -0.74662780864E+02  0.74662780864E+02  0.00000000000E+00 0.  1.
        -13    1    1    2    0    0  0.17627900920E+01  0.75476665850E+02  0.33505068176E+03  0.34345131391E+03  0.10566000000E+00 0.  1.
         13    1    1    2    0    0  0.74227751494E+01 -0.61999728358E+02  0.73405222205E+02  0.96371166427E+02  0.10566000000E+00 0. -1.
          4    1    1    2  501    0 -0.91855652415E+01 -0.13476937492E+02 -0.57851971733E+02  0.60107013621E+02  0.00000000000E+00 0.  1.
</event>
<event>
 5    1  0.2540860E-005  0.3285895E+03  0.7818608E-02  0.1015010E+00
         21   -1    0    0  501  502  0.00000000000E+00  0.00000000000E+00  0.41122350755E+03  0.41122350755E+03  0.00000000000E+00 0.  1.
          4   -1    0    0  502    0 -0.00000000000E+00 -0.00000000000E+00 -0.13176107025E+04  0.13176107025E+04  0.00000000000E+00 0.  1.
        -13    1    1    2    0    0 -0.14916345747E+03 -0.40466195429E+03 -0.48439739339E+03  0.64856910209E+03  0.10566000000E+00 0.  1.
         13    1    1    2    0    0 -0.61931262814E+02  0.16723609588E+03 -0.65976447274E+03  0.68344170471E+03  0.10566000000E+00 0. -1.
          4    1    1    2  501    0  0.21109472029E+03  0.23742585841E+03  0.23777467114E+03  0.39682340330E+03  0.00000000000E+00 0.  1.
</event>
<event>
 5    1  0.2540860E-005  0.3644036E+03  0.7818608E-02  0.9837886E-01
         -4   -1    0    0    0  501 -0.00000000000E+00  0.00000000000E+00  0.32596495249E+04  0.32596495249E+04  0.00000000000E+00 0. -1.
         21   -1    0    0  501  502  0.00000000000E+00 -0.00000000000E+00 -0.17573797589E+03  0.17573797589E+03  0.00000000000E+00 0. -1.
        -13    1    1    2    0    0 -0.27004450288E+03 -0.25792463685E+03  0.13349376722E+04  0.13861846023E+04  0.10566000000E+00 0.  1.
         13    1    1    2    0    0  0.43325380326E+03 -0.52333270863E+02  0.16166133594E+04  0.16744809327E+04  0.10566000000E+00 0. -1.
         -4    1    1    2    0  502 -0.16320930038E+03  0.31025790771E+03  0.13236051744E+03  0.37472196573E+03  0.00000000000E+00 0. -1.
</event>
<event>
 5    1  0.2540860E-005  0.4833798E+03  0.7818608E-02  0.1010511E+00
         21   -1    0    0  501  502  0.00000000000E+00  0.00000000000E+00  0.94471796165E+03  0.94471796165E+03  0.00000000000E+00 0. -1.
         -4   -1    0    0    0  501 -0.00000000000E+00 -0.00000000000E+00 -0.32929459239E+03  0.32929459239E+03  0.00000000000E+00 0. -1.
        -13    1    1    2    0    0  0.32142333370E+02  0.56130903312E+02 -0.33905486355E+02  0.73030138094E+02  0.10566000000E+00 0.  1.
         13    1    1    2    0    0  0.42393238792E+03 -0.22997130105E+03  0.49004139328E+03  0.68756530390E+03  0.10566000000E+00 0. -1.
         -4    1    1    2    0  502 -0.45607472129E+03  0.17384039774E+03  0.15928746235E+03  0.51341711205E+03  0.00000000000E+00 0. -1.
</event>
<event>
 5    1  0.2540860E-005  0.4294654E+03  0.7818608E-02  0.1034909E+00
         21   -1    0    0  501  502  0.00000000000E+00  0.00000000000E+00  0.60934283269E+03  0.60934283269E+03  0.00000000000E+00 0. -1.
         -4   -1    0    0    0  501 -0.00000000000E+00 -0.00000000000E+00 -0.34128797172E+03  0.34128797172E+03  0.00000000000E+00 0. -1.
        -13    1    1    2    0    0 -0.42779849071E+02 -0.34940951985E+01  0.16852157695E+02  0.46112152095E+02  0.10566000000E+00 0.  1.
         13    1    1    2    0    0  0.36261470012E+03  0.25821870157E+03  0.21408453174E+03  0.49396205976E+03  0.10566000000E+00 0. -1.
         -4    1    1    2    0  502 -0.31983485105E+03 -0.25472460637E+03  0.37118171534E+02  0.41055659256E+03  0.00000000000E+00 0. -1.
</event>
<event>
 5    1  0.2540860E-005  0.3923927E+03  0.7818608E-02  0.9849838E-01
         21   -1    0    0  501  502  0.00000000000E+00  0.00000000000E+00  0.20609635335E+03  0.20609635335E+03  0.00000000000E+00 0.  1.
          4   -1    0    0  502    0 -0.00000000000E+00 -0.00000000000E+00 -0.24927177039E+04  0.24927177039E+04  0.00000000000E+00 0.  1.
        -13    1    1    2    0    0  0.20309993310E+03 -0.40996426722E+03 -0.11319430897E+04  0.12209076348E+04  0.10566000000E+00 0.  1.
         13    1    1    2    0    0  0.15134583196E+03  0.23591466782E+03 -0.10244674691E+04  0.10621181185E+04  0.10566000000E+00 0. -1.
          4    1    1    2  501    0 -0.35444576506E+03  0.17404959940E+03 -0.13021079184E+03  0.41578830399E+03  0.00000000000E+00 0.  1.
</event>
<event>
 5    1  0.2540860E-005  0.4415520E+03  0.7818608E-02  0.1004850E+00
         -4   -1    0    0    0  501 -0.00000000000E+00  0.00000000000E+00  0.13871505148E+04  0.13871505148E+04  0.00000000000E+00 0. -1.
         21   -1    0    0  501  502  0.00000000000E+00 -0.00000000000E+00 -0.24061524076E+03  0.24061524076E+03  0.00000000000E+00 0. -1.
        -13    1    1    2    0    0 -0.26866522078E+02  0.98270219003E+02  0.31892992610E+03  0.33480614522E+03  0.10566000000E+00 0.  1.
         13    1    1    2    0    0 -0.19362461346E+03  0.36604483014E+03  0.14560847020E+03  0.43895460628E+03  0.10566000000E+00 0. -1.
         -4    1    1    2    0  502  0.22049113554E+03 -0.46431504915E+03  0.68199687777E+03  0.85400500408E+03  0.00000000000E+00 0. -1.
</event>
<event>
 5    1  0.2540860E-005  0.4226418E+03  0.7818608E-02  0.9665843E-01
         -4   -1    0    0    0  501 -0.00000000000E+00  0.00000000000E+00  0.31674129036E+04  0.31674129036E+04  0.00000000000E+00 0. -1.
         21   -1    0    0  501  502  0.00000000000E+00 -0.00000000000E+00 -0.38464392656E+03  0.38464392656E+03  0.00000000000E+00 0. -1.
        -13    1    1    2    0    0 -0.38787644946E+03 -0.12468881329E+03  0.23342730149E+04  0.23695623983E+04  0.10566000000E+00 0.  1.
         13    1    1    2    0    0  0.66939808229E+03  0.19576110588E+03  0.63552248661E+02  0.70032499786E+03  0.10566000000E+00 0. -1.
         -4    1    1    2    0  502 -0.28152163283E+03 -0.71072292596E+02  0.38494371349E+03  0.48216943400E+03  0.00000000000E+00 0. -1.
</event>
<event>
 5    1  0.2540860E-005  0.4703169E+03  0.7818608E-02  0.9656234E-01
         -4   -1    0    0    0  501 -0.00000000000E+00  0.00000000000E+00  0.27422844325E+04  0.27422844325E+04  0.00000000000E+00 0. -1.
         21   -1    0    0  501  502  0.00000000000E+00 -0.00000000000E+00 -0.17321881525E+03  0.17321881525E+03  0.00000000000E+00 0. -1.
        -13    1    1    2    0    0  0.48317070200E+02  0.31352573690E+03  0.67768938562E+03  0.74826188031E+03  0.10566000000E+00 0.  1.
         13    1    1    2    0    0  0.28013469671E+03  0.13733193946E+03  0.13652869357E+04  0.14004798955E+04  0.10566000000E+00 0. -1.
         -4    1    1    2    0  502 -0.32845176691E+03 -0.45085767635E+03  0.52608929597E+03  0.76676147194E+03  0.00000000000E+00 0. -1.
</event>
<event>
 5    1  0.2540860E-005  0.4998978E+03  0.7818608E-02  0.9553728E-01
         21   -1    0    0  501  502  0.00000000000E+00  0.00000000000E+00  0.42284354955E+03  0.42284354955E+03  0.00000000000E+00 0.  1.
         -4   -1    0    0    0  501 -0.00000000000E+00 -0.00000000000E+00 -0.14012672229E+04  0.14012672229E+04  0.00000000000E+00 0. -1.
        -13    1    1    2    0    0 -0.37758789330E+03 -0.45121957456E+02 -0.16233906720E+02  0.38062075496E+03  0.10566000000E+00 0.  1.
         13    1    1    2    0    0 -0.80019311285E+02 -0.41473021867E+03 -0.44770181741E+03  0.61550074974E+03  0.10566000000E+00 0. -1.
         -4    1    1    2    0  502  0.45760720459E+03  0.45985217613E+03 -0.51448794917E+03  0.82798926770E+03  0.00000000000E+00 0. -1.
</event>
<event>
 5    1  0.2540860E-005  0.1600936E+03  0.7818608E-02  0.1091563E+00
          4   -1    0    0  502    0 -0.00000000000E+00  0.00000000000E+00  0.92454828984E+03  0.92454828984E+03  0.00000000000E+00 0.  1.
         21   -1    0    0  501  502  0.00000000000E+00 -0.00000000000E+00 -0.13950489847E+03  0.13950489847E+03  0.00000000000E+00 0.  1.
        -13    1    1    2    0    0  0.14491163458E+03  0.63592594462E+02  0.71732133625E+03  0.73457015357E+03  0.10566000000E+00 0.  1.
         13    1    1    2    0    0 -0.13643832612E+03 -0.10540344524E+03  0.15531619943E+03  0.23205265797E+03  0.10566000000E+00 0. -1.
          4    1    1    2  501    0 -0.84733084594E+01  0.41810850781E+02 -0.87594144315E+02  0.97430376770E+02  0.00000000000E+00 0.  1.
</event>
<event>
 5    1  0.2540860E-005  0.2585013E+03  0.7818608E-02  0.1032781E+00
         -4   -1    0    0    0  501 -0.00000000000E+00  0.00000000000E+00  0.17002110596E+04  0.17002110596E+04  0.00000000000E+00 0. -1.
         21   -1    0    0  501  502  0.00000000000E+00 -0.00000000000E+00 -0.21566200693E+03  0.21566200693E+03  0.00000000000E+00 0. -1.
        -13    1    1    2    0    0  0.19101908047E+03 -0.87476355267E+02  0.26029341900E+03  0.33450422564E+03  0.10566000000E+00 0.  1.
         13    1    1    2    0    0 -0.39499215565E+03 -0.57434768886E+02  0.12662421058E+04  0.13276620946E+04  0.10566000000E+00 0. -1.
         -4    1    1    2    0  502  0.20397307518E+03  0.14491112415E+03 -0.41986472092E+02  0.25370674635E+03  0.00000000000E+00 0. -1.
</event>
<event>
 5    1  0.2540860E-005  0.9758557E+02  0.7818608E-02  0.1168613E+00
         -4   -1    0    0    0  501 -0.00000000000E+00  0.00000000000E+00  0.19823087629E+03  0.19823087629E+03  0.00000000000E+00 0. -1.
         21   -1    0    0  501  502  0.00000000000E+00 -0.00000000000E+00 -0.41857013687E+03  0.41857013687E+03  0.00000000000E+00 0. -1.
        -13    1    1    2    0    0 -0.56364300482E+02  0.71004838991E+02 -0.61232561976E+02  0.10939862586E+03  0.10566000000E+00 0.  1.
         13    1    1    2    0    0  0.55906294588E+02 -0.81405388715E+02  0.16005602647E+03  0.18806991748E+03  0.10566000000E+00 0. -1.
         -4    1    1    2    0  502  0.45800589314E+00  0.10400549724E+02 -0.31916272508E+03  0.31933246982E+03  0.00000000000E+00 0. -1.
</event>
<event>
 5    1  0.2540860E-005  0.2455552E+03  0.7818608E-02  0.1057463E+00
          4   -1    0    0  502    0 -0.00000000000E+00  0.00000000000E+00  0.18488960707E+03  0.18488960707E+03  0.00000000000E+00 0.  1.
         21   -1    0    0  501  502  0.00000000000E+00 -0.00000000000E+00 -0.17459807241E+04  0.17459807241E+04  0.00000000000E+00 0.  1.
        -13    1    1    2    0    0 -0.26991059316E+03 -0.38508824462E+02  0.48323804520E+02  0.27689322691E+03  0.10566000000E+00 0.  1.
         13    1    1    2    0    0  0.65289878010E+02 -0.96908116054E+02 -0.30363838829E+03  0.32534632799E+03  0.10566000000E+00 0. -1.
          4    1    1    2  501    0  0.20462071515E+03  0.13541694052E+03 -0.13057765333E+04  0.13286307763E+04  0.00000000000E+00 0.  1.
</event>
<event>
 5    1  0.2540860E-005  0.7325705E+02  0.7818608E-02  0.1218432E+00
         -4   -1    0    0    0  501 -0.00000000000E+00  0.00000000000E+00  0.38718065848E+03  0.38718065848E+03  0.00000000000E+00 0. -1.
         21   -1    0    0  501  502  0.00000000000E+00 -0.00000000000E+00 -0.86442467247E+02  0.86442467247E+02  0.00000000000E+00 0.  1.
        -13    1    1    2    0    0  0.30935420358E+02 -0.50567241484E+02 -0.66162337504E+02  0.88834183803E+02  0.10566000000E+00 0.  1.
         13    1    1    2    0    0 -0.49856902896E+02  0.54681383005E+02  0.35369051787E+03  0.36134852706E+03  0.10566000000E+00 0. -1.
         -4    1    1    2    0  502  0.18921482538E+02 -0.41141415211E+01  0.13210010872E+02  0.23440414867E+02  0.00000000000E+00 0. -1.
</event>
<event>
 5    1  0.2540860E-005  0.5707419E+03  0.7818608E-02  0.9335090E-01
          4   -1    0    0  502    0 -0.00000000000E+00  0.00000000000E+00  0.32071725661E+04  0.32071725661E+04  0.00000000000E+00 0.  1.
         21   -1    0    0  501  502  0.00000000000E+00 -0.00000000000E+00 -0.29282611716E+03  0.29282611716E+03  0.00000000000E+00 0. -1.
        -13    1    1    2    0    0  0.54553445999E+03 -0.41026701274E+03  0.70385399231E+03  0.98047810911E+03  0.10566000000E+00 0.  1.
         13    1    1    2    0    0 -0.54469408655E+03  0.10825618833E+03  0.21379745504E+04  0.22089242268E+04  0.10566000000E+00 0. -1.
          4    1    1    2  501    0 -0.84037344374E+00  0.30201082442E+03  0.72517906228E+02  0.31059634740E+03  0.00000000000E+00 0.  1.
</event>
<event>
 5    1  0.2842532E-005  0.4704495E+03  0.7818608E-02  0.9903012E-01
         21   -1    0    0  501  502  0.00000000000E+00  0.00000000000E+00  0.67934887169E+03  0.67934887169E+03  0.00000000000E+00 0. -1.
         -4   -1    0    0    0  501 -0.00000000000E+00 -0.00000000000E+00 -0.80095985317E+03  0.80095985317E+03  0.00000000000E+00 0. -1.
        -13    1    1    2    0    0  0.34255937767E+02  0.13163447749E+03 -0.41038594146E+03  0.43233983977E+03  0.10566000000E+00 0.  1.
         13    1    1    2    0    0  0.27227640439E+03  0.27857667892E+03 -0.10332217896E+03  0.40300730795E+03  0.10566000000E+00 0. -1.
         -4    1    1    2    0  502 -0.30653234216E+03 -0.41021115641E+03  0.39209713894E+03  0.64496157715E+03  0.00000000000E+00 0. -1.
</event>
<event>
 5    1  0.2540860E-005  0.1683489E+03  0.7818608E-02  0.1084303E+00
          4   -1    0    0  502    0 -0.00000000000E+00  0.00000000000E+00  0.10589121271E+04  0.10589121271E+04  0.00000000000E+00 0.  1.
         21   -1    0    0  501  502  0.00000000000E+00 -0.00000000000E+00 -0.12182776348E+03  0.12182776348E+03  0.00000000000E+00 0.  1.
        -13    1    1    2    0    0 -0.20005492698E+03  0.87548214440E+02  0.11779525788E+03  0.24811770917E+03  0.10566000000E+00 0.  1.
         13    1    1    2    0    0  0.16428780422E+03  0.13443291580E+02  0.80828355056E+03  0.82492030766E+03  0.10566000000E+00 0. -1.
          4    1    1    2  501    0  0.35767122757E+02 -0.10099150602E+03  0.11005555143E+02  0.10770187372E+03  0.00000000000E+00 0.  1.
</event>
<event>
 5    1  0.2540860E-005  0.3785431E+03  0.7818608E-02  0.9829776E-01
         21   -1    0    0  501  502  0.00000000000E+00  0.00000000000E+00  0.39945831196E+03  0.39945831196E+03  0.00000000000E+00 0.  1.
          4   -1    0    0  502    0 -0.00000000000E+00 -0.00000000000E+00 -0.19807607276E+04  0.19807607276E+04  0.00000000000E+00 0.  1.
        -13    1    1    2    0    0  0.15481055838E+03  0.28287600290E+03 -0.61348275789E+03  0.69307016052E+03  0.10566000000E+00 0.  1.
         13    1    1    2    0    0  0.25127782502E+03 -0.22024668282E+03 -0.11788113005E+04  0.12252531331E+04  0.10566000000E+00 0. -1.
          4    1    1    2  501    0 -0.40608838340E+03 -0.62629320085E+02  0.21099164275E+03  0.46189574601E+03  0.00000000000E+00 0.  1.
</event>
<event>
 5    1  0.2540860E-005  0.1188922E+03  0.7818608E-02  0.1136605E+00
         21   -1    0    0  501  502  0.00000000000E+00  0.00000000000E+00  0.25289774182E+03  0.25289774182E+03  0.00000000000E+00 0.  1.
          4   -1    0    0  502    0 -0.00000000000E+00 -0.00000000000E+00 -0.15453486716E+03  0.15453486716E+03  0.00000000000E+00 0.  1.
        -13    1    1    2    0    0 -0.98176451666E+02  0.93573785863E+02 -0.77133006575E+02  0.15602621873E+03  0.10566000000E+00 0.  1.
         13    1    1    2    0    0  0.11427241047E+02 -0.91958952119E+02  0.80476505241E+02  0.12273349084E+03  0.10566000000E+00 0. -1.
          4    1    1    2  501    0  0.86749210619E+02 -0.16148337439E+01  0.95019375994E+02  0.12867289942E+03  0.00000000000E+00 0.  1.
</event>
<event>
 5    1  0.2540860E-005  0.5197235E+03  0.7818608E-02  0.9931791E-01
         21   -1    0    0  501  502  0.00000000000E+00  0.00000000000E+00  0.11960201322E+04  0.11960201322E+04  0.00000000000E+00 0. -1.
         -4   -1    0    0    0  501 -0.00000000000E+00 -0.00000000000E+00 -0.29884101170E+03  0.29884101170E+03  0.00000000000E+00 0. -1.
        -13    1    1    2    0    0  0.78182726080E+02 -0.47833878618E+02 -0.30237608600E+02  0.96513951006E+02  0.10566000000E+00 0.  1.
         13    1    1    2    0    0  0.40176777527E+03  0.29612028542E+03  0.36442059290E+03  0.61798620404E+03  0.10566000000E+00 0. -1.
         -4    1    1    2    0  502 -0.47995050135E+03 -0.24828640680E+03  0.56299613617E+03  0.78036098884E+03  0.00000000000E+00 0. -1.
</event>
<event>
 5    1  0.2540860E-005  0.4037181E+02  0.7818608E-02  0.1336859E+00
          4   -1    0    0  502    0 -0.00000000000E+00  0.00000000000E+00  0.21831634880E+02  0.21831634880E+02  0.00000000000E+00 0.  1.
         21   -1    0    0  501  502  0.00000000000E+00 -0.00000000000E+00 -0.24278257400E+03  0.24278257400E+03  0.00000000000E+00 0. -1.
        -13    1    1    2    0    0  0.38991620649E+02  0.11444425972E+02 -0.11097018298E+02  0.42124533775E+02  0.10566000000E+00 0.  1.
         13    1    1    2    0    0 -0.28977176270E+02 -0.35118493844E+02 -0.10347176922E+03  0.11304602401E+03  0.10566000000E+00 0. -1.
          4    1    1    2  501    0 -0.10014444379E+02  0.23674067872E+02 -0.10638215161E+03  0.10944365110E+03  0.00000000000E+00 0.  1.
</event>
<event>
 5    1  0.2540860E-005  0.3673071E+03  0.7818608E-02  0.9905772E-01
         21   -1    0    0  501  502  0.00000000000E+00  0.00000000000E+00  0.18229300123E+04  0.18229300123E+04  0.00000000000E+00 0.  1.
          4   -1    0    0  502    0 -0.00000000000E+00 -0.00000000000E+00 -0.23441942367E+03  0.23441942367E+03  0.00000000000E+00 0.  1.
        -13    1    1    2    0    0  0.71696872959E+02 -0.54504058060E+03  0.39434242592E+03  0.67654684697E+03  0.10566000000E+00 0.  1.
         13    1    1    2    0    0 -0.17412604505E+03  0.22330204357E+03  0.24878574003E+03  0.37693240486E+03  0.10566000000E+00 0. -1.
          4    1    1    2  501    0  0.10242917209E+03  0.32173853703E+03  0.94538242272E+03  0.10038701842E+04  0.00000000000E+00 0.  1.
</event>
<event>
 5    1  0.2540860E-005  0.6963715E+02  0.7818608E-02  0.1227683E+00
         -4   -1    0    0    0  501 -0.00000000000E+00  0.00000000000E+00  0.13748174583E+03  0.13748174583E+03  0.00000000000E+00 0. -1.
         21   -1    0    0  501  502  0.00000000000E+00 -0.00000000000E+00 -0.16801499314E+03  0.16801499314E+03  0.00000000000E+00 0. -1.
        -13    1    1    2    0    0 -0.45046078687E+02 -0.47765848018E+02 -0.10023567425E+02  0.66416929392E+02  0.10566000000E+00 0.  1.
         13    1    1    2    0    0  0.39126706944E+02  0.59339246016E+02  0.97332674977E+02  0.12052263728E+03  0.10566000000E+00 0. -1.
         -4    1    1    2    0  502  0.59193717429E+01 -0.11573397999E+02 -0.11784235486E+03  0.11855717229E+03  0.00000000000E+00 0. -1.
</event>
<event>
 5    1  0.2540860E-005  0.4825305E+03  0.7818608E-02  0.9720845E-01
         -4   -1    0    0    0  501 -0.00000000000E+00  0.00000000000E+00  0.23820462415E+04  0.23820462415E+04  0.00000000000E+00 0. -1.
         21   -1    0    0  501  502  0.00000000000E+00 -0.00000000000E+00 -0.22626340057E+03  0.22626340057E+03  0.00000000000E+00 0. -1.
        -13    1    1    2    0    0  0.54873584692E+02  0.22791428933E+03  0.11407133495E+04  0.11645526997E+04  0.10566000000E+00 0.  1.
         13    1    1    2    0    0  0.42821974104E+03 -0.26224821447E+03  0.31595000302E+03  0.59327117593E+03  0.10566000000E+00 0. -1.
         -4    1    1    2    0  502 -0.48309332573E+03  0.34333925149E+02  0.69911948842E+03  0.85048576641E+03  0.00000000000E+00 0. -1.
</event>
<event>
 5    1  0.2540860E-005  0.4867515E+02  0.7818608E-02  0.1297279E+00
         21   -1    0    0  501  502  0.00000000000E+00  0.00000000000E+00  0.13596964739E+03  0.13596964739E+03  0.00000000000E+00 0. -1.
          4   -1    0    0  502    0 -0.00000000000E+00 -0.00000000000E+00 -0.50644493301E+02  0.50644493301E+02  0.00000000000E+00 0.  1.
        -13    1    1    2    0    0 -0.31725792770E+01 -0.43931809436E+02 -0.11825458267E+02  0.45606159308E+02  0.10566000000E+00 0.  1.
         13    1    1    2    0    0 -0.45728683551E+01  0.61598306858E+02  0.25531507253E+02  0.66836603440E+02  0.10566000000E+00 0. -1.
          4    1    1    2  501    0  0.77454476322E+01 -0.17666497422E+02  0.71619105105E+02  0.74171377945E+02  0.00000000000E+00 0.  1.
</event>
<event>
 5    1  0.2540860E-005  0.5008853E+03  0.7818608E-02  0.1002431E+00
         21   -1    0    0  501  502  0.00000000000E+00  0.00000000000E+00  0.63717948812E+03  0.63717948812E+03  0.00000000000E+00 0. -1.
         -4   -1    0    0    0  501 -0.00000000000E+00 -0.00000000000E+00 -0.53935317717E+03  0.53935317717E+03  0.00000000000E+00 0. -1.
        -13    1    1    2    0    0 -0.59757017410E+02  0.46151829237E+02 -0.96488013955E+02  0.12251873519E+03  0.10566000000E+00 0.  1.
         13    1    1    2    0    0 -0.33799693786E+03 -0.36510667170E+03  0.21893057958E+03  0.54357650939E+03  0.10566000000E+00 0. -1.
         -4    1    1    2    0  502  0.39775395527E+03  0.31895484246E+03 -0.24616254673E+02  0.51043742070E+03  0.00000000000E+00 0. -1.
</event>
<event>
 5    1  0.2540860E-005  0.1129545E+03  0.7818608E-02  0.1148091E+00
         -4   -1    0    0    0  501 -0.00000000000E+00  0.00000000000E+00  0.16530033870E+03  0.16530033870E+03  0.00000000000E+00 0. -1.
         21   -1    0    0  501  502  0.00000000000E+00 -0.00000000000E+00 -0.56172450742E+03  0.56172450742E+03  0.00000000000E+00 0.  1.
        -13    1    1    2    0    0  0.19641776639E+03  0.65292032475E+02 -0.32510436250E+03  0.38540348486E+03  0.10566000000E+00 0.  1.
         13    1    1    2    0    0 -0.97643118488E+02 -0.10498891952E+02  0.97573373181E+02  0.13843763808E+03  0.10566000000E+00 0. -1.
         -4    1    1    2    0  502 -0.98774647899E+02 -0.54793140523E+02 -0.16889317940E+03  0.20318372318E+03  0.00000000000E+00 0. -1.
</event>
<event>
 5    1  0.2540860E-005  0.1145326E+03  0.7818608E-02  0.1142524E+00
         21   -1    0    0  501  502  0.00000000000E+00  0.00000000000E+00  0.68934796383E+03  0.68934796383E+03  0.00000000000E+00 0.  1.
         -4   -1    0    0    0  501 -0.00000000000E+00 -0.00000000000E+00 -0.26959575077E+02  0.26959575077E+02  0.00000000000E+00 0. -1.
        -13    1    1    2    0    0  0.95311943327E+02 -0.98108726561E+01  0.35131355800E+03  0.36414536515E+03  0.10566000000E+00 0.  1.
         13    1    1    2    0    0 -0.12684903143E+03  0.24349512429E+02  0.26115775304E+03  0.29135366596E+03  0.10566000000E+00 0. -1.
         -4    1    1    2    0  502  0.31537088108E+02 -0.14538639773E+02  0.49917077713E+02  0.60808507794E+02  0.00000000000E+00 0. -1.
</event>
<event>
 5    1  0.2540860E-005  0.5019926E+03  0.7818608E-02  0.9749150E-01
         -4   -1    0    0    0  501 -0.00000000000E+00  0.00000000000E+00  0.17760551022E+04  0.17760551022E+04  0.00000000000E+00 0. -1.
         21   -1    0    0  501  502  0.00000000000E+00 -0.00000000000E+00 -0.20906065200E+03  0.20906065200E+03  0.00000000000E+00 0. -1.
        -13    1    1    2    0    0  0.16184892951E+03 -0.97190601019E+02  0.33472523857E+03  0.38429426929E+03  0.10566000000E+00 0.  1.
         13    1    1    2    0    0  0.91543238030E+02  0.51959709455E+03  0.59172952977E+03  0.79278316875E+03  0.10566000000E+00 0. -1.
         -4    1    1    2    0  502 -0.25339216754E+03 -0.42240649353E+03  0.64053968188E+03  0.80803831617E+03  0.00000000000E+00 0. -1.
</event>
<event>
 5    1  0.2540860E-005  0.3667650E+03  0.7818608E-02  0.1032801E+00
         -4   -1    0    0    0  501 -0.00000000000E+00  0.00000000000E+00  0.90694432152E+03  0.90694432152E+03  0.00000000000E+00 0. -1.
         21   -1    0    0  501  502  0.00000000000E+00 -0.00000000000E+00 -0.22124505890E+03  0.22124505890E+03  0.00000000000E+00 0. -1.
        -13    1    1    2    0    0  0.73254163514E+02  0.61996119092E+01  0.18395687792E+03  0.19810288175E+03  0.10566000000E+00 0.  1.
         13    1    1    2    0    0 -0.30548936780E+03 -0.26635538102E+03  0.39360627431E+03  0.56497332077E+03  0.10566000000E+00 0. -1.
         -4    1    1    2    0  502  0.23223520429E+03  0.26015576911E+03  0.10813611038E+03  0.36511317790E+03  0.00000000000E+00 0. -1.
</event>
<event>
 5    1  0.2540860E-005  0.5399318E+03  0.7818608E-02  0.9394497E-01
         21   -1    0    0  501  502  0.00000000000E+00  0.00000000000E+00  0.23733766572E+03  0.23733766572E+03  0.00000000000E+00 0.  1.
          4   -1    0    0  502    0 -0.00000000000E+00 -0.00000000000E+00 -0.24828704530E+04  0.24828704530E+04  0.00000000000E+00 0.  1.
        -13    1    1    2    0    0  0.59991798149E+03  0.13324005251E+03 -0.53070286169E+03  0.81197292731E+03  0.10566000000E+00 0.  1.
         13    1    1    2    0    0 -0.52216859176E+03  0.91316858505E+01 -0.16548200981E+04  0.17352731757E+04  0.10566000000E+00 0. -1.
          4    1    1    2  501    0 -0.77749389730E+02 -0.14237173836E+03 -0.60009827434E+02  0.17296201571E+03  0.00000000000E+00 0.  1.
</event>
<event>
 5    1  0.2540860E-005  0.4894697E+03  0.7818608E-02  0.9660796E-01
          4   -1    0    0  502    0 -0.00000000000E+00  0.00000000000E+00  0.24223037375E+04  0.24223037375E+04  0.00000000000E+00 0.  1.
         21   -1    0    0  501  502  0.00000000000E+00 -0.00000000000E+00 -0.18986501899E+03  0.18986501899E+03  0.00000000000E+00 0.  1.
        -13    1    1    2    0    0  0.14695622127E+02  0.42754324135E+03  0.13058522355E+04  0.13741394604E+04  0.10566000000E+00 0.  1.
         13    1    1    2    0    0  0.27500114254E+03  0.32815542480E+02  0.32533450496E+03  0.42725289877E+03  0.10566000000E+00 0. -1.
          4    1    1    2  501    0 -0.28969676466E+03 -0.46035878383E+03  0.60125197796E+03  0.81077639723E+03  0.00000000000E+00 0.  1.
</event>
<event>
 5    1  0.2540860E-005  0.6213917E+03  0.7818608E-02  0.9338793E-01
          4   -1    0    0  502    0 -0.00000000000E+00  0.00000000000E+00  0.26883005586E+04  0.26883005586E+04  0.00000000000E+00 0.  1.
         21   -1    0    0  501  502  0.00000000000E+00 -0.00000000000E+00 -0.38374953769E+03  0.38374953769E+03  0.00000000000E+00 0. -1.
        -13    1    1    2    0    0 -0.25200190572E+03  0.84610442756E+02  0.88487696315E+03  0.92394325507E+03  0.10566000000E+00 0.  1.
         13    1    1    2    0    0 -0.46220914603E+03 -0.58009445685E+03  0.69388021846E+03  0.10156853067E+04  0.10566000000E+00 0. -1.
          4    1    1    2  501    0  0.71421105176E+03  0.49548401410E+03  0.72579383934E+03  0.11324215345E+04  0.00000000000E+00 0.  1.
</event>
<event>
 5    1  0.2540860E-005  0.5021383E+03  0.7818608E-02  0.9473298E-01
         -4   -1    0    0    0  501 -0.00000000000E+00  0.00000000000E+00  0.11885482841E+04  0.11885482841E+04  0.00000000000E+00 0. -1.
         21   -1    0    0  501  502  0.00000000000E+00 -0.00000000000E+00 -0.52972892494E+03  0.52972892494E+03  0.00000000000E+00 0.  1.
        -13    1    1    2    0    0  0.36772060213E+03 -0.27984451653E+03  0.35543170197E+03  0.58297778739E+03  0.10566000000E+00 0.  1.
         13    1    1    2    0    0 -0.20049700087E+03  0.65151287637E+03  0.13816338721E+03  0.69552656899E+03  0.10566000000E+00 0. -1.
         -4    1    1    2    0  502 -0.16722360126E+03 -0.37166835984E+03  0.16522426993E+03  0.43977285262E+03  0.00000000000E+00 0. -1.
</event>
<event>
 5    1  0.2540860E-005  0.4165629E+03  0.7818608E-02  0.9682393E-01
         -4   -1    0    0    0  501 -0.00000000000E+00  0.00000000000E+00  0.24091098547E+04  0.24091098547E+04  0.00000000000E+00 0. -1.
         21   -1    0    0  501  502  0.00000000000E+00 -0.00000000000E+00 -0.10828139318E+03  0.10828139318E+03  0.00000000000E+00 0.  1.
        -13    1    1    2    0    0 -0.38898080695E+03 -0.12229581403E+03  0.92134954259E+03  0.10075451975E+04  0.10566000000E+00 0.  1.
         13    1    1    2    0    0  0.40164338674E+03  0.13243722270E+03  0.14117454386E+04  0.14737307158E+04  0.10566000000E+00 0. -1.
         -4    1    1    2    0  502 -0.12662579781E+02 -0.10141408672E+02 -0.32266519676E+02  0.36115334535E+02  0.00000000000E+00 0. -1.
</event>
<event>
 5    1  0.2540860E-005  0.5181841E+02  0.7818608E-02  0.1284557E+00
         21   -1    0    0  501  502  0.00000000000E+00  0.00000000000E+00  0.13367224986E+03  0.13367224986E+03  0.00000000000E+00 0. -1.
          4   -1    0    0  502    0 -0.00000000000E+00 -0.00000000000E+00 -0.20186024381E+03  0.20186024381E+03  0.00000000000E+00 0.  1.
        -13    1    1    2    0    0  0.43713294727E+02  0.26894357148E+02 -0.18186245453E+03  0.18896592845E+03  0.10566000000E+00 0.  1.
         13    1    1    2    0    0 -0.65941022490E+02 -0.18130391680E+02  0.88710441159E+02  0.11201108465E+03  0.10566000000E+00 0. -1.
          4    1    1    2  501    0  0.22227727763E+02 -0.87639654679E+01  0.24964019422E+02  0.34555480578E+02  0.00000000000E+00 0.  1.
</event>
<event>
 5    1  0.2540860E-005  0.4941882E+03  0.7818608E-02  0.9583951E-01
         21   -1    0    0  501  502  0.00000000000E+00  0.00000000000E+00  0.63389059676E+03  0.63389059676E+03  0.00000000000E+00 0.  1.
         -4   -1    0    0    0  501 -0.00000000000E+00 -0.00000000000E+00 -0.88796103335E+03  0.88796103335E+03  0.00000000000E+00 0. -1.
        -13    1    1    2    0    0 -0.28979704120E+02  0.35204243045E+03 -0.30093568301E+03  0.46404309342E+03  0.10566000000E+00 0.  1.
         13    1    1    2    0    0 -0.31427086375E+03 -0.52485690774E+03  0.20074327137E+03  0.64384689296E+03  0.10566000000E+00 0. -1.
         -4    1    1    2    0  502  0.34325056787E+03  0.17281447730E+03 -0.15387802495E+03  0.41396164372E+03  0.00000000000E+00 0. -1.
</event>
<event>
 5    1  0.2540860E-005  0.4982989E+03  0.7818608E-02  0.9726189E-01
         -4   -1    0    0    0  501 -0.00000000000E+00  0.00000000000E+00  0.11091125837E+04  0.11091125837E+04  0.00000000000E+00 0. -1.
         21   -1    0    0  501  502  0.00000000000E+00 -0.00000000000E+00 -0.35330950479E+03  0.35330950479E+03  0.00000000000E+00 0. -1.
        -13    1    1    2    0    0  0.92237060138E+02  0.18750315090E+03  0.22949600562E+03  0.31037644018E+03  0.10566000000E+00 0.  1.
         13    1    1    2    0    0 -0.38744726037E+03 -0.47250073671E+03  0.26838988587E+03  0.66738704494E+03  0.10566000000E+00 0. -1.
         -4    1    1    2    0  502  0.29521020023E+03  0.28499758581E+03  0.25791718740E+03  0.48465860334E+03  0.00000000000E+00 0. -1.
</event>
<event>
 5    1  0.2540860E-005  0.8330529E+03  0.7818608E-02  0.8949584E-01
          4   -1    0    0  502    0 -0.00000000000E+00  0.00000000000E+00  0.78073818874E+03  0.78073818874E+03  0.00000000000E+00 0.  1.
         21   -1    0    0  501  502  0.00000000000E+00 -0.00000000000E+00 -0.14351961102E+04  0.14351961102E+04  0.00000000000E+00 0. -1.
        -13    1    1    2    0    0  0.29723911927E+03  0.78813917570E+03  0.10852244311E+03  0.84928887083E+03  0.10566000000E+00 0.  1.
         13    1    1    2    0    0 -0.40878623572E+03 -0.71640644758E+03 -0.28826222940E+03  0.87375025535E+03  0.10566000000E+00 0. -1.
          4    1    1    2  501    0  0.11154711645E+03 -0.71732728112E+02 -0.47471813513E+03  0.49289517272E+03  0.00000000000E+00 0.  1.
</event>
<event>
 5    1  0.2540860E-005  0.4872240E+03  0.7818608E-02  0.9790579E-01
         21   -1    0    0  501  502  0.00000000000E+00  0.00000000000E+00  0.30307289046E+03  0.30307289046E+03  0.00000000000E+00 0.  1.
          4   -1    0    0  502    0 -0.00000000000E+00 -0.00000000000E+00 -0.12555005422E+04  0.12555005422E+04  0.00000000000E+00 0.  1.
        -13    1    1    2    0    0  0.18587150343E+03  0.51688481878E+03 -0.42066098294E+03  0.69186256251E+03  0.10566000000E+00 0.  1.
         13    1    1    2    0    0 -0.16839301024E+03 -0.60984196260E+02 -0.31327594930E+03  0.36085607888E+03  0.10566000000E+00 0. -1.
          4    1    1    2  501    0 -0.17478493188E+02 -0.45590062252E+03 -0.21849071949E+03  0.50585479126E+03  0.00000000000E+00 0.  1.
</event>
<event>
 5    1  0.2540860E-005  0.5163298E+03  0.7818608E-02  0.9442881E-01
         -4   -1    0    0    0  501 -0.00000000000E+00  0.00000000000E+00  0.37668864173E+04  0.37668864173E+04  0.00000000000E+00 0. -1.
         21   -1    0    0  501  502  0.00000000000E+00 -0.00000000000E+00 -0.17788155254E+03  0.17788155254E+03  0.00000000000E+00 0. -1.
        -13    1    1    2    0    0  0.60547908611E+02 -0.49363473625E+03  0.13813807477E+04  0.14681805350E+04  0.10566000000E+00 0.  1.
         13    1    1    2    0    0  0.24056241351E+03  0.57677183572E+03  0.70616043370E+03  0.94297327351E+03  0.10566000000E+00 0. -1.
         -4    1    1    2    0  502 -0.30111032212E+03 -0.83137099465E+02  0.15014636833E+04  0.15336141613E+04  0.00000000000E+00 0. -1.
</event>
<event>
 5    1  0.2540860E-005  0.1051662E+03  0.7818608E-02  0.1156280E+00
          4   -1    0    0  502    0 -0.00000000000E+00  0.00000000000E+00  0.23454887487E+03  0.23454887487E+03  0.00000000000E+00 0.  1.
         21   -1    0    0  501  502  0.00000000000E+00 -0.00000000000E+00 -0.13864035780E+03  0.13864035780E+03  0.00000000000E+00 0. -1.
        -13    1    1    2    0    0  0.95580220645E+02  0.38486083897E+02  0.15367904772E+03  0.18502437165E+03  0.10566000000E+00 0.  1.
         13    1    1    2    0    0 -0.87188783717E+02 -0.90913729235E+02 -0.39454349196E+02  0.13199942047E+03  0.10566000000E+00 0. -1.
          4    1    1    2  501    0 -0.83914369279E+01  0.52427645338E+02 -0.18316181447E+02  0.56165440551E+02  0.00000000000E+00 0.  1.
</event>
<event>
 5    1  0.2540860E-005  0.4134973E+03  0.7818608E-02  0.1013586E+00
         21   -1    0    0  501  502  0.00000000000E+00  0.00000000000E+00  0.75734732755E+03  0.75734732755E+03  0.00000000000E+00 0. -1.
         -4   -1    0    0    0  501 -0.00000000000E+00 -0.00000000000E+00 -0.69789286886E+03  0.69789286886E+03  0.00000000000E+00 0. -1.
        -13    1    1    2    0    0 -0.88078884589E+02 -0.31806777800E+02 -0.36775615562E+03  0.37949197908E+03  0.10566000000E+00 0.  1.
         13    1    1    2    0    0  0.46205574201E+03 -0.10028643705E+03 -0.25960786314E+02  0.47352597792E+03  0.10566000000E+00 0. -1.
         -4    1    1    2    0  502 -0.37397685742E+03  0.13209321485E+03  0.45317140062E+03  0.60222223940E+03  0.00000000000E+00 0. -1.
</event>
<event>
 5    1  0.2540860E-005  0.3426342E+03  0.7818608E-02  0.9911156E-01
         21   -1    0    0  501  502  0.00000000000E+00  0.00000000000E+00  0.42181926738E+03  0.42181926738E+03  0.00000000000E+00 0.  1.
         -4   -1    0    0    0  501 -0.00000000000E+00 -0.00000000000E+00 -0.76551669074E+03  0.76551669074E+03  0.00000000000E+00 0. -1.
        -13    1    1    2    0    0  0.31508781495E+03  0.15401519495E+03  0.18954103525E+03  0.39865627628E+03  0.10566000000E+00 0.  1.
         13    1    1    2    0    0 -0.27775861507E+03 -0.19963056048E+03 -0.60549431994E+03  0.69543194603E+03  0.10566000000E+00 0. -1.
         -4    1    1    2    0  502 -0.37329199885E+02  0.45615365522E+02  0.72255861333E+02  0.93247735806E+02  0.00000000000E+00 0. -1.
</event>
<event>
 5    1  0.2540860E-005  0.2888633E+03  0.7818608E-02  0.1012011E+00
         21   -1    0    0  501  502  0.00000000000E+00  0.00000000000E+00  0.81757438962E+02  0.81757438962E+02  0.00000000000E+00 0.  1.
         -4   -1    0    0    0  501 -0.00000000000E+00 -0.00000000000E+00 -0.18872387886E+04  0.18872387886E+04  0.00000000000E+00 0. -1.
        -13    1    1    2    0    0  0.27105060113E+03 -0.85467005297E+00 -0.22961678485E+03  0.35523659423E+03  0.10566000000E+00 0.  1.
         13    1    1    2    0    0 -0.29054924143E+03  0.41410411957E+02 -0.14650463145E+04  0.14941534054E+04  0.10566000000E+00 0. -1.
         -4    1    1    2    0  502  0.19498640308E+02 -0.40555741904E+02 -0.11081825023E+03  0.11960622793E+03  0.00000000000E+00 0. -1.
</event>
<event>
 5    1  0.2540860E-005  0.4754272E+03  0.7818608E-02  0.9659325E-01
          4   -1    0    0  502    0 -0.00000000000E+00  0.00000000000E+00  0.78818069833E+03  0.78818069833E+03  0.00000000000E+00 0.  1.
         21   -1    0    0  501  502  0.00000000000E+00 -0.00000000000E+00 -0.62589097752E+03  0.62589097752E+03  0.00000000000E+00 0. -1.
        -13    1    1    2    0    0  0.18383890644E+03 -0.21215239915E+03  0.40609869715E+03  0.49368162512E+03  0.10566000000E+00 0.  1.
         13    1    1    2    0    0  0.13124506874E+03 -0.27397660598E+03 -0.12780936258E+03  0.32958108717E+03  0.10566000000E+00 0. -1.
          4    1    1    2  501    0 -0.31508397518E+03  0.48612900513E+03 -0.11599961377E+03  0.59080896357E+03  0.00000000000E+00 0.  1.
</event>
<event>
 5    1  0.2540860E-005  0.2300334E+03  0.7818608E-02  0.1041293E+00
         -4   -1    0    0    0  501 -0.00000000000E+00  0.00000000000E+00  0.13795822575E+03  0.13795822575E+03  0.00000000000E+00 0. -1.
         21   -1    0    0  501  502  0.00000000000E+00 -0.00000000000E+00 -0.45616254980E+03  0.45616254980E+03  0.00000000000E+00 0.  1.
        -13    1    1    2    0    0 -0.16596428330E+03  0.15038447412E+03 -0.22389940887E+03  0.31668689560E+03  0.10566000000E+00 0.  1.
         13    1    1    2    0    0  0.16461880325E+03 -0.16567549921E+03 -0.61963365920E+02  0.24163441663E+03  0.10566000000E+00 0. -1.
         -4    1    1    2    0  502  0.13454800556E+01  0.15291025091E+02 -0.32341549259E+02  0.35799463312E+02  0.00000000000E+00 0. -1.
</event>
<event>
 5    1  0.2540860E-005  0.4783399E+03  0.7818608E-02  0.9737844E-01
         21   -1    0    0  501  502  0.00000000000E+00  0.00000000000E+00  0.18682717429E+03  0.18682717429E+03  0.00000000000E+00 0. -1.
         -4   -1    0    0    0  501 -0.00000000000E+00 -0.00000000000E+00 -0.21008291551E+04  0.21008291551E+04  0.00000000000E+00 0. -1.
        -13    1    1    2    0    0 -0.48751260742E+02  0.22158847849E+03 -0.43370582586E+03  0.48946797012E+03  0.10566000000E+00 0.  1.
         13    1    1    2    0    0  0.40168123136E+03 -0.44383711794E+03 -0.96021173084E+03  0.11315236534E+04  0.10566000000E+00 0. -1.
         -4    1    1    2    0  502 -0.35292997062E+03  0.22224863945E+03 -0.52008442408E+03  0.66666470588E+03  0.00000000000E+00 0. -1.
</event>
<event>
 5    1  0.2540860E-005  0.4972871E+03  0.7818608E-02  0.9566304E-01
         -4   -1    0    0    0  501 -0.00000000000E+00  0.00000000000E+00  0.66445766944E+03  0.66445766944E+03  0.00000000000E+00 0. -1.
         21   -1    0    0  501  502  0.00000000000E+00 -0.00000000000E+00 -0.89985268925E+03  0.89985268925E+03  0.00000000000E+00 0. -1.
        -13    1    1    2    0    0 -0.19830842962E+03  0.31148345743E+03  0.56223536991E+02  0.37350940388E+03  0.10566000000E+00 0.  1.
         13    1    1    2    0    0 -0.35151233325E+03 -0.29324561416E+03  0.15385007824E+03  0.48293246773E+03  0.10566000000E+00 0. -1.
         -4    1    1    2    0  502  0.54982076287E+03 -0.18237843266E+02 -0.44546863504E+03  0.70786848709E+03  0.00000000000E+00 0. -1.
</event>
<event>
 5    1  0.2540860E-005  0.4494351E+03  0.7818608E-02  0.9690939E-01
         21   -1    0    0  501  502  0.00000000000E+00  0.00000000000E+00  0.13238236161E+04  0.13238236161E+04  0.00000000000E+00 0.  1.
          4   -1    0    0  502    0 -0.00000000000E+00 -0.00000000000E+00 -0.45888877525E+03  0.45888877525E+03  0.00000000000E+00 0.  1.
        -13    1    1    2    0    0  0.29240080906E+03  0.18124451987E+03  0.35672564274E+03  0.49558148116E+03  0.10566000000E+00 0.  1.
         13    1    1    2    0    0  0.22045450740E+03  0.23460139899E+03 -0.14970687345E+03  0.35503544241E+03  0.10566000000E+00 0. -1.
          4    1    1    2  501    0 -0.51285531646E+03 -0.41584591886E+03  0.65791607160E+03  0.93209546781E+03  0.00000000000E+00 0.  1.
</event>
<event>
 5    1  0.2540860E-005  0.1481087E+03  0.7818608E-02  0.1102992E+00
          4   -1    0    0  502    0 -0.00000000000E+00  0.00000000000E+00  0.33729320856E+03  0.33729320856E+03  0.00000000000E+00 0.  1.
         21   -1    0    0  501  502  0.00000000000E+00 -0.00000000000E+00 -0.51645668696E+03  0.51645668696E+03  0.00000000000E+00 0.  1.
        -13    1    1    2    0    0  0.81356462354E+02 -0.11973159239E+03  0.24196271786E+03  0.28195832348E+03  0.10566000000E+00 0.  1.
         13    1    1    2    0    0 -0.13616791818E+03  0.10504046294E+03 -0.27576022538E+02  0.17417132078E+03  0.10566000000E+00 0. -1.
          4    1    1    2  501    0  0.54811455831E+02  0.14691129452E+02 -0.39355017372E+03  0.39762025126E+03  0.00000000000E+00 0.  1.
</event>
<event>
 5    1  0.2540860E-005  0.5345370E+03  0.7818608E-02  0.9449799E-01
         21   -1    0    0  501  502  0.00000000000E+00  0.00000000000E+00  0.68258479499E+03  0.68258479499E+03  0.00000000000E+00 0.  1.
         -4   -1    0    0    0  501 -0.00000000000E+00 -0.00000000000E+00 -0.19328142991E+04  0.19328142991E+04  0.00000000000E+00 0. -1.
        -13    1    1    2    0    0 -0.18004721325E+03 -0.55158533955E+03 -0.13484761124E+04  0.14680092720E+04  0.10566000000E+00 0.  1.
         13    1    1    2    0    0  0.17382517794E+03 -0.20592470475E+03 -0.19756777598E+03  0.33414549792E+03  0.10566000000E+00 0. -1.
         -4    1    1    2    0  502  0.62220353094E+01  0.75751004430E+03  0.29581438423E+03  0.81324432421E+03  0.00000000000E+00 0. -1.
</event>
<event>
 5    1  0.2540860E-005  0.3532671E+03  0.7818608E-02  0.1004222E+00
         -4   -1    0    0    0  501 -0.00000000000E+00  0.00000000000E+00  0.12909327169E+04  0.12909327169E+04  0.00000000000E+00 0. -1.
         21   -1    0    0  501  502  0.00000000000E+00 -0.00000000000E+00 -0.37107759085E+03  0.37107759085E+03  0.00000000000E+00 0. -1.
        -13    1    1    2    0    0 -0.14067298184E+03 -0.14640114349E+03  0.49739853823E+03  0.53724063475E+03  0.10566000000E+00 0.  1.
         13    1    1    2    0    0 -0.25358799584E+03  0.24439424672E+03 -0.18203281165E+03  0.39644845206E+03  0.10566000000E+00 0. -1.
         -4    1    1    2    0  502  0.39426097768E+03 -0.97993103228E+02  0.60448939946E+03  0.72832122093E+03  0.00000000000E+00 0. -1.
</event>
<event>
 5    1  0.2540860E-005  0.2667405E+03  0.7818608E-02  0.1076182E+00
          4   -1    0    0  502    0 -0.00000000000E+00  0.00000000000E+00  0.19045855036E+04  0.19045855036E+04  0.00000000000E+00 0.  1.
         21   -1    0    0  501  502  0.00000000000E+00 -0.00000000000E+00 -0.62289603975E+02  0.62289603975E+02  0.00000000000E+00 0.  1.
        -13    1    1    2    0    0 -0.24021632532E+03  0.90977603990E+02  0.35511800932E+03  0.43828029740E+03  0.10566000000E+00 0.  1.
         13    1    1    2    0    0 -0.50574285233E+02 -0.16399488883E+02  0.21479390789E+03  0.22127615234E+03  0.10566000000E+00 0. -1.
          4    1    1    2  501    0  0.29079061055E+03 -0.74578115108E+02  0.12723839824E+04  0.13073186578E+04  0.00000000000E+00 0.  1.
</event>
<event>
 5    1  0.2540860E-005  0.1459024E+03  0.7818608E-02  0.1105224E+00
         21   -1    0    0  501  502  0.00000000000E+00  0.00000000000E+00  0.61460519259E+03  0.61460519259E+03  0.00000000000E+00 0.  1.
         -4   -1    0    0    0  501 -0.00000000000E+00 -0.00000000000E+00 -0.32795505695E+03  0.32795505695E+03  0.00000000000E+00 0. -1.
        -13    1    1    2    0    0  0.75810595200E+02  0.11445212626E+03  0.33893662377E+03  0.36568371805E+03  0.10566000000E+00 0.  1.
         13    1    1    2    0    0 -0.86914410943E+02 -0.11771778956E+03 -0.29742163638E+03  0.33146829978E+03  0.10566000000E+00 0. -1.
         -4    1    1    2    0  502  0.11103815743E+02  0.32656632941E+01  0.24513514826E+03  0.24540823171E+03  0.00000000000E+00 0. -1.
</event>
<event>
 5    1  0.2540860E-005  0.2953633E+03  0.7818608E-02  0.1009238E+00
         21   -1    0    0  501  502  0.00000000000E+00  0.00000000000E+00  0.53046551755E+03  0.53046551755E+03  0.00000000000E+00 0.  1.
         -4   -1    0    0    0  501 -0.00000000000E+00 -0.00000000000E+00 -0.21217109087E+03  0.21217109087E+03  0.00000000000E+00 0. -1.
        -13    1    1    2    0    0 -0.26319568197E+03 -0.14889352532E+03  0.90581517635E+02  0.31566797651E+03  0.10566000000E+00 0.  1.
         13    1    1    2    0    0  0.25272376637E+03  0.13839127502E+03  0.11014570980E+03  0.30846966730E+03  0.10566000000E+00 0. -1.
         -4    1    1    2    0  502  0.10471915599E+02  0.10502250297E+02  0.11756719925E+03  0.11849896462E+03  0.00000000000E+00 0. -1.
</event>
<event>
 5    1  0.2700687E-005  0.4204458E+03  0.7818608E-02  0.9947945E-01
          4   -1    0    0  502    0 -0.00000000000E+00  0.00000000000E+00  0.19083816534E+04  0.19083816534E+04  0.00000000000E+00 0.  1.
         21   -1    0    0  501  502  0.00000000000E+00 -0.00000000000E+00 -0.20576770458E+03  0.20576770458E+03  0.00000000000E+00 0.  1.
        -13    1    1    2    0    0 -0.57559338208E+02  0.31535142638E+03  0.99071479329E+03  0.10412854615E+04  0.10566000000E+00 0.  1.
         13    1    1    2    0    0 -0.13371685182E+03  0.95095477385E+02  0.57772731655E+03  0.60057656442E+03  0.10566000000E+00 0. -1.
          4    1    1    2  501    0  0.19127619003E+03 -0.41044690376E+03  0.13417183903E+03  0.47228733211E+03  0.00000000000E+00 0.  1.
</event>
<event>
 5    1  0.2540860E-005  0.2289312E+02  0.7818608E-02  0.1473186E+00
         21   -1    0    0  501  502  0.00000000000E+00  0.00000000000E+00  0.26794422811E+03  0.26794422811E+03  0.00000000000E+00 0.  1.
          4   -1    0    0  502    0 -0.00000000000E+00 -0.00000000000E+00 -0.10633714363E+02  0.10633714363E+02  0.00000000000E+00 0.  1.
        -13    1    1    2    0    0  0.14703775830E+02 -0.23368593714E+02  0.35877180699E+02  0.45271132687E+02  0.10566000000E+00 0.  1.
         13    1    1    2    0    0 -0.16792317302E+02  0.12872738607E+02  0.13501181079E+02  0.25099449679E+02  0.10566000000E+00 0. -1.
          4    1    1    2  501    0  0.20885414720E+01  0.10495855107E+02  0.20793215197E+03  0.20820736011E+03  0.00000000000E+00 0.  1.
</event>
<event>
 5    1  0.2540860E-005  0.1508607E+03  0.7818608E-02  0.1100266E+00
          4   -1    0    0  502    0 -0.00000000000E+00  0.00000000000E+00  0.12443366110E+03  0.12443366110E+03  0.00000000000E+00 0.  1.
         21   -1    0    0  501  502  0.00000000000E+00 -0.00000000000E+00 -0.31471191134E+03  0.31471191134E+03  0.00000000000E+00 0. -1.
        -13    1    1    2    0    0  0.15286638776E+03  0.13748123918E+02  0.39724021635E+02  0.15854069660E+03  0.10566000000E+00 0.  1.
         13    1    1    2    0    0 -0.13916153988E+03 -0.26626436241E+02 -0.19773454046E+03  0.24325677985E+03  0.10566000000E+00 0. -1.
          4    1    1    2  501    0 -0.13704847889E+02  0.12878312323E+02 -0.32267731410E+02  0.37348095993E+02  0.00000000000E+00 0.  1.
</event>
<event>
 5    1  0.2540860E-005  0.4304698E+03  0.7818608E-02  0.9852118E-01
         -4   -1    0    0    0  501 -0.00000000000E+00  0.00000000000E+00  0.17719229408E+04  0.17719229408E+04  0.00000000000E+00 0. -1.
         21   -1    0    0  501  502  0.00000000000E+00 -0.00000000000E+00 -0.22225936161E+03  0.22225936161E+03  0.00000000000E+00 0. -1.
        -13    1    1    2    0    0  0.20805486524E+03  0.33060440575E+02  0.38997090949E+03  0.44323485997E+03  0.10566000000E+00 0.  1.
         13    1    1    2    0    0 -0.42865371476E+03  0.19666839558E+03  0.15414989772E+03  0.49616999821E+03  0.10566000000E+00 0. -1.
         -4    1    1    2    0  502  0.22059884952E+03 -0.22972883615E+03  0.10055427720E+04  0.10547774442E+04  0.00000000000E+00 0. -1.
</event>
<event>
 5    1  0.2540860E-005  0.5823660E+02  0.7818608E-02  0.1261466E+00
         -4   -1    0    0    0  501 -0.00000000000E+00  0.00000000000E+00  0.50970485485E+03  0.50970485485E+03  0.00000000000E+00 0. -1.
         21   -1    0    0  501  502  0.00000000000E+00 -0.00000000000E+00 -0.49169760852E+02  0.49169760852E+02  0.00000000000E+00 0. -1.
        -13    1    1    2    0    0  0.53704265287E+02 -0.17819488506E+02  0.20108257029E+03  0.20889206189E+03  0.10566000000E+00 0.  1.
         13    1    1    2    0    0 -0.62579986837E+02 -0.35005602221E+02  0.28265442745E+03  0.29160792764E+03  0.10566000000E+00 0. -1.
         -4    1    1    2    0  502  0.88757215498E+01  0.52825090727E+02 -0.23201903748E+02  0.58374626173E+02  0.00000000000E+00 0. -1.
</event>
<event>
 5    1  0.2540860E-005  0.2685589E+03  0.7818608E-02  0.1021200E+00
         21   -1    0    0  501  502  0.00000000000E+00  0.00000000000E+00  0.23295572947E+03  0.23295572947E+03  0.00000000000E+00 0.  1.
         -4   -1    0    0    0  501 -0.00000000000E+00 -0.00000000000E+00 -0.71785885779E+03  0.71785885779E+03  0.00000000000E+00 0. -1.
        -13    1    1    2    0    0 -0.21196482062E+03 -0.91670542008E+02 -0.28202625634E+03  0.36451528621E+03  0.10566000000E+00 0.  1.
         13    1    1    2    0    0  0.36862369393E+03  0.12498058562E+03 -0.15691744651E+03  0.41967448182E+03  0.10566000000E+00 0. -1.
         -4    1    1    2    0  502 -0.15665887331E+03 -0.33310043609E+02 -0.45959425465E+02  0.16662481923E+03  0.00000000000E+00 0. -1.
</event>
<event>
 5    1  0.2540860E-005  0.3147990E+03  0.7818608E-02  0.1011926E+00
         21   -1    0    0  501  502  0.00000000000E+00  0.00000000000E+00  0.60396375766E+03  0.60396375766E+03  0.00000000000E+00 0.  1.
          4   -1    0    0  502    0 -0.00000000000E+00 -0.00000000000E+00 -0.14276029967E+04  0.14276029967E+04  0.00000000000E+00 0.  1.
        -13    1    1    2    0    0 -0.61842817299E+02 -0.39552609743E+03 -0.31229883318E+03  0.50773615212E+03  0.10566000000E+00 0.  1.
         13    1    1    2    0    0  0.19322152898E+03  0.11292488366E+03 -0.95543475943E+03  0.98129617308E+03  0.10566000000E+00 0. -1.
          4    1    1    2  501    0 -0.13137871168E+03  0.28260121377E+03  0.44409435359E+03  0.54253442914E+03  0.00000000000E+00 0.  1.
</event>
<event>
 5    1  0.2540860E-005  0.4031396E+03  0.7818608E-02  0.9751113E-01
         21   -1    0    0  501  502  0.00000000000E+00  0.00000000000E+00  0.38795606697E+03  0.38795606697E+03  0.00000000000E+00 0. -1.
         -4   -1    0    0    0  501 -0.00000000000E+00 -0.00000000000E+00 -0.10403322400E+04  0.10403322400E+04  0.00000000000E+00 0. -1.
        -13    1    1    2    0    0  0.32163816290E+03  0.16620679308E+03 -0.31066312422E+03  0.47706120552E+03  0.10566000000E+00 0.  1.
         13    1    1    2    0    0 -0.38172632098E+03  0.25584457935E+03 -0.20822759956E+03  0.50450983865E+03  0.10566000000E+00 0. -1.
         -4    1    1    2    0  502  0.60088158083E+02 -0.42205137243E+03 -0.13348544924E+03  0.44671726279E+03  0.00000000000E+00 0. -1.
</event>
<event>
 5    1  0.2540860E-005  0.4860184E+03  0.7818608E-02  0.9721726E-01
         21   -1    0    0  501  502  0.00000000000E+00  0.00000000000E+00  0.60460623160E+03  0.60460623160E+03  0.00000000000E+00 0. -1.
         -4   -1    0    0    0  501 -0.00000000000E+00 -0.00000000000E+00 -0.68462407632E+03  0.68462407632E+03  0.00000000000E+00 0. -1.
        -13    1    1    2    0    0  0.18794473259E+03  0.13033824837E+03  0.10113390773E+03  0.25007870752E+03  0.10566000000E+00 0.  1.
         13    1    1    2    0    0  0.36240016809E+03 -0.17082585510E+03 -0.26589741814E+03  0.48085008343E+03  0.10566000000E+00 0. -1.
         -4    1    1    2    0  502 -0.55034490068E+03  0.40487606724E+02  0.84745665682E+02  0.55830151697E+03  0.00000000000E+00 0. -1.
</event>
<event>
 5    1  0.2540860E-005  0.5019912E+03  0.7818608E-02  0.9927230E-01
         -4   -1    0    0    0  501 -0.00000000000E+00  0.00000000000E+00  0.87758518887E+03  0.87758518887E+03  0.00000000000E+00 0. -1.
         21   -1    0    0  501  502  0.00000000000E+00 -0.00000000000E+00 -0.65283179959E+03  0.65283179959E+03  0.00000000000E+00 0. -1.
        -13    1    1    2    0    0  0.26967844419E+02  0.99685896561E+02  0.46357848722E+03  0.47494164650E+03  0.10566000000E+00 0.  1.
         13    1    1    2    0    0 -0.14210394112E+03 -0.52484330052E+03 -0.28267091368E+03  0.61282695501E+03  0.10566000000E+00 0. -1.
         -4    1    1    2    0  502  0.11513609670E+03  0.42515740396E+03  0.43845815747E+02  0.44264838694E+03  0.00000000000E+00 0. -1.
</event>
<event>
 5    1  0.2540860E-005  0.1138878E+03  0.7818608E-02  0.1143424E+00
         21   -1    0    0  501  502  0.00000000000E+00  0.00000000000E+00  0.34981303664E+03  0.34981303664E+03  0.00000000000E+00 0. -1.
          4   -1    0    0  502    0 -0.00000000000E+00 -0.00000000000E+00 -0.28726837342E+03  0.28726837342E+03  0.00000000000E+00 0.  1.
        -13    1    1    2    0    0  0.12537076529E+02 -0.11347575731E+03 -0.26349886646E+03  0.28716822522E+03  0.10566000000E+00 0.  1.
         13    1    1    2    0    0 -0.24162051915E+02  0.10572478109E+03  0.24869735070E+03  0.27131516268E+03  0.10566000000E+00 0. -1.
          4    1    1    2  501    0  0.11624975386E+02  0.77509762280E+01  0.77346178982E+02  0.78598022165E+02  0.00000000000E+00 0.  1.
</event>
<event>
 5    1  0.2540860E-005  0.4606335E+03  0.7818608E-02  0.9818468E-01
          4   -1    0    0  502    0 -0.00000000000E+00  0.00000000000E+00  0.22538824139E+03  0.22538824139E+03  0.00000000000E+00 0.  1.
         21   -1    0    0  501  502  0.00000000000E+00 -0.00000000000E+00 -0.19452502106E+04  0.19452502106E+04  0.00000000000E+00 0.  1.
        -13    1    1    2    0    0 -0.14033994329E+03  0.40991222632E+03 -0.40000473896E+03  0.58968392832E+03  0.10566000000E+00 0.  1.
         13    1    1    2    0    0 -0.18583041856E+03 -0.51010515807E+02 -0.20199458225E+02  0.19376028092E+03  0.10566000000E+00 0. -1.
          4    1    1    2  501    0  0.32617036185E+03 -0.35890171051E+03 -0.12996577721E+04  0.13871942428E+04  0.00000000000E+00 0.  1.
</event>
<event>
 5    1  0.2540860E-005  0.5341192E+03  0.7818608E-02  0.9406169E-01
         -4   -1    0    0    0  501 -0.00000000000E+00  0.00000000000E+00  0.35580008435E+04  0.35580008435E+04  0.00000000000E+00 0. -1.
         21   -1    0    0  501  502  0.00000000000E+00 -0.00000000000E+00 -0.19887612423E+03  0.19887612423E+03  0.00000000000E+00 0.  1.
        -13    1    1    2    0    0  0.46827161526E+03  0.27244567534E+03  0.10274832187E+04  0.11615621927E+04  0.10566000000E+00 0.  1.
         13    1    1    2    0    0 -0.57826063660E+03  0.25320497779E+02  0.59571359131E+03  0.83060290481E+03  0.10566000000E+00 0. -1.
         -4    1    1    2    0  502  0.10998902135E+03 -0.29776617312E+03  0.17359279092E+04  0.17647118702E+04  0.00000000000E+00 0. -1.
</event>
<event>
 5    1  0.2540860E-005  0.6679005E+03  0.7818608E-02  0.9170890E-01
         -4   -1    0    0    0  501 -0.00000000000E+00  0.00000000000E+00  0.98631547827E+03  0.98631547827E+03  0.00000000000E+00 0. -1.
         21   -1    0    0  501  502  0.00000000000E+00 -0.00000000000E+00 -0.53936942917E+03  0.53936942917E+03  0.00000000000E+00 0.  1.
        -13    1    1    2    0    0  0.55458643540E+03  0.36276735579E+03  0.39013399908E+03  0.76900638304E+03  0.10566000000E+00 0.  1.
         13    1    1    2    0    0 -0.57378356176E+03 -0.35693253176E+03  0.12358957950E+03  0.68695182022E+03  0.10566000000E+00 0. -1.
         -4    1    1    2    0  502  0.19197126355E+02 -0.58348240278E+01 -0.66777529484E+02  0.69726704179E+02  0.00000000000E+00 0. -1.
</event>
<event>
 5    1  0.2540860E-005  0.3611126E+02  0.7818608E-02  0.1397410E+00
          4   -1    0    0  502    0 -0.00000000000E+00  0.00000000000E+00  0.12120339015E+03  0.12120339015E+03  0.00000000000E+00 0.  1.
         21   -1    0    0  501  502  0.00000000000E+00 -0.00000000000E+00 -0.13466678161E+03  0.13466678161E+03  0.00000000000E+00 0.  1.
        -13    1    1    2    0    0 -0.52154629595E+02 -0.17600744184E+02  0.10848017403E+03  0.12164641756E+03  0.10566000000E+00 0.  1.
         13    1    1    2    0    0  0.18332989786E+02  0.66293892907E+01 -0.31534678318E+02  0.37074174536E+02  0.10566000000E+00 0. -1.
          4    1    1    2  501    0  0.33821639809E+02  0.10971354893E+02 -0.90408887173E+02  0.97149579657E+02  0.00000000000E+00 0.  1.
</event>
<event>
 5    1  0.2540860E-005  0.5459639E+03  0.7818608E-02  0.9603553E-01
          4   -1    0    0  502    0 -0.00000000000E+00  0.00000000000E+00  0.24777330073E+04  0.24777330073E+04  0.00000000000E+00 0.  1.
         21   -1    0    0  501  502  0.00000000000E+00 -0.00000000000E+00 -0.21557353515E+03  0.21557353515E+03  0.00000000000E+00 0. -1.
        -13    1    1    2    0    0 -0.35339417071E+02 -0.39047475213E+03  0.14296602034E+04  0.14824465301E+04  0.10566000000E+00 0.  1.
         13    1    1    2    0    0  0.49992002517E+02 -0.23912928697E+03  0.17573747455E+03  0.30094133536E+03  0.10566000000E+00 0. -1.
          4    1    1    2  501    0 -0.14652585447E+02  0.62960403911E+03  0.65676179427E+03  0.90991867699E+03  0.00000000000E+00 0.  1.
</event>
<event>
 5    1  0.2540860E-005  0.4920100E+03  0.7818608E-02  0.9585557E-01
         -4   -1    0    0    0  501 -0.00000000000E+00  0.00000000000E+00  0.14427704605E+04  0.14427704605E+04  0.00000000000E+00 0. -1.
         21   -1    0    0  501  502  0.00000000000E+00 -0.00000000000E+00 -0.58923532308E+03  0.58923532308E+03  0.00000000000E+00 0. -1.
        -13    1    1    2    0    0  0.12134249930E+03 -0.33457525904E+03  0.89789212610E+03  0.96585448561E+03  0.10566000000E+00 0.  1.
         13    1    1    2    0    0  0.24097664160E+03 -0.26368335406E+03  0.48901000934E+02  0.36054122103E+03  0.10566000000E+00 0. -1.
         -4    1    1    2    0  502 -0.36231914091E+03  0.59825861310E+03 -0.93257989637E+02  0.70561007691E+03  0.00000000000E+00 0. -1.
</event>
<event>
 5    1  0.2540860E-005  0.4548148E+03  0.7818608E-02  0.9887242E-01
         21   -1    0    0  501  502  0.00000000000E+00  0.00000000000E+00  0.12246626244E+03  0.12246626244E+03  0.00000000000E+00 0. -1.
         -4   -1    0    0    0  501 -0.00000000000E+00 -0.00000000000E+00 -0.27702971166E+04  0.27702971166E+04  0.00000000000E+00 0. -1.
        -13    1    1    2    0    0 -0.15239675800E+03 -0.44271932194E+02 -0.65410626134E+03  0.67308230412E+03  0.10566000000E+00 0.  1.
         13    1    1    2    0    0  0.87498232992E+02 -0.43848146411E+03 -0.63777549623E+03  0.77889635376E+03  0.10566000000E+00 0. -1.
         -4    1    1    2    0  502  0.64898525009E+02  0.48275339630E+03 -0.13559490966E+04  0.14407847212E+04  0.00000000000E+00 0. -1.
</event>
<event>
 5    1  0.2540860E-005  0.8068528E+02  0.7818608E-02  0.1208357E+00
         -4   -1    0    0    0  501 -0.00000000000E+00  0.00000000000E+00  0.29718729552E+02  0.29718729552E+02  0.00000000000E+00 0. -1.
         21   -1    0    0  501  502  0.00000000000E+00 -0.00000000000E+00 -0.13441131957E+04  0.13441131957E+04  0.00000000000E+00 0. -1.
        -13    1    1    2    0    0  0.67887672206E+02 -0.10009502690E+02 -0.12716051721E+03  0.14449475590E+03  0.10566000000E+00 0.  1.
         13    1    1    2    0    0 -0.12655971963E+03 -0.40388103419E+02 -0.20639659401E+03  0.24545493825E+03  0.10566000000E+00 0. -1.
         -4    1    1    2    0  502  0.58672047420E+02  0.50397606109E+02 -0.98083735488E+03  0.98388223105E+03  0.00000000000E+00 0. -1.
</event>
<event>
 5    1  0.2540860E-005  0.3440241E+03  0.7818608E-02  0.9953471E-01
          4   -1    0    0  502    0 -0.00000000000E+00  0.00000000000E+00  0.19311753150E+04  0.19311753150E+04  0.00000000000E+00 0.  1.
         21   -1    0    0  501  502  0.00000000000E+00 -0.00000000000E+00 -0.38717954730E+03  0.38717954730E+03  0.00000000000E+00 0.  1.
        -13    1    1    2    0    0 -0.30006765188E+03  0.12853125148E+03 -0.15213978671E+03  0.36014914157E+03  0.10566000000E+00 0.  1.
         13    1    1    2    0    0  0.23104375090E+02  0.29318185931E+03  0.12518818823E+04  0.12859617697E+04  0.10566000000E+00 0. -1.
          4    1    1    2  501    0  0.27696327679E+03 -0.42171311079E+03  0.44425367210E+03  0.67224395102E+03  0.00000000000E+00 0.  1.
</event>
<event>
 5    1  0.2540860E-005  0.1853828E+03  0.7818608E-02  0.1070646E+00
         -4   -1    0    0    0  501 -0.00000000000E+00  0.00000000000E+00  0.90466369895E+03  0.90466369895E+03  0.00000000000E+00 0. -1.
         21   -1    0    0  501  502  0.00000000000E+00 -0.00000000000E+00 -0.73442648537E+02  0.73442648537E+02  0.00000000000E+00 0.  1.
        -13    1    1    2    0    0  0.16649724862E+03  0.27977818908E+02  0.79604667513E+02  0.18665745740E+03  0.10566000000E+00 0.  1.
         13    1    1    2    0    0 -0.18884251737E+03 -0.12331159713E+02  0.73616029279E+03  0.76009574509E+03  0.10566000000E+00 0. -1.
         -4    1    1    2    0  502  0.22345268747E+02 -0.15646659195E+02  0.15456090110E+02  0.31353144991E+02  0.00000000000E+00 0. -1.
</event>
<event>
 5    1  0.2540860E-005  0.3623926E+03  0.7818608E-02  0.1002282E+00
         21   -1    0    0  501  502  0.00000000000E+00  0.00000000000E+00  0.28712377828E+03  0.28712377828E+03  0.00000000000E+00 0. -1.
         -4   -1    0    0    0  501 -0.00000000000E+00 -0.00000000000E+00 -0.13483009462E+04  0.13483009462E+04  0.00000000000E+00 0. -1.
        -13    1    1    2    0    0 -0.17230120356E+03 -0.10220899443E+03 -0.16430266123E+03  0.25909411214E+03  0.10566000000E+00 0.  1.
         13    1    1    2    0    0  0.50035770436E+03  0.16783222524E+03 -0.89820048936E+03  0.10417723448E+04  0.10566000000E+00 0. -1.
         -4    1    1    2    0  502 -0.32805650080E+03 -0.65623230813E+02  0.13259826817E+01  0.33455826752E+03  0.00000000000E+00 0. -1.
</event>
<event>
 5    1  0.2540860E-005  0.8951119E+02  0.7818608E-02  0.1183182E+00
         21   -1    0    0  501  502  0.00000000000E+00  0.00000000000E+00  0.51375520846E+03  0.51375520846E+03  0.00000000000E+00 0. -1.
          4   -1    0    0  502    0 -0.00000000000E+00 -0.00000000000E+00 -0.39459613198E+02  0.39459613198E+02  0.00000000000E+00 0.  1.
        -13    1    1    2    0    0 -0.13296670292E+02 -0.91926746459E+02  0.35505812280E+02  0.99438433340E+02  0.10566000000E+00 0.  1.
         13    1    1    2    0    0  0.40107025210E+02  0.69100910227E+02  0.28339233517E+03  0.29443969852E+03  0.10566000000E+00 0. -1.
          4    1    1    2  501    0 -0.26810354918E+02  0.22825836232E+02  0.15539744781E+03  0.15933668980E+03  0.00000000000E+00 0.  1.
</event>
<event>
 5    1  0.2540860E-005  0.1794133E+03  0.7818608E-02  0.1075246E+00
         21   -1    0    0  501  502  0.00000000000E+00  0.00000000000E+00  0.42153847768E+02  0.42153847768E+02  0.00000000000E+00 0. -1.
          4   -1    0    0  502    0 -0.00000000000E+00 -0.00000000000E+00 -0.11794100073E+04  0.11794100073E+04  0.00000000000E+00 0.  1.
        -13    1    1    2    0    0  0.17996839467E+03  0.14777864525E+02 -0.89181266729E+03  0.90991035441E+03  0.10566000000E+00 0.  1.
         13    1    1    2    0    0 -0.17607191569E+03 -0.14895774239E+00 -0.23307164372E+03  0.29210228338E+03  0.10566000000E+00 0. -1.
          4    1    1    2  501    0 -0.38964789835E+01 -0.14628906783E+02 -0.12371848572E+02  0.19551217333E+02  0.00000000000E+00 0.  1.
</event>
<event>
 5    1  0.2540860E-005  0.4142048E+03  0.7818608E-02  0.9972001E-01
         21   -1    0    0  501  502  0.00000000000E+00  0.00000000000E+00  0.99360163779E+03  0.99360163779E+03  0.00000000000E+00 0.  1.
          4   -1    0    0  502    0 -0.00000000000E+00 -0.00000000000E+00 -0.50442912267E+03  0.50442912267E+03  0.00000000000E+00 0.  1.
        -13    1    1    2    0    0 -0.47955005366E+03  0.23645179841E+03  0.15616543805E+03  0.55701468755E+03  0.10566000000E+00 0.  1.
         13    1    1    2    0    0  0.15162134301E+03 -0.46181707194E+02 -0.21961920958E+03  0.27084015602E+03  0.10566000000E+00 0. -1.
          4    1    1    2  501    0  0.32792871065E+03 -0.19027009121E+03  0.55262628665E+03  0.67017591689E+03  0.00000000000E+00 0.  1.
</event>
<event>
 5    1  0.2540860E-005  0.3571576E+03  0.7818608E-02  0.1031141E+00
         21   -1    0    0  501  502  0.00000000000E+00  0.00000000000E+00  0.14523631145E+04  0.14523631145E+04  0.00000000000E+00 0. -1.
         -4   -1    0    0    0  501 -0.00000000000E+00 -0.00000000000E+00 -0.19946084899E+03  0.19946084899E+03  0.00000000000E+00 0. -1.
        -13    1    1    2    0    0  0.40426650408E+02  0.73382641230E+02  0.64272866956E+01  0.84027657800E+02  0.10566000000E+00 0.  1.
         13    1    1    2    0    0 -0.35902855550E+03 -0.72541121454E+02  0.11888849377E+04  0.12440301943E+04  0.10566000000E+00 0. -1.
         -4    1    1    2    0  502  0.31860190509E+03 -0.84151977621E+00  0.57590041133E+02  0.32376611144E+03  0.00000000000E+00 0. -1.
</event>
<event>
 5    1  0.2540860E-005  0.6283180E+03  0.7818608E-02  0.9457303E-01
         21   -1    0    0  501  502  0.00000000000E+00  0.00000000000E+00  0.21551068578E+03  0.21551068578E+03  0.00000000000E+00 0.  1.
          4   -1    0    0  502    0 -0.00000000000E+00 -0.00000000000E+00 -0.35893808087E+04  0.35893808087E+04  0.00000000000E+00 0.  1.
        -13    1    1    2    0    0  0.60886848826E+03 -0.17547811914E+03 -0.21897097098E+04  0.22795486463E+04  0.10566000000E+00 0.  1.
         13    1    1    2    0    0 -0.12292717584E+03 -0.24236136240E+03 -0.59791218800E+03  0.65677173832E+03  0.10566000000E+00 0. -1.
          4    1    1    2  501    0 -0.48594131242E+03  0.41783948154E+03 -0.58624822508E+03  0.86857110984E+03  0.00000000000E+00 0.  1.
</event>
<event>
 5    1  0.2540860E-005  0.5056544E+03  0.7818608E-02  0.9745690E-01
          4   -1    0    0  502    0 -0.00000000000E+00  0.00000000000E+00  0.24201366265E+04  0.24201366265E+04  0.00000000000E+00 0.  1.
         21   -1    0    0  501  502  0.00000000000E+00 -0.00000000000E+00 -0.20192797104E+03  0.20192797104E+03  0.00000000000E+00 0.  1.
        -13    1    1    2    0    0  0.39810790784E+03  0.19143437923E+03  0.75371831564E+03  0.87362940560E+03  0.10566000000E+00 0.  1.
         13    1    1    2    0    0  0.16060589774E+02  0.18624360411E+03  0.10090369388E+04  0.10262066935E+04  0.10566000000E+00 0. -1.
          4    1    1    2  501    0 -0.41416849761E+03 -0.37767798334E+03  0.45545340094E+03  0.72222849843E+03  0.00000000000E+00 0.  1.
</event>
<event>
 5    1  0.2540860E-005  0.4307225E+03  0.7818608E-02  0.9918664E-01
         21   -1    0    0  501  502  0.00000000000E+00  0.00000000000E+00  0.28171968319E+03  0.28171968319E+03  0.00000000000E+00 0. -1.
         -4   -1    0    0    0  501 -0.00000000000E+00 -0.00000000000E+00 -0.12497241644E+04  0.12497241644E+04  0.00000000000E+00 0. -1.
        -13    1    1    2    0    0  0.55374070583E+02 -0.15883540095E+03 -0.23983657614E+03  0.29294464785E+03  0.10566000000E+00 0.  1.
         13    1    1    2    0    0 -0.22525817313E+03  0.50768475032E+03 -0.62677231459E+03  0.83745363798E+03  0.10566000000E+00 0. -1.
         -4    1    1    2    0  502  0.16988410254E+03 -0.34884934937E+03 -0.10139559049E+03  0.40104556178E+03  0.00000000000E+00 0. -1.
</event>
<event>
 5    1  0.2540860E-005  0.4993135E+03  0.7818608E-02  0.9667394E-01
         -4   -1    0    0    0  501 -0.00000000000E+00  0.00000000000E+00  0.43273219136E+03  0.43273219136E+03  0.00000000000E+00 0. -1.
         21   -1    0    0  501  502  0.00000000000E+00 -0.00000000000E+00 -0.11335729635E+04  0.11335729635E+04  0.00000000000E+00 0. -1.
        -13    1    1    2    0    0  0.46335327723E+02 -0.25067556575E+03  0.86594928518E+02  0.26922833185E+03  0.10566000000E+00 0.  1.
         13    1    1    2    0    0  0.42853593075E+03  0.33731120889E+03 -0.46382010530E+03  0.71592667001E+03  0.10566000000E+00 0. -1.
         -4    1    1    2    0  502 -0.47487125848E+03 -0.86635643141E+02 -0.32361559541E+03  0.58115015304E+03  0.00000000000E+00 0. -1.
</event>
<event>
 5    1  0.2540860E-005  0.3498765E+03  0.7818608E-02  0.1006410E+00
         21   -1    0    0  501  502  0.00000000000E+00  0.00000000000E+00  0.83516703332E+03  0.83516703332E+03  0.00000000000E+00 0.  1.
          4   -1    0    0  502    0 -0.00000000000E+00 -0.00000000000E+00 -0.45272882035E+03  0.45272882035E+03  0.00000000000E+00 0.  1.
        -13    1    1    2    0    0 -0.29653133453E+03 -0.31791711757E+03 -0.16802956652E+03  0.46608590667E+03  0.10566000000E+00 0.  1.
         13    1    1    2    0    0  0.19449228305E+03 -0.85072578703E+01  0.27026231934E+02  0.19654528735E+03  0.10566000000E+00 0. -1.
          4    1    1    2  501    0  0.10203905148E+03  0.32642437544E+03  0.52344154755E+03  0.62526465966E+03  0.00000000000E+00 0.  1.
</event>
<event>
 5    1  0.2540860E-005  0.1909065E+03  0.7818608E-02  0.1074011E+00
         21   -1    0    0  501  502  0.00000000000E+00  0.00000000000E+00  0.27872371858E+03  0.27872371858E+03  0.00000000000E+00 0. -1.
         -4   -1    0    0    0  501 -0.00000000000E+00 -0.00000000000E+00 -0.12244846907E+04  0.12244846907E+04  0.00000000000E+00 0. -1.
        -13    1    1    2    0    0 -0.51721639529E+02 -0.14530121008E+03 -0.10838225078E+03  0.18850541928E+03  0.10566000000E+00 0.  1.
         13    1    1    2    0    0  0.23009412356E+03  0.77140942261E+02 -0.10212064802E+04  0.10496459960E+04  0.10566000000E+00 0. -1.
         -4    1    1    2    0  502 -0.17837248403E+03  0.68160267824E+02  0.18382775881E+03  0.26505699401E+03  0.00000000000E+00 0. -1.
</event>
<event>
 5    1  0.2540860E-005  0.6366801E+02  0.7818608E-02  0.1244390E+00
         -4   -1    0    0    0  501 -0.00000000000E+00  0.00000000000E+00  0.90650929008E+02  0.90650929008E+02  0.00000000000E+00 0. -1.
         21   -1    0    0  501  502  0.00000000000E+00 -0.00000000000E+00 -0.11137000306E+03  0.11137000306E+03  0.00000000000E+00 0.  1.
        -13    1    1    2    0    0 -0.87568097878E+01  0.78530042622E+02 -0.24514981271E+02  0.82732368410E+02  0.10566000000E+00 0.  1.
         13    1    1    2    0    0  0.30708625743E+02 -0.52028174001E+02  0.37510670403E+02  0.71112672169E+02  0.10566000000E+00 0. -1.
         -4    1    1    2    0  502 -0.21951815955E+02 -0.26501868621E+02 -0.33714763180E+02  0.48175891486E+02  0.00000000000E+00 0. -1.
</event>
<event>
 5    1  0.2540860E-005  0.4441140E+03  0.7818608E-02  0.9730875E-01
         -4   -1    0    0    0  501 -0.00000000000E+00  0.00000000000E+00  0.64305052900E+03  0.64305052900E+03  0.00000000000E+00 0. -1.
         21   -1    0    0  501  502  0.00000000000E+00 -0.00000000000E+00 -0.11411321740E+04  0.11411321740E+04  0.00000000000E+00 0. -1.
        -13    1    1    2    0    0  0.27432731860E+03  0.95292179692E+02  0.34271812852E+03  0.44921242638E+03  0.10566000000E+00 0.  1.
         13    1    1    2    0    0  0.12031291831E+03  0.23943002329E+03  0.79204316549E+02  0.27941952203E+03  0.10566000000E+00 0. -1.
         -4    1    1    2    0  502 -0.39464023691E+03 -0.33472220299E+03 -0.92000409008E+03  0.10555507546E+04  0.00000000000E+00 0. -1.
</event>
<event>
 5    1  0.2540860E-005  0.2070116E+03  0.7818608E-02  0.1055433E+00
          4   -1    0    0  502    0 -0.00000000000E+00  0.00000000000E+00  0.84435326002E+03  0.84435326002E+03  0.00000000000E+00 0.  1.
         21   -1    0    0  501  502  0.00000000000E+00 -0.00000000000E+00 -0.67560823658E+02  0.67560823658E+02  0.00000000000E+00 0. -1.
        -13    1    1    2    0    0 -0.59135607072E+02  0.19868404473E+03  0.30007341731E+03  0.36471418480E+03  0.10566000000E+00 0.  1.
         13    1    1    2    0    0  0.38477696704E+02 -0.20365281564E+03  0.48254284616E+03  0.52516912705E+03  0.10566000000E+00 0. -1.
          4    1    1    2  501    0  0.20657910368E+02  0.49687709062E+01 -0.58238271095E+01  0.22030771827E+02  0.00000000000E+00 0.  1.
</event>
<event>
 5    1  0.2540860E-005  0.1372559E+03  0.7818608E-02  0.1143280E+00
         -4   -1    0    0    0  501 -0.00000000000E+00  0.00000000000E+00  0.11105708857E+03  0.11105708857E+03  0.00000000000E+00 0. -1.
         21   -1    0    0  501  502  0.00000000000E+00 -0.00000000000E+00 -0.39569424664E+03  0.39569424664E+03  0.00000000000E+00 0. -1.
        -13    1    1    2    0    0 -0.61041755574E+02 -0.23180155499E+02 -0.19667998385E+02  0.68192791826E+02  0.10566000000E+00 0.  1.
         13    1    1    2    0    0  0.18505076767E+03  0.35532056702E+02 -0.58337917651E+02  0.19725525967E+03  0.10566000000E+00 0. -1.
         -4    1    1    2    0  502 -0.12400901209E+03 -0.12351901203E+02 -0.20663124204E+03  0.24130328371E+03  0.00000000000E+00 0. -1.
</event>
<event>
 5    1  0.2540860E-005  0.4477551E+03  0.7818608E-02  0.9600479E-01
         21   -1    0    0  501  502  0.00000000000E+00  0.00000000000E+00  0.45285830656E+03  0.45285830656E+03  0.00000000000E+00 0.  1.
          4   -1    0    0  502    0 -0.00000000000E+00 -0.00000000000E+00 -0.13071624093E+04  0.13071624093E+04  0.00000000000E+00 0.  1.
        -13    1    1    2    0    0  0.63835745819E+03 -0.61782900782E+02 -0.17986356088E+01  0.64134282370E+03  0.10566000000E+00 0.  1.
         13    1    1    2    0    0 -0.38874185836E+03 -0.12771918402E+03 -0.44385539750E+03  0.60368870079E+03  0.10566000000E+00 0. -1.
          4    1    1    2  501    0 -0.24961559983E+03  0.18950208480E+03 -0.40865006965E+03  0.51498919139E+03  0.00000000000E+00 0.  1.
</event>
<event>
 5    1  0.2540860E-005  0.4997470E+03  0.7818608E-02  0.9525509E-01
         21   -1    0    0  501  502  0.00000000000E+00  0.00000000000E+00  0.15601624268E+04  0.15601624268E+04  0.00000000000E+00 0.  1.
         -4   -1    0    0    0  501 -0.00000000000E+00 -0.00000000000E+00 -0.36868953775E+03  0.36868953775E+03  0.00000000000E+00 0. -1.
        -13    1    1    2    0    0 -0.12463110667E+03 -0.40250139595E+03  0.41924462420E+03  0.59439578782E+03  0.10566000000E+00 0.  1.
         13    1    1    2    0    0 -0.41652345009E+03  0.96038602993E+02  0.14551365447E+03  0.45154117480E+03  0.10566000000E+00 0. -1.
         -4    1    1    2    0  502  0.54115455676E+03  0.30646279296E+03  0.62671461037E+03  0.88291500193E+03  0.00000000000E+00 0. -1.
</event>
<event>
 5    1  0.2540860E-005  0.7186053E+02  0.7818608E-02  0.1221929E+00
         -4   -1    0    0    0  501 -0.00000000000E+00  0.00000000000E+00  0.30536897410E+02  0.30536897410E+02  0.00000000000E+00 0. -1.
         21   -1    0    0  501  502  0.00000000000E+00 -0.00000000000E+00 -0.36176113399E+03  0.36176113399E+03  0.00000000000E+00 0.  1.
        -13    1    1    2    0    0 -0.31580665875E+02 -0.67932399734E+02 -0.21347244488E+03  0.22623581785E+03  0.10566000000E+00 0.  1.
         13    1    1    2    0    0  0.60017531446E+02  0.42149106366E+02 -0.51921874923E+02  0.89858463752E+02  0.10566000000E+00 0. -1.
         -4    1    1    2    0  502 -0.28436865571E+02  0.25783293368E+02 -0.65829916772E+02  0.76203749794E+02  0.00000000000E+00 0. -1.
</event>
<event>
 5    1  0.2540860E-005  0.1518765E+03  0.7818608E-02  0.1099276E+00
         -4   -1    0    0    0  501 -0.00000000000E+00  0.00000000000E+00  0.13394495516E+04  0.13394495516E+04  0.00000000000E+00 0. -1.
         21   -1    0    0  501  502  0.00000000000E+00 -0.00000000000E+00 -0.25861829943E+02  0.25861829943E+02  0.00000000000E+00 0.  1.
        -13    1    1    2    0    0 -0.67627858570E+02  0.13302718221E+03  0.65232574128E+03  0.66917758657E+03  0.10566000000E+00 0.  1.
         13    1    1    2    0    0  0.59803865383E+02 -0.14287215787E+03  0.66517081415E+03  0.68296499103E+03  0.10566000000E+00 0. -1.
         -4    1    1    2    0  502  0.78239931865E+01  0.98449756640E+01 -0.39088337955E+01  0.13168803926E+02  0.00000000000E+00 0. -1.
</event>
<event>
 5    1  0.2540860E-005  0.2622128E+03  0.7818608E-02  0.1024251E+00
         -4   -1    0    0    0  501 -0.00000000000E+00  0.00000000000E+00  0.14479710403E+04  0.14479710403E+04  0.00000000000E+00 0. -1.
         21   -1    0    0  501  502  0.00000000000E+00 -0.00000000000E+00 -0.82332188046E+02  0.82332188046E+02  0.00000000000E+00 0.  1.
        -13    1    1    2    0    0 -0.40964861610E+02 -0.23985557432E+03  0.39281935697E+03  0.46207778003E+03  0.10566000000E+00 0.  1.
         13    1    1    2    0    0  0.24107413596E+02  0.27145817032E+03  0.99118906118E+03  0.10279720190E+04  0.10566000000E+00 0. -1.
         -4    1    1    2    0  502  0.16857448014E+02 -0.31602596004E+02 -0.18369565856E+02  0.40253429388E+02  0.00000000000E+00 0. -1.
</event>
<event>
 5    1  0.2540860E-005  0.8223665E+03  0.7818608E-02  0.8962219E-01
         21   -1    0    0  501  502  0.00000000000E+00  0.00000000000E+00  0.10355495894E+04  0.10355495894E+04  0.00000000000E+00 0. -1.
          4   -1    0    0  502    0 -0.00000000000E+00 -0.00000000000E+00 -0.16680065654E+04  0.16680065654E+04  0.00000000000E+00 0.  1.
        -13    1    1    2    0    0  0.56219386042E+02  0.73431065952E+03 -0.71225463931E+02  0.73989583181E+03  0.10566000000E+00 0.  1.
         13    1    1    2    0    0 -0.60405518368E+03 -0.70679993063E+03 -0.92018435092E+03  0.13081238694E+04  0.10566000000E+00 0. -1.
          4    1    1    2  501    0  0.54783579764E+03 -0.27510728895E+02  0.35895283888E+03  0.65553645354E+03  0.00000000000E+00 0.  1.
</event>
<event>
 5    1  0.2540860E-005  0.1321190E+03  0.7818608E-02  0.1120219E+00
         -4   -1    0    0    0  501 -0.00000000000E+00  0.00000000000E+00  0.43949552130E+03  0.43949552130E+03  0.00000000000E+00 0. -1.
         21   -1    0    0  501  502  0.00000000000E+00 -0.00000000000E+00 -0.11929461584E+04  0.11929461584E+04  0.00000000000E+00 0.  1.
        -13    1    1    2    0    0  0.11092146598E+03  0.88560837243E+02 -0.54307160217E+03  0.56131396719E+03  0.10566000000E+00 0.  1.
         13    1    1    2    0    0 -0.10790766153E+03 -0.75928109452E+02  0.42019310666E+03  0.44042184241E+03  0.10566000000E+00 0. -1.
         -4    1    1    2    0  502 -0.30138044543E+01 -0.12632727791E+02 -0.63057214154E+03  0.63070587005E+03  0.00000000000E+00 0. -1.
</event>
<event>
 5    1  0.2540860E-005  0.4513409E+03  0.7818608E-02  0.9591517E-01
         21   -1    0    0  501  502  0.00000000000E+00  0.00000000000E+00  0.36202060086E+03  0.36202060086E+03  0.00000000000E+00 0. -1.
          4   -1    0    0  502    0 -0.00000000000E+00 -0.00000000000E+00 -0.17921635921E+04  0.17921635921E+04  0.00000000000E+00 0.  1.
        -13    1    1    2    0    0 -0.54309156294E+03  0.22099882335E+03 -0.37322600655E+03  0.69504430707E+03  0.10566000000E+00 0.  1.
         13    1    1    2    0    0  0.27672610924E+03 -0.11049048231E+03  0.61408498901E+02  0.30423099960E+03  0.10566000000E+00 0. -1.
          4    1    1    2  501    0  0.26636545370E+03 -0.11050834104E+03 -0.11183254836E+04  0.11549088863E+04  0.00000000000E+00 0.  1.
</event>
<event>
 5    1  0.2540860E-005  0.3532637E+03  0.7818608E-02  0.9874680E-01
         21   -1    0    0  501  502  0.00000000000E+00  0.00000000000E+00  0.87112186589E+02  0.87112186589E+02  0.00000000000E+00 0.  1.
          4   -1    0    0  502    0 -0.00000000000E+00 -0.00000000000E+00 -0.29787385913E+04  0.29787385913E+04  0.00000000000E+00 0.  1.
        -13    1    1    2    0    0  0.94542247608E+02 -0.38139531277E+03 -0.21336372791E+04  0.21695180734E+04  0.10566000000E+00 0.  1.
         13    1    1    2    0    0 -0.19567964676E+02  0.22869521046E+03 -0.17387941446E+03  0.28795566753E+03  0.10566000000E+00 0. -1.
          4    1    1    2  501    0 -0.74974282932E+02  0.15270010231E+03 -0.58410971118E+03  0.60837703691E+03  0.00000000000E+00 0.  1.
</event>
<event>
 5    1  0.2540860E-005  0.4975407E+03  0.7818608E-02  0.9483379E-01
          4   -1    0    0  502    0 -0.00000000000E+00  0.00000000000E+00  0.15319183019E+04  0.15319183019E+04  0.00000000000E+00 0.  1.
         21   -1    0    0  501  502  0.00000000000E+00 -0.00000000000E+00 -0.32045940312E+03  0.32045940312E+03  0.00000000000E+00 0. -1.
        -13    1    1    2    0    0  0.34309688814E+02  0.53584950993E+03  0.11616595458E+04  0.12797518367E+04  0.10566000000E+00 0.  1.
         13    1    1    2    0    0 -0.11038912757E+03 -0.36544217415E+03  0.10397780494E+02  0.38189248112E+03  0.10566000000E+00 0. -1.
          4    1    1    2  501    0  0.76079438753E+02 -0.17040733577E+03  0.39401572513E+02  0.19073338723E+03  0.00000000000E+00 0.  1.
</event>
<event>
 5    1  0.2540860E-005  0.1240706E+03  0.7818608E-02  0.1129925E+00
         -4   -1    0    0    0  501 -0.00000000000E+00  0.00000000000E+00  0.52241626660E+03  0.52241626660E+03  0.00000000000E+00 0. -1.
         21   -1    0    0  501  502  0.00000000000E+00 -0.00000000000E+00 -0.81036872304E+02  0.81036872304E+02  0.00000000000E+00 0. -1.
        -13    1    1    2    0    0 -0.14436420534E+02 -0.13201773880E+03  0.17267936102E+03  0.21784229727E+03  0.10566000000E+00 0.  1.
         13    1    1    2    0    0 -0.37701996523E+02  0.11742039872E+03  0.29909277235E+03  0.32352046026E+03  0.10566000000E+00 0. -1.
         -4    1    1    2    0  502  0.52138417058E+02  0.14597340084E+02 -0.30392739065E+02  0.62090381370E+02  0.00000000000E+00 0. -1.
</event>
<event>
 5    1  0.2540860E-005  0.1456041E+03  0.7818608E-02  0.1105530E+00
         21   -1    0    0  501  502  0.00000000000E+00  0.00000000000E+00  0.33686916670E+03  0.33686916670E+03  0.00000000000E+00 0. -1.
          4   -1    0    0  502    0 -0.00000000000E+00 -0.00000000000E+00 -0.16085668179E+03  0.16085668179E+03  0.00000000000E+00 0.  1.
        -13    1    1    2    0    0 -0.46780467972E+02  0.13712684049E+03 -0.98845725632E+02  0.17539290523E+03  0.10566000000E+00 0.  1.
         13    1    1    2    0    0  0.63097650507E+02 -0.13733150323E+03  0.23673799038E+03  0.28086677008E+03  0.10566000000E+00 0. -1.
          4    1    1    2  501    0 -0.16317182535E+02  0.20466273969E+00  0.38120220161E+02  0.41466173176E+02  0.00000000000E+00 0.  1.
</event>
<event>
 5    1  0.2540860E-005  0.7367443E+03  0.7818608E-02  0.9170649E-01
         21   -1    0    0  501  502  0.00000000000E+00  0.00000000000E+00  0.11433837719E+04  0.11433837719E+04  0.00000000000E+00 0. -1.
          4   -1    0    0  502    0 -0.00000000000E+00 -0.00000000000E+00 -0.15702766828E+04  0.15702766828E+04  0.00000000000E+00 0.  1.
        -13    1    1    2    0    0  0.44378152068E+03 -0.19035566518E+03 -0.12543013232E+03  0.49890885603E+03  0.10566000000E+00 0.  1.
         13    1    1    2    0    0 -0.79040715028E+03 -0.63591445458E+03 -0.70159573206E+03  0.12334371647E+04  0.10566000000E+00 0. -1.
          4    1    1    2  501    0  0.34662562959E+03  0.82627011975E+03  0.40013295353E+03  0.98131443401E+03  0.00000000000E+00 0.  1.
</event>
<event>
 5    1  0.2540860E-005  0.5117754E+03  0.7818608E-02  0.9457777E-01
          4   -1    0    0  502    0 -0.00000000000E+00  0.00000000000E+00  0.21979448145E+04  0.21979448145E+04  0.00000000000E+00 0.  1.
         21   -1    0    0  501  502  0.00000000000E+00 -0.00000000000E+00 -0.35917232779E+03  0.35917232779E+03  0.00000000000E+00 0. -1.
        -13    1    1    2    0    0  0.27608880724E+03  0.12116113763E+03  0.41605467673E+03  0.51381568286E+03  0.10566000000E+00 0.  1.
         13    1    1    2    0    0  0.40931461756E+03  0.29066568802E+03  0.10442273369E+04  0.11586352923E+04  0.10566000000E+00 0. -1.
          4    1    1    2  501    0 -0.68540342479E+03 -0.41182682566E+03  0.37849047313E+03  0.88466616715E+03  0.00000000000E+00 0.  1.
</event>
<event>
 5    1  0.2540860E-005  0.3950702E+03  0.7818608E-02  0.9795104E-01
          4   -1    0    0  502    0 -0.00000000000E+00  0.00000000000E+00  0.36465428637E+04  0.36465428637E+04  0.00000000000E+00 0.  1.
         21   -1    0    0  501  502  0.00000000000E+00 -0.00000000000E+00 -0.13782350154E+03  0.13782350154E+03  0.00000000000E+00 0.  1.
        -13    1    1    2    0    0 -0.22466434307E+03 -0.50016439046E+03  0.18596681109E+04  0.19388150965E+04  0.10566000000E+00 0.  1.
         13    1    1    2    0    0  0.30360773786E+03  0.13127321997E+03  0.12637483177E+04  0.13063193095E+04  0.10566000000E+00 0. -1.
          4    1    1    2  501    0 -0.78943394786E+02  0.36889117049E+03  0.38530293356E+03  0.53923195924E+03  0.00000000000E+00 0.  1.
</event>
<event>
 5    1  0.2540860E-005  0.5052209E+03  0.7818608E-02  0.9503367E-01
         21   -1    0    0  501  502  0.00000000000E+00  0.00000000000E+00  0.18906062442E+03  0.18906062442E+03  0.00000000000E+00 0. -1.
         -4   -1    0    0    0  501 -0.00000000000E+00 -0.00000000000E+00 -0.34139884291E+04  0.34139884291E+04  0.00000000000E+00 0. -1.
        -13    1    1    2    0    0  0.19377475293E+03  0.39710614311E+03 -0.13746296330E+04  0.14439004754E+04  0.10566000000E+00 0.  1.
         13    1    1    2    0    0  0.22709215989E+03 -0.60287964413E+03 -0.10578485696E+04  0.12385791544E+04  0.10566000000E+00 0. -1.
         -4    1    1    2    0  502 -0.42086691282E+03  0.20577350102E+03 -0.79244960208E+03  0.92056942370E+03  0.00000000000E+00 0. -1.
</event>
<event>
 5    1  0.2540860E-005  0.3066309E+03  0.7818608E-02  0.1050347E+00
         -4   -1    0    0    0  501 -0.00000000000E+00  0.00000000000E+00  0.20408009582E+03  0.20408009582E+03  0.00000000000E+00 0. -1.
         21   -1    0    0  501  502  0.00000000000E+00 -0.00000000000E+00 -0.17958188503E+04  0.17958188503E+04  0.00000000000E+00 0. -1.
        -13    1    1    2    0    0  0.54302157857E+02 -0.50327930607E+02  0.50542889663E+02  0.89644965317E+02  0.10566000000E+00 0.  1.
         13    1    1    2    0    0  0.24734908012E+03  0.17825412662E+03 -0.15357391512E+04  0.15657109736E+04  0.10566000000E+00 0. -1.
         -4    1    1    2    0  502 -0.30165123798E+03 -0.12792619601E+03 -0.10654249288E+03  0.34454300717E+03  0.00000000000E+00 0. -1.
</event>
<event>
 5    1  0.2540860E-005  0.3409844E+03  0.7818608E-02  0.1011526E+00
         21   -1    0    0  501  502  0.00000000000E+00  0.00000000000E+00  0.20670865427E+03  0.20670865427E+03  0.00000000000E+00 0. -1.
         -4   -1    0    0    0  501 -0.00000000000E+00 -0.00000000000E+00 -0.17460164708E+04  0.17460164708E+04  0.00000000000E+00 0. -1.
        -13    1    1    2    0    0  0.12129791117E+03  0.13077215818E+03 -0.10205553517E+04  0.10360249889E+04  0.10566000000E+00 0.  1.
         13    1    1    2    0    0  0.25048303572E+03 -0.19302204112E+02 -0.46001973198E+03  0.52414930243E+03  0.10566000000E+00 0. -1.
         -4    1    1    2    0  502 -0.37178094689E+03 -0.11146995407E+03 -0.58732732834E+02  0.39255083370E+03  0.00000000000E+00 0. -1.
</event>
<event>
 5    1  0.2540860E-005  0.4590882E+03  0.7818608E-02  0.1010698E+00
         21   -1    0    0  501  502  0.00000000000E+00  0.00000000000E+00  0.12636441215E+04  0.12636441215E+04  0.00000000000E+00 0.  1.
          4   -1    0    0  502    0 -0.00000000000E+00 -0.00000000000E+00 -0.24766715020E+03  0.24766715020E+03  0.00000000000E+00 0.  1.
        -13    1    1    2    0    0 -0.45997132594E+03  0.56707143191E+01  0.22964588235E+03  0.51414299580E+03  0.10566000000E+00 0.  1.
         13    1    1    2    0    0  0.65075945392E+01  0.74768860261E+02 -0.11526747287E+02  0.75931602897E+02  0.10566000000E+00 0. -1.
          4    1    1    2  501    0  0.45346373140E+03 -0.80439574581E+02  0.79785783625E+03  0.92123667302E+03  0.00000000000E+00 0.  1.
</event>
<event>
 5    1  0.2540860E-005  0.3976014E+03  0.7818608E-02  0.9759201E-01
         21   -1    0    0  501  502  0.00000000000E+00  0.00000000000E+00  0.50598193685E+03  0.50598193685E+03  0.00000000000E+00 0.  1.
         -4   -1    0    0    0  501 -0.00000000000E+00 -0.00000000000E+00 -0.13359209234E+04  0.13359209234E+04  0.00000000000E+00 0. -1.
        -13    1    1    2    0    0  0.66465292437E+02 -0.36094633876E+03 -0.74551355771E+03  0.83095750220E+03  0.10566000000E+00 0.  1.
         13    1    1    2    0    0  0.28515024778E+03  0.63684171175E+02 -0.36823698198E+03  0.47006895615E+03  0.10566000000E+00 0. -1.
         -4    1    1    2    0  502 -0.35161554022E+03  0.29726216758E+03  0.28381155317E+03  0.54087640188E+03  0.00000000000E+00 0. -1.
</event>
<event>
 5    1  0.2540860E-005  0.1437563E+03  0.7818608E-02  0.1142203E+00
         21   -1    0    0  501  502  0.00000000000E+00  0.00000000000E+00  0.92131818211E+02  0.92131818211E+02  0.00000000000E+00 0.  1.
          4   -1    0    0  502    0 -0.00000000000E+00 -0.00000000000E+00 -0.45546123750E+03  0.45546123750E+03  0.00000000000E+00 0.  1.
        -13    1    1    2    0    0 -0.16066182144E+03  0.91521137232E+02 -0.27905508897E+03  0.33475378007E+03  0.10566000000E+00 0.  1.
         13    1    1    2    0    0  0.45126602135E+02 -0.37053225016E+02  0.24636146234E+01  0.58441699713E+02  0.10566000000E+00 0. -1.
          4    1    1    2  501    0  0.11553521930E+03 -0.54467912216E+02 -0.86737944949E+02  0.15439757593E+03  0.00000000000E+00 0.  1.
</event>
<event>
 5    1  0.2540860E-005  0.1779771E+03  0.7818608E-02  0.1076381E+00
         21   -1    0    0  501  502  0.00000000000E+00  0.00000000000E+00  0.26031634858E+03  0.26031634858E+03  0.00000000000E+00 0.  1.
          4   -1    0    0  502    0 -0.00000000000E+00 -0.00000000000E+00 -0.38255902630E+03  0.38255902630E+03  0.00000000000E+00 0.  1.
        -13    1    1    2    0    0 -0.18205686459E+03 -0.20732577550E+02 -0.16904214059E+03  0.24929861246E+03  0.10566000000E+00 0.  1.
         13    1    1    2    0    0  0.16975998048E+03 -0.75512296107E+02 -0.10500255073E+03  0.21341533370E+03  0.10566000000E+00 0. -1.
          4    1    1    2  501    0  0.12296884108E+02  0.96244873657E+02  0.15180201360E+03  0.18016142872E+03  0.00000000000E+00 0.  1.
</event>
<event>
 5    1  0.2540860E-005  0.4327099E+03  0.7818608E-02  0.1010739E+00
         21   -1    0    0  501  502  0.00000000000E+00  0.00000000000E+00  0.37483922099E+03  0.37483922099E+03  0.00000000000E+00 0. -1.
         -4   -1    0    0    0  501 -0.00000000000E+00 -0.00000000000E+00 -0.10348498365E+04  0.10348498365E+04  0.00000000000E+00 0. -1.
        -13    1    1    2    0    0  0.35741239457E+01  0.89441738113E+02 -0.41576941298E+03  0.42529614954E+03  0.10566000000E+00 0.  1.
         13    1    1    2    0    0  0.22847238562E+03  0.34048756118E+03  0.51561814713E+02  0.41326751894E+03  0.10566000000E+00 0. -1.
         -4    1    1    2    0  502 -0.23204650957E+03 -0.42992929929E+03 -0.29580301730E+03  0.57112538907E+03  0.00000000000E+00 0. -1.
</event>
<event>
 5    1  0.2540860E-005  0.4357146E+03  0.7818608E-02  0.9631233E-01
         21   -1    0    0  501  502  0.00000000000E+00  0.00000000000E+00  0.64527186216E+03  0.64527186216E+03  0.00000000000E+00 0. -1.
         -4   -1    0    0    0  501 -0.00000000000E+00 -0.00000000000E+00 -0.10117772587E+04  0.10117772587E+04  0.00000000000E+00 0. -1.
        -13    1    1    2    0    0  0.24159546371E+03 -0.33129789989E+03 -0.44786880205E+03  0.60721754056E+03  0.10566000000E+00 0.  1.
         13    1    1    2    0    0 -0.29143472946E+03  0.37296482921E+03 -0.36565713093E+03  0.59811546872E+03  0.10566000000E+00 0. -1.
         -4    1    1    2    0  502  0.49839265746E+02 -0.41666929315E+02  0.44702053646E+03  0.45171611154E+03  0.00000000000E+00 0. -1.
</event>
<event>
 5    1  0.2540860E-005  0.4832927E+03  0.7818608E-02  0.1010284E+00
         21   -1    0    0  501  502  0.00000000000E+00  0.00000000000E+00  0.14499768642E+04  0.14499768642E+04  0.00000000000E+00 0. -1.
         -4   -1    0    0    0  501 -0.00000000000E+00 -0.00000000000E+00 -0.22185914572E+03  0.22185914572E+03  0.00000000000E+00 0. -1.
        -13    1    1    2    0    0  0.41868447223E+02 -0.49969178979E+02 -0.30555881297E+02  0.71996935814E+02  0.10566000000E+00 0.  1.
         13    1    1    2    0    0 -0.60174417888E+02 -0.45217005229E+03  0.40877368373E+03  0.61251502221E+03  0.10566000000E+00 0. -1.
         -4    1    1    2    0  502  0.18305970665E+02  0.50213923127E+03  0.84989991606E+03  0.98732405190E+03  0.00000000000E+00 0. -1.
</event>
<event>
 5    1  0.2540860E-005  0.1332565E+03  0.7818608E-02  0.1118908E+00
         21   -1    0    0  501  502  0.00000000000E+00  0.00000000000E+00  0.41840625477E+02  0.41840625477E+02  0.00000000000E+00 0. -1.
          4   -1    0    0  502    0 -0.00000000000E+00 -0.00000000000E+00 -0.12034222801E+04  0.12034222801E+04  0.00000000000E+00 0.  1.
        -13    1    1    2    0    0  0.13833364261E+02  0.11992878936E+03 -0.69900901854E+03  0.70935738217E+03  0.10566000000E+00 0.  1.
         13    1    1    2    0    0 -0.51103560195E+02 -0.17080501675E+03 -0.42875096086E+03  0.46434181937E+03  0.10566000000E+00 0. -1.
          4    1    1    2  501    0  0.37270195934E+02  0.50876227389E+02 -0.33821675196E+02  0.71563704008E+02  0.00000000000E+00 0.  1.
</event>
<event>
 5    1  0.2540860E-005  0.5180730E+03  0.7818608E-02  0.9601455E-01
         21   -1    0    0  501  502  0.00000000000E+00  0.00000000000E+00  0.42834936863E+03  0.42834936863E+03  0.00000000000E+00 0. -1.
         -4   -1    0    0    0  501 -0.00000000000E+00 -0.00000000000E+00 -0.11324724341E+04  0.11324724341E+04  0.00000000000E+00 0. -1.
        -13    1    1    2    0    0  0.28126915396E+03  0.62173817512E+02 -0.27699028624E+03  0.39962676386E+03  0.10566000000E+00 0.  1.
         13    1    1    2    0    0 -0.39369648898E+03 -0.49311023568E+03 -0.20463032821E+03  0.66334622359E+03  0.10566000000E+00 0. -1.
         -4    1    1    2    0  502  0.11242733501E+03  0.43093641817E+03 -0.22250245102E+03  0.49784881528E+03  0.00000000000E+00 0. -1.
</event>
<event>
 5    1  0.2540860E-005  0.5024888E+03  0.7818608E-02  0.9984507E-01
          4   -1    0    0  502    0 -0.00000000000E+00  0.00000000000E+00  0.94798872630E+03  0.94798872630E+03  0.00000000000E+00 0.  1.
         21   -1    0    0  501  502  0.00000000000E+00 -0.00000000000E+00 -0.39834111296E+03  0.39834111296E+03  0.00000000000E+00 0.  1.
        -13    1    1    2    0    0  0.33114970970E+03 -0.32975889725E+03  0.86913253965E+02  0.47534722617E+03  0.10566000000E+00 0.  1.
         13    1    1    2    0    0  0.44986907123E+02 -0.72347996962E+02  0.27713683890E+03  0.28993601556E+03  0.10566000000E+00 0. -1.
          4    1    1    2  501    0 -0.37613661682E+03  0.40210689422E+03  0.18559752048E+03  0.58104659753E+03  0.00000000000E+00 0.  1.
</event>
<event>
 5    1  0.2540860E-005  0.5308175E+02  0.7818608E-02  0.1301481E+00
         21   -1    0    0  501  502  0.00000000000E+00  0.00000000000E+00  0.33355042359E+02  0.33355042359E+02  0.00000000000E+00 0. -1.
          4   -1    0    0  502    0 -0.00000000000E+00 -0.00000000000E+00 -0.34578343859E+03  0.34578343859E+03  0.00000000000E+00 0.  1.
        -13    1    1    2    0    0  0.28376188921E+02 -0.38666449428E+02 -0.18892178626E+03  0.19491473750E+03  0.10566000000E+00 0.  1.
         13    1    1    2    0    0  0.29121031419E+02  0.18666705625E+02  0.11234313767E+02  0.36368961212E+02  0.10566000000E+00 0. -1.
          4    1    1    2  501    0 -0.57497220340E+02  0.19999743803E+02 -0.13474092374E+03  0.14785478224E+03  0.00000000000E+00 0.  1.
</event>
<event>
 5    1  0.2540860E-005  0.1813058E+03  0.7818608E-02  0.1073767E+00
          4   -1    0    0  502    0 -0.00000000000E+00  0.00000000000E+00  0.25428870747E+03  0.25428870747E+03  0.00000000000E+00 0.  1.
         21   -1    0    0  501  502  0.00000000000E+00 -0.00000000000E+00 -0.26463728147E+03  0.26463728147E+03  0.00000000000E+00 0. -1.
        -13    1    1    2    0    0 -0.18649004310E+03  0.54487731724E+02  0.11064062435E+03  0.22358177029E+03  0.10566000000E+00 0.  1.
         13    1    1    2    0    0  0.15914873850E+03  0.40455853926E+02 -0.10590022831E+03  0.19539669036E+03  0.10566000000E+00 0. -1.
          4    1    1    2  501    0  0.27341304605E+02 -0.94943585650E+02 -0.15088970047E+02  0.99947528287E+02  0.00000000000E+00 0.  1.
</event>
<event>
 5    1  0.2540860E-005  0.4760109E+03  0.7818608E-02  0.9532160E-01
         21   -1    0    0  501  502  0.00000000000E+00  0.00000000000E+00  0.28216773326E+03  0.28216773326E+03  0.00000000000E+00 0. -1.
         -4   -1    0    0    0  501 -0.00000000000E+00 -0.00000000000E+00 -0.30531764085E+04  0.30531764085E+04  0.00000000000E+00 0. -1.
        -13    1    1    2    0    0 -0.29221732837E+03  0.32349345975E+03 -0.18965988058E+04  0.19460539630E+04  0.10566000000E+00 0.  1.
         13    1    1    2    0    0  0.43194871900E+03 -0.61418905388E+03 -0.67787199574E+03  0.10115919847E+04  0.10566000000E+00 0. -1.
         -4    1    1    2    0  502 -0.13973139063E+03  0.29069559413E+03 -0.19653787360E+03  0.37769819398E+03  0.00000000000E+00 0. -1.
</event>
<event>
 5    1  0.2540860E-005  0.6078050E+03  0.7818608E-02  0.9268659E-01
         21   -1    0    0  501  502  0.00000000000E+00  0.00000000000E+00  0.21928323213E+03  0.21928323213E+03  0.00000000000E+00 0.  1.
         -4   -1    0    0    0  501 -0.00000000000E+00 -0.00000000000E+00 -0.36014031393E+04  0.36014031393E+04  0.00000000000E+00 0. -1.
        -13    1    1    2    0    0 -0.27712493688E+03  0.46809948118E+03 -0.13981168320E+04  0.15002153319E+04  0.10566000000E+00 0.  1.
         13    1    1    2    0    0  0.22094610162E+03 -0.77509495495E+03 -0.97876497424E+03  0.12678999389E+04  0.10566000000E+00 0. -1.
         -4    1    1    2    0  502  0.56178835256E+02  0.30699547377E+03 -0.10052381009E+04  0.10525711007E+04  0.00000000000E+00 0. -1.
</event>
<event>
 5    1  0.2540860E-005  0.5970136E+03  0.7818608E-02  0.9287475E-01
         -4   -1    0    0    0  501 -0.00000000000E+00  0.00000000000E+00  0.29227739193E+04  0.29227739193E+04  0.00000000000E+00 0. -1.
         21   -1    0    0  501  502  0.00000000000E+00 -0.00000000000E+00 -0.30315396802E+03  0.30315396802E+03  0.00000000000E+00 0. -1.
        -13    1    1    2    0    0  0.55715321628E+03 -0.27351522282E+03  0.12971278663E+04  0.14379746160E+04  0.10566000000E+00 0.  1.
         13    1    1    2    0    0 -0.23537749194E+03  0.62831839555E+03  0.10218285843E+04  0.12224239186E+04  0.10566000000E+00 0. -1.
         -4    1    1    2    0  502 -0.32177572434E+03 -0.35480317273E+03  0.30066350064E+03  0.56552935270E+03  0.00000000000E+00 0. -1.
</event>
<event>
 5    1  0.2540860E-005  0.3914421E+03  0.7818608E-02  0.1002818E+00
          4   -1    0    0  502    0 -0.00000000000E+00  0.00000000000E+00  0.24823756805E+03  0.24823756805E+03  0.00000000000E+00 0.  1.
         21   -1    0    0  501  502  0.00000000000E+00 -0.00000000000E+00 -0.17795617571E+04  0.17795617571E+04  0.00000000000E+00 0.  1.
        -13    1    1    2    0    0 -0.14610355954E+03  0.35556616354E+03 -0.12788087141E+04  0.13353371429E+04  0.10566000000E+00 0.  1.
         13    1    1    2    0    0  0.12994367507E+03  0.86695395535E+02  0.40897666701E+02  0.16147470577E+03  0.10566000000E+00 0. -1.
          4    1    1    2  501    0  0.16159884467E+02 -0.44226155908E+03 -0.29341314167E+03  0.53098747651E+03  0.00000000000E+00 0.  1.
</event>
<event>
 5    1  0.2540860E-005  0.7144002E+02  0.7818608E-02  0.1222999E+00
         21   -1    0    0  501  502  0.00000000000E+00  0.00000000000E+00  0.28906727627E+03  0.28906727627E+03  0.00000000000E+00 0.  1.
         -4   -1    0    0    0  501 -0.00000000000E+00 -0.00000000000E+00 -0.35448348366E+02  0.35448348366E+02  0.00000000000E+00 0. -1.
        -13    1    1    2    0    0 -0.41487403041E+01  0.66667329351E+02  0.43139721535E+02  0.79515983218E+02  0.10566000000E+00 0.  1.
         13    1    1    2    0    0 -0.66979022061E+01 -0.87719728551E+02  0.20114794899E+03  0.21954526007E+03  0.10566000000E+00 0. -1.
         -4    1    1    2    0  502  0.10846642510E+02  0.21052399200E+02  0.93312573819E+01  0.25454381355E+02  0.00000000000E+00 0. -1.
</event>
<event>
 5    1  0.2540860E-005  0.5176475E+02  0.7818608E-02  0.1284766E+00
         -4   -1    0    0    0  501 -0.00000000000E+00  0.00000000000E+00  0.14140812237E+03  0.14140812237E+03  0.00000000000E+00 0. -1.
         21   -1    0    0  501  502  0.00000000000E+00 -0.00000000000E+00 -0.43668820872E+02  0.43668820872E+02  0.00000000000E+00 0. -1.
        -13    1    1    2    0    0  0.42299984985E+02 -0.55343693594E+01  0.18721066612E+02  0.46587632190E+02  0.10566000000E+00 0.  1.
         13    1    1    2    0    0 -0.56790448723E+02 -0.13825082174E+02  0.93527102925E+02  0.11028879412E+03  0.10566000000E+00 0. -1.
         -4    1    1    2    0  502  0.14490463738E+02  0.19359451534E+02 -0.14508868042E+02  0.28200516926E+02  0.00000000000E+00 0. -1.
</event>
<event>
 5    1  0.2540860E-005  0.4470293E+03  0.7818608E-02  0.9742423E-01
         -4   -1    0    0    0  501 -0.00000000000E+00  0.00000000000E+00  0.39528901381E+03  0.39528901381E+03  0.00000000000E+00 0. -1.
         21   -1    0    0  501  502  0.00000000000E+00 -0.00000000000E+00 -0.10756268559E+04  0.10756268559E+04  0.00000000000E+00 0. -1.
        -13    1    1    2    0    0 -0.13386381205E+03 -0.23863483595E+03 -0.21823559434E+03  0.34998984400E+03  0.10566000000E+00 0.  1.
         13    1    1    2    0    0  0.18706064368E+03 -0.35228948831E+03 -0.31862360357E+03  0.51051011734E+03  0.10566000000E+00 0. -1.
         -4    1    1    2    0  502 -0.53196831629E+02  0.59092432426E+03 -0.14347864422E+03  0.61041590842E+03  0.00000000000E+00 0. -1.
</event>
<event>
 5    1  0.2540860E-005  0.1422104E+03  0.7818608E-02  0.1109058E+00
          4   -1    0    0  502    0 -0.00000000000E+00  0.00000000000E+00  0.12561715311E+03  0.12561715311E+03  0.00000000000E+00 0.  1.
         21   -1    0    0  501  502  0.00000000000E+00 -0.00000000000E+00 -0.45915688330E+03  0.45915688330E+03  0.00000000000E+00 0. -1.
        -13    1    1    2    0    0 -0.10691504354E+03  0.76823465258E+02  0.13419837912E+02  0.13233584006E+03  0.10566000000E+00 0.  1.
         13    1    1    2    0    0  0.18596048566E+03 -0.42255983404E+02 -0.16959671200E+03  0.25520565481E+03  0.10566000000E+00 0. -1.
          4    1    1    2  501    0 -0.79045442117E+02 -0.34567481854E+02 -0.17736285610E+03  0.19723254154E+03  0.00000000000E+00 0.  1.
</event>
<event>
 5    1  0.2540860E-005  0.1335918E+03  0.7818608E-02  0.1118524E+00
         21   -1    0    0  501  502  0.00000000000E+00  0.00000000000E+00  0.45686988796E+03  0.45686988796E+03  0.00000000000E+00 0.  1.
          4   -1    0    0  502    0 -0.00000000000E+00 -0.00000000000E+00 -0.21035221126E+03  0.21035221126E+03  0.00000000000E+00 0.  1.
        -13    1    1    2    0    0  0.83556807188E+02  0.99860997672E+02 -0.13833496464E+03  0.18997508386E+03  0.10566000000E+00 0.  1.
         13    1    1    2    0    0 -0.87264555461E+02 -0.12207369201E+03  0.77162719134E+02  0.16873406683E+03  0.10566000000E+00 0. -1.
          4    1    1    2  501    0  0.37077482730E+01  0.22212694337E+02  0.30768992220E+03  0.30851294853E+03  0.00000000000E+00 0.  1.
</event>
<event>
 5    1  0.2540860E-005  0.4483937E+02  0.7818608E-02  0.1314357E+00
         -4   -1    0    0    0  501 -0.00000000000E+00  0.00000000000E+00  0.17917188238E+03  0.17917188238E+03  0.00000000000E+00 0. -1.
         21   -1    0    0  501  502  0.00000000000E+00 -0.00000000000E+00 -0.56548690511E+03  0.56548690511E+03  0.00000000000E+00 0.  1.
        -13    1    1    2    0    0  0.31434221007E+02 -0.66536642208E+02 -0.28457907863E+03  0.29393961653E+03  0.10566000000E+00 0.  1.
         13    1    1    2    0    0 -0.24041316076E+02  0.37519354824E+02  0.17081319771E+03  0.17653001597E+03  0.10566000000E+00 0. -1.
         -4    1    1    2    0  502 -0.73929049314E+01  0.29017287384E+02 -0.27254914181E+03  0.27418915499E+03  0.00000000000E+00 0. -1.
</event>
<event>
 5    1  0.2540860E-005  0.1024815E+03  0.7818608E-02  0.1160514E+00
         21   -1    0    0  501  502  0.00000000000E+00  0.00000000000E+00  0.56853388010E+03  0.56853388010E+03  0.00000000000E+00 0. -1.
          4   -1    0    0  502    0 -0.00000000000E+00 -0.00000000000E+00 -0.62736894860E+02  0.62736894860E+02  0.00000000000E+00 0.  1.
        -13    1    1    2    0    0 -0.54541065799E+02 -0.88432879341E+02 -0.37334113766E+01  0.10396658854E+03  0.10566000000E+00 0.  1.
         13    1    1    2    0    0  0.39816078153E+02  0.79090059606E+02  0.49929003639E+03  0.50708096909E+03  0.10566000000E+00 0. -1.
          4    1    1    2  501    0  0.14724987646E+02  0.93428197357E+01  0.10240360219E+02  0.20223217331E+02  0.00000000000E+00 0.  1.
</event>
<event>
 5    1  0.2540860E-005  0.3610518E+02  0.7818608E-02  0.1361670E+00
          4   -1    0    0  502    0 -0.00000000000E+00  0.00000000000E+00  0.78972915869E+02  0.78972915869E+02  0.00000000000E+00 0.  1.
         21   -1    0    0  501  502  0.00000000000E+00 -0.00000000000E+00 -0.76724119495E+02  0.76724119495E+02  0.00000000000E+00 0. -1.
        -13    1    1    2    0    0 -0.33593736128E+02 -0.49691780927E+01  0.51940819182E+02  0.62057164770E+02  0.10566000000E+00 0.  1.
         13    1    1    2    0    0  0.55209652393E+02  0.11394031459E+02 -0.30904791324E+02  0.64288777878E+02  0.10566000000E+00 0. -1.
          4    1    1    2  501    0 -0.21615916265E+02 -0.64248533668E+01 -0.18787231484E+02  0.29351092716E+02  0.00000000000E+00 0.  1.
</event>
<event>
 5    1  0.2540860E-005  0.4996330E+03  0.7818608E-02  0.9489870E-01
         21   -1    0    0  501  502  0.00000000000E+00  0.00000000000E+00  0.27277147114E+03  0.27277147114E+03  0.00000000000E+00 0.  1.
         -4   -1    0    0    0  501 -0.00000000000E+00 -0.00000000000E+00 -0.23994259811E+04  0.23994259811E+04  0.00000000000E+00 0. -1.
        -13    1    1    2    0    0  0.35815063892E+03  0.31932396605E+03 -0.89085787269E+03  0.10118633485E+04  0.10566000000E+00 0.  1.
         13    1    1    2    0    0  0.21974799816E+03 -0.46262786113E+03 -0.61115095961E+03  0.79738273570E+03  0.10566000000E+00 0. -1.
         -4    1    1    2    0  502 -0.57789863708E+03  0.14330389509E+03 -0.62464567769E+03  0.86295136812E+03  0.00000000000E+00 0. -1.
</event>
<event>
 5    1  0.2540860E-005  0.4901077E+03  0.7818608E-02  0.9961831E-01
          4   -1    0    0  502    0 -0.00000000000E+00  0.00000000000E+00  0.10629867306E+04  0.10629867306E+04  0.00000000000E+00 0.  1.
         21   -1    0    0  501  502  0.00000000000E+00 -0.00000000000E+00 -0.33797598242E+03  0.33797598242E+03  0.00000000000E+00 0.  1.
        -13    1    1    2    0    0 -0.11016745552E+03 -0.51241055021E+03  0.77475880558E+02  0.52981502758E+03  0.10566000000E+00 0.  1.
         13    1    1    2    0    0 -0.27431005010E+02  0.95061001265E+02  0.28426365311E+03  0.30098984973E+03  0.10566000000E+00 0. -1.
          4    1    1    2  501    0  0.13759846053E+03  0.41734954894E+03  0.36327121454E+03  0.57015783574E+03  0.00000000000E+00 0.  1.
</event>
<event>
 5    1  0.2540860E-005  0.2121282E+03  0.7818608E-02  0.1052125E+00
         -4   -1    0    0    0  501 -0.00000000000E+00  0.00000000000E+00  0.72908248765E+03  0.72908248765E+03  0.00000000000E+00 0. -1.
         21   -1    0    0  501  502  0.00000000000E+00 -0.00000000000E+00 -0.85331478910E+02  0.85331478910E+02  0.00000000000E+00 0.  1.
        -13    1    1    2    0    0  0.13381003431E+03 -0.16141855830E+03  0.45467691358E+03  0.50069170470E+03  0.10566000000E+00 0.  1.
         13    1    1    2    0    0 -0.14760781099E+03  0.15965112376E+03  0.20046645127E+03  0.29574204373E+03  0.10566000000E+00 0. -1.
         -4    1    1    2    0  502  0.13797776678E+02  0.17674345356E+01 -0.11392356114E+02  0.17980218128E+02  0.00000000000E+00 0. -1.
</event>
<event>
 5    1  0.2790937E-005  0.2866782E+03  0.7818608E-02  0.1026730E+00
         21   -1    0    0  501  502  0.00000000000E+00  0.00000000000E+00  0.84225019934E+03  0.84225019934E+03  0.00000000000E+00 0. -1.
         -4   -1    0    0    0  501 -0.00000000000E+00 -0.00000000000E+00 -0.51427152603E+03  0.51427152603E+03  0.00000000000E+00 0. -1.
        -13    1    1    2    0    0  0.83563803935E+02  0.16586191419E+03 -0.14366449332E+03  0.23480328301E+03  0.10566000000E+00 0.  1.
         13    1    1    2    0    0  0.20001889866E+03 -0.22825549174E+03 -0.21784497617E+03  0.37358342326E+03  0.10566000000E+00 0. -1.
         -4    1    1    2    0  502 -0.28358270259E+03  0.62393577545E+02  0.68948814280E+03  0.74813501909E+03  0.00000000000E+00 0. -1.
</event>
<event>
 5    1  0.2540860E-005  0.4874757E+03  0.7818608E-02  0.9663670E-01
          4   -1    0    0  502    0 -0.00000000000E+00  0.00000000000E+00  0.81790952702E+03  0.81790952702E+03  0.00000000000E+00 0.  1.
         21   -1    0    0  501  502  0.00000000000E+00 -0.00000000000E+00 -0.57996712347E+03  0.57996712347E+03  0.00000000000E+00 0.  1.
        -13    1    1    2    0    0 -0.26520729460E+03  0.21252161254E+03  0.16645587663E+03  0.37842821636E+03  0.10566000000E+00 0.  1.
         13    1    1    2    0    0 -0.16006817538E+03  0.22674272655E+03  0.25932070902E+03  0.37984381804E+03  0.10566000000E+00 0. -1.
          4    1    1    2  501    0  0.42527546998E+03 -0.43926433908E+03 -0.18783418211E+03  0.63960461609E+03  0.00000000000E+00 0.  1.
</event>
<event>
 5    1  0.2540860E-005  0.1993355E+03  0.7818608E-02  0.1072792E+00
         -4   -1    0    0    0  501 -0.00000000000E+00  0.00000000000E+00  0.19248181219E+03  0.19248181219E+03  0.00000000000E+00 0. -1.
         21   -1    0    0  501  502  0.00000000000E+00 -0.00000000000E+00 -0.15214128535E+04  0.15214128535E+04  0.00000000000E+00 0. -1.
        -13    1    1    2    0    0 -0.92275352942E+02 -0.10563597962E+03 -0.66320701908E+02  0.15515201454E+03  0.10566000000E+00 0.  1.
         13    1    1    2    0    0  0.27946706400E+03  0.15404371483E+03 -0.40776297534E+02  0.32170487025E+03  0.10566000000E+00 0. -1.
         -4    1    1    2    0  502 -0.18719171106E+03 -0.48407735213E+02 -0.12218340418E+04  0.12370377809E+04  0.00000000000E+00 0. -1.
</event>
<event>
 5    1  0.2540860E-005  0.4266334E+03  0.7818608E-02  0.9655135E-01
          4   -1    0    0  502    0 -0.00000000000E+00  0.00000000000E+00  0.29833894498E+04  0.29833894498E+04  0.00000000000E+00 0.  1.
         21   -1    0    0  501  502  0.00000000000E+00 -0.00000000000E+00 -0.34305866784E+03  0.34305866784E+03  0.00000000000E+00 0.  1.
        -13    1    1    2    0    0  0.32486742303E+03 -0.34339810153E+03  0.81695187486E+03  0.94385988138E+03  0.10566000000E+00 0.  1.
         13    1    1    2    0    0 -0.44022553498E+03  0.39790063227E+02  0.19752113862E+04  0.20240656615E+04  0.10566000000E+00 0. -1.
          4    1    1    2  501    0  0.11535811195E+03  0.30360803830E+03 -0.15183247908E+03  0.35852257477E+03  0.00000000000E+00 0.  1.
</event>
<event>
 5    1  0.2540860E-005  0.4477210E+02  0.7818608E-02  0.1318434E+00
         -4   -1    0    0    0  501 -0.00000000000E+00  0.00000000000E+00  0.28619233040E+02  0.28619233040E+02  0.00000000000E+00 0. -1.
         21   -1    0    0  501  502  0.00000000000E+00 -0.00000000000E+00 -0.27891722620E+03  0.27891722620E+03  0.00000000000E+00 0. -1.
        -13    1    1    2    0    0 -0.91986942209E+01 -0.40672173603E+02 -0.89334737405E+02  0.98587768776E+02  0.10566000000E+00 0.  1.
         13    1    1    2    0    0 -0.31381396305E+02  0.56280237689E+02 -0.30232877239E+02  0.71177912435E+02  0.10566000000E+00 0. -1.
         -4    1    1    2    0  502  0.40580090526E+02 -0.15608064086E+02 -0.13073037852E+03  0.13777077803E+03  0.00000000000E+00 0. -1.
</event>
<event>
 5    1  0.2540860E-005  0.6938726E+02  0.7818608E-02  0.1228344E+00
         21   -1    0    0  501  502  0.00000000000E+00  0.00000000000E+00  0.50243150693E+03  0.50243150693E+03  0.00000000000E+00 0.  1.
         -4   -1    0    0    0  501 -0.00000000000E+00 -0.00000000000E+00 -0.16111805463E+02  0.16111805463E+02  0.00000000000E+00 0. -1.
        -13    1    1    2    0    0 -0.59367041919E+02 -0.21546553482E+02  0.20339065947E+03  0.21297058754E+03  0.10566000000E+00 0.  1.
         13    1    1    2    0    0  0.61520016730E+02  0.40970966396E+02  0.11629459558E+03  0.13779614171E+03  0.10566000000E+00 0. -1.
         -4    1    1    2    0  502 -0.21529748110E+01 -0.19424412914E+02  0.16663444642E+03  0.16777658314E+03  0.00000000000E+00 0. -1.
</event>
<event>
 5    1  0.2540860E-005  0.5253973E+02  0.7818608E-02  0.1281780E+00
         21   -1    0    0  501  502  0.00000000000E+00  0.00000000000E+00  0.49895599558E+02  0.49895599558E+02  0.00000000000E+00 0. -1.
         -4   -1    0    0    0  501 -0.00000000000E+00 -0.00000000000E+00 -0.11674096820E+03  0.11674096820E+03  0.00000000000E+00 0. -1.
        -13    1    1    2    0    0  0.60404109384E+02  0.10700258120E+02 -0.85380598077E+01  0.61935947426E+02  0.10566000000E+00 0.  1.
         13    1    1    2    0    0 -0.49133274367E+02 -0.89888133216E+01 -0.71529100896E+02  0.87242769637E+02  0.10566000000E+00 0. -1.
         -4    1    1    2    0  502 -0.11270835017E+02 -0.17114447981E+01  0.13221792066E+02  0.17457850690E+02  0.00000000000E+00 0. -1.
</event>
<event>
 5    1  0.2540860E-005  0.4120532E+03  0.7818608E-02  0.1002214E+00
          4   -1    0    0  502    0 -0.00000000000E+00  0.00000000000E+00  0.72230547264E+03  0.72230547264E+03  0.00000000000E+00 0.  1.
         21   -1    0    0  501  502  0.00000000000E+00 -0.00000000000E+00 -0.90705454759E+03  0.90705454759E+03  0.00000000000E+00 0.  1.
        -13    1    1    2    0    0  0.11699453921E+03  0.40516761969E+03 -0.66009515420E+03  0.78330973823E+03  0.10566000000E+00 0.  1.
         13    1    1    2    0    0  0.10900348161E+03 -0.82304587875E+02  0.42781941360E+03  0.44909382762E+03  0.10566000000E+00 0. -1.
          4    1    1    2  501    0 -0.22599802081E+03 -0.32286303181E+03  0.47526665644E+02  0.39695645437E+03  0.00000000000E+00 0.  1.
</event>
<event>
 5    1  0.2540860E-005  0.7113309E+03  0.7818608E-02  0.9106701E-01
         21   -1    0    0  501  502  0.00000000000E+00  0.00000000000E+00  0.11250729842E+04  0.11250729842E+04  0.00000000000E+00 0. -1.
         -4   -1    0    0    0  501 -0.00000000000E+00 -0.00000000000E+00 -0.24812059400E+04  0.24812059400E+04  0.00000000000E+00 0. -1.
        -13    1    1    2    0    0  0.58613144140E+03 -0.41230583338E+03 -0.20669400867E+04  0.21876442809E+04  0.10566000000E+00 0.  1.
         13    1    1    2    0    0 -0.67882369430E+03  0.11857978246E+03  0.83839419511E+03  0.10852500220E+04  0.10566000000E+00 0. -1.
         -4    1    1    2    0  502  0.92692252899E+02  0.29372605092E+03 -0.12758706426E+03  0.33338462127E+03  0.00000000000E+00 0. -1.
</event>
<event>
 5    1  0.2540860E-005  0.4240717E+03  0.7818608E-02  0.9946251E-01
          4   -1    0    0  502    0 -0.00000000000E+00  0.00000000000E+00  0.14419254205E+04  0.14419254205E+04  0.00000000000E+00 0.  1.
         21   -1    0    0  501  502  0.00000000000E+00 -0.00000000000E+00 -0.27068960496E+03  0.27068960496E+03  0.00000000000E+00 0.  1.
        -13    1    1    2    0    0  0.43346765077E+03  0.29022454226E+03  0.66713186911E+03  0.84687037446E+03  0.10566000000E+00 0.  1.
         13    1    1    2    0    0 -0.63469788646E+02 -0.14775476824E+03  0.43436696718E+03  0.46317875486E+03  0.10566000000E+00 0. -1.
          4    1    1    2  501    0 -0.36999786212E+03 -0.14246977403E+03  0.69736979291E+02  0.40256589618E+03  0.00000000000E+00 0.  1.
</event>
<event>
 5    1  0.2540860E-005  0.7921389E+02  0.7818608E-02  0.1204436E+00
          4   -1    0    0  502    0 -0.00000000000E+00  0.00000000000E+00  0.38004780719E+03  0.38004780719E+03  0.00000000000E+00 0.  1.
         21   -1    0    0  501  502  0.00000000000E+00 -0.00000000000E+00 -0.10325827904E+03  0.10325827904E+03  0.00000000000E+00 0. -1.
        -13    1    1    2    0    0 -0.49540223682E+02  0.61286481627E+02  0.35005534752E+03  0.35881614245E+03  0.10566000000E+00 0.  1.
         13    1    1    2    0    0  0.62165400466E+02 -0.61434161654E+02 -0.59057301844E+02  0.10548208046E+03  0.10566000000E+00 0. -1.
          4    1    1    2  501    0 -0.12625176784E+02  0.14768002684E+00 -0.14208517517E+02  0.19007863326E+02  0.00000000000E+00 0.  1.
</event>
<event>
 5    1  0.2540860E-005  0.1552945E+03  0.7818608E-02  0.1096004E+00
         -4   -1    0    0    0  501 -0.00000000000E+00  0.00000000000E+00  0.99537592126E+02  0.99537592126E+02  0.00000000000E+00 0. -1.
         21   -1    0    0  501  502  0.00000000000E+00 -0.00000000000E+00 -0.97215589231E+03  0.97215589231E+03  0.00000000000E+00 0. -1.
        -13    1    1    2    0    0  0.12923205750E+02  0.17745167755E+03 -0.36308035427E+03  0.40433088174E+03  0.10566000000E+00 0.  1.
         13    1    1    2    0    0 -0.15951280155E+02 -0.15018363069E+03  0.59495319820E+01  0.15114554032E+03  0.10566000000E+00 0. -1.
         -4    1    1    2    0  502  0.30280744053E+01 -0.27268046862E+02 -0.51548747790E+03  0.51621706237E+03  0.00000000000E+00 0. -1.
</event>
<event>
 5    1  0.2540860E-005  0.2019027E+03  0.7818608E-02  0.1058839E+00
         -4   -1    0    0    0  501 -0.00000000000E+00  0.00000000000E+00  0.15111329411E+03  0.15111329411E+03  0.00000000000E+00 0. -1.
         21   -1    0    0  501  502  0.00000000000E+00 -0.00000000000E+00 -0.50639431770E+03  0.50639431770E+03  0.00000000000E+00 0.  1.
        -13    1    1    2    0    0  0.10549779859E+03 -0.14755647436E+03 -0.16339178414E+03  0.24413026220E+03  0.10566000000E+00 0.  1.
         13    1    1    2    0    0 -0.16422517946E+03  0.13862887789E+03 -0.25396466297E+01  0.21492867729E+03  0.10566000000E+00 0. -1.
         -4    1    1    2    0  502  0.58727380866E+02  0.89275964764E+01 -0.18934959283E+03  0.19844867233E+03  0.00000000000E+00 0. -1.
</event>
<event>
 5    1  0.2540860E-005  0.4449616E+03  0.7818608E-02  0.9963615E-01
         21   -1    0    0  501  502  0.00000000000E+00  0.00000000000E+00  0.59138469902E+03  0.59138469902E+03  0.00000000000E+00 0. -1.
         -4   -1    0    0    0  501 -0.00000000000E+00 -0.00000000000E+00 -0.85832387916E+03  0.85832387916E+03  0.00000000000E+00 0. -1.
        -13    1    1    2    0    0  0.92376777189E+02 -0.93500283422E+02 -0.40963132996E+03  0.43020182428E+03  0.10566000000E+00 0.  1.
         13    1    1    2    0    0 -0.38626789488E+03 -0.23447690965E+03  0.31046544066E+03  0.54824365823E+03  0.10566000000E+00 0. -1.
         -4    1    1    2    0  502  0.29389111769E+03  0.32797719308E+03 -0.16777329084E+03  0.47126309569E+03  0.00000000000E+00 0. -1.
</event>
<event>
 5    1  0.2540860E-005  0.4498884E+03  0.7818608E-02  0.1000916E+00
          4   -1    0    0  502    0 -0.00000000000E+00  0.00000000000E+00  0.11082673670E+04  0.11082673670E+04  0.00000000000E+00 0.  1.
         21   -1    0    0  501  502  0.00000000000E+00 -0.00000000000E+00 -0.30804234667E+03  0.30804234667E+03  0.00000000000E+00 0.  1.
        -13    1    1    2    0    0 -0.39567124038E+03 -0.23614271526E+03  0.73783021440E+02  0.46665089505E+03  0.10566000000E+00 0.  1.
         13    1    1    2    0    0 -0.24049177575E+02  0.10681433751E+03  0.36435654488E+03  0.38045153252E+03  0.10566000000E+00 0. -1.
          4    1    1    2  501    0  0.41972041796E+03  0.12932837774E+03  0.36208545405E+03  0.56920728613E+03  0.00000000000E+00 0.  1.
</event>
<event>
 5    1  0.2540860E-005  0.4935988E+03  0.7818608E-02  0.9745826E-01
         -4   -1    0    0    0  501 -0.00000000000E+00  0.00000000000E+00  0.89838258626E+03  0.89838258626E+03  0.00000000000E+00 0. -1.
         21   -1    0    0  501  502  0.00000000000E+00 -0.00000000000E+00 -0.43057651714E+03  0.43057651714E+03  0.00000000000E+00 0. -1.
        -13    1    1    2    0    0 -0.12043165303E+03  0.16076970064E+03  0.17391693961E+03  0.26570245152E+03  0.10566000000E+00 0.  1.
         13    1    1    2    0    0 -0.35716231137E+03  0.21245307642E+03  0.12794479563E+03  0.43482307694E+03  0.10566000000E+00 0. -1.
         -4    1    1    2    0  502  0.47759396441E+03 -0.37322277706E+03  0.16594433388E+03  0.62843357493E+03  0.00000000000E+00 0. -1.
</event>
<event>
 5    1  0.2540860E-005  0.5534013E+02  0.7818608E-02  0.1297781E+00
         21   -1    0    0  501  502  0.00000000000E+00  0.00000000000E+00  0.64155372368E+02  0.64155372368E+02  0.00000000000E+00 0. -1.
          4   -1    0    0  502    0 -0.00000000000E+00 -0.00000000000E+00 -0.12803611498E+03  0.12803611498E+03  0.00000000000E+00 0.  1.
        -13    1    1    2    0    0 -0.39203656227E+01 -0.76380806800E+02 -0.69756905242E+02  0.10351538005E+03  0.10566000000E+00 0.  1.
         13    1    1    2    0    0 -0.11418453124E+02  0.30746873728E+02  0.20110134996E+02  0.38473107612E+02  0.10566000000E+00 0. -1.
          4    1    1    2  501    0  0.15338818747E+02  0.45633933072E+02 -0.14233972369E+02  0.50202999687E+02  0.00000000000E+00 0.  1.
</event>
<event>
 5    1  0.2540860E-005  0.7892988E+03  0.7818608E-02  0.9002627E-01
         21   -1    0    0  501  502  0.00000000000E+00  0.00000000000E+00  0.45743075407E+03  0.45743075407E+03  0.00000000000E+00 0. -1.
          4   -1    0    0  502    0 -0.00000000000E+00 -0.00000000000E+00 -0.24154779119E+04  0.24154779119E+04  0.00000000000E+00 0.  1.
        -13    1    1    2    0    0  0.74955473403E+03  0.59762172309E+03 -0.61589233840E+03  0.11394329322E+04  0.10566000000E+00 0.  1.
         13    1    1    2    0    0 -0.62219782777E+03 -0.37948358227E+03 -0.12806514897E+04  0.14735013320E+04  0.10566000000E+00 0. -1.
          4    1    1    2  501    0 -0.12735690626E+03 -0.21813814082E+03 -0.61503329747E+02  0.25997440186E+03  0.00000000000E+00 0.  1.
</event>
<event>
 5    1  0.2540860E-005  0.2381458E+03  0.7818608E-02  0.1036726E+00
          4   -1    0    0  502    0 -0.00000000000E+00  0.00000000000E+00  0.27890997158E+04  0.27890997158E+04  0.00000000000E+00 0.  1.
         21   -1    0    0  501  502  0.00000000000E+00 -0.00000000000E+00 -0.13747735842E+03  0.13747735842E+03  0.00000000000E+00 0.  1.
        -13    1    1    2    0    0 -0.72810535546E+02  0.27443783794E+03  0.88594218105E+02  0.29743309773E+03  0.10566000000E+00 0.  1.
         13    1    1    2    0    0  0.10018858970E+03 -0.20172576050E+03  0.35939300339E+03  0.42413957373E+03  0.10566000000E+00 0. -1.
          4    1    1    2  501    0 -0.27378054153E+02 -0.72712077445E+02  0.22036351359E+04  0.22050044027E+04  0.00000000000E+00 0.  1.
</event>
<event>
 5    1  0.2540860E-005  0.3912110E+03  0.7818608E-02  0.1001951E+00
         21   -1    0    0  501  502  0.00000000000E+00  0.00000000000E+00  0.36793933247E+03  0.36793933247E+03  0.00000000000E+00 0.  1.
          4   -1    0    0  502    0 -0.00000000000E+00 -0.00000000000E+00 -0.10911848503E+04  0.10911848503E+04  0.00000000000E+00 0.  1.
        -13    1    1    2    0    0 -0.20758526426E+03  0.31149253348E+03 -0.56176816693E+03  0.67505757154E+03  0.10566000000E+00 0.  1.
         13    1    1    2    0    0 -0.12982298995E+03 -0.95178735133E+02 -0.31590189092E+03  0.35455185262E+03  0.10566000000E+00 0. -1.
          4    1    1    2  501    0  0.33740825421E+03 -0.21631379835E+03  0.15442453998E+03  0.42951475866E+03  0.00000000000E+00 0.  1.
</event>
<event>
 5    1  0.2540860E-005  0.3455488E+03  0.7818608E-02  0.9901015E-01
         21   -1    0    0  501  502  0.00000000000E+00  0.00000000000E+00  0.14555436170E+03  0.14555436170E+03  0.00000000000E+00 0.  1.
         -4   -1    0    0    0  501 -0.00000000000E+00 -0.00000000000E+00 -0.19088049752E+04  0.19088049752E+04  0.00000000000E+00 0. -1.
        -13    1    1    2    0    0  0.17549610334E+03  0.26716953814E+03 -0.28322248598E+03  0.42707544079E+03  0.10566000000E+00 0.  1.
         13    1    1    2    0    0 -0.20429392153E+03 -0.28767429939E+03 -0.15277104691E+04  0.15679259541E+04  0.10566000000E+00 0. -1.
         -4    1    1    2    0  502  0.28797818190E+02  0.20504761250E+02  0.47682341661E+02  0.59357941951E+02  0.00000000000E+00 0. -1.
</event>
<event>
 5    1  0.2540860E-005  0.3137232E+03  0.7818608E-02  0.1031310E+00
         -4   -1    0    0    0  501 -0.00000000000E+00  0.00000000000E+00  0.72779550079E+03  0.72779550079E+03  0.00000000000E+00 0. -1.
         21   -1    0    0  501  502  0.00000000000E+00 -0.00000000000E+00 -0.44017120781E+03  0.44017120781E+03  0.00000000000E+00 0. -1.
        -13    1    1    2    0    0  0.12078722861E+03 -0.23116007414E+02  0.83565544987E+02  0.14868461880E+03  0.10566000000E+00 0.  1.
         13    1    1    2    0    0  0.64331421304E+01 -0.31046843271E+03 -0.27977906832E+03  0.41798130491E+03  0.10566000000E+00 0. -1.
         -4    1    1    2    0  502 -0.12722037074E+03  0.33358444012E+03  0.48383781631E+03  0.60130078489E+03  0.00000000000E+00 0. -1.
</event>
<event>
 5    1  0.2540860E-005  0.4990702E+03  0.7818608E-02  0.9862569E-01
          4   -1    0    0  502    0 -0.00000000000E+00  0.00000000000E+00  0.43603332402E+03  0.43603332402E+03  0.00000000000E+00 0.  1.
         21   -1    0    0  501  502  0.00000000000E+00 -0.00000000000E+00 -0.15516670081E+04  0.15516670081E+04  0.00000000000E+00 0.  1.
        -13    1    1    2    0    0 -0.15144396525E+03  0.43721580136E+03 -0.49124006505E+03  0.67484053245E+03  0.10566000000E+00 0.  1.
         13    1    1    2    0    0 -0.12938201920E+03  0.17066452031E+02  0.25358844901E+03  0.28519832277E+03  0.10566000000E+00 0. -1.
          4    1    1    2  501    0  0.28082598445E+03 -0.45428225339E+03 -0.87798206802E+03  0.10276614769E+04  0.00000000000E+00 0.  1.
</event>
<event>
 5    1  0.2540860E-005  0.2453348E+03  0.7818608E-02  0.1032839E+00
          4   -1    0    0  502    0 -0.00000000000E+00  0.00000000000E+00  0.14755890121E+04  0.14755890121E+04  0.00000000000E+00 0.  1.
         21   -1    0    0  501  502  0.00000000000E+00 -0.00000000000E+00 -0.74603980349E+02  0.74603980349E+02  0.00000000000E+00 0.  1.
        -13    1    1    2    0    0  0.14718147993E+01  0.27997079140E+03  0.10752995924E+04  0.11111503206E+04  0.10566000000E+00 0.  1.
         13    1    1    2    0    0  0.77545122951E+01 -0.16525780689E+03  0.12369746462E+03  0.20657044589E+03  0.10566000000E+00 0. -1.
          4    1    1    2  501    0 -0.92263270944E+01 -0.11471298451E+03  0.20198797470E+03  0.23247222598E+03  0.00000000000E+00 0.  1.
</event>
<event>
 5    1  0.2540860E-005  0.4396488E+03  0.7818608E-02  0.1007058E+00
         -4   -1    0    0    0  501 -0.00000000000E+00  0.00000000000E+00  0.13964921169E+04  0.13964921169E+04  0.00000000000E+00 0. -1.
         21   -1    0    0  501  502  0.00000000000E+00 -0.00000000000E+00 -0.21515379066E+03  0.21515379066E+03  0.00000000000E+00 0. -1.
        -13    1    1    2    0    0  0.66718104853E+02  0.69139826394E+02  0.16712179286E+03  0.19277273127E+03  0.10566000000E+00 0.  1.
         13    1    1    2    0    0 -0.45134750692E+03 -0.93991634121E+02  0.17096278798E+03  0.49170853697E+03  0.10566000000E+00 0. -1.
         -4    1    1    2    0  502  0.38462940207E+03  0.24851807727E+02  0.84325374539E+03  0.92716463932E+03  0.00000000000E+00 0. -1.
</event>
<event>
 5    1  0.2540860E-005  0.5100719E+03  0.7818608E-02  0.9505140E-01
          4   -1    0    0  502    0 -0.00000000000E+00  0.00000000000E+00  0.89877830687E+03  0.89877830687E+03  0.00000000000E+00 0.  1.
         21   -1    0    0  501  502  0.00000000000E+00 -0.00000000000E+00 -0.68425483697E+03  0.68425483697E+03  0.00000000000E+00 0. -1.
        -13    1    1    2    0    0 -0.12670773144E+03 -0.25036264464E+03  0.24382323521E+03  0.37173388900E+03  0.10566000000E+00 0.  1.
         13    1    1    2    0    0 -0.28784661853E+03 -0.31488039781E+03  0.20351941420E+03  0.47267907067E+03  0.10566000000E+00 0. -1.
          4    1    1    2  501    0  0.41455434998E+03  0.56524304245E+03 -0.23281917951E+03  0.73862018418E+03  0.00000000000E+00 0.  1.
</event>
<event>
 5    1  0.2540860E-005  0.8154166E+02  0.7818608E-02  0.1205835E+00
         -4   -1    0    0    0  501 -0.00000000000E+00  0.00000000000E+00  0.14871995811E+03  0.14871995811E+03  0.00000000000E+00 0. -1.
         21   -1    0    0  501  502  0.00000000000E+00 -0.00000000000E+00 -0.37424135303E+03  0.37424135303E+03  0.00000000000E+00 0. -1.
        -13    1    1    2    0    0 -0.45784986777E+02  0.53430309188E+02 -0.50665890169E+02  0.86707015546E+02  0.10566000000E+00 0.  1.
         13    1    1    2    0    0  0.31224290622E+02 -0.13160472394E+03  0.88178807979E+02  0.16146291534E+03  0.10566000000E+00 0. -1.
         -4    1    1    2    0  502  0.14560696155E+02  0.78174414751E+02 -0.26303431273E+03  0.27479138026E+03  0.00000000000E+00 0. -1.
</event>
<event>
 5    1  0.2540860E-005  0.1057997E+03  0.7818608E-02  0.1202414E+00
         21   -1    0    0  501  502  0.00000000000E+00  0.00000000000E+00  0.28828620282E+03  0.28828620282E+03  0.00000000000E+00 0.  1.
          4   -1    0    0  502    0 -0.00000000000E+00 -0.00000000000E+00 -0.64990318147E+03  0.64990318147E+03  0.00000000000E+00 0.  1.
        -13    1    1    2    0    0 -0.99529538835E+01  0.12089220903E+03 -0.61172807537E+03  0.62363870699E+03  0.10566000000E+00 0.  1.
         13    1    1    2    0    0 -0.27005423893E+02 -0.21955534609E+02 -0.79613965238E+01  0.35703409057E+02  0.10566000000E+00 0. -1.
          4    1    1    2  501    0  0.36958377777E+02 -0.98936674420E+02  0.25807249325E+03  0.27884726824E+03  0.00000000000E+00 0.  1.
</event>
<event>
 5    1  0.2540860E-005  0.4405073E+03  0.7818608E-02  0.9846687E-01
          4   -1    0    0  502    0 -0.00000000000E+00  0.00000000000E+00  0.10061631820E+04  0.10061631820E+04  0.00000000000E+00 0.  1.
         21   -1    0    0  501  502  0.00000000000E+00 -0.00000000000E+00 -0.43135285016E+03  0.43135285016E+03  0.00000000000E+00 0.  1.
        -13    1    1    2    0    0  0.14293270463E+03  0.35986719940E+03 -0.45933636033E+02  0.38992828743E+03  0.10566000000E+00 0.  1.
         13    1    1    2    0    0  0.12093950081E+03  0.15958285962E+03  0.35420827017E+03  0.40688642366E+03  0.10566000000E+00 0. -1.
          4    1    1    2  501    0 -0.26387220544E+03 -0.51945005902E+03  0.26653569767E+03  0.64070132102E+03  0.00000000000E+00 0.  1.
</event>
<event>
 5    1  0.2540860E-005  0.4098004E+03  0.7818608E-02  0.9701161E-01
          4   -1    0    0  502    0 -0.00000000000E+00  0.00000000000E+00  0.20369907149E+04  0.20369907149E+04  0.00000000000E+00 0.  1.
         21   -1    0    0  501  502  0.00000000000E+00 -0.00000000000E+00 -0.31514826391E+03  0.31514826391E+03  0.00000000000E+00 0.  1.
        -13    1    1    2    0    0  0.15507648206E+03  0.51053850083E+03  0.87926075174E+03  0.10284929542E+04  0.10566000000E+00 0.  1.
         13    1    1    2    0    0 -0.95849346172E+02 -0.34578575633E+03  0.10158293176E+04  0.10773412181E+04  0.10566000000E+00 0. -1.
          4    1    1    2  501    0 -0.59227135893E+02 -0.16475274450E+03 -0.17324761838E+03  0.24630480653E+03  0.00000000000E+00 0.  1.
</event>
<event>
 5    1  0.2540860E-005  0.1575225E+03  0.7818608E-02  0.1093921E+00
         -4   -1    0    0    0  501 -0.00000000000E+00  0.00000000000E+00  0.87246167179E+03  0.87246167179E+03  0.00000000000E+00 0. -1.
         21   -1    0    0  501  502  0.00000000000E+00 -0.00000000000E+00 -0.10138857819E+03  0.10138857819E+03  0.00000000000E+00 0. -1.
        -13    1    1    2    0    0  0.11736024860E+03 -0.12044775967E+03  0.41486985054E+03  0.44765845777E+03  0.10566000000E+00 0.  1.
         13    1    1    2    0    0 -0.13129793406E+03  0.75815356912E+02  0.42032434587E+03  0.44683294723E+03  0.10566000000E+00 0. -1.
         -4    1    1    2    0  502  0.13937685464E+02  0.44632402755E+02 -0.64121102812E+02  0.79358844986E+02  0.00000000000E+00 0. -1.
</event>
<event>
 5    1  0.2540860E-005  0.4876247E+03  0.7818608E-02  0.9571279E-01
         21   -1    0    0  501  502  0.00000000000E+00  0.00000000000E+00  0.16150140872E+03  0.16150140872E+03  0.00000000000E+00 0.  1.
         -4   -1    0    0    0  501 -0.00000000000E+00 -0.00000000000E+00 -0.35509941843E+04  0.35509941843E+04  0.00000000000E+00 0. -1.
        -13    1    1    2    0    0 -0.34366004289E+03 -0.17295036771E+03 -0.47809320090E+03  0.61366699005E+03  0.10566000000E+00 0.  1.
         13    1    1    2    0    0 -0.18484355095E+03  0.43289400391E+03 -0.12070045066E+04  0.12955401371E+04  0.10566000000E+00 0. -1.
         -4    1    1    2    0  502  0.52850359383E+03 -0.25994363620E+03 -0.17043950682E+04  0.18032884659E+04  0.00000000000E+00 0. -1.
</event>
<event>
 5    1  0.2540860E-005  0.6800843E+02  0.7818608E-02  0.1232052E+00
         21   -1    0    0  501  502  0.00000000000E+00  0.00000000000E+00  0.13637235551E+03  0.13637235551E+03  0.00000000000E+00 0. -1.
         -4   -1    0    0    0  501 -0.00000000000E+00 -0.00000000000E+00 -0.31301476740E+03  0.31301476740E+03  0.00000000000E+00 0. -1.
        -13    1    1    2    0    0 -0.84237710629E+01 -0.67157614966E+02 -0.20132705586E+03  0.21239985818E+03  0.10566000000E+00 0.  1.
         13    1    1    2    0    0 -0.40694709986E+02  0.70031011017E+02 -0.84609333337E+02  0.11712878543E+03  0.10566000000E+00 0. -1.
         -4    1    1    2    0  502  0.49118481049E+02 -0.28733960510E+01  0.10929397730E+03  0.11985847930E+03  0.00000000000E+00 0. -1.
</event>
<event>
 5    1  0.2540860E-005  0.4664919E+03  0.7818608E-02  0.9769252E-01
         -4   -1    0    0    0  501 -0.00000000000E+00  0.00000000000E+00  0.35188441920E+03  0.35188441920E+03  0.00000000000E+00 0. -1.
         21   -1    0    0  501  502  0.00000000000E+00 -0.00000000000E+00 -0.16495778109E+04  0.16495778109E+04  0.00000000000E+00 0. -1.
        -13    1    1    2    0    0  0.18094863789E+03 -0.12429502747E+03  0.12540296864E+03  0.25281926176E+03  0.10566000000E+00 0.  1.
         13    1    1    2    0    0 -0.23630501425E+03 -0.36879313410E+03 -0.33066130920E+03  0.54880356056E+03  0.10566000000E+00 0. -1.
         -4    1    1    2    0  502  0.55356376360E+02  0.49308816157E+03 -0.10924350511E+04  0.11998394077E+04  0.00000000000E+00 0. -1.
</event>
<event>
 5    1  0.2540860E-005  0.5382402E+03  0.7818608E-02  0.9397878E-01
         21   -1    0    0  501  502  0.00000000000E+00  0.00000000000E+00  0.24698192943E+03  0.24698192943E+03  0.00000000000E+00 0. -1.
         -4   -1    0    0    0  501 -0.00000000000E+00 -0.00000000000E+00 -0.26510120848E+04  0.26510120848E+04  0.00000000000E+00 0. -1.
        -13    1    1    2    0    0 -0.29813945040E+03  0.36297789660E+03 -0.86905894197E+03  0.98787830278E+03  0.10566000000E+00 0.  1.
         13    1    1    2    0    0  0.21181852361E+03 -0.71171302278E+03 -0.79684899939E+03  0.10892065244E+04  0.10566000000E+00 0. -1.
         -4    1    1    2    0  502  0.86320926790E+02  0.34873512618E+03 -0.73812221399E+03  0.82090918707E+03  0.00000000000E+00 0. -1.
</event>
<event>
 5    1  0.2540860E-005  0.2084874E+03  0.7818608E-02  0.1121286E+00
         21   -1    0    0  501  502  0.00000000000E+00  0.00000000000E+00  0.64736800400E+03  0.64736800400E+03  0.00000000000E+00 0. -1.
         -4   -1    0    0    0  501 -0.00000000000E+00 -0.00000000000E+00 -0.12904498837E+04  0.12904498837E+04  0.00000000000E+00 0. -1.
        -13    1    1    2    0    0 -0.43537396011E+03  0.29596218186E+03 -0.58098905184E+03  0.78402320613E+03  0.10566000000E+00 0.  1.
         13    1    1    2    0    0 -0.60202325414E+02  0.51380263285E+02  0.39028105482E+03  0.39822551946E+03  0.10566000000E+00 0. -1.
         -4    1    1    2    0  502  0.49557628553E+03 -0.34734244515E+03 -0.45237388267E+03  0.75556916209E+03  0.00000000000E+00 0. -1.
</event>
<event>
 5    1  0.2540860E-005  0.5849686E+03  0.7818608E-02  0.9397504E-01
          4   -1    0    0  502    0 -0.00000000000E+00  0.00000000000E+00  0.11485240237E+04  0.11485240237E+04  0.00000000000E+00 0.  1.
         21   -1    0    0  501  502  0.00000000000E+00 -0.00000000000E+00 -0.82520680609E+03  0.82520680609E+03  0.00000000000E+00 0.  1.
        -13    1    1    2    0    0 -0.73480306214E+02 -0.48238130197E+02  0.48856059181E+03  0.49640481025E+03  0.10566000000E+00 0.  1.
         13    1    1    2    0    0 -0.50097327589E+03 -0.47515625256E+03 -0.59461427280E+02  0.69302479032E+03  0.10566000000E+00 0. -1.
          4    1    1    2  501    0  0.57445358210E+03  0.52339438275E+03 -0.10578194690E+03  0.78430122923E+03  0.00000000000E+00 0.  1.
</event>
<event>
 5    1  0.2540860E-005  0.4632208E+03  0.7818608E-02  0.9748844E-01
         21   -1    0    0  501  502  0.00000000000E+00  0.00000000000E+00  0.62915172258E+03  0.62915172258E+03  0.00000000000E+00 0. -1.
         -4   -1    0    0    0  501 -0.00000000000E+00 -0.00000000000E+00 -0.10903568422E+04  0.10903568422E+04  0.00000000000E+00 0. -1.
        -13    1    1    2    0    0  0.20988930035E+03  0.11746901744E+03 -0.62265819540E+03  0.66749960893E+03  0.10566000000E+00 0.  1.
         13    1    1    2    0    0 -0.60175773011E+03 -0.17060036683E+03  0.16185872671E+01  0.62547540471E+03  0.10566000000E+00 0. -1.
         -4    1    1    2    0  502  0.39186842976E+03  0.53131349389E+02  0.15983448851E+03  0.42653355114E+03  0.00000000000E+00 0. -1.
</event>
<event>
 5    1  0.2540860E-005  0.4978024E+03  0.7818608E-02  0.9867565E-01
         21   -1    0    0  501  502  0.00000000000E+00  0.00000000000E+00  0.62349237222E+03  0.62349237222E+03  0.00000000000E+00 0. -1.
         -4   -1    0    0    0  501 -0.00000000000E+00 -0.00000000000E+00 -0.51675118832E+03  0.51675118832E+03  0.00000000000E+00 0. -1.
        -13    1    1    2    0    0 -0.45745071590E+02  0.12094512163E+03  0.16991629437E+02  0.13041878951E+03  0.10566000000E+00 0.  1.
         13    1    1    2    0    0 -0.35352067978E+03  0.25997532530E+03 -0.46926979737E+02  0.44132323005E+03  0.10566000000E+00 0. -1.
         -4    1    1    2    0  502  0.39926575137E+03 -0.38092044693E+03  0.13667653420E+03  0.56850154099E+03  0.00000000000E+00 0. -1.
</event>
<event>
 5    1  0.2540860E-005  0.5009098E+03  0.7818608E-02  0.9692112E-01
         21   -1    0    0  501  502  0.00000000000E+00  0.00000000000E+00  0.66168619196E+03  0.66168619196E+03  0.00000000000E+00 0. -1.
         -4   -1    0    0    0  501 -0.00000000000E+00 -0.00000000000E+00 -0.84600613875E+03  0.84600613875E+03  0.00000000000E+00 0. -1.
        -13    1    1    2    0    0 -0.22534222006E+03 -0.53397988862E+02 -0.39124300375E+03  0.45464443305E+03  0.10566000000E+00 0.  1.
         13    1    1    2    0    0  0.20511489985E+02  0.51946465487E+03  0.60872853963E+02  0.52342121126E+03  0.10566000000E+00 0. -1.
         -4    1    1    2    0  502  0.20483073007E+03 -0.46606666601E+03  0.14605020300E+03  0.52962668640E+03  0.00000000000E+00 0. -1.
</event>
<event>
 5    1  0.2540860E-005  0.5043435E+03  0.7818608E-02  0.9845003E-01
         21   -1    0    0  501  502  0.00000000000E+00  0.00000000000E+00  0.10206073541E+03  0.10206073541E+03  0.00000000000E+00 0.  1.
          4   -1    0    0  502    0 -0.00000000000E+00 -0.00000000000E+00 -0.33874590462E+04  0.33874590462E+04  0.00000000000E+00 0.  1.
        -13    1    1    2    0    0 -0.17601891649E+03 -0.41072093020E+03 -0.11965993471E+04  0.12773113756E+04  0.10566000000E+00 0.  1.
         13    1    1    2    0    0 -0.89341790511E+02 -0.10011150568E+03 -0.62602704339E+03  0.64024537430E+03  0.10566000000E+00 0. -1.
          4    1    1    2  501    0  0.26536070700E+03  0.51083243588E+03 -0.14627719203E+04  0.15719630317E+04  0.00000000000E+00 0.  1.
</event>
<event>
 5    1  0.2540860E-005  0.3519668E+03  0.7818608E-02  0.9879057E-01
         21   -1    0    0  501  502  0.00000000000E+00  0.00000000000E+00  0.11757075214E+03  0.11757075214E+03  0.00000000000E+00 0. -1.
          4   -1    0    0  502    0 -0.00000000000E+00 -0.00000000000E+00 -0.21305362752E+04  0.21305362752E+04  0.00000000000E+00 0.  1.
        -13    1    1    2    0    0 -0.30413354683E+03  0.17234127811E+03 -0.13431390314E+04  0.13878837124E+04  0.10566000000E+00 0.  1.
         13    1    1    2    0    0  0.32248041978E+03 -0.15326010652E+03 -0.71990291230E+03  0.80358104488E+03  0.10566000000E+00 0. -1.
          4    1    1    2  501    0 -0.18346872950E+02 -0.19081171584E+02  0.50076420601E+02  0.56642270049E+02  0.00000000000E+00 0.  1.
</event>
<event>
 5    1  0.2540860E-005  0.1624271E+03  0.7818608E-02  0.1089463E+00
          4   -1    0    0  502    0 -0.00000000000E+00  0.00000000000E+00  0.14329520015E+04  0.14329520015E+04  0.00000000000E+00 0.  1.
         21   -1    0    0  501  502  0.00000000000E+00 -0.00000000000E+00 -0.24844233652E+02  0.24844233652E+02  0.00000000000E+00 0. -1.
        -13    1    1    2    0    0 -0.14014670615E+03  0.74193295100E+02  0.80713758520E+03  0.82256722333E+03  0.10566000000E+00 0.  1.
         13    1    1    2    0    0  0.14676330717E+03 -0.82200561374E+02  0.60174319681E+03  0.62481300138E+03  0.10566000000E+00 0. -1.
          4    1    1    2  501    0 -0.66166010279E+01  0.80072662743E+01 -0.77301417999E+00  0.10416010430E+02  0.00000000000E+00 0.  1.
</event>
<event>
 5    1  0.2540860E-005  0.3520801E+03  0.7818608E-02  0.9878673E-01
         -4   -1    0    0    0  501 -0.00000000000E+00  0.00000000000E+00  0.11710260104E+04  0.11710260104E+04  0.00000000000E+00 0. -1.
         21   -1    0    0  501  502  0.00000000000E+00 -0.00000000000E+00 -0.11084239073E+03  0.11084239073E+03  0.00000000000E+00 0.  1.
        -13    1    1    2    0    0  0.33243715632E+03 -0.10457424292E+03  0.43743937390E+03  0.55928834440E+03  0.10566000000E+00 0.  1.
         13    1    1    2    0    0 -0.34123528747E+03  0.97720342683E+02  0.60886965265E+03  0.70477872547E+03  0.10566000000E+00 0. -1.
         -4    1    1    2    0  502  0.87981311498E+01  0.68539002334E+01  0.13874593118E+02  0.17801331251E+02  0.00000000000E+00 0. -1.
</event>
<event>
 5    1  0.2540860E-005  0.3999787E+03  0.7818608E-02  0.9906031E-01
         -4   -1    0    0    0  501 -0.00000000000E+00  0.00000000000E+00  0.54181162649E+03  0.54181162649E+03  0.00000000000E+00 0. -1.
         21   -1    0    0  501  502  0.00000000000E+00 -0.00000000000E+00 -0.67779040706E+03  0.67779040706E+03  0.00000000000E+00 0. -1.
        -13    1    1    2    0    0  0.19698838064E+03  0.95922136958E+02  0.11683973558E+03  0.24830830320E+03  0.10566000000E+00 0.  1.
         13    1    1    2    0    0 -0.37310283049E+03 -0.26237234473E+03 -0.46342566185E+03  0.65023712953E+03  0.10566000000E+00 0. -1.
         -4    1    1    2    0  502  0.17611444986E+03  0.16645020777E+03  0.21060714570E+03  0.32105660082E+03  0.00000000000E+00 0. -1.
</event>
<event>
 5    1  0.2540860E-005  0.1498750E+03  0.7818608E-02  0.1101235E+00
         21   -1    0    0  501  502  0.00000000000E+00  0.00000000000E+00  0.25584638452E+03  0.25584638452E+03  0.00000000000E+00 0. -1.
         -4   -1    0    0    0  501 -0.00000000000E+00 -0.00000000000E+00 -0.65622830615E+03  0.65622830615E+03  0.00000000000E+00 0. -1.
        -13    1    1    2    0    0 -0.80696861871E+02 -0.13214178151E+03 -0.78817729912E+02  0.17374026490E+03  0.10566000000E+00 0.  1.
         13    1    1    2    0    0  0.12619264556E+03  0.83760108002E+02 -0.51342752016E+03  0.53530194200E+03  0.10566000000E+00 0. -1.
         -4    1    1    2    0  502 -0.45495783689E+02  0.48381673505E+02  0.19186332844E+03  0.20303248377E+03  0.00000000000E+00 0. -1.
</event>
<event>
 5    1  0.2540860E-005  0.3603173E+03  0.7818608E-02  0.9851219E-01
         21   -1    0    0  501  502  0.00000000000E+00  0.00000000000E+00  0.11023704152E+04  0.11023704152E+04  0.00000000000E+00 0. -1.
          4   -1    0    0  502    0 -0.00000000000E+00 -0.00000000000E+00 -0.19563180514E+03  0.19563180514E+03  0.00000000000E+00 0.  1.
        -13    1    1    2    0    0  0.30411756877E+03  0.19762028944E+03  0.13439411337E+03  0.38678555209E+03  0.10566000000E+00 0.  1.
         13    1    1    2    0    0 -0.30582040751E+03 -0.18284575941E+03  0.38876501129E+03  0.52734897227E+03  0.10566000000E+00 0. -1.
          4    1    1    2  501    0  0.17028387390E+01 -0.14774530027E+02  0.38357948540E+03  0.38386769598E+03  0.00000000000E+00 0.  1.
</event>
<event>
 5    1  0.2540860E-005  0.5047308E+02  0.7818608E-02  0.1344721E+00
          4   -1    0    0  502    0 -0.00000000000E+00  0.00000000000E+00  0.20333508824E+03  0.20333508824E+03  0.00000000000E+00 0.  1.
         21   -1    0    0  501  502  0.00000000000E+00 -0.00000000000E+00 -0.16973122418E+04  0.16973122418E+04  0.00000000000E+00 0.  1.
        -13    1    1    2    0    0 -0.29602068255E+01 -0.30141809649E+02  0.15122762958E+03  0.15423066694E+03  0.10566000000E+00 0.  1.
         13    1    1    2    0    0 -0.81764232985E+02  0.27916077979E+02  0.11839809620E+02  0.87206017346E+02  0.10566000000E+00 0. -1.
          4    1    1    2  501    0  0.84724439811E+02  0.22257316701E+01 -0.16570445927E+04  0.16592106457E+04  0.00000000000E+00 0.  1.
</event>
<event>
 5    1  0.2540860E-005  0.4249072E+03  0.7818608E-02  0.9659751E-01
         21   -1    0    0  501  502  0.00000000000E+00  0.00000000000E+00  0.79554066786E+02  0.79554066786E+02  0.00000000000E+00 0. -1.
          4   -1    0    0  502    0 -0.00000000000E+00 -0.00000000000E+00 -0.37634878796E+04  0.37634878796E+04  0.00000000000E+00 0.  1.
        -13    1    1    2    0    0  0.40823557134E+03 -0.25201988931E+02 -0.15005748070E+04  0.15553186762E+04  0.10566000000E+00 0.  1.
         13    1    1    2    0    0 -0.43652499409E+03 -0.18231665424E+03 -0.14687579188E+04  0.15430629502E+04  0.10566000000E+00 0. -1.
          4    1    1    2  501    0  0.28289422744E+02  0.20751864317E+03 -0.71460108695E+03  0.74466032000E+03  0.00000000000E+00 0.  1.
</event>
<event>
 5    1  0.2540860E-005  0.5302895E+02  0.7818608E-02  0.1279925E+00
         21   -1    0    0  501  502  0.00000000000E+00  0.00000000000E+00  0.52465152132E+03  0.52465152132E+03  0.00000000000E+00 0.  1.
          4   -1    0    0  502    0 -0.00000000000E+00 -0.00000000000E+00 -0.77608920230E+02  0.77608920230E+02  0.00000000000E+00 0.  1.
        -13    1    1    2    0    0 -0.49197059540E+02  0.13154120257E+02 -0.40084746609E+02  0.64808792782E+02  0.10566000000E+00 0.  1.
         13    1    1    2    0    0  0.59285241107E+02 -0.60351423854E+01  0.10313082760E+02  0.60477546220E+02  0.10566000000E+00 0. -1.
          4    1    1    2  501    0 -0.10088181567E+02 -0.71189778715E+01  0.47681426493E+03  0.47697410254E+03  0.00000000000E+00 0.  1.
</event>
<event>
 5    1  0.2540860E-005  0.4918946E+03  0.7818608E-02  0.1008933E+00
         21   -1    0    0  501  502  0.00000000000E+00  0.00000000000E+00  0.12314081623E+04  0.12314081623E+04  0.00000000000E+00 0. -1.
         -4   -1    0    0    0  501 -0.00000000000E+00 -0.00000000000E+00 -0.23422149732E+03  0.23422149732E+03  0.00000000000E+00 0. -1.
        -13    1    1    2    0    0 -0.25164693752E+02 -0.59471595271E+02  0.10720567289E+02  0.65460478021E+02  0.10566000000E+00 0.  1.
         13    1    1    2    0    0  0.37133840806E+03  0.37165180217E+03  0.47673993655E+03  0.70943516520E+03  0.10566000000E+00 0. -1.
         -4    1    1    2    0  502 -0.34617371431E+03 -0.31218020689E+03  0.50972616110E+03  0.69073401637E+03  0.00000000000E+00 0. -1.
</event>
<event>
 5    1  0.2540860E-005  0.5059640E+03  0.7818608E-02  0.9525828E-01
         21   -1    0    0  501  502  0.00000000000E+00  0.00000000000E+00  0.53887848657E+03  0.53887848657E+03  0.00000000000E+00 0.  1.
          4   -1    0    0  502    0 -0.00000000000E+00 -0.00000000000E+00 -0.18333101559E+04  0.18333101559E+04  0.00000000000E+00 0.  1.
        -13    1    1    2    0    0  0.92177842201E+02  0.46272083885E+03 -0.13125906474E+02  0.47199537062E+03  0.10566000000E+00 0.  1.
         13    1    1    2    0    0 -0.39339628163E+03  0.98519830648E+02 -0.11893932623E+04  0.12566316624E+04  0.10566000000E+00 0. -1.
          4    1    1    2  501    0  0.30121843943E+03 -0.56124066950E+03 -0.91912500522E+02  0.64356160941E+03  0.00000000000E+00 0.  1.
</event>
<event>
 5    1  0.2540860E-005  0.2213567E+03  0.7818608E-02  0.1046405E+00
         21   -1    0    0  501  502  0.00000000000E+00  0.00000000000E+00  0.30740110717E+03  0.30740110717E+03  0.00000000000E+00 0.  1.
         -4   -1    0    0    0  501 -0.00000000000E+00 -0.00000000000E+00 -0.36400764781E+03  0.36400764781E+03  0.00000000000E+00 0. -1.
        -13    1    1    2    0    0 -0.21989693251E+03 -0.78053218144E+02  0.16453663272E+03  0.28551581472E+03  0.10566000000E+00 0.  1.
         13    1    1    2    0    0  0.21123465343E+03  0.58970133035E+02 -0.26097199600E+03  0.34088700365E+03  0.10566000000E+00 0. -1.
         -4    1    1    2    0  502  0.86622790758E+01  0.19083085109E+02  0.39828822644E+02  0.45005936600E+02  0.00000000000E+00 0. -1.
</event>
<event>
 5    1  0.2540860E-005  0.1492973E+03  0.7818608E-02  0.1103774E+00
         21   -1    0    0  501  502  0.00000000000E+00  0.00000000000E+00  0.60269128417E+02  0.60269128417E+02  0.00000000000E+00 0. -1.
         -4   -1    0    0    0  501 -0.00000000000E+00 -0.00000000000E+00 -0.13194358472E+04  0.13194358472E+04  0.00000000000E+00 0. -1.
        -13    1    1    2    0    0 -0.13758330441E+03 -0.33420705617E+02 -0.52589335303E+03  0.54461907710E+03  0.10566000000E+00 0.  1.
         13    1    1    2    0    0  0.81321578519E+02  0.17324437691E+03 -0.61324076623E+03  0.64241035312E+03  0.10566000000E+00 0. -1.
         -4    1    1    2    0  502  0.56261725894E+02 -0.13982367129E+03 -0.12003259957E+03  0.19267554544E+03  0.00000000000E+00 0. -1.
</event>
<event>
 5    1  0.2540860E-005  0.1549832E+02  0.7818608E-02  0.1608121E+00
         -4   -1    0    0    0  501 -0.00000000000E+00  0.00000000000E+00  0.37169941793E+02  0.37169941793E+02  0.00000000000E+00 0. -1.
         21   -1    0    0  501  502  0.00000000000E+00 -0.00000000000E+00 -0.16706932576E+02  0.16706932576E+02  0.00000000000E+00 0.  1.
        -13    1    1    2    0    0  0.56543366035E+01  0.99035329494E+01  0.54887795716E+01  0.12656593243E+02  0.10566000000E+00 0.  1.
         13    1    1    2    0    0 -0.30745557432E+01 -0.23044409809E+02  0.15287779318E+02  0.27824900305E+02  0.10566000000E+00 0. -1.
         -4    1    1    2    0  502 -0.25797808603E+01  0.13140876859E+02 -0.31354967241E+00  0.13395380820E+02  0.00000000000E+00 0. -1.
</event>
<event>
 5    1  0.2540860E-005  0.3095984E+03  0.7818608E-02  0.1007352E+00
         -4   -1    0    0    0  501 -0.00000000000E+00  0.00000000000E+00  0.87473874031E+03  0.87473874031E+03  0.00000000000E+00 0. -1.
         21   -1    0    0  501  502  0.00000000000E+00 -0.00000000000E+00 -0.97190618487E+03  0.97190618487E+03  0.00000000000E+00 0. -1.
        -13    1    1    2    0    0  0.27173575458E+03  0.20968067995E+02  0.55482736183E+03  0.61815321143E+03  0.10566000000E+00 0.  1.
         13    1    1    2    0    0 -0.28469318997E+03 -0.32550285843E+03  0.76178230420E+02  0.43909618219E+03  0.10566000000E+00 0. -1.
         -4    1    1    2    0  502  0.12957435385E+02  0.30453479044E+03 -0.72817303681E+03  0.78939553157E+03  0.00000000000E+00 0. -1.
</event>
<event>
 5    1  0.2540860E-005  0.4503705E+02  0.7818608E-02  0.1313430E+00
         21   -1    0    0  501  502  0.00000000000E+00  0.00000000000E+00  0.23274068265E+03  0.23274068265E+03  0.00000000000E+00 0. -1.
         -4   -1    0    0    0  501 -0.00000000000E+00 -0.00000000000E+00 -0.11775471536E+03  0.11775471536E+03  0.00000000000E+00 0. -1.
        -13    1    1    2    0    0  0.58527729470E+02  0.37112700791E+01 -0.17458374445E+02  0.61188844121E+02  0.10566000000E+00 0.  1.
         13    1    1    2    0    0 -0.38309079974E+02  0.19446041170E+02 -0.71306945421E+02  0.83249178704E+02  0.10566000000E+00 0. -1.
         -4    1    1    2    0  502 -0.20218649496E+02 -0.23157311249E+02  0.20375128716E+03  0.20605737519E+03  0.00000000000E+00 0. -1.
</event>
<event>
 5    1  0.2540860E-005  0.3329346E+03  0.7818608E-02  0.9945693E-01
         21   -1    0    0  501  502  0.00000000000E+00  0.00000000000E+00  0.77794607992E+02  0.77794607992E+02  0.00000000000E+00 0.  1.
         -4   -1    0    0    0  501 -0.00000000000E+00 -0.00000000000E+00 -0.20825969894E+04  0.20825969894E+04  0.00000000000E+00 0. -1.
        -13    1    1    2    0    0  0.15422281489E+03 -0.29867143974E+03 -0.68991509737E+03  0.76744521517E+03  0.10566000000E+00 0.  1.
         13    1    1    2    0    0 -0.20087559906E+03  0.26548275069E+03 -0.12868129815E+04  0.13291801073E+04  0.10566000000E+00 0. -1.
         -4    1    1    2    0  502  0.46652784170E+02  0.33188689057E+02 -0.28074302571E+02  0.63766274919E+02  0.00000000000E+00 0. -1.
</event>
<event>
 5    1  0.2540860E-005  0.5023862E+03  0.7818608E-02  0.9806901E-01
         21   -1    0    0  501  502  0.00000000000E+00  0.00000000000E+00  0.86071744620E+02  0.86071744620E+02  0.00000000000E+00 0.  1.
          4   -1    0    0  502    0 -0.00000000000E+00 -0.00000000000E+00 -0.40616466259E+04  0.40616466259E+04  0.00000000000E+00 0.  1.
        -13    1    1    2    0    0 -0.46941514964E+03  0.31401824390E+03 -0.14828207049E+04  0.15867310088E+04  0.10566000000E+00 0.  1.
         13    1    1    2    0    0  0.14889823732E+03 -0.41255313814E+02 -0.46435545341E+03  0.48938602787E+03  0.10566000000E+00 0. -1.
          4    1    1    2  501    0  0.32051691232E+03 -0.27276293009E+03 -0.20283987230E+04  0.20716013339E+04  0.00000000000E+00 0.  1.
</event>
<event>
 5    1  0.2540860E-005  0.4979100E+03  0.7818608E-02  0.1021701E+00
         21   -1    0    0  501  502  0.00000000000E+00  0.00000000000E+00  0.69888940592E+03  0.69888940592E+03  0.00000000000E+00 0. -1.
         -4   -1    0    0    0  501 -0.00000000000E+00 -0.00000000000E+00 -0.43357317264E+03  0.43357317264E+03  0.00000000000E+00 0. -1.
        -13    1    1    2    0    0  0.40199134506E+02  0.10240634933E+02  0.10846363186E+03  0.11612584389E+03  0.10566000000E+00 0.  1.
         13    1    1    2    0    0 -0.21596375949E+03  0.45221553790E+03  0.14408819162E+03  0.52144094226E+03  0.10566000000E+00 0. -1.
         -4    1    1    2    0  502  0.17576462498E+03 -0.46245617283E+03  0.12764409786E+02  0.49489579241E+03  0.00000000000E+00 0. -1.
</event>
<event>
 5    1  0.2540860E-005  0.2397049E+03  0.7818608E-02  0.1035870E+00
         21   -1    0    0  501  502  0.00000000000E+00  0.00000000000E+00  0.22443963493E+03  0.22443963493E+03  0.00000000000E+00 0. -1.
          4   -1    0    0  502    0 -0.00000000000E+00 -0.00000000000E+00 -0.39713792648E+03  0.39713792648E+03  0.00000000000E+00 0.  1.
        -13    1    1    2    0    0  0.23766072381E+03 -0.81186705767E+02 -0.90354031939E+01  0.25130768096E+03  0.10566000000E+00 0.  1.
         13    1    1    2    0    0 -0.20474383921E+03  0.11724624606E+03 -0.20008629611E+03  0.30935620079E+03  0.10566000000E+00 0. -1.
          4    1    1    2  501    0 -0.32916884595E+02 -0.36059540292E+02  0.36423407762E+02  0.60913679666E+02  0.00000000000E+00 0.  1.
</event>
<event>
 5    1  0.2540860E-005  0.1955285E+03  0.7818608E-02  0.1102985E+00
         21   -1    0    0  501  502  0.00000000000E+00  0.00000000000E+00  0.15228056515E+03  0.15228056515E+03  0.00000000000E+00 0. -1.
         -4   -1    0    0    0  501 -0.00000000000E+00 -0.00000000000E+00 -0.11141542157E+04  0.11141542157E+04  0.00000000000E+00 0. -1.
        -13    1    1    2    0    0 -0.63346554891E+02  0.11503037072E+02 -0.13690240063E+03  0.15128577045E+03  0.10566000000E+00 0.  1.
         13    1    1    2    0    0  0.91494604007E+02 -0.20340640208E+03 -0.88455962113E+03  0.91224512138E+03  0.10566000000E+00 0. -1.
         -4    1    1    2    0  502 -0.28148049117E+02  0.19190336501E+03  0.59588371267E+02  0.20290388897E+03  0.00000000000E+00 0. -1.
</event>
<event>
 5    1  0.2540860E-005  0.4912716E+03  0.7818608E-02  0.1010705E+00
          4   -1    0    0  502    0 -0.00000000000E+00  0.00000000000E+00  0.11824634685E+04  0.11824634685E+04  0.00000000000E+00 0.  1.
         21   -1    0    0  501  502  0.00000000000E+00 -0.00000000000E+00 -0.27320780354E+03  0.27320780354E+03  0.00000000000E+00 0.  1.
        -13    1    1    2    0    0  0.22469949960E+03  0.41899377418E+03  0.27647083696E+03  0.54998343864E+03  0.10566000000E+00 0.  1.
         13    1    1    2    0    0  0.61009879689E+02  0.52129598973E+01  0.27445551324E+03  0.28120316549E+03  0.10566000000E+00 0. -1.
          4    1    1    2  501    0 -0.28570937929E+03 -0.42420673408E+03  0.35832931479E+03  0.62448466794E+03  0.00000000000E+00 0.  1.
</event>
<event>
 5    1  0.2540860E-005  0.1909043E+03  0.7818608E-02  0.1066557E+00
          4   -1    0    0  502    0 -0.00000000000E+00  0.00000000000E+00  0.76340874116E+02  0.76340874116E+02  0.00000000000E+00 0.  1.
         21   -1    0    0  501  502  0.00000000000E+00 -0.00000000000E+00 -0.14102855953E+04  0.14102855953E+04  0.00000000000E+00 0.  1.
        -13    1    1    2    0    0 -0.21288227822E+03 -0.12420820491E+03 -0.48592518033E+03  0.54485762782E+03  0.10566000000E+00 0.  1.
         13    1    1    2    0    0  0.13688690528E+03  0.10628432100E+03 -0.12290327162E+03  0.21246083655E+03  0.10566000000E+00 0. -1.
          4    1    1    2  501    0  0.75995372943E+02  0.17923883912E+02 -0.72511626918E+03  0.72930800500E+03  0.00000000000E+00 0.  1.
</event>
<event>
 5    1  0.2540860E-005  0.4972210E+03  0.7818608E-02  0.9484084E-01
         -4   -1    0    0    0  501 -0.00000000000E+00  0.00000000000E+00  0.19954090970E+04  0.19954090970E+04  0.00000000000E+00 0. -1.
         21   -1    0    0  501  502  0.00000000000E+00 -0.00000000000E+00 -0.25908602823E+03  0.25908602823E+03  0.00000000000E+00 0. -1.
        -13    1    1    2    0    0 -0.28103231347E+03 -0.23596576442E+03  0.36704829610E+03  0.51902164312E+03  0.10566000000E+00 0.  1.
         13    1    1    2    0    0  0.42401756585E+03  0.44001472071E+03  0.13544022607E+04  0.14858698952E+04  0.10566000000E+00 0. -1.
         -4    1    1    2    0  502 -0.14298525238E+03 -0.20404895629E+03  0.14872511938E+02  0.24960358686E+03  0.00000000000E+00 0. -1.
</event>
<event>
 5    1  0.2540860E-005  0.7369210E+03  0.7818608E-02  0.9071073E-01
         21   -1    0    0  501  502  0.00000000000E+00  0.00000000000E+00  0.88043366990E+03  0.88043366990E+03  0.00000000000E+00 0.  1.
          4   -1    0    0  502    0 -0.00000000000E+00 -0.00000000000E+00 -0.14656224920E+04  0.14656224920E+04  0.00000000000E+00 0.  1.
        -13    1    1    2    0    0 -0.58032825736E+03  0.44822489290E+03 -0.53079208649E+03  0.90522190161E+03  0.10566000000E+00 0.  1.
         13    1    1    2    0    0  0.60128431847E+03 -0.43256181280E+03 -0.56372982161E+03  0.93082967102E+03  0.10566000000E+00 0. -1.
          4    1    1    2  501    0 -0.20956061103E+02 -0.15663080100E+02  0.50933308600E+03  0.51000458926E+03  0.00000000000E+00 0.  1.
</event>
<event>
 5    1  0.2540860E-005  0.4798172E+03  0.7818608E-02  0.9673145E-01
          4   -1    0    0  502    0 -0.00000000000E+00  0.00000000000E+00  0.15896657447E+04  0.15896657447E+04  0.00000000000E+00 0.  1.
         21   -1    0    0  501  502  0.00000000000E+00 -0.00000000000E+00 -0.44470559654E+03  0.44470559654E+03  0.00000000000E+00 0.  1.
        -13    1    1    2    0    0 -0.18361054353E+03 -0.33520251513E+03  0.76640979845E+02  0.38980432117E+03  0.10566000000E+00 0.  1.
         13    1    1    2    0    0 -0.22283709643E+03 -0.17207855714E+03  0.94096533877E+03  0.98218286551E+03  0.10566000000E+00 0. -1.
          4    1    1    2  501    0  0.40644763995E+03  0.50728107227E+03  0.12735382954E+03  0.66238415456E+03  0.00000000000E+00 0.  1.
</event>
<event>
 5    1  0.2540860E-005  0.6003091E+02  0.7818608E-02  0.1255602E+00
         -4   -1    0    0    0  501 -0.00000000000E+00  0.00000000000E+00  0.37087983535E+02  0.37087983535E+02  0.00000000000E+00 0. -1.
         21   -1    0    0  501  502  0.00000000000E+00 -0.00000000000E+00 -0.18918116442E+03  0.18918116442E+03  0.00000000000E+00 0.  1.
        -13    1    1    2    0    0  0.68664101667E+02 -0.43061641023E+01 -0.10006699962E+03  0.12143606336E+03  0.10566000000E+00 0.  1.
         13    1    1    2    0    0 -0.57258554481E+02  0.51595282246E+01 -0.64588994436E+01  0.57852323539E+02  0.10566000000E+00 0. -1.
         -4    1    1    2    0  502 -0.11405547186E+02 -0.85336412226E+00 -0.45567281819E+02  0.46980761055E+02  0.00000000000E+00 0. -1.
</event>
<event>
 5    1  0.2540860E-005  0.4302370E+03  0.7818608E-02  0.9791455E-01
         21   -1    0    0  501  502  0.00000000000E+00  0.00000000000E+00  0.79084492897E+03  0.79084492897E+03  0.00000000000E+00 0.  1.
          4   -1    0    0  502    0 -0.00000000000E+00 -0.00000000000E+00 -0.62648526886E+03  0.62648526886E+03  0.00000000000E+00 0.  1.
        -13    1    1    2    0    0  0.40065681709E+03 -0.45853471903E+03  0.72735477222E+02  0.61324581894E+03  0.10566000000E+00 0.  1.
         13    1    1    2    0    0 -0.97247910318E+02  0.24040130417E+03 -0.20210340267E+03  0.32877916546E+03  0.10566000000E+00 0. -1.
          4    1    1    2  501    0 -0.30340890677E+03  0.21813341486E+03  0.29372758556E+03  0.47530521342E+03  0.00000000000E+00 0.  1.
</event>
<event>
 5    1  0.2540860E-005  0.2714210E+03  0.7818608E-02  0.1036137E+00
          4   -1    0    0  502    0 -0.00000000000E+00  0.00000000000E+00  0.45240486820E+03  0.45240486820E+03  0.00000000000E+00 0.  1.
         21   -1    0    0  501  502  0.00000000000E+00 -0.00000000000E+00 -0.52862900587E+03  0.52862900587E+03  0.00000000000E+00 0.  1.
        -13    1    1    2    0    0 -0.14451743558E+03 -0.35405753680E+03 -0.10341119764E+03  0.39615137955E+03  0.10566000000E+00 0.  1.
         13    1    1    2    0    0  0.10664011073E+03  0.12429121581E+03  0.22571938264E+03  0.27887213989E+03  0.10566000000E+00 0. -1.
          4    1    1    2  501    0  0.37877324854E+02  0.22976632099E+03 -0.19853232266E+03  0.30601035463E+03  0.00000000000E+00 0.  1.
</event>
<event>
 5    1  0.2540860E-005  0.4139257E+03  0.7818608E-02  0.9689666E-01
         21   -1    0    0  501  502  0.00000000000E+00  0.00000000000E+00  0.18199243809E+03  0.18199243809E+03  0.00000000000E+00 0. -1.
         -4   -1    0    0    0  501 -0.00000000000E+00 -0.00000000000E+00 -0.30992340687E+04  0.30992340687E+04  0.00000000000E+00 0. -1.
        -13    1    1    2    0    0 -0.19147665091E+03 -0.33437803642E+03 -0.14738708566E+04  0.15234064764E+04  0.10566000000E+00 0.  1.
         13    1    1    2    0    0  0.16477539741E+03  0.42325243180E+03 -0.15507511979E+04  0.16158969155E+04  0.10566000000E+00 0. -1.
         -4    1    1    2    0  502  0.26701253508E+02 -0.88874395375E+02  0.10738042393E+03  0.14192311488E+03  0.00000000000E+00 0. -1.
</event>
<event>
 5    1  0.2540860E-005  0.4279078E+03  0.7818608E-02  0.9972645E-01
         -4   -1    0    0    0  501 -0.00000000000E+00  0.00000000000E+00  0.11864415095E+04  0.11864415095E+04  0.00000000000E+00 0. -1.
         21   -1    0    0  501  502  0.00000000000E+00 -0.00000000000E+00 -0.29280369440E+03  0.29280369440E+03  0.00000000000E+00 0. -1.
        -13    1    1    2    0    0  0.13131907483E+03  0.57731178969E+02  0.19481024659E+02  0.14476570701E+03  0.10566000000E+00 0.  1.
         13    1    1    2    0    0 -0.21207147434E+03 -0.40213116041E+03  0.75316228891E+02  0.46082136008E+03  0.10566000000E+00 0. -1.
         -4    1    1    2    0  502  0.80752399509E+02  0.34439998145E+03  0.79884056156E+03  0.87365813682E+03  0.00000000000E+00 0. -1.
</event>
<event>
 5    1  0.2540860E-005  0.3989321E+03  0.7818608E-02  0.9937347E-01
         21   -1    0    0  501  502  0.00000000000E+00  0.00000000000E+00  0.16157280891E+03  0.16157280891E+03  0.00000000000E+00 0.  1.
          4   -1    0    0  502    0 -0.00000000000E+00 -0.00000000000E+00 -0.26681649173E+04  0.26681649173E+04  0.00000000000E+00 0.  1.
        -13    1    1    2    0    0 -0.41887217410E+03 -0.98383053525E+02 -0.22840814594E+03  0.48713798431E+03  0.10566000000E+00 0.  1.
         13    1    1    2    0    0  0.16583718343E+03 -0.10991889435E+03 -0.11762789391E+04  0.11929862901E+04  0.10566000000E+00 0. -1.
          4    1    1    2  501    0  0.25303499067E+03  0.20830194788E+03 -0.11019050234E+04  0.11496134518E+04  0.00000000000E+00 0.  1.
</event>
<event>
 5    1  0.2540860E-005  0.4669805E+03  0.7818608E-02  0.9618143E-01
          4   -1    0    0  502    0 -0.00000000000E+00  0.00000000000E+00  0.31027066479E+04  0.31027066479E+04  0.00000000000E+00 0.  1.
         21   -1    0    0  501  502  0.00000000000E+00 -0.00000000000E+00 -0.23950320906E+03  0.23950320906E+03  0.00000000000E+00 0.  1.
        -13    1    1    2    0    0  0.36484390373E+03 -0.38231093689E+02  0.31421033401E+03  0.48301225220E+03  0.10566000000E+00 0.  1.
         13    1    1    2    0    0  0.30858141496E+03 -0.20542790086E+03  0.17387370145E+04  0.17778159434E+04  0.10566000000E+00 0. -1.
          4    1    1    2  501    0 -0.67342531869E+03  0.24365899454E+03  0.81025609037E+03  0.10813816613E+04  0.00000000000E+00 0.  1.
</event>
<event>
 5    1  0.2540860E-005  0.9285169E+02  0.7818608E-02  0.1176957E+00
          4   -1    0    0  502    0 -0.00000000000E+00  0.00000000000E+00  0.16093695649E+03  0.16093695649E+03  0.00000000000E+00 0.  1.
         21   -1    0    0  501  502  0.00000000000E+00 -0.00000000000E+00 -0.27791687477E+03  0.27791687477E+03  0.00000000000E+00 0.  1.
        -13    1    1    2    0    0  0.84610218451E+02 -0.26993857137E+02  0.97853411323E+02  0.13214710992E+03  0.10566000000E+00 0.  1.
         13    1    1    2    0    0 -0.92080370347E+02  0.75928832514E+02 -0.41364648892E+02  0.12631321210E+03  0.10566000000E+00 0. -1.
          4    1    1    2  501    0  0.74701518953E+01 -0.48934975377E+02 -0.17346868071E+03  0.18039350923E+03  0.00000000000E+00 0.  1.
</event>
<event>
 5    1  0.2540860E-005  0.5005570E+03  0.7818608E-02  0.9604727E-01
          4   -1    0    0  502    0 -0.00000000000E+00  0.00000000000E+00  0.34205801456E+03  0.34205801456E+03  0.00000000000E+00 0.  1.
         21   -1    0    0  501  502  0.00000000000E+00 -0.00000000000E+00 -0.17959336783E+04  0.17959336783E+04  0.00000000000E+00 0.  1.
        -13    1    1    2    0    0 -0.17417737823E+03  0.35107819658E+03 -0.40094601660E+03  0.56067047238E+03  0.10566000000E+00 0.  1.
         13    1    1    2    0    0  0.13271590872E+03  0.28642242634E+03  0.33017186981E+02  0.31739795925E+03  0.10566000000E+00 0. -1.
          4    1    1    2  501    0  0.41461469505E+02 -0.63750062292E+03 -0.10859468341E+04  0.12599232613E+04  0.00000000000E+00 0.  1.
</event>
<event>
 5    1  0.2540860E-005  0.1163889E+04  0.7818608E-02  0.8634262E-01
          4   -1    0    0  502    0 -0.00000000000E+00  0.00000000000E+00  0.36068079626E+04  0.36068079626E+04  0.00000000000E+00 0.  1.
         21   -1    0    0  501  502  0.00000000000E+00 -0.00000000000E+00 -0.56198896945E+03  0.56198896945E+03  0.00000000000E+00 0. -1.
        -13    1    1    2    0    0 -0.10744427752E+04 -0.30631531519E+03  0.13530108589E+04  0.17546779605E+04  0.10566000000E+00 0.  1.
         13    1    1    2    0    0  0.10507060545E+04  0.64527568006E+03  0.16669454150E+04  0.20734201080E+04  0.10566000000E+00 0. -1.
          4    1    1    2  501    0  0.23736720783E+02 -0.33896036487E+03  0.24862719235E+02  0.34069886362E+03  0.00000000000E+00 0.  1.
</event>
<event>
 5    1  0.2540860E-005  0.4631022E+02  0.7818608E-02  0.1307587E+00
         21   -1    0    0  501  502  0.00000000000E+00  0.00000000000E+00  0.78606612320E+02  0.78606612320E+02  0.00000000000E+00 0.  1.
          4   -1    0    0  502    0 -0.00000000000E+00 -0.00000000000E+00 -0.13620220008E+03  0.13620220008E+03  0.00000000000E+00 0.  1.
        -13    1    1    2    0    0 -0.18968087704E+02 -0.39624378582E+02 -0.34307072522E+02  0.55739269086E+02  0.10566000000E+00 0.  1.
         13    1    1    2    0    0  0.32060947963E+02  0.36267901580E+02 -0.83957569006E+02  0.96913103483E+02  0.10566000000E+00 0. -1.
          4    1    1    2  501    0 -0.13092860259E+02  0.33564770022E+01  0.60669053766E+02  0.62156439832E+02  0.00000000000E+00 0.  1.
</event>
<event>
 5    1  0.2540860E-005  0.5003642E+03  0.7818608E-02  0.1009149E+00
         -4   -1    0    0    0  501 -0.00000000000E+00  0.00000000000E+00  0.25626137117E+04  0.25626137117E+04  0.00000000000E+00 0. -1.
         21   -1    0    0  501  502  0.00000000000E+00 -0.00000000000E+00 -0.11823645151E+03  0.11823645151E+03  0.00000000000E+00 0. -1.
        -13    1    1    2    0    0  0.58373610247E+02  0.17452605281E+02  0.39562696670E+02  0.72644958092E+02  0.10566000000E+00 0.  1.
         13    1    1    2    0    0  0.47450859814E+03 -0.19831868761E+02  0.10527931020E+04  0.11549567262E+04  0.10566000000E+00 0. -1.
         -4    1    1    2    0  502 -0.53288220839E+03  0.23792634797E+01  0.13520214615E+04  0.14532484789E+04  0.00000000000E+00 0. -1.
</event>
<event>
 5    1  0.2540860E-005  0.1229156E+03  0.7818608E-02  0.1131384E+00
         21   -1    0    0  501  502  0.00000000000E+00  0.00000000000E+00  0.10192357436E+03  0.10192357436E+03  0.00000000000E+00 0. -1.
         -4   -1    0    0    0  501 -0.00000000000E+00 -0.00000000000E+00 -0.65789710703E+03  0.65789710703E+03  0.00000000000E+00 0. -1.
        -13    1    1    2    0    0  0.12703168942E+03  0.10089056385E+02 -0.30641698618E+03  0.33185873465E+03  0.10566000000E+00 0.  1.
         13    1    1    2    0    0 -0.11928232313E+03 -0.18359774274E+01 -0.32783662681E+03  0.34886746548E+03  0.10566000000E+00 0. -1.
         -4    1    1    2    0  502 -0.77493662874E+01 -0.82530789573E+01  0.78280080329E+02  0.79094481264E+02  0.00000000000E+00 0. -1.
</event>
<event>
 5    1  0.2540860E-005  0.4694565E+03  0.7818608E-02  0.9572604E-01
         21   -1    0    0  501  502  0.00000000000E+00  0.00000000000E+00  0.29662673871E+03  0.29662673871E+03  0.00000000000E+00 0. -1.
         -4   -1    0    0    0  501 -0.00000000000E+00 -0.00000000000E+00 -0.19949130179E+04  0.19949130179E+04  0.00000000000E+00 0. -1.
        -13    1    1    2    0    0  0.33743238144E+03 -0.26508669901E+03 -0.56794881316E+03  0.71182682977E+03  0.10566000000E+00 0.  1.
         13    1    1    2    0    0  0.80645995766E+01 -0.21917872911E+03 -0.92460605200E+03  0.95026349800E+03  0.10566000000E+00 0. -1.
         -4    1    1    2    0  502 -0.34549698102E+03  0.48426542813E+03 -0.20573141403E+03  0.62944942886E+03  0.00000000000E+00 0. -1.
</event>
<event>
 5    1  0.2540860E-005  0.3676515E+03  0.7818608E-02  0.9889777E-01
          4   -1    0    0  502    0 -0.00000000000E+00  0.00000000000E+00  0.17710141739E+04  0.17710141739E+04  0.00000000000E+00 0.  1.
         21   -1    0    0  501  502  0.00000000000E+00 -0.00000000000E+00 -0.27518698213E+03  0.27518698213E+03  0.00000000000E+00 0.  1.
        -13    1    1    2    0    0  0.24239083712E+03 -0.24836453600E+03  0.17511849825E+02  0.34748372151E+03  0.10566000000E+00 0.  1.
         13    1    1    2    0    0 -0.11627936093E+03 -0.27426993191E+03  0.57233537089E+03  0.64522296399E+03  0.10566000000E+00 0. -1.
          4    1    1    2  501    0 -0.12611147620E+03  0.52263446792E+03  0.90597997106E+03  0.10534944705E+04  0.00000000000E+00 0.  1.
</event>
<event>
 5    1  0.2540860E-005  0.1129944E+03  0.7818608E-02  0.1144681E+00
         21   -1    0    0  501  502  0.00000000000E+00  0.00000000000E+00  0.22748040570E+03  0.22748040570E+03  0.00000000000E+00 0. -1.
         -4   -1    0    0    0  501 -0.00000000000E+00 -0.00000000000E+00 -0.44409319715E+03  0.44409319715E+03  0.00000000000E+00 0. -1.
        -13    1    1    2    0    0 -0.11419409840E+02 -0.94480233966E+02 -0.75425876514E+02  0.12143307434E+03  0.10566000000E+00 0.  1.
         13    1    1    2    0    0  0.26320422164E+02  0.11855471679E+03 -0.33393108102E+03  0.35532796616E+03  0.10566000000E+00 0. -1.
         -4    1    1    2    0  502 -0.14901012324E+02 -0.24074482821E+02  0.19274416609E+03  0.19481256236E+03  0.00000000000E+00 0. -1.
</event>
<event>
 5    1  0.2540860E-005  0.4981521E+03  0.7818608E-02  0.9482031E-01
         21   -1    0    0  501  502  0.00000000000E+00  0.00000000000E+00  0.24288713923E+03  0.24288713923E+03  0.00000000000E+00 0.  1.
         -4   -1    0    0    0  501 -0.00000000000E+00 -0.00000000000E+00 -0.27156310602E+04  0.27156310602E+04  0.00000000000E+00 0. -1.
        -13    1    1    2    0    0 -0.48733282518E+02 -0.44968013082E+03 -0.14151491965E+04  0.14856764157E+04  0.10566000000E+00 0.  1.
         13    1    1    2    0    0  0.30021348545E+03  0.58605461163E+03 -0.97235583871E+03  0.11743355708E+04  0.10566000000E+00 0. -1.
         -4    1    1    2    0  502 -0.25148020293E+03 -0.13637448081E+03 -0.85238885832E+02  0.29850621290E+03  0.00000000000E+00 0. -1.
</event>
<event>
 5    1  0.2540860E-005  0.5567293E+03  0.7818608E-02  0.9361608E-01
          4   -1    0    0  502    0 -0.00000000000E+00  0.00000000000E+00  0.21248509878E+04  0.21248509878E+04  0.00000000000E+00 0.  1.
         21   -1    0    0  501  502  0.00000000000E+00 -0.00000000000E+00 -0.30346545889E+03  0.30346545889E+03  0.00000000000E+00 0.  1.
        -13    1    1    2    0    0  0.53466053534E+03  0.39809287165E+03  0.61463585637E+03  0.90670671642E+03  0.10566000000E+00 0.  1.
         13    1    1    2    0    0 -0.16422393395E+03 -0.49699535471E+03  0.53711262623E+03  0.74997591129E+03  0.10566000000E+00 0. -1.
          4    1    1    2  501    0 -0.37043660139E+03  0.98902483066E+02  0.66963704631E+03  0.77163381899E+03  0.00000000000E+00 0.  1.
</event>
<event>
 5    1  0.2540860E-005  0.6503217E+02  0.7818608E-02  0.1240398E+00
         21   -1    0    0  501  502  0.00000000000E+00  0.00000000000E+00  0.20151827380E+03  0.20151827380E+03  0.00000000000E+00 0. -1.
          4   -1    0    0  502    0 -0.00000000000E+00 -0.00000000000E+00 -0.43836444504E+02  0.43836444504E+02  0.00000000000E+00 0.  1.
        -13    1    1    2    0    0  0.70308669378E+02 -0.55575993842E+01  0.22783432507E+02  0.74116744811E+02  0.10566000000E+00 0.  1.
         13    1    1    2    0    0 -0.59539749126E+02 -0.28264030996E+01  0.32416635122E+02  0.67851453021E+02  0.10566000000E+00 0. -1.
          4    1    1    2  501    0 -0.10768920252E+02  0.83840024839E+01  0.10248176166E+03  0.10338652047E+03  0.00000000000E+00 0.  1.
</event>
<event>
 5    1  0.2540860E-005  0.3490177E+02  0.7818608E-02  0.1369384E+00
         -4   -1    0    0    0  501 -0.00000000000E+00  0.00000000000E+00  0.18856848642E+03  0.18856848642E+03  0.00000000000E+00 0. -1.
         21   -1    0    0  501  502  0.00000000000E+00 -0.00000000000E+00 -0.14671232784E+02  0.14671232784E+02  0.00000000000E+00 0.  1.
        -13    1    1    2    0    0  0.16015772665E+02 -0.27229879194E+02  0.49460339159E+02  0.58688223766E+02  0.10566000000E+00 0.  1.
         13    1    1    2    0    0 -0.77580727322E+01  0.36693960095E+02  0.12639273659E+03  0.13183993866E+03  0.10566000000E+00 0. -1.
         -4    1    1    2    0  502 -0.82576999325E+01 -0.94640809014E+01 -0.19558221150E+01  0.12711556774E+02  0.00000000000E+00 0. -1.
</event>
<event>
 5    1  0.2540860E-005  0.4421438E+03  0.7818608E-02  0.1032579E+00
          4   -1    0    0  502    0 -0.00000000000E+00  0.00000000000E+00  0.61719406946E+03  0.61719406946E+03  0.00000000000E+00 0.  1.
         21   -1    0    0  501  502  0.00000000000E+00 -0.00000000000E+00 -0.43521027726E+03  0.43521027726E+03  0.00000000000E+00 0.  1.
        -13    1    1    2    0    0 -0.17235976461E+03 -0.38522820327E+03  0.33127749248E+03  0.53651975289E+03  0.10566000000E+00 0.  1.
         13    1    1    2    0    0 -0.40760965359E+02 -0.11114843562E+02 -0.16774355512E+01  0.42282632351E+02  0.10566000000E+00 0. -1.
          4    1    1    2  501    0  0.21312072997E+03  0.39634304683E+03 -0.14761626474E+03  0.47360196149E+03  0.00000000000E+00 0.  1.
</event>
<event>
 5    1  0.2540860E-005  0.1977652E+03  0.7818608E-02  0.1106613E+00
         21   -1    0    0  501  502  0.00000000000E+00  0.00000000000E+00  0.48076114656E+03  0.48076114656E+03  0.00000000000E+00 0. -1.
         -4   -1    0    0    0  501 -0.00000000000E+00 -0.00000000000E+00 -0.64818061879E+03  0.64818061879E+03  0.00000000000E+00 0. -1.
        -13    1    1    2    0    0  0.55254244701E+02 -0.11541708321E+02 -0.11599247194E+03  0.12899809029E+03  0.10566000000E+00 0.  1.
         13    1    1    2    0    0  0.19358410641E+03  0.27921530003E+02  0.42184995792E+03  0.46498582371E+03  0.10566000000E+00 0. -1.
         -4    1    1    2    0  502 -0.24883835111E+03 -0.16379821682E+02 -0.47327695821E+03  0.53495785134E+03  0.00000000000E+00 0. -1.
</event>
<event>
 5    1  0.2540860E-005  0.4944411E+03  0.7818608E-02  0.9625969E-01
         21   -1    0    0  501  502  0.00000000000E+00  0.00000000000E+00  0.15567061796E+03  0.15567061796E+03  0.00000000000E+00 0. -1.
         -4   -1    0    0    0  501 -0.00000000000E+00 -0.00000000000E+00 -0.29394780242E+04  0.29394780242E+04  0.00000000000E+00 0. -1.
        -13    1    1    2    0    0  0.29906915615E+03  0.53249288295E+02 -0.74149104412E+03  0.80130320512E+03  0.10566000000E+00 0.  1.
         13    1    1    2    0    0 -0.26706558977E+02  0.44248845999E+03 -0.11997575622E+04  0.12790338138E+04  0.10566000000E+00 0. -1.
         -4    1    1    2    0  502 -0.27236259717E+03 -0.49573774828E+03 -0.84255879991E+03  0.10148116233E+04  0.00000000000E+00 0. -1.
</event>
<event>
 5    1  0.2540860E-005  0.1135858E+03  0.7818608E-02  0.1143847E+00
         21   -1    0    0  501  502  0.00000000000E+00  0.00000000000E+00  0.22706691962E+02  0.22706691962E+02  0.00000000000E+00 0. -1.
         -4   -1    0    0    0  501 -0.00000000000E+00 -0.00000000000E+00 -0.94999024231E+03  0.94999024231E+03  0.00000000000E+00 0. -1.
        -13    1    1    2    0    0  0.69101868169E+02 -0.60239004202E+02 -0.27269009724E+03  0.28768681949E+03  0.10566000000E+00 0.  1.
         13    1    1    2    0    0 -0.88261386379E+02  0.10718876255E+03 -0.56741124931E+03  0.58415326769E+03  0.10566000000E+00 0. -1.
         -4    1    1    2    0  502  0.19159518210E+02 -0.46949758346E+02 -0.87182203797E+02  0.10085684709E+03  0.00000000000E+00 0. -1.
</event>
<event>
 5    1  0.2540860E-005  0.3996887E+03  0.7818608E-02  0.9770751E-01
         -4   -1    0    0    0  501 -0.00000000000E+00  0.00000000000E+00  0.15101740843E+04  0.15101740843E+04  0.00000000000E+00 0. -1.
         21   -1    0    0  501  502  0.00000000000E+00 -0.00000000000E+00 -0.38464042179E+03  0.38464042179E+03  0.00000000000E+00 0. -1.
        -13    1    1    2    0    0 -0.27130942418E+03  0.21670254416E+03  0.69822409382E+03  0.77979849490E+03  0.10566000000E+00 0.  1.
         13    1    1    2    0    0  0.10568481459E+02  0.34972584963E+03 -0.15492020285E+02  0.35022832061E+03  0.10566000000E+00 0. -1.
         -4    1    1    2    0  502  0.26074094272E+03 -0.56642839379E+03  0.44280158901E+03  0.76478769062E+03  0.00000000000E+00 0. -1.
</event>
<event>
 5    1  0.2540860E-005  0.2354896E+03  0.7818608E-02  0.1038199E+00
          4   -1    0    0  502    0 -0.00000000000E+00  0.00000000000E+00  0.10086075406E+03  0.10086075406E+03  0.00000000000E+00 0.  1.
         21   -1    0    0  501  502  0.00000000000E+00 -0.00000000000E+00 -0.14757538121E+04  0.14757538121E+04  0.00000000000E+00 0.  1.
        -13    1    1    2    0    0 -0.19513970289E+03 -0.11399153968E+03 -0.33534459033E+03  0.40438790806E+03  0.10566000000E+00 0.  1.
         13    1    1    2    0    0  0.19527485411E+03  0.14225461656E+03 -0.15460040075E+03  0.28682736908E+03  0.10566000000E+00 0. -1.
          4    1    1    2  501    0 -0.13515121828E+00 -0.28263076882E+02 -0.88494806700E+03  0.88539928906E+03  0.00000000000E+00 0.  1.
</event>
<event>
 5    1  0.2540860E-005  0.4965086E+03  0.7818608E-02  0.9807699E-01
          4   -1    0    0  502    0 -0.00000000000E+00  0.00000000000E+00  0.79403354862E+03  0.79403354862E+03  0.00000000000E+00 0.  1.
         21   -1    0    0  501  502  0.00000000000E+00 -0.00000000000E+00 -0.50309032517E+03  0.50309032517E+03  0.00000000000E+00 0.  1.
        -13    1    1    2    0    0  0.52077668261E+03  0.18083124645E+03  0.69095168030E+02  0.55559197821E+03  0.10566000000E+00 0.  1.
         13    1    1    2    0    0 -0.58017543470E+02 -0.14870881526E+03  0.22715071575E+03  0.27762889964E+03  0.10566000000E+00 0. -1.
          4    1    1    2  501    0 -0.46275913914E+03 -0.32122431188E+02 -0.53026603330E+01  0.46390299594E+03  0.00000000000E+00 0.  1.
</event>
<event>
 5    1  0.2540860E-005  0.4194225E+03  0.7818608E-02  0.9674570E-01
         21   -1    0    0  501  502  0.00000000000E+00  0.00000000000E+00  0.40944835604E+03  0.40944835604E+03  0.00000000000E+00 0.  1.
         -4   -1    0    0    0  501 -0.00000000000E+00 -0.00000000000E+00 -0.96287083721E+03  0.96287083721E+03  0.00000000000E+00 0. -1.
        -13    1    1    2    0    0  0.38946186341E+03 -0.41364572509E+03 -0.22564564571E+03  0.61130949406E+03  0.10566000000E+00 0.  1.
         13    1    1    2    0    0 -0.26081896805E+03  0.25563473345E+03 -0.40295471507E+03  0.54382732977E+03  0.10566000000E+00 0. -1.
         -4    1    1    2    0  502 -0.12864289536E+03  0.15801099164E+03  0.75177879610E+02  0.21718236942E+03  0.00000000000E+00 0. -1.
</event>
<event>
 5    1  0.2540860E-005  0.1098524E+03  0.7818608E-02  0.1185583E+00
         21   -1    0    0  501  502  0.00000000000E+00  0.00000000000E+00  0.71089698481E+02  0.71089698481E+02  0.00000000000E+00 0.  1.
          4   -1    0    0  502    0 -0.00000000000E+00 -0.00000000000E+00 -0.28653084175E+03  0.28653084175E+03  0.00000000000E+00 0.  1.
        -13    1    1    2    0    0  0.88552561267E+02  0.89254835209E+02 -0.61244453591E+02  0.13985305136E+03  0.10566000000E+00 0.  1.
         13    1    1    2    0    0 -0.48273061099E+00 -0.45781645998E+02 -0.88390951579E+02  0.99544782004E+02  0.10566000000E+00 0. -1.
          4    1    1    2  501    0 -0.88069830656E+02 -0.43473189211E+02 -0.65805738097E+02  0.11822270686E+03  0.00000000000E+00 0.  1.
</event>
<event>
 5    1  0.2540860E-005  0.5477121E+03  0.7818608E-02  0.9563594E-01
          4   -1    0    0  502    0 -0.00000000000E+00  0.00000000000E+00  0.14903276299E+04  0.14903276299E+04  0.00000000000E+00 0.  1.
         21   -1    0    0  501  502  0.00000000000E+00 -0.00000000000E+00 -0.44873866284E+03  0.44873866284E+03  0.00000000000E+00 0.  1.
        -13    1    1    2    0    0  0.45673669196E+03 -0.36789991122E+03  0.68783094487E+02  0.59049968307E+03  0.10566000000E+00 0.  1.
         13    1    1    2    0    0 -0.24969015384E+03 -0.12463032221E+03  0.68947424331E+03  0.74380954113E+03  0.10566000000E+00 0. -1.
          4    1    1    2  501    0 -0.20704653812E+03  0.49253023343E+03  0.28333162925E+03  0.60475706852E+03  0.00000000000E+00 0.  1.
</event>
<event>
 5    1  0.2540860E-005  0.5068466E+03  0.7818608E-02  0.9835277E-01
         21   -1    0    0  501  502  0.00000000000E+00  0.00000000000E+00  0.34574917830E+03  0.34574917830E+03  0.00000000000E+00 0. -1.
         -4   -1    0    0    0  501 -0.00000000000E+00 -0.00000000000E+00 -0.13060299877E+04  0.13060299877E+04  0.00000000000E+00 0. -1.
        -13    1    1    2    0    0  0.11558623656E+01  0.13662381235E+03 -0.52091934424E+03  0.53853911324E+03  0.10566000000E+00 0.  1.
         13    1    1    2    0    0  0.16956633238E+03  0.40879355077E+03 -0.26446970297E+03  0.51556681738E+03  0.10566000000E+00 0. -1.
         -4    1    1    2    0  502 -0.17072219474E+03 -0.54541736312E+03 -0.17489176214E+03  0.59767323534E+03  0.00000000000E+00 0. -1.
</event>
<event>
 5    1  0.2540860E-005  0.3092168E+03  0.7818608E-02  0.1003572E+00
         21   -1    0    0  501  502  0.00000000000E+00  0.00000000000E+00  0.47227190260E+03  0.47227190260E+03  0.00000000000E+00 0. -1.
         -4   -1    0    0    0  501 -0.00000000000E+00 -0.00000000000E+00 -0.89855207134E+03  0.89855207134E+03  0.00000000000E+00 0. -1.
        -13    1    1    2    0    0 -0.26919723689E+03  0.15740353714E+03 -0.37695717743E+03  0.48922362028E+03  0.10566000000E+00 0.  1.
         13    1    1    2    0    0  0.28808991834E+03 -0.11102813826E+03 -0.41235508270E+03  0.51513083185E+03  0.10566000000E+00 0. -1.
         -4    1    1    2    0  502 -0.18892681450E+02 -0.46375398885E+02  0.36303209139E+03  0.36646952181E+03  0.00000000000E+00 0. -1.
</event>
<event>
 5    1  0.4621280E-005  0.2278471E+03  0.7818608E-02  0.1080932E+00
          4   -1    0    0  502    0 -0.00000000000E+00  0.00000000000E+00  0.32849009666E+03  0.32849009666E+03  0.00000000000E+00 0.  1.
         21   -1    0    0  501  502  0.00000000000E+00 -0.00000000000E+00 -0.12476865756E+04  0.12476865756E+04  0.00000000000E+00 0.  1.
        -13    1    1    2    0    0  0.20562215303E+02 -0.29483438239E+03  0.81624451836E+02  0.30661487250E+03  0.10566000000E+00 0.  1.
         13    1    1    2    0    0  0.13373108868E+02  0.73411965689E+02  0.11191018690E+03  0.13450672044E+03  0.10566000000E+00 0. -1.
          4    1    1    2  501    0 -0.33935324170E+02  0.22142241670E+03 -0.11127311177E+04  0.11350550793E+04  0.00000000000E+00 0.  1.
</event>
<event>
 5    1  0.2540860E-005  0.2229351E+03  0.7818608E-02  0.1045457E+00
          4   -1    0    0  502    0 -0.00000000000E+00  0.00000000000E+00  0.10190429077E+04  0.10190429077E+04  0.00000000000E+00 0.  1.
         21   -1    0    0  501  502  0.00000000000E+00 -0.00000000000E+00 -0.41433860487E+03  0.41433860487E+03  0.00000000000E+00 0.  1.
        -13    1    1    2    0    0  0.73652741084E+02  0.21628596957E+03  0.92238373632E+03  0.95026107734E+03  0.10566000000E+00 0.  1.
         13    1    1    2    0    0  0.50234084209E+02 -0.18976508570E+03 -0.76484581171E+02  0.21067546911E+03  0.10566000000E+00 0. -1.
          4    1    1    2  501    0 -0.12388682529E+03 -0.26520883876E+02 -0.24119485233E+03  0.27244496610E+03  0.00000000000E+00 0.  1.
</event>
<event>
 5    1  0.2540860E-005  0.3293474E+03  0.7818608E-02  0.1004381E+00
         -4   -1    0    0    0  501 -0.00000000000E+00  0.00000000000E+00  0.26132119436E+04  0.26132119436E+04  0.00000000000E+00 0. -1.
         21   -1    0    0  501  502  0.00000000000E+00 -0.00000000000E+00 -0.22269537659E+03  0.22269537659E+03  0.00000000000E+00 0.  1.
        -13    1    1    2    0    0  0.19226217471E+03  0.15864823242E+03  0.32450602411E+02  0.25137036069E+03  0.10566000000E+00 0.  1.
         13    1    1    2    0    0 -0.28627189274E+03  0.17855497128E+03  0.18763608129E+03  0.38605800666E+03  0.10566000000E+00 0. -1.
         -4    1    1    2    0  502  0.94009718028E+02 -0.33720320370E+03  0.21704298833E+04  0.21984789528E+04  0.00000000000E+00 0. -1.
</event>
<event>
 5    1  0.2540860E-005  0.3488477E+03  0.7818608E-02  0.1000458E+00
         21   -1    0    0  501  502  0.00000000000E+00  0.00000000000E+00  0.81403946970E+03  0.81403946970E+03  0.00000000000E+00 0.  1.
          4   -1    0    0  502    0 -0.00000000000E+00 -0.00000000000E+00 -0.71966708663E+03  0.71966708663E+03  0.00000000000E+00 0.  1.
        -13    1    1    2    0    0 -0.34204376246E+03 -0.33566600859E+03 -0.73137656080E+02  0.48478318109E+03  0.10566000000E+00 0.  1.
         13    1    1    2    0    0  0.23764454562E+03  0.18798565858E+02 -0.35582080264E+03  0.42829519130E+03  0.10566000000E+00 0. -1.
          4    1    1    2  501    0  0.10439921685E+03  0.31686744273E+03  0.52333084179E+03  0.62062818395E+03  0.00000000000E+00 0.  1.
</event>
<event>
 5    1  0.2540860E-005  0.6752738E+02  0.7818608E-02  0.1233369E+00
         21   -1    0    0  501  502  0.00000000000E+00  0.00000000000E+00  0.40504141244E+03  0.40504141244E+03  0.00000000000E+00 0.  1.
          4   -1    0    0  502    0 -0.00000000000E+00 -0.00000000000E+00 -0.96085940321E+02  0.96085940321E+02  0.00000000000E+00 0.  1.
        -13    1    1    2    0    0 -0.64509518371E+02  0.12194374234E+02 -0.65641112292E+02  0.92838286877E+02  0.10566000000E+00 0.  1.
         13    1    1    2    0    0  0.82739203384E+02 -0.22580367805E+01  0.87510411056E+02  0.12045313493E+03  0.10566000000E+00 0. -1.
          4    1    1    2  501    0 -0.18229685013E+02 -0.99363374532E+01  0.28708617336E+03  0.28783593096E+03  0.00000000000E+00 0.  1.
</event>
<event>
 5    1  0.2540860E-005  0.4535072E+02  0.7818608E-02  0.1311970E+00
          4   -1    0    0  502    0 -0.00000000000E+00  0.00000000000E+00  0.19227587312E+03  0.19227587312E+03  0.00000000000E+00 0.  1.
         21   -1    0    0  501  502  0.00000000000E+00 -0.00000000000E+00 -0.53479011138E+02  0.53479011138E+02  0.00000000000E+00 0.  1.
        -13    1    1    2    0    0 -0.51515083298E+02 -0.15195340048E+02  0.14295874035E+03  0.15271514258E+03  0.10566000000E+00 0.  1.
         13    1    1    2    0    0  0.34378914270E+02 -0.50582881035E+01  0.32638167048E+02  0.47673442683E+02  0.10566000000E+00 0. -1.
          4    1    1    2  501    0  0.17136169028E+02  0.20253628151E+02 -0.36800045414E+02  0.45366298998E+02  0.00000000000E+00 0.  1.
</event>
<event>
 5    1  0.2540860E-005  0.2468752E+03  0.7818608E-02  0.1032025E+00
         -4   -1    0    0    0  501 -0.00000000000E+00  0.00000000000E+00  0.27232605242E+03  0.27232605242E+03  0.00000000000E+00 0. -1.
         21   -1    0    0  501  502  0.00000000000E+00 -0.00000000000E+00 -0.11574648575E+04  0.11574648575E+04  0.00000000000E+00 0. -1.
        -13    1    1    2    0    0  0.25711182217E+03 -0.10911838727E+02 -0.75349403266E+02  0.26814753599E+03  0.10566000000E+00 0.  1.
         13    1    1    2    0    0 -0.24151707640E+03  0.11909672701E+02  0.92735606775E+02  0.25898309293E+03  0.10566000000E+00 0. -1.
         -4    1    1    2    0  502 -0.15594745766E+02 -0.99783397337E+00 -0.90252500854E+03  0.90266028095E+03  0.00000000000E+00 0. -1.
</event>
<event>
 5    1  0.2540860E-005  0.2032650E+03  0.7818608E-02  0.1057920E+00
         -4   -1    0    0    0  501 -0.00000000000E+00  0.00000000000E+00  0.53297511721E+02  0.53297511721E+02  0.00000000000E+00 0. -1.
         21   -1    0    0  501  502  0.00000000000E+00 -0.00000000000E+00 -0.15219400869E+04  0.15219400869E+04  0.00000000000E+00 0.  1.
        -13    1    1    2    0    0 -0.60641557750E+02  0.21716437011E+03 -0.98898099842E+03  0.10143575250E+04  0.10566000000E+00 0.  1.
         13    1    1    2    0    0  0.42784049878E+02 -0.19319476132E+03 -0.20618292950E+03  0.28577281590E+03  0.10566000000E+00 0. -1.
         -4    1    1    2    0  502  0.17857507873E+02 -0.23969608791E+02 -0.27347864729E+03  0.27510725773E+03  0.00000000000E+00 0. -1.
</event>
<event>
 5    1  0.2540860E-005  0.5003585E+03  0.7818608E-02  0.9914426E-01
         -4   -1    0    0    0  501 -0.00000000000E+00  0.00000000000E+00  0.14717447799E+04  0.14717447799E+04  0.00000000000E+00 0. -1.
         21   -1    0    0  501  502  0.00000000000E+00 -0.00000000000E+00 -0.22426287769E+03  0.22426287769E+03  0.00000000000E+00 0. -1.
        -13    1    1    2    0    0 -0.14712456196E+02 -0.10782873071E+03  0.16830926637E+03  0.20042832096E+03  0.10566000000E+00 0.  1.
         13    1    1    2    0    0  0.14069780747E+03 -0.44057045088E+03  0.38333532850E+03  0.60070307179E+03  0.10566000000E+00 0. -1.
         -4    1    1    2    0  502 -0.12598535128E+03  0.54839918159E+03  0.69583730733E+03  0.89487626484E+03  0.00000000000E+00 0. -1.
</event>
<event>
 5    1  0.2540860E-005  0.4092165E+03  0.7818608E-02  0.9702799E-01
          4   -1    0    0  502    0 -0.00000000000E+00  0.00000000000E+00  0.21009994181E+04  0.21009994181E+04  0.00000000000E+00 0.  1.
         21   -1    0    0  501  502  0.00000000000E+00 -0.00000000000E+00 -0.22070839881E+03  0.22070839881E+03  0.00000000000E+00 0.  1.
        -13    1    1    2    0    0 -0.21887450902E+03 -0.41276183549E+03  0.16405725430E+04  0.17058008862E+04  0.10566000000E+00 0.  1.
         13    1    1    2    0    0  0.25997487945E+02  0.30080046742E+03  0.25096335999E+03  0.39260592176E+03  0.10566000000E+00 0. -1.
          4    1    1    2  501    0  0.19287702108E+03  0.11196136807E+03 -0.11244883624E+02  0.22330100897E+03  0.00000000000E+00 0.  1.
</event>
<event>
 5    1  0.2540860E-005  0.5091248E+03  0.7818608E-02  0.9891990E-01
         -4   -1    0    0    0  501 -0.00000000000E+00  0.00000000000E+00  0.99025139422E+03  0.99025139422E+03  0.00000000000E+00 0. -1.
         21   -1    0    0  501  502  0.00000000000E+00 -0.00000000000E+00 -0.32752202013E+03  0.32752202013E+03  0.00000000000E+00 0. -1.
        -13    1    1    2    0    0  0.11065983714E+03 -0.12370619892E+02  0.37812383719E+02  0.11759429968E+03  0.10566000000E+00 0.  1.
         13    1    1    2    0    0 -0.29030655107E+03  0.45694452306E+03  0.27980460094E+03  0.60939873369E+03  0.10566000000E+00 0. -1.
         -4    1    1    2    0  502  0.17964671394E+03 -0.44457390317E+03  0.34511238943E+03  0.59078038098E+03  0.00000000000E+00 0. -1.
</event>
<event>
 5    1  0.2540860E-005  0.4981299E+03  0.7818608E-02  0.9654130E-01
         -4   -1    0    0    0  501 -0.00000000000E+00  0.00000000000E+00  0.11463620031E+04  0.11463620031E+04  0.00000000000E+00 0. -1.
         21   -1    0    0  501  502  0.00000000000E+00 -0.00000000000E+00 -0.44763390481E+03  0.44763390481E+03  0.00000000000E+00 0. -1.
        -13    1    1    2    0    0  0.93885808431E+02  0.25206787061E+03  0.45637664020E+03  0.52974749202E+03  0.10566000000E+00 0.  1.
         13    1    1    2    0    0 -0.28009972925E+03 -0.58050760871E+03  0.67200204090E+02  0.64804384164E+03  0.10566000000E+00 0. -1.
         -4    1    1    2    0  502  0.18621392082E+03  0.32843973809E+03  0.17515125404E+03  0.41620457429E+03  0.00000000000E+00 0. -1.
</event>
<event>
 5    1  0.2540860E-005  0.2255992E+03  0.7818608E-02  0.1043875E+00
         21   -1    0    0  501  502  0.00000000000E+00  0.00000000000E+00  0.27169276733E+03  0.27169276733E+03  0.00000000000E+00 0. -1.
          4   -1    0    0  502    0 -0.00000000000E+00 -0.00000000000E+00 -0.31165939590E+03  0.31165939590E+03  0.00000000000E+00 0.  1.
        -13    1    1    2    0    0  0.73251209140E+02  0.21126461399E+03 -0.18494194488E+03  0.29017582757E+03  0.10566000000E+00 0.  1.
         13    1    1    2    0    0 -0.94040907003E+02 -0.21399290597E+03  0.13062231732E+03  0.26776642235E+03  0.10566000000E+00 0. -1.
          4    1    1    2  501    0  0.20789697863E+02  0.27282919756E+01  0.14352998990E+02  0.25409913309E+02  0.00000000000E+00 0.  1.
</event>
<event>
 5    1  0.2540860E-005  0.8355712E+02  0.7818608E-02  0.1210805E+00
         21   -1    0    0  501  502  0.00000000000E+00  0.00000000000E+00  0.54360743286E+02  0.54360743286E+02  0.00000000000E+00 0.  1.
          4   -1    0    0  502    0 -0.00000000000E+00 -0.00000000000E+00 -0.27761092315E+03  0.27761092315E+03  0.00000000000E+00 0.  1.
        -13    1    1    2    0    0 -0.94705061564E+02  0.79329628401E+01 -0.12574977173E+03  0.15762295785E+03  0.10566000000E+00 0.  1.
         13    1    1    2    0    0  0.23774001556E+02 -0.53438281514E+02 -0.53567219141E+02  0.79311482219E+02  0.10566000000E+00 0. -1.
          4    1    1    2  501    0  0.70931060009E+02  0.45505318674E+02 -0.43933188989E+02  0.95037226371E+02  0.00000000000E+00 0.  1.
</event>
<event>
 5    1  0.2540860E-005  0.3590473E+02  0.7818608E-02  0.1362931E+00
         21   -1    0    0  501  502  0.00000000000E+00  0.00000000000E+00  0.12382950153E+02  0.12382950153E+02  0.00000000000E+00 0. -1.
          4   -1    0    0  502    0 -0.00000000000E+00 -0.00000000000E+00 -0.17174856763E+03  0.17174856763E+03  0.00000000000E+00 0.  1.
        -13    1    1    2    0    0 -0.31200951734E+01  0.39366916501E+02 -0.11780553912E+03  0.12424832119E+03  0.10566000000E+00 0.  1.
         13    1    1    2    0    0  0.99296712988E+01 -0.28210632549E+02 -0.31054569107E+02  0.43114215607E+02  0.10566000000E+00 0. -1.
          4    1    1    2  501    0 -0.68095761254E+01 -0.11156283951E+02 -0.10505509259E+02  0.16768980989E+02  0.00000000000E+00 0.  1.
</event>
<event>
 5    1  0.2540860E-005  0.1300870E+03  0.7818608E-02  0.1122598E+00
          4   -1    0    0  502    0 -0.00000000000E+00  0.00000000000E+00  0.36883192693E+03  0.36883192693E+03  0.00000000000E+00 0.  1.
         21   -1    0    0  501  502  0.00000000000E+00 -0.00000000000E+00 -0.99637009668E+02  0.99637009668E+02  0.00000000000E+00 0. -1.
        -13    1    1    2    0    0 -0.11376818867E+03 -0.73197322238E+02  0.26146187303E+03  0.29438643133E+03  0.10566000000E+00 0.  1.
         13    1    1    2    0    0  0.92209675072E+02  0.51041193371E+02 -0.43683554443E+02  0.11408808742E+03  0.10566000000E+00 0. -1.
          4    1    1    2  501    0  0.21558513595E+02  0.22156128867E+02  0.51416598676E+02  0.59994417859E+02  0.00000000000E+00 0.  1.
</event>
<event>
 5    1  0.2540860E-005  0.3186887E+02  0.7818608E-02  0.1390502E+00
          4   -1    0    0  502    0 -0.00000000000E+00  0.00000000000E+00  0.33959453122E+02  0.33959453122E+02  0.00000000000E+00 0.  1.
         21   -1    0    0  501  502  0.00000000000E+00 -0.00000000000E+00 -0.50897204398E+02  0.50897204398E+02  0.00000000000E+00 0. -1.
        -13    1    1    2    0    0 -0.25971063412E+02  0.27725447375E+02 -0.84772019245E+00  0.37999031046E+02  0.10566000000E+00 0.  1.
         13    1    1    2    0    0  0.16574446211E+02 -0.22027924739E+02 -0.23691046596E+00  0.27568261209E+02  0.10566000000E+00 0. -1.
          4    1    1    2  501    0  0.93966172007E+01 -0.56975226359E+01 -0.15853120618E+02  0.19289365265E+02  0.00000000000E+00 0.  1.
</event>
<event>
 5    1  0.2540860E-005  0.1158980E+03  0.7818608E-02  0.1140639E+00
         -4   -1    0    0    0  501 -0.00000000000E+00  0.00000000000E+00  0.13661483175E+03  0.13661483175E+03  0.00000000000E+00 0. -1.
         21   -1    0    0  501  502  0.00000000000E+00 -0.00000000000E+00 -0.23882217885E+03  0.23882217885E+03  0.00000000000E+00 0.  1.
        -13    1    1    2    0    0  0.94521537806E+02  0.51311731726E+02 -0.61011209750E+02  0.12365109705E+03  0.10566000000E+00 0.  1.
         13    1    1    2    0    0 -0.11872509374E+03 -0.21612300561E+02  0.66283588511E+02  0.13768175148E+03  0.10566000000E+00 0. -1.
         -4    1    1    2    0  502  0.24203555938E+02 -0.29699431165E+02 -0.10747972586E+03  0.11410416208E+03  0.00000000000E+00 0. -1.
</event>
<event>
 5    1  0.2540860E-005  0.4875951E+03  0.7818608E-02  0.9505583E-01
         21   -1    0    0  501  502  0.00000000000E+00  0.00000000000E+00  0.20828168335E+03  0.20828168335E+03  0.00000000000E+00 0.  1.
          4   -1    0    0  502    0 -0.00000000000E+00 -0.00000000000E+00 -0.28428091282E+04  0.28428091282E+04  0.00000000000E+00 0.  1.
        -13    1    1    2    0    0  0.39343522448E+03  0.54193555044E+03 -0.12183555757E+04  0.13902790139E+04  0.10566000000E+00 0.  1.
         13    1    1    2    0    0 -0.82473535807E+02 -0.41652589831E+03 -0.11705212882E+04  0.12451569401E+04  0.10566000000E+00 0. -1.
          4    1    1    2  501    0 -0.31096168868E+03 -0.12540965213E+03 -0.24565058101E+03  0.41565485757E+03  0.00000000000E+00 0.  1.
</event>
<event>
 5    1  0.2540860E-005  0.4722360E+03  0.7818608E-02  0.9540993E-01
          4   -1    0    0  502    0 -0.00000000000E+00  0.00000000000E+00  0.14475125116E+04  0.14475125116E+04  0.00000000000E+00 0.  1.
         21   -1    0    0  501  502  0.00000000000E+00 -0.00000000000E+00 -0.41105538137E+03  0.41105538137E+03  0.00000000000E+00 0.  1.
        -13    1    1    2    0    0  0.12524426724E+03 -0.58145337654E+03  0.62197677212E+03  0.86059820578E+03  0.10566000000E+00 0.  1.
         13    1    1    2    0    0  0.21859966845E+03  0.37734357803E+03  0.40929054897E+03  0.59807420574E+03  0.10566000000E+00 0. -1.
          4    1    1    2  501    0 -0.34384393569E+03  0.20410979851E+03  0.51898091154E+01  0.39989548144E+03  0.00000000000E+00 0.  1.
</event>
<event>
 5    1  0.2540860E-005  0.4535371E+03  0.7818608E-02  0.9936339E-01
         21   -1    0    0  501  502  0.00000000000E+00  0.00000000000E+00  0.65490299548E+03  0.65490299548E+03  0.00000000000E+00 0.  1.
          4   -1    0    0  502    0 -0.00000000000E+00 -0.00000000000E+00 -0.49394333225E+03  0.49394333225E+03  0.00000000000E+00 0.  1.
        -13    1    1    2    0    0  0.28410001971E+03 -0.46326930985E+03  0.98430322095E+01  0.54353304508E+03  0.10566000000E+00 0.  1.
         13    1    1    2    0    0 -0.47234115797E+02  0.12737834171E+03 -0.53720271690E+02  0.14608963819E+03  0.10566000000E+00 0. -1.
          4    1    1    2  501    0 -0.23686590391E+03  0.33589096815E+03  0.20483690271E+03  0.45922364446E+03  0.00000000000E+00 0.  1.
</event>
<event>
 5    1  0.2540860E-005  0.4509633E+03  0.7818608E-02  0.9592457E-01
         21   -1    0    0  501  502  0.00000000000E+00  0.00000000000E+00  0.16464808227E+03  0.16464808227E+03  0.00000000000E+00 0.  1.
          4   -1    0    0  502    0 -0.00000000000E+00 -0.00000000000E+00 -0.35618009417E+04  0.35618009417E+04  0.00000000000E+00 0.  1.
        -13    1    1    2    0    0  0.41576678786E+03 -0.29367163906E+03 -0.57942795875E+03  0.77125989395E+03  0.10566000000E+00 0.  1.
         13    1    1    2    0    0 -0.39994253586E+03  0.12838281684E+03 -0.60657755784E+03  0.73781605058E+03  0.10566000000E+00 0. -1.
          4    1    1    2  501    0 -0.15824252005E+02  0.16528882222E+03 -0.22111473428E+04  0.22173730794E+04  0.00000000000E+00 0.  1.
</event>
<event>
 5    1  0.2540860E-005  0.4975862E+03  0.7818608E-02  0.9634293E-01
         -4   -1    0    0    0  501 -0.00000000000E+00  0.00000000000E+00  0.10547147664E+04  0.10547147664E+04  0.00000000000E+00 0. -1.
         21   -1    0    0  501  502  0.00000000000E+00 -0.00000000000E+00 -0.48367426909E+03  0.48367426909E+03  0.00000000000E+00 0. -1.
        -13    1    1    2    0    0 -0.25915754548E+03 -0.12881655654E+03  0.38969665177E+03  0.48540687076E+03  0.10566000000E+00 0.  1.
         13    1    1    2    0    0  0.16170882805E+03 -0.43447023599E+03  0.11380053132E+03  0.47735176036E+03  0.10566000000E+00 0. -1.
         -4    1    1    2    0  502  0.97448717435E+02  0.56328679253E+03  0.67543314252E+02  0.57563040440E+03  0.00000000000E+00 0. -1.
</event>
<event>
 5    1  0.2540860E-005  0.2876797E+03  0.7818608E-02  0.1012524E+00
         21   -1    0    0  501  502  0.00000000000E+00  0.00000000000E+00  0.30753166997E+03  0.30753166997E+03  0.00000000000E+00 0. -1.
         -4   -1    0    0    0  501 -0.00000000000E+00 -0.00000000000E+00 -0.21023229435E+04  0.21023229435E+04  0.00000000000E+00 0. -1.
        -13    1    1    2    0    0  0.28869343350E+03  0.32545388660E+01 -0.11382307800E+04  0.11742758663E+04  0.10566000000E+00 0.  1.
         13    1    1    2    0    0 -0.24549716444E+03  0.27378679930E+03 -0.82865737480E+03  0.90658762687E+03  0.10566000000E+00 0. -1.
         -4    1    1    2    0  502 -0.43196269059E+02 -0.27704133816E+03  0.17209688122E+03  0.32899112031E+03  0.00000000000E+00 0. -1.
</event>
<event>
 5    1  0.2540860E-005  0.2250936E+03  0.7818608E-02  0.1044173E+00
         21   -1    0    0  501  502  0.00000000000E+00  0.00000000000E+00  0.22611468266E+03  0.22611468266E+03  0.00000000000E+00 0. -1.
         -4   -1    0    0    0  501 -0.00000000000E+00 -0.00000000000E+00 -0.40465162228E+03  0.40465162228E+03  0.00000000000E+00 0. -1.
        -13    1    1    2    0    0  0.10787165591E+03  0.17591649669E+03 -0.14676252126E+03  0.25322353123E+03  0.10566000000E+00 0.  1.
         13    1    1    2    0    0 -0.12879692063E+03 -0.21849130993E+03 -0.11753320502E+03  0.27953741203E+03  0.10566000000E+00 0. -1.
         -4    1    1    2    0  502  0.20925264715E+02  0.42574813239E+02  0.85758786663E+02  0.98005361667E+02  0.00000000000E+00 0. -1.
</event>
<event>
 5    1  0.2540860E-005  0.2495579E+03  0.7818608E-02  0.1039937E+00
         21   -1    0    0  501  502  0.00000000000E+00  0.00000000000E+00  0.72210193990E+03  0.72210193990E+03  0.00000000000E+00 0. -1.
         -4   -1    0    0    0  501 -0.00000000000E+00 -0.00000000000E+00 -0.51029257477E+03  0.51029257477E+03  0.00000000000E+00 0. -1.
        -13    1    1    2    0    0  0.11999718677E+03 -0.14433827246E+03  0.60500231978E+02  0.19721346547E+03  0.10566000000E+00 0.  1.
         13    1    1    2    0    0 -0.22530836503E+03 -0.11301984580E+03  0.51735422692E+03  0.57549348578E+03  0.10566000000E+00 0. -1.
         -4    1    1    2    0  502  0.10531117825E+03  0.25735811825E+03 -0.36604509377E+03  0.45968756342E+03  0.00000000000E+00 0. -1.
</event>
<event>
 5    1  0.2540860E-005  0.3873739E+03  0.7818608E-02  0.9907810E-01
         21   -1    0    0  501  502  0.00000000000E+00  0.00000000000E+00  0.16037673271E+04  0.16037673271E+04  0.00000000000E+00 0. -1.
         -4   -1    0    0    0  501 -0.00000000000E+00 -0.00000000000E+00 -0.31083936105E+03  0.31083936105E+03  0.00000000000E+00 0. -1.
        -13    1    1    2    0    0  0.10928307922E+03 -0.21340995061E+03 -0.36979300545E+02  0.24259859492E+03  0.10566000000E+00 0.  1.
         13    1    1    2    0    0  0.30074175469E+03 -0.17499937342E+03  0.89162785880E+03  0.95711578896E+03  0.10566000000E+00 0. -1.
         -4    1    1    2    0  502 -0.41002483392E+03  0.38840932403E+03  0.43827940780E+03  0.71489230429E+03  0.00000000000E+00 0. -1.
</event>
<event>
 5    1  0.2540860E-005  0.2349432E+03  0.7818608E-02  0.1038505E+00
         21   -1    0    0  501  502  0.00000000000E+00  0.00000000000E+00  0.30182451444E+03  0.30182451444E+03  0.00000000000E+00 0. -1.
          4   -1    0    0  502    0 -0.00000000000E+00 -0.00000000000E+00 -0.89177100716E+03  0.89177100716E+03  0.00000000000E+00 0.  1.
        -13    1    1    2    0    0  0.21321094038E+03  0.93280142469E+02 -0.71677410909E+03  0.75360813737E+03  0.10566000000E+00 0.  1.
         13    1    1    2    0    0 -0.22373257943E+03 -0.10402951509E+03 -0.58886426058E+02  0.25366519163E+03  0.10566000000E+00 0. -1.
          4    1    1    2  501    0  0.10521639048E+02  0.10749372620E+02  0.18571404243E+03  0.18632219260E+03  0.00000000000E+00 0.  1.
</event>
<event>
 5    1  0.2540860E-005  0.5617154E+03  0.7818608E-02  0.9352079E-01
         21   -1    0    0  501  502  0.00000000000E+00  0.00000000000E+00  0.36301937977E+03  0.36301937977E+03  0.00000000000E+00 0. -1.
          4   -1    0    0  502    0 -0.00000000000E+00 -0.00000000000E+00 -0.12138874926E+04  0.12138874926E+04  0.00000000000E+00 0.  1.
        -13    1    1    2    0    0 -0.37306937295E+03 -0.44700412205E+03 -0.23026113980E+03  0.62610993111E+03  0.10566000000E+00 0.  1.
         13    1    1    2    0    0  0.36042119347E+03  0.41763651600E+03 -0.68463303575E+03  0.87923040268E+03  0.10566000000E+00 0. -1.
          4    1    1    2  501    0  0.12648179480E+02  0.29367606051E+02  0.64026062751E+02  0.71566538555E+02  0.00000000000E+00 0.  1.
</event>
<event>
 5    1  0.2540860E-005  0.5437890E+03  0.7818608E-02  0.9386835E-01
         21   -1    0    0  501  502  0.00000000000E+00  0.00000000000E+00  0.56634899257E+03  0.56634899257E+03  0.00000000000E+00 0.  1.
         -4   -1    0    0    0  501 -0.00000000000E+00 -0.00000000000E+00 -0.10423760448E+04  0.10423760448E+04  0.00000000000E+00 0. -1.
        -13    1    1    2    0    0  0.37726609801E+03  0.21948943444E+03 -0.25881326196E+02  0.43723583425E+03  0.10566000000E+00 0.  1.
         13    1    1    2    0    0 -0.37130475350E+03 -0.59732386845E+03 -0.27860321706E+03  0.75649374585E+03  0.10566000000E+00 0. -1.
         -4    1    1    2    0  502 -0.59613445134E+01  0.37783443401E+03 -0.17154250893E+03  0.41499545723E+03  0.00000000000E+00 0. -1.
</event>
<event>
 5    1  0.2540860E-005  0.5300418E+03  0.7818608E-02  0.9460735E-01
          4   -1    0    0  502    0 -0.00000000000E+00  0.00000000000E+00  0.20592845829E+04  0.20592845829E+04  0.00000000000E+00 0.  1.
         21   -1    0    0  501  502  0.00000000000E+00 -0.00000000000E+00 -0.37477478670E+03  0.37477478670E+03  0.00000000000E+00 0.  1.
        -13    1    1    2    0    0 -0.24707701098E+03 -0.24491990735E+03  0.53156865778E+03  0.63529367970E+03  0.10566000000E+00 0.  1.
         13    1    1    2    0    0  0.35292875977E+03 -0.45669159903E+03  0.84957016206E+03  0.10270810083E+04  0.10566000000E+00 0. -1.
          4    1    1    2  501    0 -0.10585174879E+03  0.70161150638E+03  0.30337097638E+03  0.77168468166E+03  0.00000000000E+00 0.  1.
</event>
<event>
 5    1  0.2540860E-005  0.4955981E+02  0.7818608E-02  0.1293591E+00
         21   -1    0    0  501  502  0.00000000000E+00  0.00000000000E+00  0.20422340584E+03  0.20422340584E+03  0.00000000000E+00 0.  1.
          4   -1    0    0  502    0 -0.00000000000E+00 -0.00000000000E+00 -0.78079542138E+02  0.78079542138E+02  0.00000000000E+00 0.  1.
        -13    1    1    2    0    0  0.41578178473E+02  0.35462176809E+02 -0.44624831546E+02  0.70552800538E+02  0.10566000000E+00 0.  1.
         13    1    1    2    0    0 -0.35049459539E+02 -0.22178511574E+02  0.11565182029E+01  0.41493369205E+02  0.10566000000E+00 0. -1.
          4    1    1    2  501    0 -0.65287189340E+01 -0.13283665235E+02  0.16961217705E+03  0.17025677824E+03  0.00000000000E+00 0.  1.
</event>
<event>
 5    1  0.2540860E-005  0.4025291E+03  0.7818608E-02  0.9721770E-01
         21   -1    0    0  501  502  0.00000000000E+00  0.00000000000E+00  0.45217874495E+03  0.45217874495E+03  0.00000000000E+00 0.  1.
          4   -1    0    0  502    0 -0.00000000000E+00 -0.00000000000E+00 -0.13219954700E+04  0.13219954700E+04  0.00000000000E+00 0.  1.
        -13    1    1    2    0    0  0.37164117170E+03 -0.22995077380E+03 -0.62689978262E+03  0.76419753172E+03  0.10566000000E+00 0.  1.
         13    1    1    2    0    0 -0.21310165947E+03  0.32620735122E+03 -0.53628777673E+03  0.66289376516E+03  0.10566000000E+00 0. -1.
          4    1    1    2  501    0 -0.15853951223E+03 -0.96256577426E+02  0.29337083427E+03  0.34708291810E+03  0.00000000000E+00 0.  1.
</event>
<event>
 5    1  0.2540860E-005  0.4507516E+03  0.7818608E-02  0.9732369E-01
         -4   -1    0    0    0  501 -0.00000000000E+00  0.00000000000E+00  0.17354120935E+04  0.17354120935E+04  0.00000000000E+00 0. -1.
         21   -1    0    0  501  502  0.00000000000E+00 -0.00000000000E+00 -0.61276715627E+03  0.61276715627E+03  0.00000000000E+00 0. -1.
        -13    1    1    2    0    0  0.19404957188E+03 -0.19673429725E+03  0.12718446072E+04  0.13015177049E+04  0.10566000000E+00 0.  1.
         13    1    1    2    0    0  0.37042871248E+03  0.20411985243E+03 -0.22164967051E+03  0.47750490342E+03  0.10566000000E+00 0. -1.
         -4    1    1    2    0  502 -0.56447828436E+03 -0.73855551869E+01  0.72450000499E+02  0.56915664145E+03  0.00000000000E+00 0. -1.
</event>
<event>
 5    1  0.2540860E-005  0.3982025E+03  0.7818608E-02  0.1043010E+00
         21   -1    0    0  501  502  0.00000000000E+00  0.00000000000E+00  0.47959701741E+03  0.47959701741E+03  0.00000000000E+00 0.  1.
          4   -1    0    0  502    0 -0.00000000000E+00 -0.00000000000E+00 -0.38314248037E+03  0.38314248037E+03  0.00000000000E+00 0.  1.
        -13    1    1    2    0    0 -0.38882127650E+03 -0.15067169850E+03 -0.17814745229E+01  0.41699775852E+03  0.10566000000E+00 0.  1.
         13    1    1    2    0    0  0.20398321229E+02  0.36835286774E+02 -0.13590615778E+02  0.44245291974E+02  0.10566000000E+00 0. -1.
          4    1    1    2  501    0  0.36842295527E+03  0.11383641173E+03  0.11182662734E+03  0.40149644729E+03  0.00000000000E+00 0.  1.
</event>
<event>
 5    1  0.2540860E-005  0.5938034E+02  0.7818608E-02  0.1257701E+00
         -4   -1    0    0    0  501 -0.00000000000E+00  0.00000000000E+00  0.18662290239E+02  0.18662290239E+02  0.00000000000E+00 0. -1.
         21   -1    0    0  501  502  0.00000000000E+00 -0.00000000000E+00 -0.51014995219E+03  0.51014995219E+03  0.00000000000E+00 0. -1.
        -13    1    1    2    0    0  0.53142672911E+01  0.40827128135E+02 -0.13567137804E+03  0.14178092189E+03  0.10566000000E+00 0.  1.
         13    1    1    2    0    0 -0.54079741776E+01 -0.70114954003E+02 -0.68315879412E+02  0.98042967638E+02  0.10566000000E+00 0. -1.
         -4    1    1    2    0  502  0.93706886476E-01  0.29287825868E+02 -0.28750040450E+03  0.28898835290E+03  0.00000000000E+00 0. -1.
</event>
<event>
 5    1  0.2540860E-005  0.4203123E+03  0.7818608E-02  0.1001721E+00
         21   -1    0    0  501  502  0.00000000000E+00  0.00000000000E+00  0.14194932052E+04  0.14194932052E+04  0.00000000000E+00 0.  1.
          4   -1    0    0  502    0 -0.00000000000E+00 -0.00000000000E+00 -0.67186032525E+03  0.67186032525E+03  0.00000000000E+00 0.  1.
        -13    1    1    2    0    0  0.10979825016E+03 -0.48844551239E+02 -0.32981752021E+03  0.35102856540E+03  0.10566000000E+00 0.  1.
         13    1    1    2    0    0 -0.12174916538E+03  0.46898691464E+03 -0.95929276910E+02  0.49393726596E+03  0.10566000000E+00 0. -1.
          4    1    1    2  501    0  0.11950915222E+02 -0.42014236340E+03  0.11733796771E+04  0.12463876991E+04  0.00000000000E+00 0.  1.
</event>
<event>
 5    1  0.2540860E-005  0.5966908E+02  0.7818608E-02  0.1256766E+00
         21   -1    0    0  501  502  0.00000000000E+00  0.00000000000E+00  0.15413337904E+03  0.15413337904E+03  0.00000000000E+00 0.  1.
         -4   -1    0    0    0  501 -0.00000000000E+00 -0.00000000000E+00 -0.44645016502E+02  0.44645016502E+02  0.00000000000E+00 0. -1.
        -13    1    1    2    0    0  0.46805286744E+02  0.55157878100E+02  0.59647192646E+02  0.93759933544E+02  0.10566000000E+00 0.  1.
         13    1    1    2    0    0 -0.14878165653E+02 -0.53637795824E+02  0.14816378518E+02  0.57601295041E+02  0.10566000000E+00 0. -1.
         -4    1    1    2    0  502 -0.31927121092E+02 -0.15200822764E+01  0.35024791372E+02  0.47417166954E+02  0.00000000000E+00 0. -1.
</event>
<event>
 5    1  0.2540860E-005  0.2661139E+03  0.7818608E-02  0.1022365E+00
         -4   -1    0    0    0  501 -0.00000000000E+00  0.00000000000E+00  0.22491125345E+03  0.22491125345E+03  0.00000000000E+00 0. -1.
         21   -1    0    0  501  502  0.00000000000E+00 -0.00000000000E+00 -0.55071179299E+03  0.55071179299E+03  0.00000000000E+00 0.  1.
        -13    1    1    2    0    0 -0.26473651718E+03  0.45656352252E+02 -0.27074444091E+03  0.38140855978E+03  0.10566000000E+00 0.  1.
         13    1    1    2    0    0  0.24120281756E+03 -0.11669399593E+03  0.42461954458E+02  0.27129193985E+03  0.10566000000E+00 0. -1.
         -4    1    1    2    0  502  0.23533699619E+02  0.71037643675E+02 -0.97518053087E+02  0.12292254681E+03  0.00000000000E+00 0. -1.
</event>
<event>
 5    1  0.2540860E-005  0.9303299E+03  0.7818608E-02  0.8842958E-01
          4   -1    0    0  502    0 -0.00000000000E+00  0.00000000000E+00  0.22686617735E+04  0.22686617735E+04  0.00000000000E+00 0.  1.
         21   -1    0    0  501  502  0.00000000000E+00 -0.00000000000E+00 -0.82019922760E+03  0.82019922760E+03  0.00000000000E+00 0.  1.
        -13    1    1    2    0    0  0.96763055531E+02  0.10055254791E+04 -0.30334636174E+03  0.10547339021E+04  0.10566000000E+00 0.  1.
         13    1    1    2    0    0 -0.14527536549E+03 -0.90379277392E+03  0.14847051060E+04  0.17442177539E+04  0.10566000000E+00 0. -1.
          4    1    1    2  501    0  0.48512309961E+02 -0.10173270515E+03  0.26710380164E+03  0.28990934508E+03  0.00000000000E+00 0.  1.
</event>
<event>
 5    1  0.2540860E-005  0.4818127E+03  0.7818608E-02  0.9518751E-01
         21   -1    0    0  501  502  0.00000000000E+00  0.00000000000E+00  0.55225693673E+03  0.55225693673E+03  0.00000000000E+00 0. -1.
         -4   -1    0    0    0  501 -0.00000000000E+00 -0.00000000000E+00 -0.88827450817E+03  0.88827450817E+03  0.00000000000E+00 0. -1.
        -13    1    1    2    0    0  0.33721846478E+03  0.45581223149E+02 -0.14802423008E+02  0.34060690507E+03  0.10566000000E+00 0.  1.
         13    1    1    2    0    0 -0.59007327570E+03 -0.23253685350E+03 -0.43102441088E+03  0.76683890933E+03  0.10566000000E+00 0. -1.
         -4    1    1    2    0  502  0.25285481092E+03  0.18695563035E+03  0.10980926245E+03  0.33308563050E+03  0.00000000000E+00 0. -1.
</event>
<event>
 5    1  0.2540860E-005  0.4780314E+03  0.7818608E-02  0.9784759E-01
          4   -1    0    0  502    0 -0.00000000000E+00  0.00000000000E+00  0.20849823929E+04  0.20849823929E+04  0.00000000000E+00 0.  1.
         21   -1    0    0  501  502  0.00000000000E+00 -0.00000000000E+00 -0.25124223647E+03  0.25124223647E+03  0.00000000000E+00 0.  1.
        -13    1    1    2    0    0  0.31826691949E+03 -0.35393177083E+03  0.32022120679E+03  0.57367513707E+03  0.10566000000E+00 0.  1.
         13    1    1    2    0    0  0.13465651462E+03  0.13888006400E+03  0.10876288221E+04  0.11046974766E+04  0.10566000000E+00 0. -1.
          4    1    1    2  501    0 -0.45292343411E+03  0.21505170683E+03  0.42589012757E+03  0.65785201568E+03  0.00000000000E+00 0.  1.
</event>
<event>
 5    1  0.2540860E-005  0.1522888E+03  0.7818608E-02  0.1098876E+00
         21   -1    0    0  501  502  0.00000000000E+00  0.00000000000E+00  0.77790006623E+03  0.77790006623E+03  0.00000000000E+00 0. -1.
          4   -1    0    0  502    0 -0.00000000000E+00 -0.00000000000E+00 -0.17978438894E+03  0.17978438894E+03  0.00000000000E+00 0.  1.
        -13    1    1    2    0    0  0.14867080661E+03  0.36199360199E+02 -0.12958188195E+03  0.20051154010E+03  0.10566000000E+00 0.  1.
         13    1    1    2    0    0 -0.14487795910E+03 -0.16532259526E+02  0.35288522659E+03  0.38182578875E+03  0.10566000000E+00 0. -1.
          4    1    1    2  501    0 -0.37928475113E+01 -0.19667100673E+02  0.37481233265E+03  0.37534712633E+03  0.00000000000E+00 0.  1.
</event>
<event>
 5    1  0.2540860E-005  0.3902781E+03  0.7818608E-02  0.1065054E+00
         21   -1    0    0  501  502  0.00000000000E+00  0.00000000000E+00  0.11784890016E+03  0.11784890016E+03  0.00000000000E+00 0.  1.
          4   -1    0    0  502    0 -0.00000000000E+00 -0.00000000000E+00 -0.16076612832E+04  0.16076612832E+04  0.00000000000E+00 0.  1.
        -13    1    1    2    0    0 -0.31568189931E+03 -0.23599468103E+03 -0.41715647032E+03  0.57390598787E+03  0.10566000000E+00 0.  1.
         13    1    1    2    0    0 -0.17659264842E+01  0.23265973077E+02 -0.16876725754E+02  0.28796858089E+02  0.10566000000E+00 0. -1.
          4    1    1    2  501    0  0.31744782579E+03  0.21272870795E+03 -0.10557791870E+04  0.11228073374E+04  0.00000000000E+00 0.  1.
</event>
<event>
 5    1  0.2540860E-005  0.8700730E+02  0.7818608E-02  0.1188050E+00
         21   -1    0    0  501  502  0.00000000000E+00  0.00000000000E+00  0.86253858046E+03  0.86253858046E+03  0.00000000000E+00 0.  1.
          4   -1    0    0  502    0 -0.00000000000E+00 -0.00000000000E+00 -0.20772923912E+02  0.20772923912E+02  0.00000000000E+00 0.  1.
        -13    1    1    2    0    0 -0.48229661531E+02  0.60898967559E+02  0.16412016472E+03  0.18157704737E+03  0.10566000000E+00 0.  1.
         13    1    1    2    0    0  0.22226157970E+02 -0.10643236706E+03  0.27540758513E+03  0.29609322850E+03  0.10566000000E+00 0. -1.
          4    1    1    2  501    0  0.26003503561E+02  0.45533399501E+02  0.40223790671E+03  0.40564122850E+03  0.00000000000E+00 0.  1.
</event>
<event>
 5    1  0.2540860E-005  0.3982776E+03  0.7818608E-02  0.9935986E-01
         21   -1    0    0  501  502  0.00000000000E+00  0.00000000000E+00  0.60969839915E+03  0.60969839915E+03  0.00000000000E+00 0. -1.
         -4   -1    0    0    0  501 -0.00000000000E+00 -0.00000000000E+00 -0.62939770993E+03  0.62939770993E+03  0.00000000000E+00 0. -1.
        -13    1    1    2    0    0  0.71751714259E+02 -0.18759163668E+03  0.10923527501E+02  0.20114240048E+03  0.10566000000E+00 0.  1.
         13    1    1    2    0    0  0.15581817438E+03  0.48807180369E+03 -0.28206490034E+03  0.58485383490E+03  0.10566000000E+00 0. -1.
         -4    1    1    2    0  502 -0.22756988864E+03 -0.30048016701E+03  0.25144206206E+03  0.45309987371E+03  0.00000000000E+00 0. -1.
</event>
<event>
 5    1  0.2540860E-005  0.5742428E+03  0.7818608E-02  0.9328590E-01
         21   -1    0    0  501  502  0.00000000000E+00  0.00000000000E+00  0.20297296662E+03  0.20297296662E+03  0.00000000000E+00 0. -1.
         -4   -1    0    0    0  501 -0.00000000000E+00 -0.00000000000E+00 -0.33242831154E+04  0.33242831154E+04  0.00000000000E+00 0. -1.
        -13    1    1    2    0    0  0.40612612031E+03 -0.29296891544E+03 -0.12281926475E+04  0.13263583232E+04  0.10566000000E+00 0.  1.
         13    1    1    2    0    0 -0.43599757545E+03  0.63656278765E+03 -0.11986744963E+04  0.14255267895E+04  0.10566000000E+00 0. -1.
         -4    1    1    2    0  502  0.29871455138E+02 -0.34359387221E+03 -0.69444300502E+03  0.77537096932E+03  0.00000000000E+00 0. -1.
</event>
<event>
 5    1  0.2540860E-005  0.4541540E+03  0.7818608E-02  0.1009579E+00
          4   -1    0    0  502    0 -0.00000000000E+00  0.00000000000E+00  0.33385921242E+03  0.33385921242E+03  0.00000000000E+00 0.  1.
         21   -1    0    0  501  502  0.00000000000E+00 -0.00000000000E+00 -0.90344744220E+03  0.90344744220E+03  0.00000000000E+00 0.  1.
        -13    1    1    2    0    0 -0.34119320868E+03 -0.23077556513E+03 -0.27808316277E+02  0.41284801166E+03  0.10566000000E+00 0.  1.
         13    1    1    2    0    0 -0.79392020785E+02  0.12446702189E+02  0.26413762479E+02  0.84591437935E+02  0.10566000000E+00 0. -1.
          4    1    1    2  501    0  0.42058522947E+03  0.21832886294E+03 -0.56819367598E+03  0.73986720502E+03  0.00000000000E+00 0.  1.
</event>
<event>
 5    1  0.2540860E-005  0.7437946E+02  0.7818608E-02  0.1215684E+00
         -4   -1    0    0    0  501 -0.00000000000E+00  0.00000000000E+00  0.22380718744E+03  0.22380718744E+03  0.00000000000E+00 0. -1.
         21   -1    0    0  501  502  0.00000000000E+00 -0.00000000000E+00 -0.41414781619E+02  0.41414781619E+02  0.00000000000E+00 0.  1.
        -13    1    1    2    0    0  0.35002666520E+02 -0.43662189923E+02  0.19696216310E+02  0.59325589701E+02  0.10566000000E+00 0.  1.
         13    1    1    2    0    0 -0.70287519805E+02  0.52093360176E+02  0.13207231819E+03  0.15842083831E+03  0.10566000000E+00 0. -1.
         -4    1    1    2    0  502  0.35284853285E+02 -0.84311702526E+01  0.30623871323E+02  0.47475541050E+02  0.00000000000E+00 0. -1.
</event>
<event>
 5    1  0.2540860E-005  0.5080454E+03  0.7818608E-02  0.9460511E-01
         21   -1    0    0  501  502  0.00000000000E+00  0.00000000000E+00  0.33549918582E+03  0.33549918582E+03  0.00000000000E+00 0.  1.
          4   -1    0    0  502    0 -0.00000000000E+00 -0.00000000000E+00 -0.28125302553E+04  0.28125302553E+04  0.00000000000E+00 0.  1.
        -13    1    1    2    0    0  0.40348530118E+03 -0.20338004641E+03 -0.12334968862E+04  0.13136507949E+04  0.10566000000E+00 0.  1.
         13    1    1    2    0    0 -0.66737294261E+03 -0.23312038644E+02 -0.13189921230E+04  0.14784012741E+04  0.10566000000E+00 0. -1.
          4    1    1    2  501    0  0.26388764143E+03  0.22669208505E+03  0.75457939756E+02  0.35597737203E+03  0.00000000000E+00 0.  1.
</event>
<event>
 5    1  0.2540860E-005  0.7958138E+03  0.7818608E-02  0.8994504E-01
         21   -1    0    0  501  502  0.00000000000E+00  0.00000000000E+00  0.17935851435E+04  0.17935851435E+04  0.00000000000E+00 0. -1.
         -4   -1    0    0    0  501 -0.00000000000E+00 -0.00000000000E+00 -0.55175731245E+03  0.55175731245E+03  0.00000000000E+00 0. -1.
        -13    1    1    2    0    0  0.58677497939E+03 -0.45526351350E+03  0.57768364399E+03  0.94089752198E+03  0.10566000000E+00 0.  1.
         13    1    1    2    0    0 -0.44858746576E+03  0.73223721405E+03  0.26366289053E+03  0.89828736108E+03  0.10566000000E+00 0. -1.
         -4    1    1    2    0  502 -0.13818751363E+03 -0.27697370055E+03  0.40048129658E+03  0.50615757293E+03  0.00000000000E+00 0. -1.
</event>
<event>
 5    1  0.2540860E-005  0.2023969E+03  0.7818608E-02  0.1058505E+00
          4   -1    0    0  502    0 -0.00000000000E+00  0.00000000000E+00  0.64832203795E+03  0.64832203795E+03  0.00000000000E+00 0.  1.
         21   -1    0    0  501  502  0.00000000000E+00 -0.00000000000E+00 -0.19689713821E+03  0.19689713821E+03  0.00000000000E+00 0. -1.
        -13    1    1    2    0    0 -0.19836166904E+03  0.74011121118E+02  0.55942711482E+03  0.59815023677E+03  0.10566000000E+00 0.  1.
         13    1    1    2    0    0  0.12236747503E+03 -0.77297431720E+02 -0.83802404390E+02  0.16724696124E+03  0.10566000000E+00 0. -1.
          4    1    1    2  501    0  0.75994194004E+02  0.32863106018E+01 -0.24199810690E+02  0.79821978158E+02  0.00000000000E+00 0.  1.
</event>
<event>
 5    1  0.2540860E-005  0.5099711E+03  0.7818608E-02  0.9456381E-01
         21   -1    0    0  501  502  0.00000000000E+00  0.00000000000E+00  0.24012670687E+03  0.24012670687E+03  0.00000000000E+00 0.  1.
          4   -1    0    0  502    0 -0.00000000000E+00 -0.00000000000E+00 -0.32043335059E+04  0.32043335059E+04  0.00000000000E+00 0.  1.
        -13    1    1    2    0    0 -0.31758778796E+03 -0.44789165102E+03 -0.14105865874E+04  0.15136787856E+04  0.10566000000E+00 0.  1.
         13    1    1    2    0    0  0.19254208126E+03  0.44877851833E+03 -0.16820648245E+04  0.17515183974E+04  0.10566000000E+00 0. -1.
          4    1    1    2  501    0  0.12504570670E+03 -0.88686730940E+00  0.12844461283E+03  0.17926302983E+03  0.00000000000E+00 0.  1.
</event>
<event>
 5    1  0.2540860E-005  0.6392822E+03  0.7818608E-02  0.9216042E-01
         -4   -1    0    0    0  501 -0.00000000000E+00  0.00000000000E+00  0.97855458503E+03  0.97855458503E+03  0.00000000000E+00 0. -1.
         21   -1    0    0  501  502  0.00000000000E+00 -0.00000000000E+00 -0.78880750142E+03  0.78880750142E+03  0.00000000000E+00 0.  1.
        -13    1    1    2    0    0 -0.48592707893E+03  0.31772923657E+03 -0.54270647458E+02  0.58311431825E+03  0.10566000000E+00 0.  1.
         13    1    1    2    0    0  0.29337844606E+03 -0.67969082805E+03  0.22531193540E+03  0.77383203200E+03  0.10566000000E+00 0. -1.
         -4    1    1    2    0  502  0.19254863287E+03  0.36196159148E+03  0.18705795665E+02  0.41041573620E+03  0.00000000000E+00 0. -1.
</event>
<event>
 5    1  0.2583463E-005  0.2921908E+03  0.7818608E-02  0.1025654E+00
         21   -1    0    0  501  502  0.00000000000E+00  0.00000000000E+00  0.87679066973E+03  0.87679066973E+03  0.00000000000E+00 0.  1.
          4   -1    0    0  502    0 -0.00000000000E+00 -0.00000000000E+00 -0.71701413553E+03  0.71701413553E+03  0.00000000000E+00 0.  1.
        -13    1    1    2    0    0 -0.17103373970E+03 -0.44068211572E+02 -0.23816966207E+03  0.29651196685E+03  0.10566000000E+00 0.  1.
         13    1    1    2    0    0 -0.42930308820E+02 -0.17623183315E+03 -0.40167248068E+03  0.44072833280E+03  0.10566000000E+00 0. -1.
          4    1    1    2  501    0  0.21396404852E+03  0.22030004472E+03  0.79961867695E+03  0.85656450562E+03  0.00000000000E+00 0.  1.
</event>
<event>
 5    1  0.2540860E-005  0.4201782E+03  0.7818608E-02  0.9716699E-01
         21   -1    0    0  501  502  0.00000000000E+00  0.00000000000E+00  0.30289365124E+03  0.30289365124E+03  0.00000000000E+00 0.  1.
          4   -1    0    0  502    0 -0.00000000000E+00 -0.00000000000E+00 -0.24494640067E+04  0.24494640067E+04  0.00000000000E+00 0.  1.
        -13    1    1    2    0    0 -0.33831266013E+03  0.34333120869E+02 -0.77056988625E+02  0.34867177955E+03  0.10566000000E+00 0.  1.
         13    1    1    2    0    0 -0.18454982116E+03  0.41460290281E+03 -0.12672961311E+04  0.13461031530E+04  0.10566000000E+00 0. -1.
          4    1    1    2  501    0  0.52286248129E+03 -0.44893602368E+03 -0.80221723573E+03  0.10575827254E+04  0.00000000000E+00 0.  1.
</event>
<event>
 5    1  0.2540860E-005  0.1268070E+03  0.7818608E-02  0.1126537E+00
         21   -1    0    0  501  502  0.00000000000E+00  0.00000000000E+00  0.35540445284E+03  0.35540445284E+03  0.00000000000E+00 0. -1.
         -4   -1    0    0    0  501 -0.00000000000E+00 -0.00000000000E+00 -0.12280539335E+04  0.12280539335E+04  0.00000000000E+00 0. -1.
        -13    1    1    2    0    0 -0.83329276719E+00  0.12774083236E+03 -0.49631929432E+03  0.51249513920E+03  0.10566000000E+00 0.  1.
         13    1    1    2    0    0  0.11053679078E+03 -0.85332323559E+02  0.32820558673E+03  0.35667759375E+03  0.10566000000E+00 0. -1.
         -4    1    1    2    0  502 -0.10970349801E+03 -0.42408508802E+02 -0.70453577309E+03  0.71428565340E+03  0.00000000000E+00 0. -1.
</event>
<event>
 5    1  0.2540860E-005  0.4543846E+03  0.7818608E-02  0.9930558E-01
          4   -1    0    0  502    0 -0.00000000000E+00  0.00000000000E+00  0.58002517847E+03  0.58002517847E+03  0.00000000000E+00 0.  1.
         21   -1    0    0  501  502  0.00000000000E+00 -0.00000000000E+00 -0.54577355645E+03  0.54577355645E+03  0.00000000000E+00 0.  1.
        -13    1    1    2    0    0 -0.41756423089E+03 -0.20299890290E+03 -0.11696254535E+03  0.47879921645E+03  0.10566000000E+00 0.  1.
         13    1    1    2    0    0 -0.30387316517E+02  0.13432108402E+03  0.13601298112E+03  0.19355899569E+03  0.10566000000E+00 0. -1.
          4    1    1    2  501    0  0.44795154740E+03  0.68677818882E+02  0.15201186256E+02  0.45344052277E+03  0.00000000000E+00 0.  1.
</event>
<event>
 5    1  0.2540860E-005  0.1121427E+03  0.7818608E-02  0.1145893E+00
          4   -1    0    0  502    0 -0.00000000000E+00  0.00000000000E+00  0.17981603213E+03  0.17981603213E+03  0.00000000000E+00 0.  1.
         21   -1    0    0  501  502  0.00000000000E+00 -0.00000000000E+00 -0.13260859489E+03  0.13260859489E+03  0.00000000000E+00 0.  1.
        -13    1    1    2    0    0  0.10701057401E+03 -0.49792737468E+02  0.88709858349E+02  0.14764833147E+03  0.10566000000E+00 0.  1.
         13    1    1    2    0    0 -0.10029410393E+03  0.27424910118E+02  0.13663850708E+02  0.10487013378E+03  0.10566000000E+00 0. -1.
          4    1    1    2  501    0 -0.67164700748E+01  0.22367827350E+02 -0.55166271821E+02  0.59906161764E+02  0.00000000000E+00 0.  1.
</event>
<event>
 5    1  0.2540860E-005  0.2328553E+02  0.7818608E-02  0.1468700E+00
         21   -1    0    0  501  502  0.00000000000E+00  0.00000000000E+00  0.11960819709E+02  0.11960819709E+02  0.00000000000E+00 0. -1.
         -4   -1    0    0    0  501 -0.00000000000E+00 -0.00000000000E+00 -0.12209501495E+03  0.12209501495E+03  0.00000000000E+00 0. -1.
        -13    1    1    2    0    0 -0.15885220819E+02 -0.15451362455E+02 -0.70601360423E+02  0.73997622257E+02  0.10566000000E+00 0.  1.
         13    1    1    2    0    0  0.27907347310E+02  0.83947615241E+01 -0.34676522917E+02  0.45296406707E+02  0.10566000000E+00 0. -1.
         -4    1    1    2    0  502 -0.12022126491E+02  0.70566009309E+01 -0.48563119002E+01  0.14761805694E+02  0.00000000000E+00 0. -1.
</event>
<event>
 5    1  0.2540860E-005  0.1205570E+03  0.7818608E-02  0.1134417E+00
         -4   -1    0    0    0  501 -0.00000000000E+00  0.00000000000E+00  0.57035643458E+03  0.57035643458E+03  0.00000000000E+00 0. -1.
         21   -1    0    0  501  502  0.00000000000E+00 -0.00000000000E+00 -0.15007679977E+03  0.15007679977E+03  0.00000000000E+00 0.  1.
        -13    1    1    2    0    0 -0.54169421945E+02  0.13463825811E+03 -0.64566893060E+02  0.15884168742E+03  0.10566000000E+00 0.  1.
         13    1    1    2    0    0 -0.27467396238E+00 -0.11961071859E+03  0.49045893361E+03  0.50483341428E+03  0.10566000000E+00 0. -1.
         -4    1    1    2    0  502  0.54444095908E+02 -0.15027539513E+02 -0.56124057383E+01  0.56758132644E+02  0.00000000000E+00 0. -1.
</event>
<event>
 5    1  0.2540860E-005  0.2755189E+03  0.7818608E-02  0.1017955E+00
          4   -1    0    0  502    0 -0.00000000000E+00  0.00000000000E+00  0.50556783998E+03  0.50556783998E+03  0.00000000000E+00 0.  1.
         21   -1    0    0  501  502  0.00000000000E+00 -0.00000000000E+00 -0.48527462453E+03  0.48527462453E+03  0.00000000000E+00 0.  1.
        -13    1    1    2    0    0 -0.42014394820E+03 -0.10075641461E+03 -0.15913450872E+03  0.46043088007E+03  0.10566000000E+00 0.  1.
         13    1    1    2    0    0  0.24391231127E+03 -0.46596706023E+02  0.16915660629E+03  0.30046370367E+03  0.10566000000E+00 0. -1.
          4    1    1    2  501    0  0.17623163692E+03  0.14735312064E+03  0.10271117878E+02  0.22994788078E+03  0.00000000000E+00 0.  1.
</event>
<event>
 5    1  0.2540860E-005  0.4545730E+03  0.7818608E-02  0.9803986E-01
          4   -1    0    0  502    0 -0.00000000000E+00  0.00000000000E+00  0.63205947544E+03  0.63205947544E+03  0.00000000000E+00 0.  1.
         21   -1    0    0  501  502  0.00000000000E+00 -0.00000000000E+00 -0.10030112130E+04  0.10030112130E+04  0.00000000000E+00 0.  1.
        -13    1    1    2    0    0 -0.36794853126E+03 -0.36828326678E+02  0.76908627576E+01  0.36986701372E+03  0.10566000000E+00 0.  1.
         13    1    1    2    0    0 -0.10991888099E+03  0.17970286084E+03  0.33428678637E+03  0.39512396194E+03  0.10566000000E+00 0. -1.
          4    1    1    2  501    0  0.47786741226E+03 -0.14287453416E+03 -0.71292938667E+03  0.87007971277E+03  0.00000000000E+00 0.  1.
</event>
<event>
 5    1  0.2540860E-005  0.4655679E+03  0.7818608E-02  0.9843249E-01
         21   -1    0    0  501  502  0.00000000000E+00  0.00000000000E+00  0.56273630818E+03  0.56273630818E+03  0.00000000000E+00 0.  1.
          4   -1    0    0  502    0 -0.00000000000E+00 -0.00000000000E+00 -0.91114049847E+03  0.91114049847E+03  0.00000000000E+00 0.  1.
        -13    1    1    2    0    0 -0.29390302453E+03  0.30644331266E+03  0.15551788419E+03  0.45218615101E+03  0.10566000000E+00 0.  1.
         13    1    1    2    0    0 -0.49340332967E+01  0.17152067724E+03 -0.41752796551E+03  0.45141256135E+03  0.10566000000E+00 0. -1.
          4    1    1    2  501    0  0.29883705782E+03 -0.47796398990E+03 -0.86394108972E+02  0.57027809429E+03  0.00000000000E+00 0.  1.
</event>
<event>
 5    1  0.2540860E-005  0.3203984E+03  0.7818608E-02  0.9992237E-01
         -4   -1    0    0    0  501 -0.00000000000E+00  0.00000000000E+00  0.16389226138E+04  0.16389226138E+04  0.00000000000E+00 0. -1.
         21   -1    0    0  501  502  0.00000000000E+00 -0.00000000000E+00 -0.79593465147E+02  0.79593465147E+02  0.00000000000E+00 0.  1.
        -13    1    1    2    0    0  0.20043740969E+03 -0.27176981510E+03  0.67240036561E+03  0.75243355217E+03  0.10566000000E+00 0.  1.
         13    1    1    2    0    0 -0.20651553780E+03  0.23039305259E+03  0.86539785619E+03  0.91904465979E+03  0.10566000000E+00 0. -1.
         -4    1    1    2    0  502  0.60781281089E+01  0.41376762513E+02  0.21530926829E+02  0.47037866953E+02  0.00000000000E+00 0. -1.
</event>
<event>
 5    1  0.2540860E-005  0.4633091E+03  0.7818608E-02  0.9675817E-01
         21   -1    0    0  501  502  0.00000000000E+00  0.00000000000E+00  0.33411592502E+03  0.33411592502E+03  0.00000000000E+00 0. -1.
          4   -1    0    0  502    0 -0.00000000000E+00 -0.00000000000E+00 -0.14066243881E+04  0.14066243881E+04  0.00000000000E+00 0.  1.
        -13    1    1    2    0    0 -0.37098260866E+03 -0.17010663063E+03 -0.22434676105E+03  0.46572077693E+03  0.10566000000E+00 0.  1.
         13    1    1    2    0    0 -0.25542406519E+03  0.17533514995E+03 -0.17644703285E+03  0.35653532006E+03  0.10566000000E+00 0. -1.
          4    1    1    2  501    0  0.62640667385E+03 -0.52285193189E+01 -0.67171466915E+03  0.91848421609E+03  0.00000000000E+00 0.  1.
</event>
<event>
 5    1  0.2540860E-005  0.5888289E+03  0.7818608E-02  0.9302027E-01
          4   -1    0    0  502    0 -0.00000000000E+00  0.00000000000E+00  0.31174662341E+04  0.31174662341E+04  0.00000000000E+00 0.  1.
         21   -1    0    0  501  502  0.00000000000E+00 -0.00000000000E+00 -0.26908874526E+03  0.26908874526E+03  0.00000000000E+00 0. -1.
        -13    1    1    2    0    0  0.56596345785E+03 -0.31098135477E+03  0.14016105415E+04  0.15432226540E+04  0.10566000000E+00 0.  1.
         13    1    1    2    0    0 -0.51271600404E+03  0.20639745704E+03  0.15752023580E+04  0.16693531953E+04  0.10566000000E+00 0. -1.
          4    1    1    2  501    0 -0.53247453804E+02  0.10458389773E+03 -0.12843541060E+03  0.17397913006E+03  0.00000000000E+00 0.  1.
</event>
<event>
 5    1  0.2540860E-005  0.4825057E+03  0.7818608E-02  0.9899197E-01
         -4   -1    0    0    0  501 -0.00000000000E+00  0.00000000000E+00  0.17512228606E+04  0.17512228606E+04  0.00000000000E+00 0. -1.
         21   -1    0    0  501  502  0.00000000000E+00 -0.00000000000E+00 -0.19804953595E+03  0.19804953595E+03  0.00000000000E+00 0. -1.
        -13    1    1    2    0    0  0.40829098446E+02 -0.12099091816E+03  0.55370994915E+02  0.13918252691E+03  0.10566000000E+00 0.  1.
         13    1    1    2    0    0 -0.28885153777E+03  0.48287517780E+03  0.99253334796E+03  0.11409321216E+04  0.10566000000E+00 0. -1.
         -4    1    1    2    0  502  0.24802243932E+03 -0.36188425964E+03  0.50526898182E+03  0.66915774805E+03  0.00000000000E+00 0. -1.
</event>
<event>
 5    1  0.2540860E-005  0.2697069E+03  0.7818608E-02  0.1020658E+00
         -4   -1    0    0    0  501 -0.00000000000E+00  0.00000000000E+00  0.35501526499E+03  0.35501526499E+03  0.00000000000E+00 0. -1.
         21   -1    0    0  501  502  0.00000000000E+00 -0.00000000000E+00 -0.12660731591E+04  0.12660731591E+04  0.00000000000E+00 0. -1.
        -13    1    1    2    0    0  0.19725105647E+03  0.19108070720E+03 -0.32892263022E+02  0.27658945764E+03  0.10566000000E+00 0.  1.
         13    1    1    2    0    0 -0.31095844630E+03 -0.27587219519E+01 -0.10308395118E+04  0.10767232124E+04  0.10566000000E+00 0. -1.
         -4    1    1    2    0  502  0.11370738982E+03 -0.18832198525E+03  0.15267388069E+03  0.26777575408E+03  0.00000000000E+00 0. -1.
</event>
<event>
 5    1  0.2540860E-005  0.3531203E+03  0.7818608E-02  0.1003886E+00
          4   -1    0    0  502    0 -0.00000000000E+00  0.00000000000E+00  0.26572151079E+03  0.26572151079E+03  0.00000000000E+00 0.  1.
         21   -1    0    0  501  502  0.00000000000E+00 -0.00000000000E+00 -0.14895206213E+04  0.14895206213E+04  0.00000000000E+00 0.  1.
        -13    1    1    2    0    0  0.29787740155E+02  0.52243347746E+03 -0.32213545257E+03  0.61448784268E+03  0.10566000000E+00 0.  1.
         13    1    1    2    0    0  0.13860253293E+02 -0.20504581986E+03 -0.24565979285E+02  0.20697679427E+03  0.10566000000E+00 0. -1.
          4    1    1    2  501    0 -0.43647993449E+02 -0.31738765760E+03 -0.87709767869E+03  0.93377749517E+03  0.00000000000E+00 0.  1.
</event>
<event>
 5    1  0.2540860E-005  0.7956870E+02  0.7818608E-02  0.1203646E+00
         21   -1    0    0  501  502  0.00000000000E+00  0.00000000000E+00  0.89992171889E+02  0.89992171889E+02  0.00000000000E+00 0.  1.
          4   -1    0    0  502    0 -0.00000000000E+00 -0.00000000000E+00 -0.17243783507E+03  0.17243783507E+03  0.00000000000E+00 0.  1.
        -13    1    1    2    0    0  0.74826479746E+02 -0.84746640043E+02 -0.86655708016E+01  0.11338473597E+03  0.10566000000E+00 0.  1.
         13    1    1    2    0    0 -0.55297707918E+02  0.32099248684E+02 -0.11107481139E+02  0.64896730028E+02  0.10566000000E+00 0. -1.
          4    1    1    2  501    0 -0.19528771829E+02  0.52647391360E+02 -0.62672611240E+02  0.84148540960E+02  0.00000000000E+00 0.  1.
</event>
<event>
 5    1  0.2540860E-005  0.2521960E+02  0.7818608E-02  0.1447993E+00
         21   -1    0    0  501  502  0.00000000000E+00  0.00000000000E+00  0.17317657106E+03  0.17317657106E+03  0.00000000000E+00 0. -1.
          4   -1    0    0  502    0 -0.00000000000E+00 -0.00000000000E+00 -0.63561707056E+01  0.63561707056E+01  0.00000000000E+00 0.  1.
        -13    1    1    2    0    0  0.26797015702E+02 -0.16388482321E+02  0.71993754580E+02  0.78547910640E+02  0.10566000000E+00 0.  1.
         13    1    1    2    0    0 -0.16656218312E+02  0.88974531261E+01  0.76111686781E+02  0.78419349075E+02  0.10566000000E+00 0. -1.
          4    1    1    2  501    0 -0.10140797390E+02  0.74910291947E+01  0.18714958994E+02  0.22565482052E+02  0.00000000000E+00 0.  1.
</event>
<event>
 5    1  0.2540860E-005  0.3755366E+02  0.7818608E-02  0.1361718E+00
          4   -1    0    0  502    0 -0.00000000000E+00  0.00000000000E+00  0.23357459270E+03  0.23357459270E+03  0.00000000000E+00 0.  1.
         21   -1    0    0  501  502  0.00000000000E+00 -0.00000000000E+00 -0.27825297899E+03  0.27825297899E+03  0.00000000000E+00 0.  1.
        -13    1    1    2    0    0 -0.46049024432E+02  0.51717815004E+02  0.20577185615E+03  0.21711129171E+03  0.10566000000E+00 0.  1.
         13    1    1    2    0    0  0.23042009982E+02 -0.22290632954E+02  0.84345663420E+01  0.33150559798E+02  0.10566000000E+00 0. -1.
          4    1    1    2  501    0  0.23007014450E+02 -0.29427182050E+02 -0.25888480878E+03  0.26156572018E+03  0.00000000000E+00 0.  1.
</event>
<event>
 5    1  0.2540860E-005  0.8247591E+02  0.7818608E-02  0.1197336E+00
          4   -1    0    0  502    0 -0.00000000000E+00  0.00000000000E+00  0.51356815815E+02  0.51356815815E+02  0.00000000000E+00 0.  1.
         21   -1    0    0  501  502  0.00000000000E+00 -0.00000000000E+00 -0.30741084802E+03  0.30741084802E+03  0.00000000000E+00 0. -1.
        -13    1    1    2    0    0 -0.19240478526E+02  0.57514381068E+02 -0.66705196066E+02  0.90153726433E+02  0.10566000000E+00 0.  1.
         13    1    1    2    0    0  0.37592909844E+02 -0.95107092025E+02 -0.34061446359E+02  0.10779044075E+03  0.10566000000E+00 0. -1.
          4    1    1    2  501    0 -0.18352431318E+02  0.37592710957E+02 -0.15528738978E+03  0.16082349666E+03  0.00000000000E+00 0.  1.
</event>
<event>
 5    1  0.2540860E-005  0.4453774E+03  0.7818608E-02  0.9606470E-01
          4   -1    0    0  502    0 -0.00000000000E+00  0.00000000000E+00  0.26681775647E+04  0.26681775647E+04  0.00000000000E+00 0.  1.
         21   -1    0    0  501  502  0.00000000000E+00 -0.00000000000E+00 -0.35842500697E+03  0.35842500697E+03  0.00000000000E+00 0. -1.
        -13    1    1    2    0    0  0.39359155006E+03  0.20237035561E+03  0.22883841412E+04  0.23307874330E+04  0.10566000000E+00 0.  1.
         13    1    1    2    0    0 -0.41672335629E+03 -0.20734137377E+03  0.20647960430E+03  0.50919803526E+03  0.10566000000E+00 0. -1.
          4    1    1    2  501    0  0.23131806238E+02  0.49710181628E+01 -0.18511118771E+03  0.18661710344E+03  0.00000000000E+00 0.  1.
</event>
<event>
 5    1  0.2540860E-005  0.2451302E+03  0.7818608E-02  0.1032948E+00
         21   -1    0    0  501  502  0.00000000000E+00  0.00000000000E+00  0.36829788975E+03  0.36829788975E+03  0.00000000000E+00 0.  1.
         -4   -1    0    0    0  501 -0.00000000000E+00 -0.00000000000E+00 -0.26811250185E+03  0.26811250185E+03  0.00000000000E+00 0. -1.
        -13    1    1    2    0    0 -0.37230813466E+02  0.24949807952E+03  0.11990357353E+03  0.27930682638E+03  0.10566000000E+00 0.  1.
         13    1    1    2    0    0  0.60372199196E+02 -0.23505533353E+03 -0.10731823514E+03  0.26535453080E+03  0.10566000000E+00 0. -1.
         -4    1    1    2    0  502 -0.23141385729E+02 -0.14442745985E+02  0.87600049498E+02  0.91749034420E+02  0.00000000000E+00 0. -1.
</event>
<event>
 5    1  0.2540860E-005  0.4386815E+03  0.7818608E-02  0.9623558E-01
         21   -1    0    0  501  502  0.00000000000E+00  0.00000000000E+00  0.39027137620E+03  0.39027137620E+03  0.00000000000E+00 0.  1.
          4   -1    0    0  502    0 -0.00000000000E+00 -0.00000000000E+00 -0.12212882068E+04  0.12212882068E+04  0.00000000000E+00 0.  1.
        -13    1    1    2    0    0 -0.35536881684E+02  0.57265214861E+03 -0.64841952288E+03  0.86581825003E+03  0.10566000000E+00 0.  1.
         13    1    1    2    0    0  0.56353379204E+02 -0.34166439291E+03 -0.32390744195E+03  0.47415852079E+03  0.10566000000E+00 0. -1.
          4    1    1    2  501    0 -0.20816497520E+02 -0.23098775571E+03  0.14131013420E+03  0.27158281220E+03  0.00000000000E+00 0.  1.
</event>
<event>
 5    1  0.2540860E-005  0.4855262E+02  0.7818608E-02  0.1367492E+00
         21   -1    0    0  501  502  0.00000000000E+00  0.00000000000E+00  0.14439680853E+02  0.14439680853E+02  0.00000000000E+00 0.  1.
          4   -1    0    0  502    0 -0.00000000000E+00 -0.00000000000E+00 -0.23517930902E+03  0.23517930902E+03  0.00000000000E+00 0.  1.
        -13    1    1    2    0    0  0.25947709390E+02 -0.46139300954E+02 -0.63640180753E+02  0.82778031418E+02  0.10566000000E+00 0.  1.
         13    1    1    2    0    0  0.69757398024E+00  0.13382317577E+02 -0.48623824122E+02  0.50436697647E+02  0.10566000000E+00 0. -1.
          4    1    1    2  501    0 -0.26645283370E+02  0.32756983376E+02 -0.10847562329E+03  0.11640426081E+03  0.00000000000E+00 0.  1.
</event>
<event>
 5    1  0.2540860E-005  0.1866584E+03  0.7818608E-02  0.1069688E+00
         21   -1    0    0  501  502  0.00000000000E+00  0.00000000000E+00  0.76630775357E+03  0.76630775357E+03  0.00000000000E+00 0. -1.
         -4   -1    0    0    0  501 -0.00000000000E+00 -0.00000000000E+00 -0.12678588193E+04  0.12678588193E+04  0.00000000000E+00 0. -1.
        -13    1    1    2    0    0 -0.23624888238E+03  0.13854769577E+03 -0.89344979660E+03  0.93448464334E+03  0.10566000000E+00 0.  1.
         13    1    1    2    0    0  0.11375002362E+03 -0.68388416695E+02 -0.33440753811E+03  0.35978390198E+03  0.10566000000E+00 0. -1.
         -4    1    1    2    0  502  0.12249885876E+03 -0.70159279078E+02  0.72630626897E+03  0.73989802756E+03  0.00000000000E+00 0. -1.
</event>
<event>
 5    1  0.2540860E-005  0.4553777E+03  0.7818608E-02  0.9790684E-01
         21   -1    0    0  501  502  0.00000000000E+00  0.00000000000E+00  0.25896003962E+03  0.25896003962E+03  0.00000000000E+00 0.  1.
          4   -1    0    0  502    0 -0.00000000000E+00 -0.00000000000E+00 -0.15354077271E+04  0.15354077271E+04  0.00000000000E+00 0.  1.
        -13    1    1    2    0    0 -0.35889601662E+03  0.96913068860E+01 -0.91986602020E+03  0.98744811431E+03  0.10566000000E+00 0.  1.
         13    1    1    2    0    0 -0.10102045765E+03  0.19462427887E+03 -0.13086993143E+03  0.25536384416E+03  0.10566000000E+00 0. -1.
          4    1    1    2  501    0  0.45991647427E+03 -0.20431558575E+03 -0.22571173583E+03  0.55155580822E+03  0.00000000000E+00 0.  1.
</event>
<event>
 5    1  0.2540860E-005  0.1482067E+02  0.7818608E-02  0.1610791E+00
         21   -1    0    0  501  502  0.00000000000E+00  0.00000000000E+00  0.40078139341E+02  0.40078139341E+02  0.00000000000E+00 0.  1.
          4   -1    0    0  502    0 -0.00000000000E+00 -0.00000000000E+00 -0.12959165714E+02  0.12959165714E+02  0.00000000000E+00 0.  1.
        -13    1    1    2    0    0  0.82440560710E+01  0.10775289465E+02  0.19905613868E+01  0.13712943602E+02  0.10566000000E+00 0.  1.
         13    1    1    2    0    0 -0.10684072156E+02  0.66937027599E+01  0.10679580229E+02  0.16523306339E+02  0.10566000000E+00 0. -1.
          4    1    1    2  501    0  0.24400160847E+01 -0.17468992225E+02  0.14448832011E+02  0.22801055114E+02  0.00000000000E+00 0.  1.
</event>
<event>
 5    1  0.2540860E-005  0.3830210E+03  0.7818608E-02  0.9779404E-01
         21   -1    0    0  501  502  0.00000000000E+00  0.00000000000E+00  0.69163251942E+03  0.69163251942E+03  0.00000000000E+00 0.  1.
          4   -1    0    0  502    0 -0.00000000000E+00 -0.00000000000E+00 -0.89797553579E+03  0.89797553579E+03  0.00000000000E+00 0.  1.
        -13    1    1    2    0    0  0.30609300947E+03 -0.31935221824E+03  0.17486111908E+03  0.47566289731E+03  0.10566000000E+00 0.  1.
         13    1    1    2    0    0 -0.24179577235E+03  0.20693416664E+03  0.28987640315E+03  0.43048261883E+03  0.10566000000E+00 0. -1.
          4    1    1    2  501    0 -0.64297237124E+02  0.11241805161E+03 -0.67108053860E+03  0.68346253908E+03  0.00000000000E+00 0.  1.
</event>
<event>
 5    1  0.2540860E-005  0.4874636E+03  0.7818608E-02  0.1039536E+00
         -4   -1    0    0    0  501 -0.00000000000E+00  0.00000000000E+00  0.63209609826E+03  0.63209609826E+03  0.00000000000E+00 0. -1.
         21   -1    0    0  501  502  0.00000000000E+00 -0.00000000000E+00 -0.49572731432E+03  0.49572731432E+03  0.00000000000E+00 0. -1.
        -13    1    1    2    0    0 -0.85040698193E+01  0.24033079776E+02  0.14245846966E+03  0.14472157707E+03  0.10566000000E+00 0.  1.
         13    1    1    2    0    0 -0.59060377371E+02 -0.49679402510E+03  0.47488961251E+02  0.50254118653E+03  0.10566000000E+00 0. -1.
         -4    1    1    2    0  502  0.67564447191E+02  0.47276094532E+03 -0.53578646966E+02  0.48056064899E+03  0.00000000000E+00 0. -1.
</event>
<event>
 5    1  0.2540860E-005  0.4978996E+03  0.7818608E-02  0.9552930E-01
         21   -1    0    0  501  502  0.00000000000E+00  0.00000000000E+00  0.19213125190E+03  0.19213125190E+03  0.00000000000E+00 0. -1.
         -4   -1    0    0    0  501 -0.00000000000E+00 -0.00000000000E+00 -0.27632991667E+04  0.27632991667E+04  0.00000000000E+00 0. -1.
        -13    1    1    2    0    0 -0.23029819649E+03  0.30974296492E+03 -0.60124832879E+03  0.71447710087E+03  0.10566000000E+00 0.  1.
         13    1    1    2    0    0 -0.31812673534E+03 -0.39881638580E+03 -0.10203571249E+04  0.11407838545E+04  0.10566000000E+00 0. -1.
         -4    1    1    2    0  502  0.54842493183E+03  0.89073420876E+02 -0.94956246109E+03  0.11001694632E+04  0.00000000000E+00 0. -1.
</event>
<event>
 5    1  0.2540860E-005  0.2899208E+03  0.7818608E-02  0.1011555E+00
         -4   -1    0    0    0  501 -0.00000000000E+00  0.00000000000E+00  0.29021981354E+04  0.29021981354E+04  0.00000000000E+00 0. -1.
         21   -1    0    0  501  502  0.00000000000E+00 -0.00000000000E+00 -0.78623659020E+02  0.78623659020E+02  0.00000000000E+00 0. -1.
        -13    1    1    2    0    0  0.62543939743E+02  0.24591128104E+03  0.98836035477E+03  0.10204118309E+04  0.10566000000E+00 0.  1.
         13    1    1    2    0    0 -0.22174546915E+02 -0.32318166639E+03  0.18445058288E+04  0.18727359300E+04  0.10566000000E+00 0. -1.
         -4    1    1    2    0  502 -0.40369392828E+02  0.77270385353E+02 -0.92917071853E+01  0.87674033512E+02  0.00000000000E+00 0. -1.
</event>
<event>
 5    1  0.2540860E-005  0.3961246E+03  0.7818608E-02  0.9740305E-01
         -4   -1    0    0    0  501 -0.00000000000E+00  0.00000000000E+00  0.51921208848E+03  0.51921208848E+03  0.00000000000E+00 0. -1.
         21   -1    0    0  501  502  0.00000000000E+00 -0.00000000000E+00 -0.95697672494E+03  0.95697672494E+03  0.00000000000E+00 0. -1.
        -13    1    1    2    0    0  0.17197904092E+03  0.27667489386E+03  0.77817833123E+01  0.32586247824E+03  0.10566000000E+00 0.  1.
         13    1    1    2    0    0 -0.17434334558E+03 -0.43731030372E+03  0.18034699477E+03  0.50414378264E+03  0.10566000000E+00 0. -1.
         -4    1    1    2    0  502  0.23643046652E+01  0.16063540985E+03 -0.62589341454E+03  0.64618255254E+03  0.00000000000E+00 0. -1.
</event>
<event>
 5    1  0.2540860E-005  0.2611819E+03  0.7818608E-02  0.1024756E+00
          4   -1    0    0  502    0 -0.00000000000E+00  0.00000000000E+00  0.27184237546E+04  0.27184237546E+04  0.00000000000E+00 0.  1.
         21   -1    0    0  501  502  0.00000000000E+00 -0.00000000000E+00 -0.18348379129E+03  0.18348379129E+03  0.00000000000E+00 0.  1.
        -13    1    1    2    0    0  0.11288168556E+03 -0.22137751815E+03  0.15028726573E+04  0.15232782135E+04  0.10566000000E+00 0.  1.
         13    1    1    2    0    0  0.88587546155E+01  0.31063307100E+03  0.11473494003E+04  0.11886892108E+04  0.10566000000E+00 0. -1.
          4    1    1    2  501    0 -0.12174044018E+03 -0.89255552851E+02 -0.11528209436E+03  0.18994012153E+03  0.00000000000E+00 0.  1.
</event>
<event>
 5    1  0.2540860E-005  0.4895321E+03  0.7818608E-02  0.9677730E-01
         21   -1    0    0  501  502  0.00000000000E+00  0.00000000000E+00  0.32703712355E+03  0.32703712355E+03  0.00000000000E+00 0. -1.
         -4   -1    0    0    0  501 -0.00000000000E+00 -0.00000000000E+00 -0.14448971930E+04  0.14448971930E+04  0.00000000000E+00 0. -1.
        -13    1    1    2    0    0  0.20047448862E+03 -0.16695612428E+03 -0.55377164927E+03  0.61214983356E+03  0.10566000000E+00 0.  1.
         13    1    1    2    0    0 -0.13939878336E+03 -0.40320832317E+03 -0.33441739386E+03  0.54207377464E+03  0.10566000000E+00 0. -1.
         -4    1    1    2    0  502 -0.61075705267E+02  0.57016444745E+03 -0.22967102635E+03  0.61771070838E+03  0.00000000000E+00 0. -1.
</event>
<event>
 5    1  0.2540860E-005  0.4979244E+03  0.7818608E-02  0.9586074E-01
          4   -1    0    0  502    0 -0.00000000000E+00  0.00000000000E+00  0.94240740823E+03  0.94240740823E+03  0.00000000000E+00 0.  1.
         21   -1    0    0  501  502  0.00000000000E+00 -0.00000000000E+00 -0.52228404785E+03  0.52228404785E+03  0.00000000000E+00 0. -1.
        -13    1    1    2    0    0  0.32500150222E+03 -0.32502019010E+03  0.23814181180E+03  0.51766363028E+03  0.10566000000E+00 0.  1.
         13    1    1    2    0    0  0.25253517499E+03  0.23171676967E+03  0.40335440175E+02  0.34509945647E+03  0.10566000000E+00 0. -1.
          4    1    1    2  501    0 -0.57753667722E+03  0.93303420427E+02  0.14164610840E+03  0.60192836934E+03  0.00000000000E+00 0.  1.
</event>
<event>
 5    1  0.2540860E-005  0.4649399E+03  0.7818608E-02  0.9690664E-01
          4   -1    0    0  502    0 -0.00000000000E+00  0.00000000000E+00  0.64357136472E+03  0.64357136472E+03  0.00000000000E+00 0.  1.
         21   -1    0    0  501  502  0.00000000000E+00 -0.00000000000E+00 -0.73729448311E+03  0.73729448311E+03  0.00000000000E+00 0. -1.
        -13    1    1    2    0    0  0.32908645803E+03  0.52357599576E+03  0.13189613957E+03  0.63231821339E+03  0.10566000000E+00 0.  1.
         13    1    1    2    0    0  0.46591736621E+01 -0.29102616697E+03 -0.17244480967E+03  0.33831222459E+03  0.10566000000E+00 0. -1.
          4    1    1    2  501    0 -0.33374563169E+03 -0.23254982878E+03 -0.53174448288E+02  0.41023540985E+03  0.00000000000E+00 0.  1.
</event>
<event>
 5    1  0.2540860E-005  0.1946931E+03  0.7818608E-02  0.1063836E+00
         21   -1    0    0  501  502  0.00000000000E+00  0.00000000000E+00  0.86058245959E+03  0.86058245959E+03  0.00000000000E+00 0.  1.
         -4   -1    0    0    0  501 -0.00000000000E+00 -0.00000000000E+00 -0.14673351344E+03  0.14673351344E+03  0.00000000000E+00 0. -1.
        -13    1    1    2    0    0  0.12677910889E+03  0.19454723165E+03  0.37707972325E+03  0.44284387389E+03  0.10566000000E+00 0.  1.
         13    1    1    2    0    0 -0.12453743607E+03 -0.14065706500E+03 -0.33040031645E+02  0.19075019731E+03  0.10566000000E+00 0. -1.
         -4    1    1    2    0  502 -0.22416728215E+01 -0.53890166643E+02  0.36980925455E+03  0.37372190183E+03  0.00000000000E+00 0. -1.
</event>
<event>
 5    1  0.2540860E-005  0.3644855E+02  0.7818608E-02  0.1392075E+00
          4   -1    0    0  502    0 -0.00000000000E+00  0.00000000000E+00  0.38617303735E+02  0.38617303735E+02  0.00000000000E+00 0.  1.
         21   -1    0    0  501  502  0.00000000000E+00 -0.00000000000E+00 -0.80706807996E+02  0.80706807996E+02  0.00000000000E+00 0.  1.
        -13    1    1    2    0    0  0.28943144222E+02  0.12675287393E+02 -0.30831444822E+02  0.44147000598E+02  0.10566000000E+00 0.  1.
         13    1    1    2    0    0  0.20384272224E+02 -0.38354699826E+01  0.69240531044E+01  0.21867397182E+02  0.10566000000E+00 0. -1.
          4    1    1    2  501    0 -0.49327416446E+02 -0.88398174100E+01 -0.18182112543E+02  0.53309713951E+02  0.00000000000E+00 0.  1.
</event>
<event>
 5    1  0.2540860E-005  0.4996007E+03  0.7818608E-02  0.9723918E-01
         21   -1    0    0  501  502  0.00000000000E+00  0.00000000000E+00  0.34935021354E+03  0.34935021354E+03  0.00000000000E+00 0.  1.
          4   -1    0    0  502    0 -0.00000000000E+00 -0.00000000000E+00 -0.10825544361E+04  0.10825544361E+04  0.00000000000E+00 0.  1.
        -13    1    1    2    0    0 -0.15292007471E+03  0.47811418233E+03 -0.30044507886E+03  0.58501707426E+03  0.10566000000E+00 0.  1.
         13    1    1    2    0    0  0.20544919017E+03  0.38204490878E+02 -0.12191174142E+03  0.24193271115E+03  0.10566000000E+00 0. -1.
          4    1    1    2  501    0 -0.52529115453E+02 -0.51631867321E+03 -0.31084740232E+03  0.60495486427E+03  0.00000000000E+00 0.  1.
</event>
<event>
 5    1  0.2540860E-005  0.3554888E+03  0.7818608E-02  0.9867216E-01
         21   -1    0    0  501  502  0.00000000000E+00  0.00000000000E+00  0.14925249433E+03  0.14925249433E+03  0.00000000000E+00 0.  1.
          4   -1    0    0  502    0 -0.00000000000E+00 -0.00000000000E+00 -0.15932898556E+04  0.15932898556E+04  0.00000000000E+00 0.  1.
        -13    1    1    2    0    0  0.21746494372E+03  0.30578177491E+03 -0.10603194963E+04  0.11247537246E+04  0.10566000000E+00 0.  1.
         13    1    1    2    0    0 -0.19161377467E+03 -0.25992747575E+03 -0.43668501909E+03  0.54311320032E+03  0.10566000000E+00 0. -1.
          4    1    1    2  501    0 -0.25851169050E+02 -0.45854299163E+02  0.52967154087E+02  0.74675425041E+02  0.00000000000E+00 0.  1.
</event>
<event>
 5    1  0.2540860E-005  0.6024214E+02  0.7818608E-02  0.1254927E+00
          4   -1    0    0  502    0 -0.00000000000E+00  0.00000000000E+00  0.59567741483E+02  0.59567741483E+02  0.00000000000E+00 0.  1.
         21   -1    0    0  501  502  0.00000000000E+00 -0.00000000000E+00 -0.13935999644E+03  0.13935999644E+03  0.00000000000E+00 0.  1.
        -13    1    1    2    0    0 -0.61741831481E+02  0.38180056185E+02  0.19334574379E+02  0.75123946751E+02  0.10566000000E+00 0.  1.
         13    1    1    2    0    0  0.34842522895E+02 -0.16616071682E+02 -0.41709747745E+02  0.56831412623E+02  0.10566000000E+00 0. -1.
          4    1    1    2  501    0  0.26899308586E+02 -0.21563984503E+02 -0.57417081593E+02  0.66972378551E+02  0.00000000000E+00 0.  1.
</event>
<event>
 5    1  0.2540860E-005  0.4465668E+03  0.7818608E-02  0.9603468E-01
         21   -1    0    0  501  502  0.00000000000E+00  0.00000000000E+00  0.29563622383E+03  0.29563622383E+03  0.00000000000E+00 0. -1.
          4   -1    0    0  502    0 -0.00000000000E+00 -0.00000000000E+00 -0.18277262078E+04  0.18277262078E+04  0.00000000000E+00 0.  1.
        -13    1    1    2    0    0 -0.62589757615E+03  0.26429749909E+03 -0.70963600807E+03  0.98243789573E+03  0.10566000000E+00 0.  1.
         13    1    1    2    0    0  0.32497947266E+03 -0.17869205360E+03 -0.72311674561E+03  0.81267480988E+03  0.10566000000E+00 0. -1.
          4    1    1    2  501    0  0.30091810349E+03 -0.85605445495E+02 -0.99337230280E+02  0.32824972601E+03  0.00000000000E+00 0.  1.
</event>
<event>
 5    1  0.2540860E-005  0.2188808E+02  0.7818608E-02  0.1488083E+00
         -4   -1    0    0    0  501 -0.00000000000E+00  0.00000000000E+00  0.99161764252E+02  0.99161764252E+02  0.00000000000E+00 0. -1.
         21   -1    0    0  501  502  0.00000000000E+00 -0.00000000000E+00 -0.25309122519E+02  0.25309122519E+02  0.00000000000E+00 0.  1.
        -13    1    1    2    0    0  0.13312006827E+02  0.28477299204E+02  0.52176847355E+00  0.31439616761E+02  0.10566000000E+00 0.  1.
         13    1    1    2    0    0  0.73490478339E+01 -0.19911929417E+02  0.66256177289E+02  0.69572879990E+02  0.10566000000E+00 0. -1.
         -4    1    1    2    0  502 -0.20661054661E+02 -0.85653697866E+01  0.70746959707E+01  0.23458390020E+02  0.00000000000E+00 0. -1.
</event>
<event>
 5    1  0.2540860E-005  0.3479096E+03  0.7818608E-02  0.9892879E-01
         -4   -1    0    0    0  501 -0.00000000000E+00  0.00000000000E+00  0.23367417499E+04  0.23367417499E+04  0.00000000000E+00 0. -1.
         21   -1    0    0  501  502  0.00000000000E+00 -0.00000000000E+00 -0.19866761112E+03  0.19866761112E+03  0.00000000000E+00 0.  1.
        -13    1    1    2    0    0 -0.22853739614E+03  0.17453594883E+03  0.10065300406E+04  0.10468022127E+04  0.10566000000E+00 0.  1.
         13    1    1    2    0    0  0.48371961456E+03 -0.25699847611E+03  0.10863775277E+04  0.12166548508E+04  0.10566000000E+00 0. -1.
         -4    1    1    2    0  502 -0.25518221841E+03  0.82462527273E+02  0.45166570528E+02  0.27195229746E+03  0.00000000000E+00 0. -1.
</event>
<event>
 5    1  0.2540860E-005  0.4952846E+03  0.7818608E-02  0.9618806E-01
         -4   -1    0    0    0  501 -0.00000000000E+00  0.00000000000E+00  0.30843497449E+04  0.30843497449E+04  0.00000000000E+00 0. -1.
         21   -1    0    0  501  502  0.00000000000E+00 -0.00000000000E+00 -0.14996343981E+03  0.14996343981E+03  0.00000000000E+00 0.  1.
        -13    1    1    2    0    0 -0.25759027314E+03 -0.17244711654E+03  0.84830320558E+03  0.90316615115E+03  0.10566000000E+00 0.  1.
         13    1    1    2    0    0 -0.16374189562E+03 -0.30017959924E+03  0.11596981221E+04  0.12090570482E+04  0.10566000000E+00 0. -1.
         -4    1    1    2    0  502  0.42133216876E+03  0.47262671577E+03  0.92638497736E+03  0.11220899853E+04  0.00000000000E+00 0. -1.
</event>
<event>
 5    1  0.2540860E-005  0.2469885E+03  0.7818608E-02  0.1078372E+00
         -4   -1    0    0    0  501 -0.00000000000E+00  0.00000000000E+00  0.14665000861E+04  0.14665000861E+04  0.00000000000E+00 0. -1.
         21   -1    0    0  501  502  0.00000000000E+00 -0.00000000000E+00 -0.18753285262E+03  0.18753285262E+03  0.00000000000E+00 0. -1.
        -13    1    1    2    0    0  0.57880093530E+02 -0.24756162951E+02  0.13977241206E+03  0.15329485043E+03  0.10566000000E+00 0.  1.
         13    1    1    2    0    0  0.64285303636E+02 -0.19383240499E+03  0.12204940454E+04  0.12374608387E+04  0.10566000000E+00 0. -1.
         -4    1    1    2    0  502 -0.12216539717E+03  0.21858856794E+03 -0.81299223964E+02  0.26327724952E+03  0.00000000000E+00 0. -1.
</event>
<event>
 5    1  0.2540860E-005  0.2492490E+02  0.7818608E-02  0.1453091E+00
         -4   -1    0    0    0  501 -0.00000000000E+00  0.00000000000E+00  0.43911397987E+02  0.43911397987E+02  0.00000000000E+00 0. -1.
         21   -1    0    0  501  502  0.00000000000E+00 -0.00000000000E+00 -0.93697403746E+02  0.93697403746E+02  0.00000000000E+00 0. -1.
        -13    1    1    2    0    0  0.42631820510E+02 -0.19741988910E+02 -0.20730930219E+02  0.51351736854E+02  0.10566000000E+00 0.  1.
         13    1    1    2    0    0 -0.19925158099E+02  0.85123346581E+01  0.20989214038E+02  0.30166704105E+02  0.10566000000E+00 0. -1.
         -4    1    1    2    0  502 -0.22706662411E+02  0.11229654252E+02 -0.50044289578E+02  0.56090360775E+02  0.00000000000E+00 0. -1.
</event>
<event>
 5    1  0.2540860E-005  0.5984716E+02  0.7818608E-02  0.1256192E+00
         -4   -1    0    0    0  501 -0.00000000000E+00  0.00000000000E+00  0.69301368751E+02  0.69301368751E+02  0.00000000000E+00 0. -1.
         21   -1    0    0  501  502  0.00000000000E+00 -0.00000000000E+00 -0.85404542567E+02  0.85404542567E+02  0.00000000000E+00 0.  1.
        -13    1    1    2    0    0  0.49309608836E+02  0.98728542833E+01 -0.42318034460E+02  0.65724713616E+02  0.10566000000E+00 0.  1.
         13    1    1    2    0    0 -0.63102710924E+02 -0.46736346379E+01  0.34502144757E+02  0.72070827271E+02  0.10566000000E+00 0. -1.
         -4    1    1    2    0  502  0.13793102088E+02 -0.51992196453E+01 -0.82872841131E+01  0.16910370431E+02  0.00000000000E+00 0. -1.
</event>
<event>
 5    1  0.2540860E-005  0.4381428E+03  0.7818608E-02  0.1034058E+00
         -4   -1    0    0    0  501 -0.00000000000E+00  0.00000000000E+00  0.13976907426E+03  0.13976907426E+03  0.00000000000E+00 0. -1.
         21   -1    0    0  501  502  0.00000000000E+00 -0.00000000000E+00 -0.20007375490E+04  0.20007375490E+04  0.00000000000E+00 0. -1.
        -13    1    1    2    0    0 -0.50925197258E+01 -0.41176336395E+02 -0.52007070560E+02  0.66529474584E+02  0.10566000000E+00 0.  1.
         13    1    1    2    0    0  0.43834382013E+03  0.40778611381E+02 -0.14371173031E+04  0.15030350474E+04  0.10566000000E+00 0. -1.
         -4    1    1    2    0  502 -0.43325130040E+03  0.39772501399E+00 -0.37184410117E+03  0.57094210132E+03  0.00000000000E+00 0. -1.
</event>
<event>
 5    1  0.2540860E-005  0.5028952E+03  0.7818608E-02  0.1015536E+00
         -4   -1    0    0    0  501 -0.00000000000E+00  0.00000000000E+00  0.21632654212E+03  0.21632654212E+03  0.00000000000E+00 0. -1.
         21   -1    0    0  501  502  0.00000000000E+00 -0.00000000000E+00 -0.16030493179E+04  0.16030493179E+04  0.00000000000E+00 0. -1.
        -13    1    1    2    0    0  0.28782426738E+02  0.39558465025E+02  0.44089548159E+02  0.65857419210E+02  0.10566000000E+00 0.  1.
         13    1    1    2    0    0  0.44037003820E+03 -0.23567590567E+03 -0.80228016247E+03  0.94505151887E+03  0.10566000000E+00 0. -1.
         -4    1    1    2    0  502 -0.46915246494E+03  0.19611744064E+03 -0.62853216147E+03  0.80846692195E+03  0.00000000000E+00 0. -1.
</event>
<event>
 5    1  0.2540860E-005  0.1437694E+03  0.7818608E-02  0.1107424E+00
          4   -1    0    0  502    0 -0.00000000000E+00  0.00000000000E+00  0.25970101813E+03  0.25970101813E+03  0.00000000000E+00 0.  1.
         21   -1    0    0  501  502  0.00000000000E+00 -0.00000000000E+00 -0.18943915307E+03  0.18943915307E+03  0.00000000000E+00 0. -1.
        -13    1    1    2    0    0 -0.42235130593E+02 -0.13436732070E+03  0.16709305676E+03  0.21853714538E+03  0.10566000000E+00 0.  1.
         13    1    1    2    0    0  0.55382488062E+01  0.16273655096E+03 -0.72810047022E+02  0.17836807822E+03  0.10566000000E+00 0. -1.
          4    1    1    2  501    0  0.36696881787E+02 -0.28369230256E+02 -0.24021144682E+02  0.52234947593E+02  0.00000000000E+00 0.  1.
</event>
<event>
 5    1  0.2540860E-005  0.3894074E+03  0.7818608E-02  0.1052344E+00
          4   -1    0    0  502    0 -0.00000000000E+00  0.00000000000E+00  0.18483938709E+03  0.18483938709E+03  0.00000000000E+00 0.  1.
         21   -1    0    0  501  502  0.00000000000E+00 -0.00000000000E+00 -0.11729489115E+04  0.11729489115E+04  0.00000000000E+00 0.  1.
        -13    1    1    2    0    0  0.48267391861E+02 -0.39613809715E+03 -0.78904363594E+03  0.88421999735E+03  0.10566000000E+00 0.  1.
         13    1    1    2    0    0 -0.18209412200E+02  0.28795138624E+02  0.24977633329E+02  0.42244952738E+02  0.10566000000E+00 0. -1.
          4    1    1    2  501    0 -0.30057979661E+02  0.36734295853E+03 -0.22404352183E+03  0.43132334854E+03  0.00000000000E+00 0.  1.
</event>
<event>
 5    1  0.2540860E-005  0.3743262E+03  0.7818608E-02  0.1013151E+00
         21   -1    0    0  501  502  0.00000000000E+00  0.00000000000E+00  0.41758941407E+03  0.41758941407E+03  0.00000000000E+00 0.  1.
          4   -1    0    0  502    0 -0.00000000000E+00 -0.00000000000E+00 -0.11760047276E+04  0.11760047276E+04  0.00000000000E+00 0.  1.
        -13    1    1    2    0    0 -0.34978098059E+03 -0.74689689824E+02  0.20588133085E+03  0.41268925077E+03  0.10566000000E+00 0.  1.
         13    1    1    2    0    0 -0.84292541101E+02 -0.96319509022E+02 -0.52398876793E+03  0.53939495769E+03  0.10566000000E+00 0. -1.
          4    1    1    2  501    0  0.43407352169E+03  0.17100919885E+03 -0.44030787643E+03  0.64150993317E+03  0.00000000000E+00 0.  1.
</event>
<event>
 5    1  0.2540860E-005  0.1178065E+03  0.7818608E-02  0.1150811E+00
         21   -1    0    0  501  502  0.00000000000E+00  0.00000000000E+00  0.39862408134E+02  0.39862408134E+02  0.00000000000E+00 0. -1.
         -4   -1    0    0    0  501 -0.00000000000E+00 -0.00000000000E+00 -0.92802942695E+03  0.92802942695E+03  0.00000000000E+00 0. -1.
        -13    1    1    2    0    0  0.54326635390E+02  0.66156440787E+02 -0.82462255132E+02  0.11886165343E+03  0.10566000000E+00 0.  1.
         13    1    1    2    0    0 -0.15421287216E+03 -0.59300808229E+02 -0.55505156497E+03  0.57912040781E+03  0.10566000000E+00 0. -1.
         -4    1    1    2    0  502  0.99886236772E+02 -0.68556325583E+01 -0.25065319871E+03  0.26990977385E+03  0.00000000000E+00 0. -1.
</event>
<event>
 5    1  0.2540860E-005  0.2855642E+02  0.7818608E-02  0.1446874E+00
         21   -1    0    0  501  502  0.00000000000E+00  0.00000000000E+00  0.31819504071E+03  0.31819504071E+03  0.00000000000E+00 0.  1.
          4   -1    0    0  502    0 -0.00000000000E+00 -0.00000000000E+00 -0.73102326851E+01  0.73102326851E+01  0.00000000000E+00 0.  1.
        -13    1    1    2    0    0 -0.56924898771E+01  0.39426264071E+02  0.69792255833E+02  0.80360468378E+02  0.10566000000E+00 0.  1.
         13    1    1    2    0    0  0.11420395575E+02 -0.13494236458E+02  0.86553193331E+02  0.88340173718E+02  0.10566000000E+00 0. -1.
          4    1    1    2  501    0 -0.57279056983E+01 -0.25932027613E+02  0.15453935886E+03  0.15680463130E+03  0.00000000000E+00 0.  1.
</event>
<event>
 5    1  0.2540860E-005  0.5038938E+03  0.7818608E-02  0.9860297E-01
         -4   -1    0    0    0  501 -0.00000000000E+00  0.00000000000E+00  0.24143219497E+04  0.24143219497E+04  0.00000000000E+00 0. -1.
         21   -1    0    0  501  502  0.00000000000E+00 -0.00000000000E+00 -0.14153216658E+03  0.14153216658E+03  0.00000000000E+00 0. -1.
        -13    1    1    2    0    0  0.11286180346E+03 -0.59885531856E+02  0.44657029663E+03  0.46448800265E+03  0.10566000000E+00 0.  1.
         13    1    1    2    0    0  0.28991936178E+03  0.39779060843E+03  0.83233790219E+03  0.96699379475E+03  0.10566000000E+00 0. -1.
         -4    1    1    2    0  502 -0.40278116525E+03 -0.33790507658E+03  0.99388158427E+03  0.11243723189E+04  0.00000000000E+00 0. -1.
</event>
<event>
 5    1  0.2540860E-005  0.2598144E+03  0.7818608E-02  0.1025429E+00
         -4   -1    0    0    0  501 -0.00000000000E+00  0.00000000000E+00  0.17105132593E+04  0.17105132593E+04  0.00000000000E+00 0. -1.
         21   -1    0    0  501  502  0.00000000000E+00 -0.00000000000E+00 -0.64570610632E+02  0.64570610632E+02  0.00000000000E+00 0.  1.
        -13    1    1    2    0    0 -0.25253049887E+03 -0.33170678077E+02  0.77256571163E+03  0.81346772320E+03  0.10566000000E+00 0.  1.
         13    1    1    2    0    0  0.26065751936E+03  0.46253621784E+02  0.89597649926E+03  0.93426743404E+03  0.10566000000E+00 0. -1.
         -4    1    1    2    0  502 -0.81270204877E+01 -0.13082943708E+02 -0.22599562169E+02  0.27348712736E+02  0.00000000000E+00 0. -1.
</event>
<event>
 5    1  0.2540860E-005  0.4665753E+03  0.7818608E-02  0.9554404E-01
         21   -1    0    0  501  502  0.00000000000E+00  0.00000000000E+00  0.17516760853E+03  0.17516760853E+03  0.00000000000E+00 0. -1.
          4   -1    0    0  502    0 -0.00000000000E+00 -0.00000000000E+00 -0.20065997596E+04  0.20065997596E+04  0.00000000000E+00 0.  1.
        -13    1    1    2    0    0  0.46822987242E+03  0.25518057124E+02 -0.13201312989E+04  0.14009414842E+04  0.10566000000E+00 0.  1.
         13    1    1    2    0    0 -0.46259978467E+03  0.13585241129E+02 -0.55452000340E+03  0.72227111592E+03  0.10566000000E+00 0. -1.
          4    1    1    2  501    0 -0.56300877488E+01 -0.39103298253E+02  0.43219151238E+02  0.58554768005E+02  0.00000000000E+00 0.  1.
</event>
<event>
 5    1  0.2540860E-005  0.1319840E+03  0.7818608E-02  0.1120376E+00
          4   -1    0    0  502    0 -0.00000000000E+00  0.00000000000E+00  0.39136010779E+02  0.39136010779E+02  0.00000000000E+00 0.  1.
         21   -1    0    0  501  502  0.00000000000E+00 -0.00000000000E+00 -0.15906507681E+04  0.15906507681E+04  0.00000000000E+00 0. -1.
        -13    1    1    2    0    0 -0.68720186055E+01  0.13117881354E+03 -0.16617224464E+03  0.21182146211E+03  0.10566000000E+00 0.  1.
         13    1    1    2    0    0  0.13115621659E+03 -0.11768544795E+03 -0.87115899474E+03  0.88880246573E+03  0.10566000000E+00 0. -1.
          4    1    1    2  501    0 -0.12428419799E+03 -0.13493365587E+02 -0.51418351791E+03  0.52916285100E+03  0.00000000000E+00 0.  1.
</event>
<event>
 5    1  0.2540860E-005  0.4927877E+03  0.7818608E-02  0.9775262E-01
          4   -1    0    0  502    0 -0.00000000000E+00  0.00000000000E+00  0.19677905665E+04  0.19677905665E+04  0.00000000000E+00 0.  1.
         21   -1    0    0  501  502  0.00000000000E+00 -0.00000000000E+00 -0.26317380536E+03  0.26317380536E+03  0.00000000000E+00 0.  1.
        -13    1    1    2    0    0  0.21427307686E+03  0.43427674445E+03  0.27145328045E+03  0.55515415595E+03  0.10566000000E+00 0.  1.
         13    1    1    2    0    0  0.16675544488E+03 -0.73963854686E+02  0.93456365837E+03  0.95220127752E+03  0.10566000000E+00 0. -1.
          4    1    1    2  501    0 -0.38102852174E+03 -0.36031288976E+03  0.49859982233E+03  0.72360893841E+03  0.00000000000E+00 0.  1.
</event>
<event>
 5    1  0.2540860E-005  0.3539865E+03  0.7818608E-02  0.9872249E-01
         21   -1    0    0  501  502  0.00000000000E+00  0.00000000000E+00  0.25979709249E+03  0.25979709249E+03  0.00000000000E+00 0. -1.
         -4   -1    0    0    0  501 -0.00000000000E+00 -0.00000000000E+00 -0.22841196093E+04  0.22841196093E+04  0.00000000000E+00 0. -1.
        -13    1    1    2    0    0  0.33342917681E+03 -0.15644277333E+02 -0.11091270986E+04  0.11582671071E+04  0.10566000000E+00 0.  1.
         13    1    1    2    0    0 -0.53701674887E+03 -0.87257995004E+02 -0.11833398365E+03  0.55677992880E+03  0.10566000000E+00 0. -1.
         -4    1    1    2    0  502  0.20358757207E+03  0.10290227234E+03 -0.79686143460E+03  0.82886966593E+03  0.00000000000E+00 0. -1.
</event>
<event>
 5    1  0.2540860E-005  0.4472813E+03  0.7818608E-02  0.9758038E-01
         21   -1    0    0  501  502  0.00000000000E+00  0.00000000000E+00  0.31530827959E+03  0.31530827959E+03  0.00000000000E+00 0.  1.
          4   -1    0    0  502    0 -0.00000000000E+00 -0.00000000000E+00 -0.19950191209E+04  0.19950191209E+04  0.00000000000E+00 0.  1.
        -13    1    1    2    0    0  0.51952537874E+03  0.78750781339E+02 -0.53622519133E+03  0.75076345922E+03  0.10566000000E+00 0.  1.
         13    1    1    2    0    0 -0.17649292079E+03  0.18933086490E+03 -0.10907270569E+04  0.11210180424E+04  0.10566000000E+00 0. -1.
          4    1    1    2  501    0 -0.34303245795E+03 -0.26808164624E+03 -0.52758593024E+02  0.43854589884E+03  0.00000000000E+00 0.  1.
</event>
<event>
 5    1  0.2540860E-005  0.4640632E+03  0.7818608E-02  0.9823521E-01
         -4   -1    0    0    0  501 -0.00000000000E+00  0.00000000000E+00  0.92902499384E+03  0.92902499384E+03  0.00000000000E+00 0. -1.
         21   -1    0    0  501  502  0.00000000000E+00 -0.00000000000E+00 -0.72116586476E+03  0.72116586476E+03  0.00000000000E+00 0. -1.
        -13    1    1    2    0    0 -0.16077271404E+03 -0.92038592197E+02  0.59833504474E+03  0.62635756957E+03  0.10566000000E+00 0.  1.
         13    1    1    2    0    0  0.47144923693E+03  0.29680479851E+03 -0.32815569860E+03  0.64656294753E+03  0.10566000000E+00 0. -1.
         -4    1    1    2    0  502 -0.31067652289E+03 -0.20476620632E+03 -0.62320217048E+02  0.37727034150E+03  0.00000000000E+00 0. -1.
</event>
<event>
 5    1  0.2540860E-005  0.5007410E+03  0.7818608E-02  0.9542318E-01
          4   -1    0    0  502    0 -0.00000000000E+00  0.00000000000E+00  0.18981379661E+04  0.18981379661E+04  0.00000000000E+00 0.  1.
         21   -1    0    0  501  502  0.00000000000E+00 -0.00000000000E+00 -0.31147623653E+03  0.31147623653E+03  0.00000000000E+00 0.  1.
        -13    1    1    2    0    0  0.42442546175E+03 -0.38559265273E+03  0.50690623321E+03  0.76535782929E+03  0.10566000000E+00 0.  1.
         13    1    1    2    0    0 -0.37542677585E+03 -0.12022623513E+03  0.72254346229E+03  0.82308485450E+03  0.10566000000E+00 0. -1.
          4    1    1    2  501    0 -0.48998685900E+02  0.50581888786E+03  0.35721203407E+03  0.62117151884E+03  0.00000000000E+00 0.  1.
</event>
<event>
 5    1  0.2540860E-005  0.1197162E+03  0.7818608E-02  0.1179566E+00
         -4   -1    0    0    0  501 -0.00000000000E+00  0.00000000000E+00  0.43367331043E+03  0.43367331043E+03  0.00000000000E+00 0. -1.
         21   -1    0    0  501  502  0.00000000000E+00 -0.00000000000E+00 -0.78878171321E+02  0.78878171321E+02  0.00000000000E+00 0. -1.
        -13    1    1    2    0    0 -0.29930189574E+01 -0.40622168009E+02  0.21687699738E+03  0.22066889643E+03  0.10566000000E+00 0.  1.
         13    1    1    2    0    0 -0.11417117864E+03  0.46215660145E+02  0.18605416872E+02  0.12456772446E+03  0.10566000000E+00 0. -1.
         -4    1    1    2    0  502  0.11716419760E+03 -0.55934921360E+01  0.11931272486E+03  0.16731486087E+03  0.00000000000E+00 0. -1.
</event>
<event>
 5    1  0.2540860E-005  0.6081344E+03  0.7818608E-02  0.9322190E-01
         -4   -1    0    0    0  501 -0.00000000000E+00  0.00000000000E+00  0.55213600685E+03  0.55213600685E+03  0.00000000000E+00 0. -1.
         21   -1    0    0  501  502  0.00000000000E+00 -0.00000000000E+00 -0.15724087191E+04  0.15724087191E+04  0.00000000000E+00 0.  1.
        -13    1    1    2    0    0  0.42826828819E+03 -0.45833703419E+03 -0.12627611757E+03  0.63986891831E+03  0.10566000000E+00 0.  1.
         13    1    1    2    0    0  0.17850579195E+03  0.49898948698E+03 -0.21164379558E+03  0.57065570465E+03  0.10566000000E+00 0. -1.
         -4    1    1    2    0  502 -0.60677408014E+03 -0.40652452788E+02 -0.68235279910E+03  0.91402010300E+03  0.00000000000E+00 0. -1.
</event>
<event>
 5    1  0.2540860E-005  0.4145623E+03  0.7818608E-02  0.9993198E-01
         21   -1    0    0  501  502  0.00000000000E+00  0.00000000000E+00  0.62762884955E+03  0.62762884955E+03  0.00000000000E+00 0.  1.
          4   -1    0    0  502    0 -0.00000000000E+00 -0.00000000000E+00 -0.74305861055E+03  0.74305861055E+03  0.00000000000E+00 0.  1.
        -13    1    1    2    0    0  0.23352328567E+03 -0.27183458704E+03 -0.23102434690E+03  0.42637944098E+03  0.10566000000E+00 0.  1.
         13    1    1    2    0    0 -0.69015843905E+02 -0.13029206456E+03 -0.30552258465E+03  0.33923925141E+03  0.10566000000E+00 0. -1.
          4    1    1    2  501    0 -0.16450744177E+03  0.40212665161E+03  0.42111717056E+03  0.60506876772E+03  0.00000000000E+00 0.  1.
</event>
<event>
 5    1  0.2540860E-005  0.4764575E+03  0.7818608E-02  0.9680633E-01
         -4   -1    0    0    0  501 -0.00000000000E+00  0.00000000000E+00  0.18641405952E+04  0.18641405952E+04  0.00000000000E+00 0. -1.
         21   -1    0    0  501  502  0.00000000000E+00 -0.00000000000E+00 -0.33203578330E+03  0.33203578330E+03  0.00000000000E+00 0. -1.
        -13    1    1    2    0    0 -0.27688965709E+03  0.42324449243E+02  0.10373535710E+04  0.10745053204E+04  0.10566000000E+00 0.  1.
         13    1    1    2    0    0  0.53656939828E+03  0.26960300619E+03  0.28185443609E+03  0.66335091348E+03  0.10566000000E+00 0. -1.
         -4    1    1    2    0  502 -0.25967974118E+03 -0.31192745543E+03  0.21289680483E+03  0.45832014459E+03  0.00000000000E+00 0. -1.
</event>
<event>
 5    1  0.2540860E-005  0.6083620E+02  0.7818608E-02  0.1253044E+00
         21   -1    0    0  501  502  0.00000000000E+00  0.00000000000E+00  0.46381901846E+02  0.46381901846E+02  0.00000000000E+00 0. -1.
          4   -1    0    0  502    0 -0.00000000000E+00 -0.00000000000E+00 -0.15282174640E+03  0.15282174640E+03  0.00000000000E+00 0.  1.
        -13    1    1    2    0    0  0.60235550429E+02 -0.21324338980E+02 -0.11398118164E+03  0.13067046300E+03  0.10566000000E+00 0.  1.
         13    1    1    2    0    0 -0.43686016525E+02  0.23766345582E+02  0.12122321850E+02  0.51188563891E+02  0.10566000000E+00 0. -1.
          4    1    1    2  501    0 -0.16549533904E+02 -0.24420066016E+01 -0.45809847669E+01  0.17344621360E+02  0.00000000000E+00 0.  1.
</event>
<event>
 5    1  0.2540860E-005  0.2346038E+03  0.7818608E-02  0.1038695E+00
         21   -1    0    0  501  502  0.00000000000E+00  0.00000000000E+00  0.48915185925E+02  0.48915185925E+02  0.00000000000E+00 0. -1.
          4   -1    0    0  502    0 -0.00000000000E+00 -0.00000000000E+00 -0.15364441276E+04  0.15364441276E+04  0.00000000000E+00 0.  1.
        -13    1    1    2    0    0  0.66458595566E+02  0.23628009095E+03 -0.44168421749E+03  0.50530187557E+03  0.10566000000E+00 0.  1.
         13    1    1    2    0    0 -0.77738774320E+02 -0.21688409136E+03 -0.10206016109E+04  0.10462837500E+04  0.10566000000E+00 0. -1.
          4    1    1    2  501    0  0.11280178754E+02 -0.19395999592E+02 -0.25243113322E+02  0.33773688029E+02  0.00000000000E+00 0.  1.
</event>
<event>
 5    1  0.2540860E-005  0.5249324E+03  0.7818608E-02  0.9424938E-01
         21   -1    0    0  501  502  0.00000000000E+00  0.00000000000E+00  0.30178296007E+03  0.30178296007E+03  0.00000000000E+00 0.  1.
          4   -1    0    0  502    0 -0.00000000000E+00 -0.00000000000E+00 -0.22713812776E+04  0.22713812776E+04  0.00000000000E+00 0.  1.
        -13    1    1    2    0    0  0.46893357508E+03 -0.35503450434E+03 -0.12408004158E+04  0.13731474357E+04  0.10566000000E+00 0.  1.
         13    1    1    2    0    0 -0.51406055786E+03 -0.42119504747E+02 -0.57318085747E+03  0.77108275585E+03  0.10566000000E+00 0. -1.
          4    1    1    2  501    0  0.45126982781E+02  0.39715400909E+03 -0.15561704433E+03  0.42893404621E+03  0.00000000000E+00 0.  1.
</event>
<event>
 5    1  0.2540860E-005  0.4245830E+03  0.7818608E-02  0.1032977E+00
         -4   -1    0    0    0  501 -0.00000000000E+00  0.00000000000E+00  0.13370281578E+03  0.13370281578E+03  0.00000000000E+00 0. -1.
         21   -1    0    0  501  502  0.00000000000E+00 -0.00000000000E+00 -0.20574785571E+04  0.20574785571E+04  0.00000000000E+00 0. -1.
        -13    1    1    2    0    0 -0.37010300010E+02 -0.29181755117E+02 -0.88694790156E+02  0.10043960426E+03  0.10566000000E+00 0.  1.
         13    1    1    2    0    0  0.31496122901E+03 -0.28720937886E+03 -0.14791342669E+04  0.15393271237E+04  0.10566000000E+00 0. -1.
         -4    1    1    2    0  502 -0.27795092900E+03  0.31639113397E+03 -0.35594668426E+03  0.55141464492E+03  0.00000000000E+00 0. -1.
</event>
<event>
 5    1  0.2540860E-005  0.1400802E+03  0.7818608E-02  0.1136610E+00
         21   -1    0    0  501  502  0.00000000000E+00  0.00000000000E+00  0.26331956761E+03  0.26331956761E+03  0.00000000000E+00 0. -1.
         -4   -1    0    0    0  501 -0.00000000000E+00 -0.00000000000E+00 -0.13071061928E+03  0.13071061928E+03  0.00000000000E+00 0. -1.
        -13    1    1    2    0    0 -0.52330152376E+01  0.72492542175E+02  0.48476605510E+02  0.87364441080E+02  0.10566000000E+00 0.  1.
         13    1    1    2    0    0  0.10630271195E+03 -0.12269609001E+03  0.10298368380E+03  0.19225048080E+03  0.10566000000E+00 0. -1.
         -4    1    1    2    0  502 -0.10106969672E+03  0.50203547839E+02 -0.18851340989E+02  0.11441526501E+03  0.00000000000E+00 0. -1.
</event>
<event>
 5    1  0.2540860E-005  0.5900457E+03  0.7818608E-02  0.9299848E-01
         -4   -1    0    0    0  501 -0.00000000000E+00  0.00000000000E+00  0.89085932538E+03  0.89085932538E+03  0.00000000000E+00 0. -1.
         21   -1    0    0  501  502  0.00000000000E+00 -0.00000000000E+00 -0.77447311595E+03  0.77447311595E+03  0.00000000000E+00 0.  1.
        -13    1    1    2    0    0  0.24385858174E+03 -0.42812367391E+03 -0.15900771140E+03  0.51772613561E+03  0.10566000000E+00 0.  1.
         13    1    1    2    0    0  0.47939794089E+02  0.70668114046E+03  0.21117804873E+03  0.73911611914E+03  0.10566000000E+00 0. -1.
         -4    1    1    2    0  502 -0.29179837583E+03 -0.27855746655E+03  0.64215872096E+02  0.40849018658E+03  0.00000000000E+00 0. -1.
</event>
<event>
 5    1  0.2540860E-005  0.4919671E+03  0.7818608E-02  0.9654832E-01
         21   -1    0    0  501  502  0.00000000000E+00  0.00000000000E+00  0.58147165539E+03  0.58147165539E+03  0.00000000000E+00 0. -1.
         -4   -1    0    0    0  501 -0.00000000000E+00 -0.00000000000E+00 -0.11944727808E+04  0.11944727808E+04  0.00000000000E+00 0. -1.
        -13    1    1    2    0    0 -0.10088299447E+03  0.25962018092E+03 -0.68645453678E+03  0.74081027203E+03  0.10566000000E+00 0.  1.
         13    1    1    2    0    0  0.92607919819E+02 -0.63918449689E+03  0.10431110879E+03  0.65422768702E+03  0.10566000000E+00 0. -1.
         -4    1    1    2    0  502  0.82750746513E+01  0.37956431597E+03 -0.30857697381E+02  0.38090647711E+03  0.00000000000E+00 0. -1.
</event>
<event>
 5    1  0.2540860E-005  0.2764413E+03  0.7818608E-02  0.1017533E+00
          4   -1    0    0  502    0 -0.00000000000E+00  0.00000000000E+00  0.42241949161E+03  0.42241949161E+03  0.00000000000E+00 0.  1.
         21   -1    0    0  501  502  0.00000000000E+00 -0.00000000000E+00 -0.37911884921E+03  0.37911884921E+03  0.00000000000E+00 0.  1.
        -13    1    1    2    0    0  0.83802369304E+02  0.25725332761E+03 -0.58092368444E+02  0.27672521768E+03  0.10566000000E+00 0.  1.
         13    1    1    2    0    0 -0.71739685044E+02 -0.26934425741E+03  0.25048416494E+03  0.37474690053E+03  0.10566000000E+00 0. -1.
          4    1    1    2  501    0 -0.12062684259E+02  0.12090929798E+02 -0.14909115410E+03  0.15006622260E+03  0.00000000000E+00 0.  1.
</event>
<event>
 5    1  0.2540860E-005  0.1599377E+03  0.7818608E-02  0.1091704E+00
         -4   -1    0    0    0  501 -0.00000000000E+00  0.00000000000E+00  0.39689801720E+03  0.39689801720E+03  0.00000000000E+00 0. -1.
         21   -1    0    0  501  502  0.00000000000E+00 -0.00000000000E+00 -0.37498584573E+03  0.37498584573E+03  0.00000000000E+00 0.  1.
        -13    1    1    2    0    0 -0.19932429895E+03 -0.96648931786E+02 -0.11461440443E+03  0.24941464479E+03  0.10566000000E+00 0.  1.
         13    1    1    2    0    0  0.56235140935E+02  0.14864536423E+03  0.27438222760E+03  0.31708587697E+03  0.10566000000E+00 0. -1.
         -4    1    1    2    0  502  0.14308915802E+03 -0.51996432449E+02 -0.13785565170E+03  0.20538334118E+03  0.00000000000E+00 0. -1.
</event>
<event>
 5    1  0.2540860E-005  0.2468348E+03  0.7818608E-02  0.1032046E+00
         21   -1    0    0  501  502  0.00000000000E+00  0.00000000000E+00  0.12453371532E+03  0.12453371532E+03  0.00000000000E+00 0. -1.
         -4   -1    0    0    0  501 -0.00000000000E+00 -0.00000000000E+00 -0.10081207076E+04  0.10081207076E+04  0.00000000000E+00 0. -1.
        -13    1    1    2    0    0 -0.49204582701E+02 -0.22535618393E+03 -0.45207236447E+03  0.50751939320E+03  0.10566000000E+00 0.  1.
         13    1    1    2    0    0 -0.59796205004E+02  0.28185461588E+03 -0.40902513011E+03  0.50031907704E+03  0.10566000000E+00 0. -1.
         -4    1    1    2    0  502  0.10900078770E+03 -0.56498431946E+02 -0.22489497695E+02  0.12481595266E+03  0.00000000000E+00 0. -1.
</event>
<event>
 5    1  0.2540860E-005  0.1584605E+03  0.7818608E-02  0.1093055E+00
          4   -1    0    0  502    0 -0.00000000000E+00  0.00000000000E+00  0.15570384968E+03  0.15570384968E+03  0.00000000000E+00 0.  1.
         21   -1    0    0  501  502  0.00000000000E+00 -0.00000000000E+00 -0.19309103751E+03  0.19309103751E+03  0.00000000000E+00 0. -1.
        -13    1    1    2    0    0  0.53341775383E+02 -0.15326290321E+03 -0.75101850980E+01  0.16245392130E+03  0.10566000000E+00 0.  1.
         13    1    1    2    0    0 -0.27803603211E+02  0.15309047043E+03 -0.13895694590E+02  0.15621406461E+03  0.10566000000E+00 0. -1.
          4    1    1    2  501    0 -0.25538172172E+02  0.17243277312E+00 -0.15981308141E+02  0.30126901282E+02  0.00000000000E+00 0.  1.
</event>
<event>
 5    1  0.2540860E-005  0.7460587E+02  0.7818608E-02  0.1215137E+00
         21   -1    0    0  501  502  0.00000000000E+00  0.00000000000E+00  0.45525342182E+02  0.45525342182E+02  0.00000000000E+00 0.  1.
          4   -1    0    0  502    0 -0.00000000000E+00 -0.00000000000E+00 -0.48789402222E+03  0.48789402222E+03  0.00000000000E+00 0.  1.
        -13    1    1    2    0    0 -0.41978293580E+02  0.59595731314E+02 -0.40244178680E+03  0.40899050264E+03  0.10566000000E+00 0.  1.
         13    1    1    2    0    0  0.62866463182E+02 -0.63964476886E+02 -0.47865398063E+02  0.10165999209E+03  0.10566000000E+00 0. -1.
          4    1    1    2  501    0 -0.20888169602E+02  0.43687455717E+01  0.79385048257E+01  0.22768869670E+02  0.00000000000E+00 0.  1.
</event>
<event>
 5    1  0.2540860E-005  0.2374110E+02  0.7818608E-02  0.1488370E+00
         21   -1    0    0  501  502  0.00000000000E+00  0.00000000000E+00  0.28775148219E+03  0.28775148219E+03  0.00000000000E+00 0.  1.
          4   -1    0    0  502    0 -0.00000000000E+00 -0.00000000000E+00 -0.49448762879E+01  0.49448762879E+01  0.00000000000E+00 0.  1.
        -13    1    1    2    0    0  0.18153585235E+02 -0.55661251526E+01  0.85052811145E+02  0.87146579128E+02  0.10566000000E+00 0.  1.
         13    1    1    2    0    0  0.53300593269E+01 -0.15464135535E+02  0.24547356283E+02  0.29498014930E+02  0.10566000000E+00 0. -1.
          4    1    1    2  501    0 -0.23483644562E+02  0.21030260687E+02  0.17320643847E+03  0.17605176442E+03  0.00000000000E+00 0.  1.
</event>
<event>
 5    1  0.2540860E-005  0.6311281E+03  0.7818608E-02  0.9229362E-01
         21   -1    0    0  501  502  0.00000000000E+00  0.00000000000E+00  0.48390243670E+03  0.48390243670E+03  0.00000000000E+00 0.  1.
         -4   -1    0    0    0  501 -0.00000000000E+00 -0.00000000000E+00 -0.18617239042E+04  0.18617239042E+04  0.00000000000E+00 0. -1.
        -13    1    1    2    0    0 -0.36474152764E+03  0.53157237961E+03 -0.80653724513E+03  0.10325250194E+04  0.10566000000E+00 0.  1.
         13    1    1    2    0    0  0.67639990203E+03 -0.20624616767E+03 -0.21616041995E+03  0.73944549999E+03  0.10566000000E+00 0. -1.
         -4    1    1    2    0  502 -0.31165837439E+03 -0.32532621194E+03 -0.35512380240E+03  0.57365582149E+03  0.00000000000E+00 0. -1.
</event>
<event>
 5    1  0.2540860E-005  0.4900102E+03  0.7818608E-02  0.9869679E-01
         21   -1    0    0  501  502  0.00000000000E+00  0.00000000000E+00  0.93905178326E+03  0.93905178326E+03  0.00000000000E+00 0. -1.
         -4   -1    0    0    0  501 -0.00000000000E+00 -0.00000000000E+00 -0.41436635436E+03  0.41436635436E+03  0.00000000000E+00 0. -1.
        -13    1    1    2    0    0  0.12217597839E+03  0.56513246698E+02 -0.11354202739E+03  0.17610371914E+03  0.10566000000E+00 0.  1.
         13    1    1    2    0    0 -0.44938609446E+03 -0.32859224825E+03  0.43067009816E+03  0.70384477842E+03  0.10566000000E+00 0. -1.
         -4    1    1    2    0  502  0.32721011606E+03  0.27207900155E+03  0.20755735813E+03  0.47346964005E+03  0.00000000000E+00 0. -1.
</event>
<event>
 5    1  0.2540860E-005  0.4969333E+03  0.7818608E-02  0.9836390E-01
         21   -1    0    0  501  502  0.00000000000E+00  0.00000000000E+00  0.11212492530E+04  0.11212492530E+04  0.00000000000E+00 0.  1.
          4   -1    0    0  502    0 -0.00000000000E+00 -0.00000000000E+00 -0.73832331376E+03  0.73832331376E+03  0.00000000000E+00 0.  1.
        -13    1    1    2    0    0 -0.21528806036E+03  0.54621938598E+03  0.41970892501E+03  0.72170642192E+03  0.10566000000E+00 0.  1.
         13    1    1    2    0    0  0.49832121152E+02 -0.13555420383E+03 -0.48607976892E+03  0.50708158653E+03  0.10566000000E+00 0. -1.
          4    1    1    2  501    0  0.16545593920E+03 -0.41066518215E+03  0.44929678312E+03  0.63078455829E+03  0.00000000000E+00 0.  1.
</event>
<event>
 5    1  0.2540860E-005  0.5002561E+03  0.7818608E-02  0.9607502E-01
         -4   -1    0    0    0  501 -0.00000000000E+00  0.00000000000E+00  0.67283941740E+03  0.67283941740E+03  0.00000000000E+00 0. -1.
         21   -1    0    0  501  502  0.00000000000E+00 -0.00000000000E+00 -0.70348971437E+03  0.70348971437E+03  0.00000000000E+00 0. -1.
        -13    1    1    2    0    0  0.19015574050E+03 -0.24879675126E+03  0.69882638082E+02  0.32084672875E+03  0.10566000000E+00 0.  1.
         13    1    1    2    0    0 -0.14234821552E+03 -0.38158905535E+03  0.35489512461E+02  0.40881871078E+03  0.10566000000E+00 0. -1.
         -4    1    1    2    0  502 -0.47807524984E+02  0.63038580661E+03 -0.13602244751E+03  0.64666369223E+03  0.00000000000E+00 0. -1.
</event>
<event>
 5    1  0.2540860E-005  0.1272834E+03  0.7818608E-02  0.1125957E+00
         -4   -1    0    0    0  501 -0.00000000000E+00  0.00000000000E+00  0.40208464791E+03  0.40208464791E+03  0.00000000000E+00 0. -1.
         21   -1    0    0  501  502  0.00000000000E+00 -0.00000000000E+00 -0.11390299644E+03  0.11390299644E+03  0.00000000000E+00 0. -1.
        -13    1    1    2    0    0 -0.96584184924E+02 -0.76204478904E+02  0.17489905018E+03  0.21383478739E+03  0.10566000000E+00 0.  1.
         13    1    1    2    0    0  0.10021615707E+03  0.85794166818E+02  0.18637707042E+03  0.22834259510E+03  0.10566000000E+00 0. -1.
         -4    1    1    2    0  502 -0.36319721425E+01 -0.95896879141E+01 -0.73094469135E+02  0.73810261848E+02  0.00000000000E+00 0. -1.
</event>
<event>
 5    1  0.2540860E-005  0.5197825E+03  0.7818608E-02  0.9815566E-01
         21   -1    0    0  501  502  0.00000000000E+00  0.00000000000E+00  0.42771922439E+03  0.42771922439E+03  0.00000000000E+00 0. -1.
         -4   -1    0    0    0  501 -0.00000000000E+00 -0.00000000000E+00 -0.11123765162E+04  0.11123765162E+04  0.00000000000E+00 0. -1.
        -13    1    1    2    0    0 -0.67776027796E+01  0.13528131491E+03 -0.44323118857E+03  0.46346614521E+03  0.10566000000E+00 0.  1.
         13    1    1    2    0    0 -0.31480173523E+02  0.44820140508E+03 -0.19580360972E+03  0.49011688972E+03  0.10566000000E+00 0. -1.
         -4    1    1    2    0  502  0.38257776303E+02 -0.58348271999E+03 -0.45622493517E+02  0.58651270565E+03  0.00000000000E+00 0. -1.
</event>
<event>
 5    1  0.2540860E-005  0.2437987E+02  0.7818608E-02  0.1481877E+00
         -4   -1    0    0    0  501 -0.00000000000E+00  0.00000000000E+00  0.12289367710E+02  0.12289367710E+02  0.00000000000E+00 0. -1.
         21   -1    0    0  501  502  0.00000000000E+00 -0.00000000000E+00 -0.10764355887E+03  0.10764355887E+03  0.00000000000E+00 0. -1.
        -13    1    1    2    0    0  0.16526782911E+02 -0.18966022852E+01 -0.15814991189E+02  0.22953360625E+02  0.10566000000E+00 0.  1.
         13    1    1    2    0    0 -0.31540618558E+02  0.15170423471E+02 -0.44503787136E+02  0.56617582082E+02  0.10566000000E+00 0. -1.
         -4    1    1    2    0  502  0.15013835647E+02 -0.13273821185E+02 -0.35035412834E+02  0.40361983873E+02  0.00000000000E+00 0. -1.
</event>
<event>
 5    1  0.2540860E-005  0.4222260E+02  0.7818608E-02  0.1327157E+00
         21   -1    0    0  501  502  0.00000000000E+00  0.00000000000E+00  0.80557597166E+02  0.80557597166E+02  0.00000000000E+00 0.  1.
          4   -1    0    0  502    0 -0.00000000000E+00 -0.00000000000E+00 -0.23014441706E+03  0.23014441706E+03  0.00000000000E+00 0.  1.
        -13    1    1    2    0    0 -0.36885417255E+02 -0.31701808200E+02 -0.10885189689E+03  0.11922367747E+03  0.10566000000E+00 0.  1.
         13    1    1    2    0    0  0.40978160268E+02  0.38705693093E+01 -0.10960812981E+03  0.11708178428E+03  0.10566000000E+00 0. -1.
          4    1    1    2  501    0 -0.40927430123E+01  0.27831238891E+02  0.68873206808E+02  0.74396552471E+02  0.00000000000E+00 0.  1.
</event>
<event>
 5    1  0.2540860E-005  0.3280786E+03  0.7818608E-02  0.9963458E-01
         21   -1    0    0  501  502  0.00000000000E+00  0.00000000000E+00  0.89475255646E+03  0.89475255646E+03  0.00000000000E+00 0.  1.
          4   -1    0    0  502    0 -0.00000000000E+00 -0.00000000000E+00 -0.27307816063E+03  0.27307816063E+03  0.00000000000E+00 0.  1.
        -13    1    1    2    0    0  0.31858952395E+03  0.53969878953E+02 -0.91677022176E+02  0.33588200334E+03  0.10566000000E+00 0.  1.
         13    1    1    2    0    0 -0.34131148331E+03 -0.76256920242E+02  0.46640624967E+03  0.58296093130E+03  0.10566000000E+00 0. -1.
          4    1    1    2  501    0  0.22721959358E+02  0.22287041289E+02  0.24694516833E+03  0.24898778245E+03  0.00000000000E+00 0.  1.
</event>
<event>
 5    1  0.2540860E-005  0.3891756E+03  0.7818608E-02  0.9882928E-01
         21   -1    0    0  501  502  0.00000000000E+00  0.00000000000E+00  0.48722277593E+03  0.48722277593E+03  0.00000000000E+00 0.  1.
          4   -1    0    0  502    0 -0.00000000000E+00 -0.00000000000E+00 -0.86745512641E+03  0.86745512641E+03  0.00000000000E+00 0.  1.
        -13    1    1    2    0    0  0.13578586805E+03 -0.16699318841E+03 -0.56170754021E+03  0.60153129498E+03  0.10566000000E+00 0.  1.
         13    1    1    2    0    0 -0.38583362873E+02 -0.25408086338E+03 -0.51643523336E+02  0.26213131383E+03  0.10566000000E+00 0. -1.
          4    1    1    2  501    0 -0.97202505176E+02  0.42107405179E+03  0.23311871306E+03  0.49101529353E+03  0.00000000000E+00 0.  1.
</event>
<event>
 5    1  0.2540860E-005  0.7224640E+03  0.7818608E-02  0.9091013E-01
          4   -1    0    0  502    0 -0.00000000000E+00  0.00000000000E+00  0.36386063318E+04  0.36386063318E+04  0.00000000000E+00 0.  1.
         21   -1    0    0  501  502  0.00000000000E+00 -0.00000000000E+00 -0.17181275451E+04  0.17181275451E+04  0.00000000000E+00 0. -1.
        -13    1    1    2    0    0 -0.50485769388E+02  0.93252861576E+03 -0.10786014879E+04  0.14267233835E+04  0.10566000000E+00 0.  1.
         13    1    1    2    0    0 -0.14962698346E+03 -0.70125594614E+03  0.33721872523E+04  0.34475781372E+04  0.10566000000E+00 0. -1.
          4    1    1    2  501    0  0.20011275285E+03 -0.23127266961E+03 -0.37310697762E+03  0.48243235621E+03  0.00000000000E+00 0.  1.
</event>
<event>
 5    1  0.2540860E-005  0.9214455E+02  0.7818608E-02  0.1194102E+00
          4   -1    0    0  502    0 -0.00000000000E+00  0.00000000000E+00  0.58251141349E+03  0.58251141349E+03  0.00000000000E+00 0.  1.
         21   -1    0    0  501  502  0.00000000000E+00 -0.00000000000E+00 -0.31340365837E+02  0.31340365837E+02  0.00000000000E+00 0.  1.
        -13    1    1    2    0    0 -0.99186219728E+02  0.86028237682E+02  0.22138306996E+03  0.25738927462E+03  0.10566000000E+00 0.  1.
         13    1    1    2    0    0  0.53699269564E+02 -0.34252086557E+02  0.19395786121E+03  0.20414818166E+03  0.10566000000E+00 0. -1.
          4    1    1    2  501    0  0.45486950164E+02 -0.51776151125E+02  0.13583011649E+03  0.15231432305E+03  0.00000000000E+00 0.  1.
</event>
<event>
 5    1  0.2540860E-005  0.4713247E+03  0.7818608E-02  0.9678100E-01
         21   -1    0    0  501  502  0.00000000000E+00  0.00000000000E+00  0.23711608833E+03  0.23711608833E+03  0.00000000000E+00 0. -1.
         -4   -1    0    0    0  501 -0.00000000000E+00 -0.00000000000E+00 -0.18367375522E+04  0.18367375522E+04  0.00000000000E+00 0. -1.
        -13    1    1    2    0    0  0.70086398145E+02  0.28339366497E+03 -0.43457050359E+03  0.52352230736E+03  0.10566000000E+00 0.  1.
         13    1    1    2    0    0 -0.32380930034E+03 -0.56034930255E+03 -0.74410793193E+03  0.98617464446E+03  0.10566000000E+00 0. -1.
         -4    1    1    2    0  502  0.25372290220E+03  0.27695563758E+03 -0.42094302832E+03  0.56415668867E+03  0.00000000000E+00 0. -1.
</event>
<event>
 5    1  0.2540860E-005  0.4141263E+03  0.7818608E-02  0.9986031E-01
         21   -1    0    0  501  502  0.00000000000E+00  0.00000000000E+00  0.17423188620E+03  0.17423188620E+03  0.00000000000E+00 0. -1.
         -4   -1    0    0    0  501 -0.00000000000E+00 -0.00000000000E+00 -0.19641110761E+04  0.19641110761E+04  0.00000000000E+00 0. -1.
        -13    1    1    2    0    0 -0.39098939499E+02  0.14629658810E+03 -0.20509039867E+03  0.25493823086E+03  0.10566000000E+00 0.  1.
         13    1    1    2    0    0  0.42256730908E+03 -0.29731305686E+02 -0.25479956379E+03  0.49433785017E+03  0.10566000000E+00 0. -1.
         -4    1    1    2    0  502 -0.38346836959E+03 -0.11656528242E+03 -0.13299892274E+04  0.13890668813E+04  0.00000000000E+00 0. -1.
</event>
<event>
 5    1  0.2540860E-005  0.2803269E+03  0.7818608E-02  0.1015773E+00
         21   -1    0    0  501  502  0.00000000000E+00  0.00000000000E+00  0.64012650144E+02  0.64012650144E+02  0.00000000000E+00 0. -1.
          4   -1    0    0  502    0 -0.00000000000E+00 -0.00000000000E+00 -0.20173283858E+04  0.20173283858E+04  0.00000000000E+00 0.  1.
        -13    1    1    2    0    0  0.31224230383E+03  0.66159260636E+02 -0.63643277369E+03  0.71198243704E+03  0.10566000000E+00 0.  1.
         13    1    1    2    0    0 -0.24694878243E+03 -0.10087139304E+03 -0.12121238053E+04  0.12411296748E+04  0.10566000000E+00 0. -1.
          4    1    1    2  501    0 -0.65293521405E+02  0.34712132405E+02 -0.10475915661E+03  0.12822892407E+03  0.00000000000E+00 0.  1.
</event>
<event>
 5    1  0.2540860E-005  0.2228244E+03  0.7818608E-02  0.1063393E+00
         21   -1    0    0  501  502  0.00000000000E+00  0.00000000000E+00  0.33593318085E+03  0.33593318085E+03  0.00000000000E+00 0. -1.
         -4   -1    0    0    0  501 -0.00000000000E+00 -0.00000000000E+00 -0.98757118831E+03  0.98757118831E+03  0.00000000000E+00 0. -1.
        -13    1    1    2    0    0 -0.11434703506E+03  0.65035537014E+02  0.16019589303E+02  0.13251982458E+03  0.10566000000E+00 0.  1.
         13    1    1    2    0    0  0.32175631912E+03  0.16598633391E+01 -0.84874191911E+03  0.90768537526E+03  0.10566000000E+00 0. -1.
         -4    1    1    2    0  502 -0.20740928406E+03 -0.66695400353E+02  0.18108432235E+03  0.28329916933E+03  0.00000000000E+00 0. -1.
</event>
<event>
 5    1  0.2540860E-005  0.3810068E+03  0.7818608E-02  0.9785559E-01
         21   -1    0    0  501  502  0.00000000000E+00  0.00000000000E+00  0.47773197258E+03  0.47773197258E+03  0.00000000000E+00 0.  1.
          4   -1    0    0  502    0 -0.00000000000E+00 -0.00000000000E+00 -0.13066116063E+04  0.13066116063E+04  0.00000000000E+00 0.  1.
        -13    1    1    2    0    0 -0.24602731140E+03  0.43794168676E+03  0.20152021866E+03  0.54123263820E+03  0.10566000000E+00 0.  1.
         13    1    1    2    0    0 -0.65038071656E+02 -0.37148288898E+03 -0.57361265236E+03  0.68648450360E+03  0.10566000000E+00 0. -1.
          4    1    1    2  501    0  0.31106538306E+03 -0.66458797776E+02 -0.45678719998E+03  0.55662643704E+03  0.00000000000E+00 0.  1.
</event>
<event>
 5    1  0.2540860E-005  0.4525795E+03  0.7818608E-02  0.1000442E+00
         21   -1    0    0  501  502  0.00000000000E+00  0.00000000000E+00  0.26081184680E+03  0.26081184680E+03  0.00000000000E+00 0.  1.
          4   -1    0    0  502    0 -0.00000000000E+00 -0.00000000000E+00 -0.14418228773E+04  0.14418228773E+04  0.00000000000E+00 0.  1.
        -13    1    1    2    0    0 -0.89164189651E+02 -0.40942838429E+03 -0.14708966531E+03  0.44409147186E+03  0.10566000000E+00 0.  1.
         13    1    1    2    0    0 -0.41286001855E+02 -0.10112416851E+03 -0.48687555331E+03  0.49897740128E+03  0.10566000000E+00 0. -1.
          4    1    1    2  501    0  0.13045019151E+03  0.51055255280E+03 -0.54704581185E+03  0.75956585093E+03  0.00000000000E+00 0.  1.
</event>
<event>
 5    1  0.2540860E-005  0.3913369E+03  0.7818608E-02  0.9790255E-01
         21   -1    0    0  501  502  0.00000000000E+00  0.00000000000E+00  0.14303862943E+03  0.14303862943E+03  0.00000000000E+00 0.  1.
          4   -1    0    0  502    0 -0.00000000000E+00 -0.00000000000E+00 -0.37976009396E+04  0.37976009396E+04  0.00000000000E+00 0.  1.
        -13    1    1    2    0    0 -0.26045839423E+03  0.16118302811E+03 -0.16163758055E+04  0.16451411184E+04  0.10566000000E+00 0.  1.
         13    1    1    2    0    0  0.20808308390E+03  0.27646053309E+03 -0.17134101897E+04  0.17479998529E+04  0.10566000000E+00 0. -1.
          4    1    1    2  501    0  0.52375310328E+02 -0.43764356120E+03 -0.32477631487E+03  0.54749859771E+03  0.00000000000E+00 0.  1.
</event>
<event>
 5    1  0.2540860E-005  0.4816083E+03  0.7818608E-02  0.9574579E-01
         21   -1    0    0  501  502  0.00000000000E+00  0.00000000000E+00  0.24901402483E+04  0.24901402483E+04  0.00000000000E+00 0.  1.
         -4   -1    0    0    0  501 -0.00000000000E+00 -0.00000000000E+00 -0.28842575833E+03  0.28842575833E+03  0.00000000000E+00 0. -1.
        -13    1    1    2    0    0  0.46333673745E+03  0.26149776539E+03  0.48303672464E+03  0.71860037718E+03  0.10566000000E+00 0.  1.
         13    1    1    2    0    0 -0.16529860450E+03  0.36721269900E+03  0.89719186959E+03  0.98342364064E+03  0.10566000000E+00 0. -1.
         -4    1    1    2    0  502 -0.29803813295E+03 -0.62871046439E+03  0.82148589571E+03  0.10765419888E+04  0.00000000000E+00 0. -1.
</event>
<event>
 5    1  0.2540860E-005  0.4583614E+03  0.7818608E-02  0.9622051E-01
         -4   -1    0    0    0  501 -0.00000000000E+00  0.00000000000E+00  0.15811917736E+04  0.15811917736E+04  0.00000000000E+00 0. -1.
         21   -1    0    0  501  502  0.00000000000E+00 -0.00000000000E+00 -0.35474436882E+03  0.35474436882E+03  0.00000000000E+00 0.  1.
        -13    1    1    2    0    0  0.28499338118E+03  0.26126050492E+03  0.13369779683E+03  0.40908848773E+03  0.10566000000E+00 0.  1.
         13    1    1    2    0    0  0.57831696789E+02  0.19956255221E+03  0.89592409096E+03  0.91970087818E+03  0.10566000000E+00 0. -1.
         -4    1    1    2    0  502 -0.34282507797E+03 -0.46082305714E+03  0.19682551698E+03  0.60714677650E+03  0.00000000000E+00 0. -1.
</event>
<event>
 5    1  0.2540860E-005  0.2116983E+03  0.7818608E-02  0.1052399E+00
         21   -1    0    0  501  502  0.00000000000E+00  0.00000000000E+00  0.12360450888E+04  0.12360450888E+04  0.00000000000E+00 0. -1.
         -4   -1    0    0    0  501 -0.00000000000E+00 -0.00000000000E+00 -0.37699594277E+03  0.37699594277E+03  0.00000000000E+00 0. -1.
        -13    1    1    2    0    0  0.17400455983E+03 -0.16653492170E+03  0.44832897308E+03  0.50893059080E+03  0.10566000000E+00 0.  1.
         13    1    1    2    0    0 -0.18299497061E+03  0.10344753179E+03 -0.31330237693E+03  0.37728893657E+03  0.10566000000E+00 0. -1.
         -4    1    1    2    0  502  0.89904107859E+01  0.63087389913E+02  0.72402254988E+03  0.72682150421E+03  0.00000000000E+00 0. -1.
</event>
<event>
 5    1  0.2540860E-005  0.4689858E+03  0.7818608E-02  0.9681859E-01
         21   -1    0    0  501  502  0.00000000000E+00  0.00000000000E+00  0.46787008447E+03  0.46787008447E+03  0.00000000000E+00 0. -1.
         -4   -1    0    0    0  501 -0.00000000000E+00 -0.00000000000E+00 -0.10948714811E+04  0.10948714811E+04  0.00000000000E+00 0. -1.
        -13    1    1    2    0    0 -0.28367642173E+03 -0.71101979758E+02 -0.41681364736E+03  0.50917721037E+03  0.10566000000E+00 0.  1.
         13    1    1    2    0    0 -0.34998336403E+03 -0.11959867830E+03 -0.55552259201E+02  0.37400302621E+03  0.10566000000E+00 0. -1.
         -4    1    1    2    0  502  0.63365978575E+03  0.19070065805E+03 -0.15463549005E+03  0.67956132898E+03  0.00000000000E+00 0. -1.
</event>
<event>
 5    1  0.2540860E-005  0.4612987E+03  0.7818608E-02  0.9567087E-01
         21   -1    0    0  501  502  0.00000000000E+00  0.00000000000E+00  0.40799536996E+03  0.40799536996E+03  0.00000000000E+00 0.  1.
          4   -1    0    0  502    0 -0.00000000000E+00 -0.00000000000E+00 -0.11484232147E+04  0.11484232147E+04  0.00000000000E+00 0.  1.
        -13    1    1    2    0    0  0.54905599183E+02  0.57384829147E+03 -0.75915425473E+03  0.95322173711E+03  0.10566000000E+00 0.  1.
         13    1    1    2    0    0 -0.70592415721E+02 -0.30520045488E+03 -0.67822529308E+02  0.32051601124E+03  0.10566000000E+00 0. -1.
          4    1    1    2  501    0  0.15686816538E+02 -0.26864783659E+03  0.86548939313E+02  0.28268083630E+03  0.00000000000E+00 0.  1.
</event>
<event>
 5    1  0.2540860E-005  0.1021962E+03  0.7818608E-02  0.1160972E+00
         -4   -1    0    0    0  501 -0.00000000000E+00  0.00000000000E+00  0.55179386270E+03  0.55179386270E+03  0.00000000000E+00 0. -1.
         21   -1    0    0  501  502  0.00000000000E+00 -0.00000000000E+00 -0.25074478679E+02  0.25074478679E+02  0.00000000000E+00 0.  1.
        -13    1    1    2    0    0 -0.91998969729E+02  0.39130816452E+02  0.18563426092E+03  0.21084383135E+03  0.10566000000E+00 0.  1.
         13    1    1    2    0    0  0.83296086672E+02 -0.64779077055E+02  0.26320385275E+03  0.28356806264E+03  0.10566000000E+00 0. -1.
         -4    1    1    2    0  502  0.87028830563E+01  0.25648260603E+02  0.77881270350E+02  0.82456447394E+02  0.00000000000E+00 0. -1.
</event>
<event>
 5    1  0.3195494E-005  0.1877343E+03  0.7818608E-02  0.1075585E+00
          4   -1    0    0  502    0 -0.00000000000E+00  0.00000000000E+00  0.80959760661E+03  0.80959760661E+03  0.00000000000E+00 0.  1.
         21   -1    0    0  501  502  0.00000000000E+00 -0.00000000000E+00 -0.52223890057E+03  0.52223890057E+03  0.00000000000E+00 0.  1.
        -13    1    1    2    0    0  0.10568689333E+03 -0.50351861898E+02  0.47761688886E+03  0.49175495229E+03  0.10566000000E+00 0.  1.
         13    1    1    2    0    0 -0.69769641509E+02 -0.13852421859E+03  0.28662559694E+03  0.32590030070E+03  0.10566000000E+00 0. -1.
          4    1    1    2  501    0 -0.35917251817E+02  0.18887608048E+03 -0.47688377976E+03  0.51418125419E+03  0.00000000000E+00 0.  1.
</event>
<event>
 5    1  0.2540860E-005  0.4566509E+03  0.7818608E-02  0.9601222E-01
         -4   -1    0    0    0  501 -0.00000000000E+00  0.00000000000E+00  0.82809371879E+03  0.82809371879E+03  0.00000000000E+00 0. -1.
         21   -1    0    0  501  502  0.00000000000E+00 -0.00000000000E+00 -0.73776866280E+03  0.73776866280E+03  0.00000000000E+00 0. -1.
        -13    1    1    2    0    0 -0.18259834200E+03  0.37931772177E+03  0.23152299073E+03  0.48044458052E+03  0.10566000000E+00 0.  1.
         13    1    1    2    0    0 -0.25307908009E+03 -0.93553882976E+01  0.27841092538E+03  0.37636312067E+03  0.10566000000E+00 0. -1.
         -4    1    1    2    0  502  0.43567742209E+03 -0.36996233348E+03 -0.41960886011E+03  0.70905468039E+03  0.00000000000E+00 0. -1.
</event>
<event>
 5    1  0.2540860E-005  0.7457046E+03  0.7818608E-02  0.9059189E-01
          4   -1    0    0  502    0 -0.00000000000E+00  0.00000000000E+00  0.19513842981E+04  0.19513842981E+04  0.00000000000E+00 0.  1.
         21   -1    0    0  501  502  0.00000000000E+00 -0.00000000000E+00 -0.43939554628E+03  0.43939554628E+03  0.00000000000E+00 0.  1.
        -13    1    1    2    0    0  0.80898728663E+03  0.35607461342E+03  0.71227199360E+03  0.11351568016E+04  0.10566000000E+00 0.  1.
         13    1    1    2    0    0 -0.50872368532E+03 -0.42013094450E+03  0.57460352004E+03  0.87491657598E+03  0.10566000000E+00 0. -1.
          4    1    1    2  501    0 -0.30026360131E+03  0.64056331078E+02  0.22511323814E+03  0.38070646673E+03  0.00000000000E+00 0.  1.
</event>
<event>
 5    1  0.1269932E-004  0.3837709E+03  0.7818608E-02  0.1053199E+00
          4   -1    0    0  502    0 -0.00000000000E+00  0.00000000000E+00  0.99498396727E+03  0.99498396727E+03  0.00000000000E+00 0.  1.
         21   -1    0    0  501  502  0.00000000000E+00 -0.00000000000E+00 -0.29008013579E+03  0.29008013579E+03  0.00000000000E+00 0.  1.
        -13    1    1    2    0    0 -0.35369183869E+03 -0.15028808055E+03  0.65883586334E+03  0.76272480614E+03  0.10566000000E+00 0.  1.
         13    1    1    2    0    0 -0.11777892950E+02  0.32643969084E+02  0.12555223486E+03  0.13026021005E+03  0.10566000000E+00 0. -1.
          4    1    1    2  501    0  0.36546973164E+03  0.11764411147E+03 -0.79484266716E+02  0.39207908687E+03  0.00000000000E+00 0.  1.
</event>
<event>
 5    1  0.2540860E-005  0.4678885E+03  0.7818608E-02  0.9763513E-01
         21   -1    0    0  501  502  0.00000000000E+00  0.00000000000E+00  0.42340170905E+03  0.42340170905E+03  0.00000000000E+00 0. -1.
         -4   -1    0    0    0  501 -0.00000000000E+00 -0.00000000000E+00 -0.15238241838E+04  0.15238241838E+04  0.00000000000E+00 0. -1.
        -13    1    1    2    0    0 -0.13975266837E+01  0.22189578692E+03 -0.90187824125E+03  0.92877557383E+03  0.10566000000E+00 0.  1.
         13    1    1    2    0    0  0.38236220951E+03 -0.35056841936E+03  0.86028196123E+02  0.52583261368E+03  0.10566000000E+00 0. -1.
         -4    1    1    2    0  502 -0.38096468283E+03  0.12867263244E+03 -0.28457242959E+03  0.49261770531E+03  0.00000000000E+00 0. -1.
</event>
<event>
 5    1  0.2540860E-005  0.4914629E+03  0.7818608E-02  0.9790156E-01
         -4   -1    0    0    0  501 -0.00000000000E+00  0.00000000000E+00  0.17334559464E+04  0.17334559464E+04  0.00000000000E+00 0. -1.
         21   -1    0    0  501  502  0.00000000000E+00 -0.00000000000E+00 -0.38844798186E+03  0.38844798186E+03  0.00000000000E+00 0. -1.
        -13    1    1    2    0    0  0.15583804807E+03 -0.79078924374E+02  0.93101503887E+03  0.94727397688E+03  0.10566000000E+00 0.  1.
         13    1    1    2    0    0 -0.54501516414E+03  0.28678995675E+03  0.39785376400E+03  0.73319686110E+03  0.10566000000E+00 0. -1.
         -4    1    1    2    0  502  0.38917711606E+03 -0.20771103237E+03  0.16139161648E+02  0.44143309026E+03  0.00000000000E+00 0. -1.
</event>
<event>
 5    1  0.2540860E-005  0.1798512E+03  0.7818608E-02  0.1074902E+00
         21   -1    0    0  501  502  0.00000000000E+00  0.00000000000E+00  0.98448686635E+02  0.98448686635E+02  0.00000000000E+00 0.  1.
          4   -1    0    0  502    0 -0.00000000000E+00 -0.00000000000E+00 -0.73952283930E+03  0.73952283930E+03  0.00000000000E+00 0.  1.
        -13    1    1    2    0    0 -0.11170247116E+03 -0.13523536603E+03 -0.52770599435E+03  0.55609322413E+03  0.10566000000E+00 0.  1.
         13    1    1    2    0    0  0.96882216896E+02  0.17435646796E+03 -0.12863389306E+03  0.23734580569E+03  0.10566000000E+00 0. -1.
          4    1    1    2  501    0  0.14820254268E+02 -0.39121101929E+02  0.15265734745E+02  0.44532496113E+02  0.00000000000E+00 0.  1.
</event>
<event>
 5    1  0.2540860E-005  0.3510131E+03  0.7818608E-02  0.9882288E-01
         21   -1    0    0  501  502  0.00000000000E+00  0.00000000000E+00  0.10388632669E+03  0.10388632669E+03  0.00000000000E+00 0. -1.
          4   -1    0    0  502    0 -0.00000000000E+00 -0.00000000000E+00 -0.13535380930E+04  0.13535380930E+04  0.00000000000E+00 0.  1.
        -13    1    1    2    0    0 -0.30618078951E+03  0.16213135160E+03 -0.76753039583E+03  0.84210223294E+03  0.10566000000E+00 0.  1.
         13    1    1    2    0    0  0.31625088844E+03 -0.16823493899E+03 -0.48524259485E+03  0.60314012149E+03  0.10566000000E+00 0. -1.
          4    1    1    2  501    0 -0.10070098926E+02  0.61035873845E+01  0.31212244089E+01  0.12182065225E+02  0.00000000000E+00 0.  1.
</event>
<event>
 5    1  0.2540860E-005  0.5004208E+03  0.7818608E-02  0.9477050E-01
         21   -1    0    0  501  502  0.00000000000E+00  0.00000000000E+00  0.36591815589E+03  0.36591815589E+03  0.00000000000E+00 0. -1.
         -4   -1    0    0    0  501 -0.00000000000E+00 -0.00000000000E+00 -0.15817659451E+04  0.15817659451E+04  0.00000000000E+00 0. -1.
        -13    1    1    2    0    0  0.22979386050E+03 -0.36589145048E+03 -0.29435279360E+03  0.52280526979E+03  0.10566000000E+00 0.  1.
         13    1    1    2    0    0 -0.57762326711E+03  0.32921106667E+03 -0.34110725553E+03  0.74725011613E+03  0.10566000000E+00 0. -1.
         -4    1    1    2    0  502  0.34782940661E+03  0.36680383803E+02 -0.58038774013E+03  0.67762871511E+03  0.00000000000E+00 0. -1.
</event>
<event>
 5    1  0.2540860E-005  0.1680658E+03  0.7818608E-02  0.1084544E+00
          4   -1    0    0  502    0 -0.00000000000E+00  0.00000000000E+00  0.73209242021E+02  0.73209242021E+02  0.00000000000E+00 0.  1.
         21   -1    0    0  501  502  0.00000000000E+00 -0.00000000000E+00 -0.11719384629E+04  0.11719384629E+04  0.00000000000E+00 0. -1.
        -13    1    1    2    0    0  0.16043586181E+03  0.81391026845E+02 -0.70433857414E+02  0.19319706116E+03  0.10566000000E+00 0.  1.
         13    1    1    2    0    0 -0.86463702609E+02 -0.10143348972E+03 -0.47402117126E+03  0.49240309368E+03  0.10566000000E+00 0. -1.
          4    1    1    2  501    0 -0.73972159199E+02  0.20042462875E+02 -0.55427419223E+03  0.55954755010E+03  0.00000000000E+00 0.  1.
</event>
<event>
 5    1  0.2540860E-005  0.2837550E+03  0.7818608E-02  0.1014246E+00
         21   -1    0    0  501  502  0.00000000000E+00  0.00000000000E+00  0.52083244144E+02  0.52083244144E+02  0.00000000000E+00 0. -1.
          4   -1    0    0  502    0 -0.00000000000E+00 -0.00000000000E+00 -0.18647890014E+04  0.18647890014E+04  0.00000000000E+00 0.  1.
        -13    1    1    2    0    0  0.18883994596E+03 -0.20712264278E+03 -0.92512707378E+03  0.96665424436E+03  0.10566000000E+00 0.  1.
         13    1    1    2    0    0 -0.20797324706E+03  0.19910929039E+03 -0.88329626886E+03  0.92903696954E+03  0.10566000000E+00 0. -1.
          4    1    1    2  501    0  0.19133301105E+02  0.80133523879E+01 -0.42824146471E+01  0.21181031676E+02  0.00000000000E+00 0.  1.
</event>
<event>
 5    1  0.2540860E-005  0.4122913E+03  0.7818608E-02  0.9694203E-01
         21   -1    0    0  501  502  0.00000000000E+00  0.00000000000E+00  0.45642201111E+03  0.45642201111E+03  0.00000000000E+00 0. -1.
         -4   -1    0    0    0  501 -0.00000000000E+00 -0.00000000000E+00 -0.10948451228E+04  0.10948451228E+04  0.00000000000E+00 0. -1.
        -13    1    1    2    0    0 -0.60817156449E+02  0.32085109165E+03 -0.28536784948E+03  0.43368072381E+03  0.10566000000E+00 0.  1.
         13    1    1    2    0    0  0.10233439726E+03 -0.51695410995E+03 -0.60062625252E+03  0.79904054155E+03  0.10566000000E+00 0. -1.
         -4    1    1    2    0  502 -0.41517240810E+02  0.19610301831E+03  0.24757099035E+03  0.31854586850E+03  0.00000000000E+00 0. -1.
</event>
<event>
 5    1  0.2540860E-005  0.4543817E+03  0.7818608E-02  0.9988837E-01
          4   -1    0    0  502    0 -0.00000000000E+00  0.00000000000E+00  0.66230921021E+03  0.66230921021E+03  0.00000000000E+00 0.  1.
         21   -1    0    0  501  502  0.00000000000E+00 -0.00000000000E+00 -0.52040311726E+03  0.52040311726E+03  0.00000000000E+00 0.  1.
        -13    1    1    2    0    0 -0.19849497083E+03  0.40679726036E+03 -0.20017509741E+03  0.49492862644E+03  0.10566000000E+00 0.  1.
         13    1    1    2    0    0  0.10124442135E+03  0.51504587735E+02  0.13252961758E+03  0.17454874996E+03  0.10566000000E+00 0. -1.
          4    1    1    2  501    0  0.97250549482E+02 -0.45830184809E+03  0.20955157278E+03  0.51323495107E+03  0.00000000000E+00 0.  1.
</event>
<event>
 5    1  0.2540860E-005  0.3977492E+03  0.7818608E-02  0.9942894E-01
         21   -1    0    0  501  502  0.00000000000E+00  0.00000000000E+00  0.14936144616E+03  0.14936144616E+03  0.00000000000E+00 0.  1.
          4   -1    0    0  502    0 -0.00000000000E+00 -0.00000000000E+00 -0.26507859565E+04  0.26507859565E+04  0.00000000000E+00 0.  1.
        -13    1    1    2    0    0 -0.13592082198E+03  0.34788283448E+03 -0.28267983005E+03  0.46840669706E+03  0.10566000000E+00 0.  1.
         13    1    1    2    0    0  0.10709967218E+03  0.16543633185E+03 -0.75632741955E+03  0.78158217508E+03  0.10566000000E+00 0. -1.
          4    1    1    2  501    0  0.28821149799E+02 -0.51331916633E+03 -0.14624172608E+04  0.15501585306E+04  0.00000000000E+00 0.  1.
</event>
<event>
 5    1  0.2540860E-005  0.2137297E+03  0.7818608E-02  0.1051110E+00
         -4   -1    0    0    0  501 -0.00000000000E+00  0.00000000000E+00  0.34397835815E+03  0.34397835815E+03  0.00000000000E+00 0. -1.
         21   -1    0    0  501  502  0.00000000000E+00 -0.00000000000E+00 -0.14592937846E+03  0.14592937846E+03  0.00000000000E+00 0.  1.
        -13    1    1    2    0    0  0.13405043768E+03  0.17221478990E+03  0.10950982261E+03  0.24417179631E+03  0.10566000000E+00 0.  1.
         13    1    1    2    0    0 -0.12285893689E+03 -0.16948343611E+03  0.97710047149E+02  0.23101129403E+03  0.10566000000E+00 0. -1.
         -4    1    1    2    0  502 -0.11191500783E+02 -0.27313537848E+01 -0.91708900587E+01  0.14724646269E+02  0.00000000000E+00 0. -1.
</event>
<event>
 5    1  0.2540860E-005  0.4364981E+03  0.7818608E-02  0.9671168E-01
          4   -1    0    0  502    0 -0.00000000000E+00  0.00000000000E+00  0.65184009428E+03  0.65184009428E+03  0.00000000000E+00 0.  1.
         21   -1    0    0  501  502  0.00000000000E+00 -0.00000000000E+00 -0.15113898741E+04  0.15113898741E+04  0.00000000000E+00 0.  1.
        -13    1    1    2    0    0  0.27844326575E+03  0.20022771487E+02 -0.81956309029E+00  0.27916347624E+03  0.10566000000E+00 0.  1.
         13    1    1    2    0    0  0.11928778788E+03 -0.35716651422E+03  0.38312341205E+03  0.53719740807E+03  0.10566000000E+00 0. -1.
          4    1    1    2  501    0 -0.39773105363E+03  0.33714374273E+03 -0.12418536288E+04  0.13468690841E+04  0.00000000000E+00 0.  1.
</event>
<event>
 5    1  0.2540860E-005  0.4879017E+03  0.7818608E-02  0.9572347E-01
          4   -1    0    0  502    0 -0.00000000000E+00  0.00000000000E+00  0.22052503692E+04  0.22052503692E+04  0.00000000000E+00 0.  1.
         21   -1    0    0  501  502  0.00000000000E+00 -0.00000000000E+00 -0.24419233564E+03  0.24419233564E+03  0.00000000000E+00 0.  1.
        -13    1    1    2    0    0  0.47816061483E+03  0.27936775055E+02  0.49525845574E+03  0.68898402457E+03  0.10566000000E+00 0.  1.
         13    1    1    2    0    0 -0.63432660050E+02  0.37731166187E+03  0.72443494679E+03  0.81926417951E+03  0.10566000000E+00 0. -1.
          4    1    1    2  501    0 -0.41472795478E+03 -0.40524843693E+03  0.74136463104E+03  0.94119450076E+03  0.00000000000E+00 0.  1.
</event>
<event>
 5    1  0.2540860E-005  0.4904594E+03  0.7818608E-02  0.9505087E-01
         21   -1    0    0  501  502  0.00000000000E+00  0.00000000000E+00  0.49895143941E+03  0.49895143941E+03  0.00000000000E+00 0. -1.
         -4   -1    0    0    0  501 -0.00000000000E+00 -0.00000000000E+00 -0.18849769632E+04  0.18849769632E+04  0.00000000000E+00 0. -1.
        -13    1    1    2    0    0  0.38400299109E+03  0.31360955492E+03 -0.11485977687E+04  0.12510340105E+04  0.10566000000E+00 0.  1.
         13    1    1    2    0    0  0.26512506098E+03  0.12014786466E+03 -0.19632787915E+03  0.35110034838E+03  0.10566000000E+00 0. -1.
         -4    1    1    2    0  502 -0.64912805207E+03 -0.43375741957E+03 -0.41099875988E+02  0.78179404374E+03  0.00000000000E+00 0. -1.
</event>
<event>
 5    1  0.2540860E-005  0.2746788E+03  0.7818608E-02  0.1018342E+00
         -4   -1    0    0    0  501 -0.00000000000E+00  0.00000000000E+00  0.90807186591E+03  0.90807186591E+03  0.00000000000E+00 0. -1.
         21   -1    0    0  501  502  0.00000000000E+00 -0.00000000000E+00 -0.42795315209E+03  0.42795315209E+03  0.00000000000E+00 0. -1.
        -13    1    1    2    0    0  0.11663700745E+02 -0.32327724596E+03 -0.10671649690E+03  0.34063564339E+03  0.10566000000E+00 0.  1.
         13    1    1    2    0    0 -0.41785131043E+02  0.26657896573E+03  0.76224657226E+03  0.80859766895E+03  0.10566000000E+00 0. -1.
         -4    1    1    2    0  502  0.30121430299E+02  0.56698280236E+02 -0.17541136155E+03  0.18679170566E+03  0.00000000000E+00 0. -1.
</event>
<event>
 5    1  0.2540860E-005  0.4060533E+02  0.7818608E-02  0.1344981E+00
         -4   -1    0    0    0  501 -0.00000000000E+00  0.00000000000E+00  0.47264637768E+02  0.47264637768E+02  0.00000000000E+00 0. -1.
         21   -1    0    0  501  502  0.00000000000E+00 -0.00000000000E+00 -0.11344194246E+03  0.11344194246E+03  0.00000000000E+00 0. -1.
        -13    1    1    2    0    0  0.29062038583E+01  0.34093459045E+02 -0.34688521756E+02  0.48724887646E+02  0.10566000000E+00 0.  1.
         13    1    1    2    0    0  0.31048019829E+02 -0.50461038342E+02  0.50789779013E+01  0.59465141944E+02  0.10566000000E+00 0. -1.
         -4    1    1    2    0  502 -0.33954223687E+02  0.16367579297E+02 -0.36567760841E+02  0.52516550640E+02  0.00000000000E+00 0. -1.
</event>
<event>
 5    1  0.2540860E-005  0.5001889E+03  0.7818608E-02  0.9478962E-01
         -4   -1    0    0    0  501 -0.00000000000E+00  0.00000000000E+00  0.66080456057E+03  0.66080456057E+03  0.00000000000E+00 0. -1.
         21   -1    0    0  501  502  0.00000000000E+00 -0.00000000000E+00 -0.10412530620E+04  0.10412530620E+04  0.00000000000E+00 0. -1.
        -13    1    1    2    0    0  0.38176346424E+03 -0.32516312954E+03 -0.80791150961E+02  0.50793860326E+03  0.10566000000E+00 0.  1.
         13    1    1    2    0    0  0.25305873795E+03  0.22606701890E+03  0.18760879784E+03  0.38773972466E+03  0.10566000000E+00 0. -1.
         -4    1    1    2    0  502 -0.63482220219E+03  0.99096110637E+02 -0.48726614826E+03  0.80637929461E+03  0.00000000000E+00 0. -1.
</event>
<event>
 5    1  0.2540860E-005  0.6417003E+02  0.7818608E-02  0.1242908E+00
         -4   -1    0    0    0  501 -0.00000000000E+00  0.00000000000E+00  0.18274078854E+03  0.18274078854E+03  0.00000000000E+00 0. -1.
         21   -1    0    0  501  502  0.00000000000E+00 -0.00000000000E+00 -0.56995141576E+02  0.56995141576E+02  0.00000000000E+00 0.  1.
        -13    1    1    2    0    0 -0.78352917034E+01 -0.45658043292E+02  0.18839141431E+02  0.50009730326E+02  0.10566000000E+00 0.  1.
         13    1    1    2    0    0 -0.56378983177E+01  0.76868477845E+02  0.12822020384E+03  0.14960274269E+03  0.10566000000E+00 0. -1.
         -4    1    1    2    0  502  0.13473190021E+02 -0.31210434553E+02 -0.21313698306E+02  0.40123457102E+02  0.00000000000E+00 0. -1.
</event>
<event>
 5    1  0.2540860E-005  0.7765906E+03  0.7818608E-02  0.9018712E-01
         -4   -1    0    0    0  501 -0.00000000000E+00  0.00000000000E+00  0.28542539565E+04  0.28542539565E+04  0.00000000000E+00 0. -1.
         21   -1    0    0  501  502  0.00000000000E+00 -0.00000000000E+00 -0.34950853448E+03  0.34950853448E+03  0.00000000000E+00 0.  1.
        -13    1    1    2    0    0 -0.24323584801E+03 -0.66828249338E+03  0.11764457280E+04  0.13746962322E+04  0.10566000000E+00 0.  1.
         13    1    1    2    0    0  0.35486373652E+03  0.78014441340E+03  0.14108501674E+04  0.16507730865E+04  0.10566000000E+00 0. -1.
         -4    1    1    2    0  502 -0.11162788851E+03 -0.11186192002E+03 -0.82550473315E+02  0.17829317230E+03  0.00000000000E+00 0. -1.
</event>
<event>
 5    1  0.2540860E-005  0.3807911E+03  0.7818608E-02  0.1008141E+00
          4   -1    0    0  502    0 -0.00000000000E+00  0.00000000000E+00  0.98994367085E+03  0.98994367085E+03  0.00000000000E+00 0.  1.
         21   -1    0    0  501  502  0.00000000000E+00 -0.00000000000E+00 -0.35509384222E+03  0.35509384222E+03  0.00000000000E+00 0.  1.
        -13    1    1    2    0    0 -0.35961211620E+03 -0.28774919894E+03  0.56571872445E+03  0.72949171480E+03  0.10566000000E+00 0.  1.
         13    1    1    2    0    0  0.23573752892E+02  0.14083500152E+03  0.18245227416E+03  0.23168742519E+03  0.10566000000E+00 0. -1.
          4    1    1    2  501    0  0.33603836331E+03  0.14691419742E+03 -0.11332116999E+03  0.38385837308E+03  0.00000000000E+00 0.  1.
</event>
<event>
 5    1  0.2540860E-005  0.4790217E+03  0.7818608E-02  0.1016913E+00
         -4   -1    0    0    0  501 -0.00000000000E+00  0.00000000000E+00  0.12049708988E+03  0.12049708988E+03  0.00000000000E+00 0. -1.
         21   -1    0    0  501  502  0.00000000000E+00 -0.00000000000E+00 -0.23839927009E+04  0.23839927009E+04  0.00000000000E+00 0. -1.
        -13    1    1    2    0    0 -0.22145286610E+02 -0.49453992813E+02 -0.83390294557E+02  0.99448798457E+02  0.10566000000E+00 0.  1.
         13    1    1    2    0    0  0.61689162510E+02 -0.45932109975E+03 -0.13829306813E+04  0.14585193540E+04  0.10566000000E+00 0. -1.
         -4    1    1    2    0  502 -0.39543875901E+02  0.50877509256E+03 -0.79717463519E+03  0.94652163838E+03  0.00000000000E+00 0. -1.
</event>
<event>
 5    1  0.2540860E-005  0.2655122E+03  0.7818608E-02  0.1031726E+00
         -4   -1    0    0    0  501 -0.00000000000E+00  0.00000000000E+00  0.12503285208E+04  0.12503285208E+04  0.00000000000E+00 0. -1.
         21   -1    0    0  501  502  0.00000000000E+00 -0.00000000000E+00 -0.30812182080E+03  0.30812182080E+03  0.00000000000E+00 0. -1.
        -13    1    1    2    0    0  0.19878218737E+03  0.24508748139E+02  0.21439013348E+03  0.29339082680E+03  0.10566000000E+00 0.  1.
         13    1    1    2    0    0 -0.16225087571E+03 -0.28731011702E+03  0.89334417570E+03  0.95233202058E+03  0.10566000000E+00 0. -1.
         -4    1    1    2    0  502 -0.36531311664E+02  0.26280136888E+03 -0.16552760921E+03  0.31272749420E+03  0.00000000000E+00 0. -1.
</event>
<event>
 5    1  0.2540860E-005  0.2852270E+03  0.7818608E-02  0.1013597E+00
          4   -1    0    0  502    0 -0.00000000000E+00  0.00000000000E+00  0.47356788570E+03  0.47356788570E+03  0.00000000000E+00 0.  1.
         21   -1    0    0  501  502  0.00000000000E+00 -0.00000000000E+00 -0.32533671838E+03  0.32533671838E+03  0.00000000000E+00 0.  1.
        -13    1    1    2    0    0 -0.17650929040E+03 -0.23034908618E+03  0.17675906808E+03  0.33979407060E+03  0.10566000000E+00 0.  1.
         13    1    1    2    0    0  0.17509759499E+03  0.21813212156E+03  0.12408487400E+03  0.30600303487E+03  0.10566000000E+00 0. -1.
          4    1    1    2  501    0  0.14116954049E+01  0.12216964617E+02 -0.15261277477E+03  0.15310749861E+03  0.00000000000E+00 0.  1.
</event>
<event>
 5    1  0.2540860E-005  0.2552433E+03  0.7818608E-02  0.1027711E+00
         21   -1    0    0  501  502  0.00000000000E+00  0.00000000000E+00  0.81630860999E+02  0.81630860999E+02  0.00000000000E+00 0. -1.
          4   -1    0    0  502    0 -0.00000000000E+00 -0.00000000000E+00 -0.17004453112E+04  0.17004453112E+04  0.00000000000E+00 0.  1.
        -13    1    1    2    0    0 -0.25790914374E+03  0.43507111727E+02 -0.10315653879E+04  0.10642072899E+04  0.10566000000E+00 0.  1.
         13    1    1    2    0    0  0.24058447513E+03 -0.53258530576E+02 -0.62685889779E+03  0.67354988654E+03  0.10566000000E+00 0. -1.
          4    1    1    2  501    0  0.17324668603E+02  0.97514188494E+01  0.39609835525E+02  0.44318995725E+02  0.00000000000E+00 0.  1.
</event>
<event>
 5    1  0.2540860E-005  0.4840446E+03  0.7818608E-02  0.1033749E+00
         -4   -1    0    0    0  501 -0.00000000000E+00  0.00000000000E+00  0.30678195424E+03  0.30678195424E+03  0.00000000000E+00 0. -1.
         21   -1    0    0  501  502  0.00000000000E+00 -0.00000000000E+00 -0.97960036584E+03  0.97960036584E+03  0.00000000000E+00 0. -1.
        -13    1    1    2    0    0 -0.30923164079E+02  0.29422699502E+01  0.39265199945E+02  0.50066616820E+02  0.10566000000E+00 0.  1.
         13    1    1    2    0    0  0.33755324593E+03 -0.35839043464E+03 -0.55360874912E+03  0.74085663643E+03  0.10566000000E+00 0. -1.
         -4    1    1    2    0  502 -0.30663008185E+03  0.35544816469E+03 -0.15847486242E+03  0.49545906682E+03  0.00000000000E+00 0. -1.
</event>
<event>
 5    1  0.2540860E-005  0.4336513E+03  0.7818608E-02  0.9933260E-01
          4   -1    0    0  502    0 -0.00000000000E+00  0.00000000000E+00  0.46156746864E+03  0.46156746864E+03  0.00000000000E+00 0.  1.
         21   -1    0    0  501  502  0.00000000000E+00 -0.00000000000E+00 -0.77764369191E+03  0.77764369191E+03  0.00000000000E+00 0.  1.
        -13    1    1    2    0    0 -0.34458431361E+03 -0.24244726409E+03 -0.40651984629E+03  0.58547196486E+03  0.10566000000E+00 0.  1.
         13    1    1    2    0    0 -0.12157829472E+03  0.99354160544E+02  0.48390319359E+02  0.16429901136E+03  0.10566000000E+00 0. -1.
          4    1    1    2  501    0  0.46616260832E+03  0.14309310354E+03  0.42053303663E+02  0.48944018432E+03  0.00000000000E+00 0.  1.
</event>
<event>
 5    1  0.2540860E-005  0.3960146E+03  0.7818608E-02  0.9969093E-01
         21   -1    0    0  501  502  0.00000000000E+00  0.00000000000E+00  0.12312686552E+04  0.12312686552E+04  0.00000000000E+00 0.  1.
          4   -1    0    0  502    0 -0.00000000000E+00 -0.00000000000E+00 -0.31338931894E+03  0.31338931894E+03  0.00000000000E+00 0.  1.
        -13    1    1    2    0    0  0.32036791744E+03 -0.27615177403E+03  0.75104214295E+03  0.86195111026E+03  0.10566000000E+00 0.  1.
         13    1    1    2    0    0 -0.18298191683E+03  0.67170061334E+01  0.30062365098E+03  0.35199728799E+03  0.10566000000E+00 0. -1.
          4    1    1    2  501    0 -0.13738600061E+03  0.26943476790E+03 -0.13378645770E+03  0.33070957588E+03  0.00000000000E+00 0.  1.
</event>
<event>
 5    1  0.2540860E-005  0.4488971E+03  0.7818608E-02  0.9723677E-01
          4   -1    0    0  502    0 -0.00000000000E+00  0.00000000000E+00  0.10305391055E+04  0.10305391055E+04  0.00000000000E+00 0.  1.
         21   -1    0    0  501  502  0.00000000000E+00 -0.00000000000E+00 -0.60188392219E+03  0.60188392219E+03  0.00000000000E+00 0.  1.
        -13    1    1    2    0    0 -0.42453980115E+03  0.36057784571E+02 -0.24868133766E+03  0.49333216544E+03  0.10566000000E+00 0.  1.
         13    1    1    2    0    0 -0.69474723120E+02  0.27982588300E+03  0.39298919825E+03  0.48741130789E+03  0.10566000000E+00 0. -1.
          4    1    1    2  501    0  0.49401452427E+03 -0.31588366757E+03  0.28434732270E+03  0.65167955435E+03  0.00000000000E+00 0.  1.
</event>
<event>
 5    1  0.2540860E-005  0.2992981E+03  0.7818608E-02  0.1044890E+00
         -4   -1    0    0    0  501 -0.00000000000E+00  0.00000000000E+00  0.12000257857E+04  0.12000257857E+04  0.00000000000E+00 0. -1.
         21   -1    0    0  501  502  0.00000000000E+00 -0.00000000000E+00 -0.29571851454E+03  0.29571851454E+03  0.00000000000E+00 0. -1.
        -13    1    1    2    0    0  0.25323179388E+02  0.90224407167E+02  0.35752428132E+03  0.36960158274E+03  0.10566000000E+00 0.  1.
         13    1    1    2    0    0 -0.28345461392E+02 -0.38007597095E+03  0.70092092276E+03  0.79784168856E+03  0.10566000000E+00 0. -1.
         -4    1    1    2    0  502  0.30222820035E+01  0.28985156378E+03 -0.15413793294E+03  0.32830102892E+03  0.00000000000E+00 0. -1.
</event>
<event>
 5    1  0.2540860E-005  0.4088698E+02  0.7818608E-02  0.1334101E+00
         21   -1    0    0  501  502  0.00000000000E+00  0.00000000000E+00  0.19000226772E+03  0.19000226772E+03  0.00000000000E+00 0.  1.
          4   -1    0    0  502    0 -0.00000000000E+00 -0.00000000000E+00 -0.15808865626E+03  0.15808865626E+03  0.00000000000E+00 0.  1.
        -13    1    1    2    0    0 -0.30704182422E+02  0.28946042603E+02 -0.14815100001E+03  0.15404333861E+03  0.10566000000E+00 0.  1.
         13    1    1    2    0    0  0.17909849887E+02 -0.21490885255E+02  0.22806641263E+02  0.36093973482E+02  0.10566000000E+00 0. -1.
          4    1    1    2  501    0  0.12794332534E+02 -0.74551573476E+01  0.15725797021E+03  0.15795361189E+03  0.00000000000E+00 0.  1.
</event>
<event>
 5    1  0.2540860E-005  0.2493771E+03  0.7818608E-02  0.1030716E+00
         21   -1    0    0  501  502  0.00000000000E+00  0.00000000000E+00  0.22934504063E+03  0.22934504063E+03  0.00000000000E+00 0.  1.
         -4   -1    0    0    0  501 -0.00000000000E+00 -0.00000000000E+00 -0.33471183834E+03  0.33471183834E+03  0.00000000000E+00 0. -1.
        -13    1    1    2    0    0  0.23659769017E+03  0.64061998189E+02 -0.10671142222E+03  0.26733826026E+03  0.10566000000E+00 0.  1.
         13    1    1    2    0    0 -0.24715756415E+03 -0.63829551375E+02 -0.36105508397E+02  0.25780747088E+03  0.10566000000E+00 0. -1.
         -4    1    1    2    0  502  0.10559873978E+02 -0.23244681437E+00  0.37450132910E+02  0.38911147823E+02  0.00000000000E+00 0. -1.
</event>
<event>
 5    1  0.2540860E-005  0.1780935E+03  0.7818608E-02  0.1076289E+00
         21   -1    0    0  501  502  0.00000000000E+00  0.00000000000E+00  0.14171211966E+04  0.14171211966E+04  0.00000000000E+00 0. -1.
         -4   -1    0    0    0  501 -0.00000000000E+00 -0.00000000000E+00 -0.16588715561E+03  0.16588715561E+03  0.00000000000E+00 0. -1.
        -13    1    1    2    0    0 -0.12919804095E+03  0.26688001665E+02  0.43006785589E+03  0.44984747977E+03  0.10566000000E+00 0.  1.
         13    1    1    2    0    0  0.18280453532E+03 -0.19830090262E+02 -0.10074493037E+03  0.20966707604E+03  0.10566000000E+00 0. -1.
         -4    1    1    2    0  502 -0.53606494366E+02 -0.68579114029E+01  0.92191111548E+03  0.92349379642E+03  0.00000000000E+00 0. -1.
</event>
<event>
 5    1  0.2540860E-005  0.6757057E+03  0.7818608E-02  0.9158985E-01
         21   -1    0    0  501  502  0.00000000000E+00  0.00000000000E+00  0.28307452919E+03  0.28307452919E+03  0.00000000000E+00 0.  1.
          4   -1    0    0  502    0 -0.00000000000E+00 -0.00000000000E+00 -0.28388275598E+04  0.28388275598E+04  0.00000000000E+00 0.  1.
        -13    1    1    2    0    0  0.80121569601E+03 -0.40549115388E+02 -0.12204450804E+04  0.14605057438E+04  0.10566000000E+00 0.  1.
         13    1    1    2    0    0 -0.59336846609E+03 -0.14350897707E+03 -0.12131268271E+04  0.13580713062E+04  0.10566000000E+00 0. -1.
          4    1    1    2  501    0 -0.20784722992E+03  0.18405809246E+03 -0.12218112308E+03  0.30332503890E+03  0.00000000000E+00 0.  1.
</event>
<event>
 5    1  0.2540860E-005  0.1122647E+03  0.7818608E-02  0.1145718E+00
         21   -1    0    0  501  502  0.00000000000E+00  0.00000000000E+00  0.66139103003E+02  0.66139103003E+02  0.00000000000E+00 0.  1.
         -4   -1    0    0    0  501 -0.00000000000E+00 -0.00000000000E+00 -0.39732196983E+03  0.39732196983E+03  0.00000000000E+00 0. -1.
        -13    1    1    2    0    0  0.11876041641E+03 -0.43274398873E+02 -0.40719015764E+02  0.13279593184E+03  0.10566000000E+00 0.  1.
         13    1    1    2    0    0 -0.10353711097E+03  0.34864928078E+02 -0.29335232632E+03  0.31303529366E+03  0.10566000000E+00 0. -1.
         -4    1    1    2    0  502 -0.15223305438E+02  0.84094707951E+01  0.28884752584E+01  0.17629847329E+02  0.00000000000E+00 0. -1.
</event>
<event>
 5    1  0.2540860E-005  0.4679787E+02  0.7818608E-02  0.1305405E+00
         21   -1    0    0  501  502  0.00000000000E+00  0.00000000000E+00  0.17587206441E+02  0.17587206441E+02  0.00000000000E+00 0.  1.
         -4   -1    0    0    0  501 -0.00000000000E+00 -0.00000000000E+00 -0.17897093484E+03  0.17897093484E+03  0.00000000000E+00 0. -1.
        -13    1    1    2    0    0 -0.48879938243E+02 -0.22129993702E+02 -0.84937531804E+02  0.10046581736E+03  0.10566000000E+00 0.  1.
         13    1    1    2    0    0  0.38956340105E+02  0.15264627568E+02 -0.71918550948E+02  0.83203932742E+02  0.10566000000E+00 0. -1.
         -4    1    1    2    0  502  0.99235981383E+01  0.68653661342E+01 -0.45276456456E+01  0.12888391182E+02  0.00000000000E+00 0. -1.
</event>
<event>
 5    1  0.2540860E-005  0.4885436E+03  0.7818608E-02  0.9731327E-01
         21   -1    0    0  501  502  0.00000000000E+00  0.00000000000E+00  0.13648739431E+04  0.13648739431E+04  0.00000000000E+00 0.  1.
          4   -1    0    0  502    0 -0.00000000000E+00 -0.00000000000E+00 -0.11361858928E+04  0.11361858928E+04  0.00000000000E+00 0.  1.
        -13    1    1    2    0    0  0.39529597759E+03 -0.29841959833E+03  0.11583780774E+04  0.12598225859E+04  0.10566000000E+00 0.  1.
         13    1    1    2    0    0  0.72143610159E+02  0.20552734862E+03 -0.65697889809E+03  0.69214700405E+03  0.10566000000E+00 0. -1.
          4    1    1    2  501    0 -0.46743958775E+03  0.92892249715E+02 -0.27271112905E+03  0.54909024592E+03  0.00000000000E+00 0.  1.
</event>
<event>
 5    1  0.2540860E-005  0.1483292E+03  0.7818608E-02  0.1102771E+00
         -4   -1    0    0    0  501 -0.00000000000E+00  0.00000000000E+00  0.46904911074E+03  0.46904911074E+03  0.00000000000E+00 0. -1.
         21   -1    0    0  501  502  0.00000000000E+00 -0.00000000000E+00 -0.74785120480E+02  0.74785120480E+02  0.00000000000E+00 0.  1.
        -13    1    1    2    0    0 -0.52041653691E+02  0.10171314131E+03  0.44667474462E+02  0.12267473771E+03  0.10566000000E+00 0.  1.
         13    1    1    2    0    0  0.62000100343E+02 -0.16156943651E+03  0.23999822463E+03  0.29588486654E+03  0.10566000000E+00 0. -1.
         -4    1    1    2    0  502 -0.99584466518E+01  0.59856295206E+02  0.10959829117E+03  0.12527462697E+03  0.00000000000E+00 0. -1.
</event>
<event>
 5    1  0.2540860E-005  0.5556066E+03  0.7818608E-02  0.9567090E-01
         21   -1    0    0  501  502  0.00000000000E+00  0.00000000000E+00  0.40402803970E+03  0.40402803970E+03  0.00000000000E+00 0.  1.
         -4   -1    0    0    0  501 -0.00000000000E+00 -0.00000000000E+00 -0.12519063189E+04  0.12519063189E+04  0.00000000000E+00 0. -1.
        -13    1    1    2    0    0 -0.10559247465E+03 -0.24197496612E+03 -0.11277932202E+03  0.28709030212E+03  0.10566000000E+00 0.  1.
         13    1    1    2    0    0  0.45815045798E+02 -0.41613139569E+03 -0.53311893008E+03  0.67784966008E+03  0.10566000000E+00 0. -1.
         -4    1    1    2    0  502  0.59777428851E+02  0.65810636181E+03 -0.20198002706E+03  0.69099439635E+03  0.00000000000E+00 0. -1.
</event>
<event>
 5    1  0.2540860E-005  0.3983798E+03  0.7818608E-02  0.1002112E+00
         21   -1    0    0  501  502  0.00000000000E+00  0.00000000000E+00  0.33517059880E+03  0.33517059880E+03  0.00000000000E+00 0.  1.
          4   -1    0    0  502    0 -0.00000000000E+00 -0.00000000000E+00 -0.16751380973E+04  0.16751380973E+04  0.00000000000E+00 0.  1.
        -13    1    1    2    0    0  0.49916783009E+02 -0.27016476416E+03 -0.67904618244E+03  0.73251922437E+03  0.10566000000E+00 0.  1.
         13    1    1    2    0    0 -0.41972098160E+00 -0.15163926288E+03 -0.81274440191E+03  0.82676968753E+03  0.10566000000E+00 0. -1.
          4    1    1    2  501    0 -0.49497062028E+02  0.42180402703E+03  0.15182308583E+03  0.45101978422E+03  0.00000000000E+00 0.  1.
</event>
<event>
 5    1  0.2540860E-005  0.1546200E+03  0.7818608E-02  0.1106586E+00
         -4   -1    0    0    0  501 -0.00000000000E+00  0.00000000000E+00  0.18621677584E+04  0.18621677584E+04  0.00000000000E+00 0. -1.
         21   -1    0    0  501  502  0.00000000000E+00 -0.00000000000E+00 -0.20796515514E+03  0.20796515514E+03  0.00000000000E+00 0. -1.
        -13    1    1    2    0    0 -0.17670172359E+03  0.71749596408E+01  0.58635312807E+03  0.61244181857E+03  0.10566000000E+00 0.  1.
         13    1    1    2    0    0 -0.13162419395E+03  0.52354806060E+01 -0.15100246784E+03  0.20038486756E+03  0.10566000000E+00 0. -1.
         -4    1    1    2    0  502  0.30832591754E+03 -0.12410440247E+02  0.12188519431E+04  0.12573062274E+04  0.00000000000E+00 0. -1.
</event>
<event>
 5    1  0.2540860E-005  0.4471056E+03  0.7818608E-02  0.9602111E-01
         21   -1    0    0  501  502  0.00000000000E+00  0.00000000000E+00  0.43142762561E+03  0.43142762561E+03  0.00000000000E+00 0. -1.
         -4   -1    0    0    0  501 -0.00000000000E+00 -0.00000000000E+00 -0.28343622846E+04  0.28343622846E+04  0.00000000000E+00 0. -1.
        -13    1    1    2    0    0  0.38847081639E+02  0.43209113708E+03 -0.20639252613E+04  0.21090280562E+04  0.10566000000E+00 0.  1.
         13    1    1    2    0    0 -0.32815629495E+03 -0.61155390907E+03 -0.26365381249E+02  0.69453573134E+03  0.10566000000E+00 0. -1.
         -4    1    1    2    0  502  0.28930921331E+03  0.17946277199E+03 -0.31264401640E+03  0.46222612262E+03  0.00000000000E+00 0. -1.
</event>
<event>
 5    1  0.2540860E-005  0.5056622E+03  0.7818608E-02  0.9563856E-01
         21   -1    0    0  501  502  0.00000000000E+00  0.00000000000E+00  0.28646954398E+03  0.28646954398E+03  0.00000000000E+00 0. -1.
         -4   -1    0    0    0  501 -0.00000000000E+00 -0.00000000000E+00 -0.22738510314E+04  0.22738510314E+04  0.00000000000E+00 0. -1.
        -13    1    1    2    0    0 -0.35026949959E+03  0.53307625849E+02 -0.11158350359E+04  0.11707340705E+04  0.10566000000E+00 0.  1.
         13    1    1    2    0    0 -0.23623088812E+03 -0.28439255254E+03 -0.59656955118E+03  0.70184000812E+03  0.10566000000E+00 0. -1.
         -4    1    1    2    0  502  0.58650038771E+03  0.23108492669E+03 -0.27497690041E+03  0.68774649682E+03  0.00000000000E+00 0. -1.
</event>
<event>
 5    1  0.2540860E-005  0.2526380E+03  0.7818608E-02  0.1059978E+00
         21   -1    0    0  501  502  0.00000000000E+00  0.00000000000E+00  0.11469095070E+03  0.11469095070E+03  0.00000000000E+00 0.  1.
          4   -1    0    0  502    0 -0.00000000000E+00 -0.00000000000E+00 -0.14688419706E+04  0.14688419706E+04  0.00000000000E+00 0.  1.
        -13    1    1    2    0    0 -0.93679009120E+02  0.28725366294E+03 -0.10831311817E+04  0.11244837000E+04  0.10566000000E+00 0.  1.
         13    1    1    2    0    0  0.90783497761E+02 -0.41171559829E+02 -0.16126119142E+03  0.18958355368E+03  0.10566000000E+00 0. -1.
          4    1    1    2  501    0  0.28955113593E+01 -0.24608210311E+03 -0.10975864669E+03  0.26946566753E+03  0.00000000000E+00 0.  1.
</event>
<event>
 5    1  0.2540860E-005  0.4553407E+03  0.7818608E-02  0.9881335E-01
          4   -1    0    0  502    0 -0.00000000000E+00  0.00000000000E+00  0.11103431352E+04  0.11103431352E+04  0.00000000000E+00 0.  1.
         21   -1    0    0  501  502  0.00000000000E+00 -0.00000000000E+00 -0.54737348506E+03  0.54737348506E+03  0.00000000000E+00 0.  1.
        -13    1    1    2    0    0 -0.28738441557E+03  0.39572160501E+03 -0.32673730960E+03  0.58816891420E+03  0.10566000000E+00 0.  1.
         13    1    1    2    0    0  0.18230005005E+02 -0.16028106520E+03  0.56133291862E+03  0.58405223194E+03  0.10566000000E+00 0. -1.
          4    1    1    2  501    0  0.26915441056E+03 -0.23544053981E+03  0.32837404114E+03  0.48549547413E+03  0.00000000000E+00 0.  1.
</event>
<event>
 5    1  0.2540860E-005  0.4781948E+03  0.7818608E-02  0.1001696E+00
         -4   -1    0    0    0  501 -0.00000000000E+00  0.00000000000E+00  0.10431981369E+04  0.10431981369E+04  0.00000000000E+00 0. -1.
         21   -1    0    0  501  502  0.00000000000E+00 -0.00000000000E+00 -0.33033741114E+03  0.33033741114E+03  0.00000000000E+00 0. -1.
        -13    1    1    2    0    0  0.21862483644E+02 -0.86147639082E+02  0.24188447673E+03  0.25769651755E+03  0.10566000000E+00 0.  1.
         13    1    1    2    0    0 -0.18705524394E+03  0.50256598118E+03  0.38381407627E+03  0.65945089736E+03  0.10566000000E+00 0. -1.
         -4    1    1    2    0  502  0.16519276030E+03 -0.41641834210E+03  0.87162172759E+02  0.45638813312E+03  0.00000000000E+00 0. -1.
</event>
<event>
 5    1  0.2540860E-005  0.3447601E+03  0.7818608E-02  0.9903749E-01
         21   -1    0    0  501  502  0.00000000000E+00  0.00000000000E+00  0.26103104634E+03  0.26103104634E+03  0.00000000000E+00 0. -1.
          4   -1    0    0  502    0 -0.00000000000E+00 -0.00000000000E+00 -0.62212089812E+03  0.62212089812E+03  0.00000000000E+00 0.  1.
        -13    1    1    2    0    0  0.32110090606E+03 -0.11393022655E+03 -0.24534884343E+03  0.41985944616E+03  0.10566000000E+00 0.  1.
         13    1    1    2    0    0 -0.33399008739E+03  0.10404373172E+03 -0.18251507724E+03  0.39457095835E+03  0.10566000000E+00 0. -1.
          4    1    1    2  501    0  0.12889181335E+02  0.98864948295E+01  0.66774068902E+02  0.68721539951E+02  0.00000000000E+00 0.  1.
</event>
<event>
 5    1  0.2540860E-005  0.2650852E+03  0.7818608E-02  0.1022859E+00
          4   -1    0    0  502    0 -0.00000000000E+00  0.00000000000E+00  0.84999821383E+03  0.84999821383E+03  0.00000000000E+00 0.  1.
         21   -1    0    0  501  502  0.00000000000E+00 -0.00000000000E+00 -0.10052291896E+03  0.10052291896E+03  0.00000000000E+00 0. -1.
        -13    1    1    2    0    0 -0.27720322258E+03 -0.44770106728E+02  0.39301072009E+03  0.48301493387E+03  0.10566000000E+00 0.  1.
         13    1    1    2    0    0  0.24389261492E+03  0.36006710766E+02  0.23260732286E+03  0.33894876994E+03  0.10566000000E+00 0. -1.
          4    1    1    2  501    0  0.33310607667E+02  0.87633959622E+01  0.12385725192E+03  0.12855742898E+03  0.00000000000E+00 0.  1.
</event>
<event>
 5    1  0.2540860E-005  0.1102644E+03  0.7818608E-02  0.1148606E+00
         21   -1    0    0  501  502  0.00000000000E+00  0.00000000000E+00  0.41152665618E+02  0.41152665618E+02  0.00000000000E+00 0. -1.
          4   -1    0    0  502    0 -0.00000000000E+00 -0.00000000000E+00 -0.65729188759E+03  0.65729188759E+03  0.00000000000E+00 0.  1.
        -13    1    1    2    0    0 -0.53409526482E+02 -0.90048868755E+02 -0.39948521227E+03  0.41297678175E+03  0.10566000000E+00 0.  1.
         13    1    1    2    0    0  0.38025979284E+02  0.12086807403E+03 -0.21669610855E+03  0.25102247119E+03  0.10566000000E+00 0. -1.
          4    1    1    2  501    0  0.15383547198E+02 -0.30819205271E+02  0.42098843525E-01  0.34445300263E+02  0.00000000000E+00 0.  1.
</event>
<event>
 5    1  0.2540860E-005  0.3918254E+03  0.7818608E-02  0.9837669E-01
         21   -1    0    0  501  502  0.00000000000E+00  0.00000000000E+00  0.22777931679E+03  0.22777931679E+03  0.00000000000E+00 0.  1.
          4   -1    0    0  502    0 -0.00000000000E+00 -0.00000000000E+00 -0.15934224889E+04  0.15934224889E+04  0.00000000000E+00 0.  1.
        -13    1    1    2    0    0  0.59245424796E+02 -0.43425806243E+03 -0.36577916132E+03  0.57086293554E+03  0.10566000000E+00 0.  1.
         13    1    1    2    0    0  0.23962731173E+03  0.16919724125E+03 -0.67309392677E+03  0.73423729161E+03  0.10566000000E+00 0. -1.
          4    1    1    2  501    0 -0.29887273653E+03  0.26506082118E+03 -0.32677008401E+03  0.51610157854E+03  0.00000000000E+00 0.  1.
</event>
<event>
 5    1  0.2540860E-005  0.4940767E+03  0.7818608E-02  0.9721181E-01
         -4   -1    0    0    0  501 -0.00000000000E+00  0.00000000000E+00  0.35000332938E+03  0.35000332938E+03  0.00000000000E+00 0. -1.
         21   -1    0    0  501  502  0.00000000000E+00 -0.00000000000E+00 -0.11381438780E+04  0.11381438780E+04  0.00000000000E+00 0. -1.
        -13    1    1    2    0    0  0.65526752766E+02 -0.20804355548E+03 -0.22987468859E+03  0.31688840295E+03  0.10566000000E+00 0.  1.
         13    1    1    2    0    0 -0.51875702694E+03  0.57738479931E+01 -0.18706814600E+03  0.55148589532E+03  0.10566000000E+00 0. -1.
         -4    1    1    2    0  502  0.45323027417E+03  0.20226970749E+03 -0.37119771406E+03  0.61977290915E+03  0.00000000000E+00 0. -1.
</event>
<event>
 5    1  0.2540860E-005  0.4467969E+03  0.7818608E-02  0.9844004E-01
         21   -1    0    0  501  502  0.00000000000E+00  0.00000000000E+00  0.24366602954E+03  0.24366602954E+03  0.00000000000E+00 0.  1.
          4   -1    0    0  502    0 -0.00000000000E+00 -0.00000000000E+00 -0.20773975088E+04  0.20773975088E+04  0.00000000000E+00 0.  1.
        -13    1    1    2    0    0 -0.14844997825E+03  0.45116585754E+03 -0.61184396284E+03  0.77455863114E+03  0.10566000000E+00 0.  1.
         13    1    1    2    0    0 -0.15163062989E+03 -0.12044202223E+03 -0.10504607901E+04  0.10681601057E+04  0.10566000000E+00 0. -1.
          4    1    1    2  501    0  0.30008060815E+03 -0.33072383531E+03 -0.17142672628E+03  0.47834480149E+03  0.00000000000E+00 0.  1.
</event>
<event>
 5    1  0.2540860E-005  0.1195814E+03  0.7818608E-02  0.1135694E+00
         -4   -1    0    0    0  501 -0.00000000000E+00  0.00000000000E+00  0.57437401868E+03  0.57437401868E+03  0.00000000000E+00 0. -1.
         21   -1    0    0  501  502  0.00000000000E+00 -0.00000000000E+00 -0.37417763599E+03  0.37417763599E+03  0.00000000000E+00 0.  1.
        -13    1    1    2    0    0  0.38586359449E+02  0.18995463367E+03 -0.97191294955E+02  0.21683594943E+03  0.10566000000E+00 0.  1.
         13    1    1    2    0    0 -0.12363276960E+02 -0.11579610339E+03  0.50051832662E+03  0.51388733651E+03  0.10566000000E+00 0. -1.
         -4    1    1    2    0  502 -0.26223082488E+02 -0.74158530276E+02 -0.20313064898E+03  0.21782836873E+03  0.00000000000E+00 0. -1.
</event>
<event>
 5    1  0.2540860E-005  0.4895888E+03  0.7818608E-02  0.9620212E-01
          4   -1    0    0  502    0 -0.00000000000E+00  0.00000000000E+00  0.15921955207E+04  0.15921955207E+04  0.00000000000E+00 0.  1.
         21   -1    0    0  501  502  0.00000000000E+00 -0.00000000000E+00 -0.29621057356E+03  0.29621057356E+03  0.00000000000E+00 0.  1.
        -13    1    1    2    0    0 -0.40475605351E+03 -0.94985282888E+02  0.37132125482E+03  0.55743084976E+03  0.10566000000E+00 0.  1.
         13    1    1    2    0    0 -0.21524773727E+03  0.23588991179E+03  0.35226446881E+03  0.47546388510E+03  0.10566000000E+00 0. -1.
          4    1    1    2  501    0  0.62000379077E+03 -0.14090462890E+03  0.57239922354E+03  0.85551135944E+03  0.00000000000E+00 0.  1.
</event>
<event>
 5    1  0.2540860E-005  0.4800567E+03  0.7818608E-02  0.9823789E-01
         21   -1    0    0  501  502  0.00000000000E+00  0.00000000000E+00  0.77539326010E+03  0.77539326010E+03  0.00000000000E+00 0. -1.
         -4   -1    0    0    0  501 -0.00000000000E+00 -0.00000000000E+00 -0.54792195733E+03  0.54792195733E+03  0.00000000000E+00 0. -1.
        -13    1    1    2    0    0 -0.43663399343E+02  0.16139392673E+03 -0.16623798326E+03  0.23577440546E+03  0.10566000000E+00 0.  1.
         13    1    1    2    0    0 -0.45942913688E+03  0.10198442887E+02  0.29727606567E+03  0.54731363077E+03  0.10566000000E+00 0. -1.
         -4    1    1    2    0  502  0.50309253622E+03 -0.17159236962E+03  0.96433220357E+02  0.54022718119E+03  0.00000000000E+00 0. -1.
</event>
<event>
 5    1  0.2540860E-005  0.1897612E+03  0.7818608E-02  0.1067391E+00
         21   -1    0    0  501  502  0.00000000000E+00  0.00000000000E+00  0.34021319432E+03  0.34021319432E+03  0.00000000000E+00 0.  1.
          4   -1    0    0  502    0 -0.00000000000E+00 -0.00000000000E+00 -0.35762754115E+03  0.35762754115E+03  0.00000000000E+00 0.  1.
        -13    1    1    2    0    0 -0.19889703861E+03 -0.66089865680E+02 -0.20677875588E+03  0.29442378872E+03  0.10566000000E+00 0.  1.
         13    1    1    2    0    0  0.14972583657E+03  0.60993027355E+02 -0.41830211919E+02  0.16699626737E+03  0.10566000000E+00 0. -1.
          4    1    1    2  501    0  0.49171202040E+02  0.50968383250E+01  0.23119462098E+03  0.23642067939E+03  0.00000000000E+00 0.  1.
</event>
<event>
 5    1  0.2540860E-005  0.4790745E+03  0.7818608E-02  0.9776704E-01
         -4   -1    0    0    0  501 -0.00000000000E+00  0.00000000000E+00  0.62544820770E+03  0.62544820770E+03  0.00000000000E+00 0. -1.
         21   -1    0    0  501  502  0.00000000000E+00 -0.00000000000E+00 -0.80961395726E+03  0.80961395726E+03  0.00000000000E+00 0. -1.
        -13    1    1    2    0    0 -0.32963592309E+02  0.19479171727E+03  0.28758807580E+03  0.34890876177E+03  0.10566000000E+00 0.  1.
         13    1    1    2    0    0  0.38678930278E+03  0.20575570337E+03 -0.15403458325E+03  0.46440073020E+03  0.10566000000E+00 0. -1.
         -4    1    1    2    0  502 -0.35382571047E+03 -0.40054742064E+03 -0.31771924211E+03  0.62175267300E+03  0.00000000000E+00 0. -1.
</event>
<event>
 5    1  0.2540860E-005  0.9724806E+03  0.7818608E-02  0.8800886E-01
          4   -1    0    0  502    0 -0.00000000000E+00  0.00000000000E+00  0.10505316368E+04  0.10505316368E+04  0.00000000000E+00 0.  1.
         21   -1    0    0  501  502  0.00000000000E+00 -0.00000000000E+00 -0.11741432645E+04  0.11741432645E+04  0.00000000000E+00 0. -1.
        -13    1    1    2    0    0 -0.10087063209E+04  0.15215857813E+03  0.18140680030E+03  0.10361221516E+04  0.10566000000E+00 0.  1.
         13    1    1    2    0    0  0.86622086998E+03 -0.31291320450E+03 -0.17508406604E+03  0.93750077892E+03  0.10566000000E+00 0. -1.
          4    1    1    2  501    0  0.14248545095E+03  0.16075462637E+03 -0.12993436195E+03  0.25105197081E+03  0.00000000000E+00 0.  1.
</event>
<event>
 5    1  0.2540860E-005  0.7489210E+02  0.7818608E-02  0.1255609E+00
          4   -1    0    0  502    0 -0.00000000000E+00  0.00000000000E+00  0.93451030765E+02  0.93451030765E+02  0.00000000000E+00 0.  1.
         21   -1    0    0  501  502  0.00000000000E+00 -0.00000000000E+00 -0.13160798126E+03  0.13160798126E+03  0.00000000000E+00 0.  1.
        -13    1    1    2    0    0  0.38824134050E+02 -0.76210844785E+02  0.39055207132E+02  0.94025138212E+02  0.10566000000E+00 0.  1.
         13    1    1    2    0    0 -0.30729734589E+02  0.33516295045E+01 -0.12832424910E+02  0.33469871547E+02  0.10566000000E+00 0. -1.
          4    1    1    2  501    0 -0.80943994610E+01  0.72859215281E+02 -0.64379732719E+02  0.97564002270E+02  0.00000000000E+00 0.  1.
</event>
<event>
 5    1  0.2540860E-005  0.5025561E+03  0.7818608E-02  0.9784940E-01
         21   -1    0    0  501  502  0.00000000000E+00  0.00000000000E+00  0.21661207352E+03  0.21661207352E+03  0.00000000000E+00 0.  1.
          4   -1    0    0  502    0 -0.00000000000E+00 -0.00000000000E+00 -0.16437363015E+04  0.16437363015E+04  0.00000000000E+00 0.  1.
        -13    1    1    2    0    0 -0.29188826975E+03  0.39813399043E+03 -0.72822640464E+03  0.87978585118E+03  0.10566000000E+00 0.  1.
         13    1    1    2    0    0 -0.13429306227E+03 -0.98220167279E+02 -0.18107940861E+03  0.24590972169E+03  0.10566000000E+00 0. -1.
          4    1    1    2  501    0  0.42618133202E+03 -0.29991382315E+03 -0.51781841470E+03  0.73465280213E+03  0.00000000000E+00 0.  1.
</event>
<event>
 5    1  0.2540860E-005  0.3789867E+02  0.7818608E-02  0.1357616E+00
         -4   -1    0    0    0  501 -0.00000000000E+00  0.00000000000E+00  0.12158539679E+03  0.12158539679E+03  0.00000000000E+00 0. -1.
         21   -1    0    0  501  502  0.00000000000E+00 -0.00000000000E+00 -0.54637766565E+02  0.54637766565E+02  0.00000000000E+00 0. -1.
        -13    1    1    2    0    0  0.23122235407E+02 -0.24301940907E+02  0.57181170240E+02  0.66294189007E+02  0.10566000000E+00 0.  1.
         13    1    1    2    0    0 -0.56444693185E+02  0.12056416543E+02  0.33960186735E+02  0.66967649024E+02  0.10566000000E+00 0. -1.
         -4    1    1    2    0  502  0.33322457778E+02  0.12245524363E+02 -0.24193726751E+02  0.42961325322E+02  0.00000000000E+00 0. -1.
</event>
<event>
 5    1  0.2540860E-005  0.2040038E+03  0.7818608E-02  0.1057425E+00
         21   -1    0    0  501  502  0.00000000000E+00  0.00000000000E+00  0.42384438258E+02  0.42384438258E+02  0.00000000000E+00 0.  1.
         -4   -1    0    0    0  501 -0.00000000000E+00 -0.00000000000E+00 -0.16795979303E+04  0.16795979303E+04  0.00000000000E+00 0. -1.
        -13    1    1    2    0    0 -0.34920933388E+01  0.14815446800E+03 -0.21744145176E+03  0.26314014747E+03  0.10566000000E+00 0.  1.
         13    1    1    2    0    0  0.17856231736E+02 -0.23996094016E+03 -0.95281069471E+03  0.98272495081E+03  0.10566000000E+00 0. -1.
         -4    1    1    2    0  502 -0.14364138398E+02  0.91806472160E+02 -0.46696134561E+03  0.47611727032E+03  0.00000000000E+00 0. -1.
</event>
<event>
 5    1  0.2540860E-005  0.4872042E+03  0.7818608E-02  0.9608469E-01
         21   -1    0    0  501  502  0.00000000000E+00  0.00000000000E+00  0.48034322389E+03  0.48034322389E+03  0.00000000000E+00 0. -1.
         -4   -1    0    0    0  501 -0.00000000000E+00 -0.00000000000E+00 -0.11749032927E+04  0.11749032927E+04  0.00000000000E+00 0. -1.
        -13    1    1    2    0    0 -0.48131608846E+02  0.33438258792E+03 -0.47229019165E+03  0.58067753803E+03  0.10566000000E+00 0.  1.
         13    1    1    2    0    0 -0.23451557340E+03  0.20830623005E+03 -0.32774907014E+03  0.45366122139E+03  0.10566000000E+00 0. -1.
         -4    1    1    2    0  502  0.28264718225E+03 -0.54268881797E+03  0.10547919297E+03  0.62090775719E+03  0.00000000000E+00 0. -1.
</event>
<event>
 5    1  0.2540860E-005  0.3548789E+03  0.7818608E-02  0.9869256E-01
         21   -1    0    0  501  502  0.00000000000E+00  0.00000000000E+00  0.75511735441E+02  0.75511735441E+02  0.00000000000E+00 0. -1.
         -4   -1    0    0    0  501 -0.00000000000E+00 -0.00000000000E+00 -0.22888351696E+04  0.22888351696E+04  0.00000000000E+00 0. -1.
        -13    1    1    2    0    0  0.30454457400E+03 -0.13420829746E+03 -0.66339664916E+03  0.74219565476E+03  0.10566000000E+00 0.  1.
         13    1    1    2    0    0 -0.29229397983E+03  0.23627200818E+03 -0.12195219407E+04  0.12761246050E+04  0.10566000000E+00 0. -1.
         -4    1    1    2    0  502 -0.12250594163E+02 -0.10206371072E+03 -0.33040484432E+03  0.34602664530E+03  0.00000000000E+00 0. -1.
</event>
<event>
 5    1  0.2540860E-005  0.2620383E+03  0.7818608E-02  0.1053602E+00
         21   -1    0    0  501  502  0.00000000000E+00  0.00000000000E+00  0.18347032367E+03  0.18347032367E+03  0.00000000000E+00 0. -1.
          4   -1    0    0  502    0 -0.00000000000E+00 -0.00000000000E+00 -0.17074343898E+04  0.17074343898E+04  0.00000000000E+00 0.  1.
        -13    1    1    2    0    0  0.19185464371E+03  0.10860219036E+03 -0.13195248477E+04  0.13378148134E+04  0.10566000000E+00 0.  1.
         13    1    1    2    0    0  0.73297498389E+02 -0.78947720604E+02 -0.25922442917E+03  0.28071797538E+03  0.10566000000E+00 0. -1.
          4    1    1    2  501    0 -0.26515214210E+03 -0.29654469760E+02  0.54785210768E+02  0.27237192468E+03  0.00000000000E+00 0.  1.
</event>
<event>
 5    1  0.2540860E-005  0.5692485E+03  0.7818608E-02  0.9337878E-01
         21   -1    0    0  501  502  0.00000000000E+00  0.00000000000E+00  0.22498516886E+03  0.22498516886E+03  0.00000000000E+00 0.  1.
         -4   -1    0    0    0  501 -0.00000000000E+00 -0.00000000000E+00 -0.17847307562E+04  0.17847307562E+04  0.00000000000E+00 0. -1.
        -13    1    1    2    0    0  0.56593469204E+03  0.11877667101E+02 -0.77827761926E+03  0.96236127231E+03  0.10566000000E+00 0.  1.
         13    1    1    2    0    0 -0.57238112570E+03 -0.29955085983E+01 -0.82407393775E+03  0.10033578585E+04  0.10566000000E+00 0. -1.
         -4    1    1    2    0  502  0.64464336608E+01 -0.88821585022E+01  0.42605969720E+02  0.43996794228E+02  0.00000000000E+00 0. -1.
</event>
<event>
 5    1  0.2540860E-005  0.5720843E+03  0.7818608E-02  0.9332592E-01
         21   -1    0    0  501  502  0.00000000000E+00  0.00000000000E+00  0.42262188359E+03  0.42262188359E+03  0.00000000000E+00 0. -1.
         -4   -1    0    0    0  501 -0.00000000000E+00 -0.00000000000E+00 -0.19909173717E+04  0.19909173717E+04  0.00000000000E+00 0. -1.
        -13    1    1    2    0    0  0.52677546081E+03 -0.11873445642E+03 -0.98798520660E+03  0.11259240813E+04  0.10566000000E+00 0.  1.
         13    1    1    2    0    0 -0.53974629340E+03  0.51594003834E+03 -0.43697279506E+03  0.86513895947E+03  0.10566000000E+00 0. -1.
         -4    1    1    2    0  502  0.12970832591E+02 -0.39720558193E+03 -0.14333748646E+03  0.42247621452E+03  0.00000000000E+00 0. -1.
</event>
<event>
 5    1  0.2540860E-005  0.3089153E+03  0.7818608E-02  0.1003692E+00
         21   -1    0    0  501  502  0.00000000000E+00  0.00000000000E+00  0.26120210783E+03  0.26120210783E+03  0.00000000000E+00 0.  1.
          4   -1    0    0  502    0 -0.00000000000E+00 -0.00000000000E+00 -0.90831043414E+03  0.90831043414E+03  0.00000000000E+00 0.  1.
        -13    1    1    2    0    0  0.34944039172E+03 -0.17541796325E+03 -0.27807402973E+02  0.39198636713E+03  0.10566000000E+00 0.  1.
         13    1    1    2    0    0 -0.19650215818E+03  0.22035250983E+03 -0.49088358863E+03  0.57283072151E+03  0.10566000000E+00 0. -1.
          4    1    1    2  501    0 -0.15293823355E+03 -0.44934546585E+02 -0.12841733471E+03  0.20469545332E+03  0.00000000000E+00 0.  1.
</event>
<event>
 5    1  0.2540860E-005  0.4047024E+03  0.7818608E-02  0.1008782E+00
         21   -1    0    0  501  502  0.00000000000E+00  0.00000000000E+00  0.13454012619E+03  0.13454012619E+03  0.00000000000E+00 0. -1.
         -4   -1    0    0    0  501 -0.00000000000E+00 -0.00000000000E+00 -0.22368865577E+04  0.22368865577E+04  0.00000000000E+00 0. -1.
        -13    1    1    2    0    0  0.91724777081E+02  0.71855256979E+02 -0.52154584276E+03  0.53440311559E+03  0.10566000000E+00 0.  1.
         13    1    1    2    0    0 -0.44402948499E+02 -0.45752673355E+03 -0.12316581373E+04  0.13146421992E+04  0.10566000000E+00 0. -1.
         -4    1    1    2    0  502 -0.47321828582E+02  0.38567147657E+03 -0.34914245144E+03  0.52238136902E+03  0.00000000000E+00 0. -1.
</event>
<event>
 5    1  0.2540860E-005  0.1483149E+03  0.7818608E-02  0.1102785E+00
         21   -1    0    0  501  502  0.00000000000E+00  0.00000000000E+00  0.55518161900E+02  0.55518161900E+02  0.00000000000E+00 0. -1.
          4   -1    0    0  502    0 -0.00000000000E+00 -0.00000000000E+00 -0.66254809215E+03  0.66254809215E+03  0.00000000000E+00 0.  1.
        -13    1    1    2    0    0 -0.12234808581E+02 -0.14856294669E+03 -0.39494578639E+03  0.42214076446E+03  0.10566000000E+00 0.  1.
         13    1    1    2    0    0  0.28724465224E+02  0.14488001098E+03 -0.22868713224E+03  0.27223726435E+03  0.10566000000E+00 0. -1.
          4    1    1    2  501    0 -0.16489656644E+02  0.36829357095E+01  0.16602988384E+02  0.23688225238E+02  0.00000000000E+00 0.  1.
</event>
<event>
 5    1  0.2540860E-005  0.2603164E+02  0.7818608E-02  0.1463476E+00
          4   -1    0    0  502    0 -0.00000000000E+00  0.00000000000E+00  0.45989423476E+02  0.45989423476E+02  0.00000000000E+00 0.  1.
         21   -1    0    0  501  502  0.00000000000E+00 -0.00000000000E+00 -0.97259563895E+02  0.97259563895E+02  0.00000000000E+00 0.  1.
        -13    1    1    2    0    0 -0.34062694945E+02  0.22144826778E+02  0.29981127367E+02  0.50492966858E+02  0.10566000000E+00 0.  1.
         13    1    1    2    0    0  0.98720775683E+01 -0.15108983180E+02 -0.22596621442E+02  0.28919850499E+02  0.10566000000E+00 0. -1.
          4    1    1    2  501    0  0.24190617377E+02 -0.70358435973E+01 -0.58654646344E+02  0.63836170014E+02  0.00000000000E+00 0.  1.
</event>
<event>
 5    1  0.2540860E-005  0.5535762E+03  0.7818608E-02  0.9367689E-01
         21   -1    0    0  501  502  0.00000000000E+00  0.00000000000E+00  0.32594644201E+03  0.32594644201E+03  0.00000000000E+00 0. -1.
         -4   -1    0    0    0  501 -0.00000000000E+00 -0.00000000000E+00 -0.27229154867E+04  0.27229154867E+04  0.00000000000E+00 0. -1.
        -13    1    1    2    0    0 -0.34691989316E+03  0.42207322853E+03 -0.15115095618E+04  0.16072213255E+04  0.10566000000E+00 0.  1.
         13    1    1    2    0    0  0.14126948894E+02 -0.67600588845E+03 -0.73017694815E+03  0.99515924288E+03  0.10566000000E+00 0. -1.
         -4    1    1    2    0  502  0.33279294427E+03  0.25393265992E+03 -0.15528253472E+03  0.44648136033E+03  0.00000000000E+00 0. -1.
</event>
<event>
 5    1  0.2540860E-005  0.6014407E+03  0.7818608E-02  0.9279706E-01
         -4   -1    0    0    0  501 -0.00000000000E+00  0.00000000000E+00  0.19868199008E+04  0.19868199008E+04  0.00000000000E+00 0. -1.
         21   -1    0    0  501  502  0.00000000000E+00 -0.00000000000E+00 -0.56899112550E+03  0.56899112550E+03  0.00000000000E+00 0.  1.
        -13    1    1    2    0    0  0.32970281171E+03  0.48349744541E+03 -0.17746245630E+03  0.61152813372E+03  0.10566000000E+00 0.  1.
         13    1    1    2    0    0 -0.30442008678E+03 -0.52136192618E+03  0.17139590417E+04  0.18171806336E+04  0.10566000000E+00 0. -1.
         -4    1    1    2    0  502 -0.25282724929E+02  0.37864480768E+02 -0.11866781010E+03  0.12710225898E+03  0.00000000000E+00 0. -1.
</event>
<event>
 5    1  0.2540860E-005  0.1638334E+03  0.7818608E-02  0.1097735E+00
          4   -1    0    0  502    0 -0.00000000000E+00  0.00000000000E+00  0.17119216184E+03  0.17119216184E+03  0.00000000000E+00 0.  1.
         21   -1    0    0  501  502  0.00000000000E+00 -0.00000000000E+00 -0.40639356589E+03  0.40639356589E+03  0.00000000000E+00 0.  1.
        -13    1    1    2    0    0  0.14853257372E+03  0.75173471410E+02 -0.19659241416E+03  0.25760738485E+03  0.10566000000E+00 0.  1.
         13    1    1    2    0    0  0.35715756392E+02 -0.12100426395E+03  0.32001455648E+00  0.12616560832E+03  0.10566000000E+00 0. -1.
          4    1    1    2  501    0 -0.18424833011E+03  0.45830792544E+02 -0.38929004448E+02  0.19381273457E+03  0.00000000000E+00 0.  1.
</event>
<event>
 5    1  0.2540860E-005  0.4314124E+03  0.7818608E-02  0.9852971E-01
         21   -1    0    0  501  502  0.00000000000E+00  0.00000000000E+00  0.17439343149E+03  0.17439343149E+03  0.00000000000E+00 0. -1.
         -4   -1    0    0    0  501 -0.00000000000E+00 -0.00000000000E+00 -0.23643319364E+04  0.23643319364E+04  0.00000000000E+00 0. -1.
        -13    1    1    2    0    0  0.15089751635E+03  0.14415089421E+03 -0.94037232894E+03  0.96324953617E+03  0.10566000000E+00 0.  1.
         13    1    1    2    0    0 -0.45011059070E+03 -0.19535253062E+03 -0.29209606276E+03  0.57103614257E+03  0.10566000000E+00 0. -1.
         -4    1    1    2    0  502  0.29921307434E+03  0.51201636410E+02 -0.95747011318E+03  0.10044396891E+04  0.00000000000E+00 0. -1.
</event>
<event>
 5    1  0.2540860E-005  0.2412428E+02  0.7818608E-02  0.1484184E+00
         21   -1    0    0  501  502  0.00000000000E+00  0.00000000000E+00  0.19087026210E+02  0.19087026210E+02  0.00000000000E+00 0.  1.
          4   -1    0    0  502    0 -0.00000000000E+00 -0.00000000000E+00 -0.11897605236E+03  0.11897605236E+03  0.00000000000E+00 0.  1.
        -13    1    1    2    0    0  0.19840543994E+02  0.19915588781E+02 -0.60555429493E+02  0.66762632270E+02  0.10566000000E+00 0.  1.
         13    1    1    2    0    0 -0.16096350034E+02  0.40130994599E+01 -0.43652536716E+02  0.46698528643E+02  0.10566000000E+00 0. -1.
          4    1    1    2  501    0 -0.37441939599E+01 -0.23928688241E+02  0.43189400558E+01  0.24601917660E+02  0.00000000000E+00 0.  1.
</event>
<event>
 5    1  0.2540860E-005  0.1457234E+03  0.7818608E-02  0.1105407E+00
         21   -1    0    0  501  502  0.00000000000E+00  0.00000000000E+00  0.69877860832E+03  0.69877860832E+03  0.00000000000E+00 0. -1.
          4   -1    0    0  502    0 -0.00000000000E+00 -0.00000000000E+00 -0.61014107243E+02  0.61014107243E+02  0.00000000000E+00 0.  1.
        -13    1    1    2    0    0  0.27994713715E+02 -0.13833925140E+03  0.72869701404E+02  0.15884412806E+03  0.10566000000E+00 0.  1.
         13    1    1    2    0    0 -0.51331407441E+02  0.15344494444E+03  0.36665899216E+03  0.40077311794E+03  0.10566000000E+00 0. -1.
          4    1    1    2  501    0  0.23336693727E+02 -0.15105693039E+02  0.19823580751E+03  0.20017546956E+03  0.00000000000E+00 0.  1.
</event>
<event>
 5    1  0.2540860E-005  0.5765414E+03  0.7818608E-02  0.9324349E-01
         21   -1    0    0  501  502  0.00000000000E+00  0.00000000000E+00  0.25861636563E+03  0.25861636563E+03  0.00000000000E+00 0.  1.
         -4   -1    0    0    0  501 -0.00000000000E+00 -0.00000000000E+00 -0.29682818032E+04  0.29682818032E+04  0.00000000000E+00 0. -1.
        -13    1    1    2    0    0  0.73910665201E+02 -0.57440457022E+03 -0.67096717929E+03  0.88634099734E+03  0.10566000000E+00 0.  1.
         13    1    1    2    0    0  0.39973547665E+03  0.51177284600E+03 -0.13967840285E+04  0.15403588967E+04  0.10566000000E+00 0. -1.
         -4    1    1    2    0  502 -0.47364614185E+03  0.62631724214E+02 -0.64191422975E+03  0.80019827476E+03  0.00000000000E+00 0. -1.
</event>
<event>
 5    1  0.2540860E-005  0.2127059E+03  0.7818608E-02  0.1051758E+00
         21   -1    0    0  501  502  0.00000000000E+00  0.00000000000E+00  0.16395881855E+03  0.16395881855E+03  0.00000000000E+00 0. -1.
         -4   -1    0    0    0  501 -0.00000000000E+00 -0.00000000000E+00 -0.10203804164E+04  0.10203804164E+04  0.00000000000E+00 0. -1.
        -13    1    1    2    0    0  0.22459974440E+03  0.15452002474E+02 -0.73367600374E+03  0.76744009486E+03  0.10566000000E+00 0.  1.
         13    1    1    2    0    0 -0.15369890287E+03 -0.14561303673E+03 -0.15844062777E+03  0.26444272140E+03  0.10566000000E+00 0. -1.
         -4    1    1    2    0  502 -0.70900841533E+02  0.13016103425E+03  0.35695033679E+02  0.15245641868E+03  0.00000000000E+00 0. -1.
</event>
<event>
 5    1  0.2540860E-005  0.3001423E+03  0.7818608E-02  0.1014906E+00
         21   -1    0    0  501  502  0.00000000000E+00  0.00000000000E+00  0.13483491174E+04  0.13483491174E+04  0.00000000000E+00 0. -1.
         -4   -1    0    0    0  501 -0.00000000000E+00 -0.00000000000E+00 -0.29466282619E+03  0.29466282619E+03  0.00000000000E+00 0. -1.
        -13    1    1    2    0    0 -0.15722627252E+03 -0.17435719811E+03  0.21402202276E+03  0.31768848058E+03  0.10566000000E+00 0.  1.
         13    1    1    2    0    0  0.90211222575E+02 -0.13891082390E+03 -0.18701892237E+03  0.24982067601E+03  0.10566000000E+00 0. -1.
         -4    1    1    2    0  502  0.67015049949E+02  0.31326802201E+03  0.10266831908E+04  0.10755027870E+04  0.00000000000E+00 0. -1.
</event>
<event>
 5    1  0.2540860E-005  0.2337253E+03  0.7818608E-02  0.1039190E+00
         -4   -1    0    0    0  501 -0.00000000000E+00  0.00000000000E+00  0.40194622291E+03  0.40194622291E+03  0.00000000000E+00 0. -1.
         21   -1    0    0  501  502  0.00000000000E+00 -0.00000000000E+00 -0.30427814182E+03  0.30427814182E+03  0.00000000000E+00 0.  1.
        -13    1    1    2    0    0  0.13421059439E+03 -0.18187428453E+03  0.20220711720E+03  0.30327952195E+03  0.10566000000E+00 0.  1.
         13    1    1    2    0    0 -0.15323349358E+03  0.19727851772E+03  0.42927798052E+02  0.25346030087E+03  0.10566000000E+00 0. -1.
         -4    1    1    2    0  502  0.19022899187E+02 -0.15404233188E+02 -0.14746683416E+03  0.14948454192E+03  0.00000000000E+00 0. -1.
</event>
<event>
 5    1  0.2540860E-005  0.5730509E+03  0.7818608E-02  0.9330798E-01
         21   -1    0    0  501  502  0.00000000000E+00  0.00000000000E+00  0.24588988500E+03  0.24588988500E+03  0.00000000000E+00 0. -1.
         -4   -1    0    0    0  501 -0.00000000000E+00 -0.00000000000E+00 -0.28157533008E+04  0.28157533008E+04  0.00000000000E+00 0. -1.
        -13    1    1    2    0    0  0.29239565915E+03 -0.41817193728E+03 -0.53878090720E+03  0.74205651250E+03  0.10566000000E+00 0.  1.
         13    1    1    2    0    0 -0.10803817747E+03  0.67417487013E+03 -0.81478632447E+03  0.10630431642E+04  0.10566000000E+00 0. -1.
         -4    1    1    2    0  502 -0.18435748168E+03 -0.25600293285E+03 -0.12162961841E+04  0.12565435091E+04  0.00000000000E+00 0. -1.
</event>
<event>
 5    1  0.2540860E-005  0.1333827E+03  0.7818608E-02  0.1118764E+00
         21   -1    0    0  501  502  0.00000000000E+00  0.00000000000E+00  0.60751166031E+03  0.60751166031E+03  0.00000000000E+00 0.  1.
         -4   -1    0    0    0  501 -0.00000000000E+00 -0.00000000000E+00 -0.70876563073E+02  0.70876563073E+02  0.00000000000E+00 0. -1.
        -13    1    1    2    0    0  0.12631034706E+03  0.25640774964E+02  0.35938892603E+02  0.13380346887E+03  0.10566000000E+00 0.  1.
         13    1    1    2    0    0 -0.15223011996E+03  0.82801924330E+01  0.27086328014E+03  0.31082068577E+03  0.10566000000E+00 0. -1.
         -4    1    1    2    0  502  0.25919772898E+02 -0.33920967397E+02  0.22983292449E+03  0.23376406874E+03  0.00000000000E+00 0. -1.
</event>
<event>
 5    1  0.4285854E-005  0.3980155E+03  0.7818608E-02  0.1003453E+00
         -4   -1    0    0    0  501 -0.00000000000E+00  0.00000000000E+00  0.11307731406E+04  0.11307731406E+04  0.00000000000E+00 0. -1.
         21   -1    0    0  501  502  0.00000000000E+00 -0.00000000000E+00 -0.53045823696E+03  0.53045823696E+03  0.00000000000E+00 0. -1.
        -13    1    1    2    0    0 -0.13900145376E+03 -0.43190548255E+02  0.62958396707E+03  0.64619100145E+03  0.10566000000E+00 0.  1.
         13    1    1    2    0    0 -0.77829381553E+02 -0.31514584076E+03  0.33024344769E+03  0.46307133305E+03  0.10566000000E+00 0. -1.
         -4    1    1    2    0  502  0.21683083531E+03  0.35833638901E+03 -0.35951251113E+03  0.55196904305E+03  0.00000000000E+00 0. -1.
</event>
<event>
 5    1  0.2540860E-005  0.8736335E+02  0.7818608E-02  0.1187347E+00
         21   -1    0    0  501  502  0.00000000000E+00  0.00000000000E+00  0.46647022824E+03  0.46647022824E+03  0.00000000000E+00 0. -1.
         -4   -1    0    0    0  501 -0.00000000000E+00 -0.00000000000E+00 -0.63670999365E+02  0.63670999365E+02  0.00000000000E+00 0. -1.
        -13    1    1    2    0    0 -0.32638682980E+02 -0.65506102991E+02  0.65867916564E+02  0.98462819136E+02  0.10566000000E+00 0.  1.
         13    1    1    2    0    0  0.39520741113E+02  0.87280465657E+02  0.18593800229E+01  0.95829208081E+02  0.10566000000E+00 0. -1.
         -4    1    1    2    0  502 -0.68820581330E+01 -0.21774362666E+02  0.33507193229E+03  0.33584920039E+03  0.00000000000E+00 0. -1.
</event>
<event>
 5    1  0.2540860E-005  0.5408450E+03  0.7818608E-02  0.9489462E-01
         21   -1    0    0  501  502  0.00000000000E+00  0.00000000000E+00  0.28031662832E+03  0.28031662832E+03  0.00000000000E+00 0. -1.
          4   -1    0    0  502    0 -0.00000000000E+00 -0.00000000000E+00 -0.36255272785E+04  0.36255272785E+04  0.00000000000E+00 0.  1.
        -13    1    1    2    0    0  0.20023728197E+03 -0.48831104485E+02 -0.85516968041E+03  0.87965597782E+03  0.10566000000E+00 0.  1.
         13    1    1    2    0    0 -0.15953046514E+03 -0.62621038923E+03 -0.21953848953E+04  0.22885157353E+04  0.10566000000E+00 0. -1.
          4    1    1    2  501    0 -0.40706816830E+02  0.67504149372E+03 -0.29465607447E+03  0.73767219373E+03  0.00000000000E+00 0.  1.
</event>
<event>
 5    1  0.2540860E-005  0.9841193E+02  0.7818608E-02  0.1167210E+00
          4   -1    0    0  502    0 -0.00000000000E+00  0.00000000000E+00  0.17460232668E+03  0.17460232668E+03  0.00000000000E+00 0.  1.
         21   -1    0    0  501  502  0.00000000000E+00 -0.00000000000E+00 -0.57147189169E+03  0.57147189169E+03  0.00000000000E+00 0.  1.
        -13    1    1    2    0    0  0.14871958530E+02 -0.10046753955E+03  0.14299319503E+03  0.17539089669E+03  0.10566000000E+00 0.  1.
         13    1    1    2    0    0 -0.20871142142E+02  0.76039648425E+02 -0.88151580963E+02  0.11827233445E+03  0.10566000000E+00 0. -1.
          4    1    1    2  501    0  0.59991836114E+01  0.24427891122E+02 -0.45171117907E+03  0.45241098723E+03  0.00000000000E+00 0.  1.
</event>
<event>
 5    1  0.2540860E-005  0.4457453E+03  0.7818608E-02  0.9846202E-01
         -4   -1    0    0    0  501 -0.00000000000E+00  0.00000000000E+00  0.22480263922E+03  0.22480263922E+03  0.00000000000E+00 0. -1.
         21   -1    0    0  501  502  0.00000000000E+00 -0.00000000000E+00 -0.17143549056E+04  0.17143549056E+04  0.00000000000E+00 0. -1.
        -13    1    1    2    0    0 -0.58994245731E+02 -0.18436467593E+03 -0.11482365156E+03  0.22506696089E+03  0.10566000000E+00 0.  1.
         13    1    1    2    0    0  0.37435275320E+03  0.31446915284E+03 -0.12642704615E+04  0.13555112109E+04  0.10566000000E+00 0. -1.
         -4    1    1    2    0  502 -0.31535850746E+03 -0.13010447691E+03 -0.11045815335E+03  0.35857937306E+03  0.00000000000E+00 0. -1.
</event>
<event>
 5    1  0.2540860E-005  0.5119831E+03  0.7818608E-02  0.9675123E-01
         21   -1    0    0  501  502  0.00000000000E+00  0.00000000000E+00  0.12910875414E+04  0.12910875414E+04  0.00000000000E+00 0. -1.
         -4   -1    0    0    0  501 -0.00000000000E+00 -0.00000000000E+00 -0.31938891495E+03  0.31938891495E+03  0.00000000000E+00 0. -1.
        -13    1    1    2    0    0 -0.92378068285E+02 -0.21078994549E+03  0.13396481995E+03  0.26629437239E+03  0.10566000000E+00 0.  1.
         13    1    1    2    0    0 -0.45041015570E+03 -0.18020756132E+01  0.24460214471E+03  0.51254538940E+03  0.10566000000E+00 0. -1.
         -4    1    1    2    0  502  0.54278822398E+03  0.21259202110E+03  0.59313166184E+03  0.83163669460E+03  0.00000000000E+00 0. -1.
</event>
<event>
 5    1  0.2540860E-005  0.7186980E+03  0.7818608E-02  0.9096287E-01
         21   -1    0    0  501  502  0.00000000000E+00  0.00000000000E+00  0.59564510250E+03  0.59564510250E+03  0.00000000000E+00 0. -1.
          4   -1    0    0  502    0 -0.00000000000E+00 -0.00000000000E+00 -0.15015963629E+04  0.15015963629E+04  0.00000000000E+00 0.  1.
        -13    1    1    2    0    0 -0.87419351757E+03 -0.65810569549E+02 -0.29381304346E+03  0.92459258751E+03  0.10566000000E+00 0.  1.
         13    1    1    2    0    0  0.63507166748E+03  0.15310486985E+03 -0.64251235242E+03  0.91628557676E+03  0.10566000000E+00 0. -1.
          4    1    1    2  501    0  0.23912185008E+03 -0.87294300297E+02  0.30374135474E+02  0.25636330111E+03  0.00000000000E+00 0.  1.
</event>
<event>
 5    1  0.2540860E-005  0.1981916E+03  0.7818608E-02  0.1061383E+00
         -4   -1    0    0    0  501 -0.00000000000E+00  0.00000000000E+00  0.54978488663E+02  0.54978488663E+02  0.00000000000E+00 0. -1.
         21   -1    0    0  501  502  0.00000000000E+00 -0.00000000000E+00 -0.76013166858E+03  0.76013166858E+03  0.00000000000E+00 0.  1.
        -13    1    1    2    0    0 -0.55572182087E+02  0.18562474781E+03 -0.36630312134E+03  0.41439450079E+03  0.10566000000E+00 0.  1.
         13    1    1    2    0    0  0.52388995434E+02 -0.19516479437E+03 -0.30892415746E+03  0.36914502574E+03  0.10566000000E+00 0. -1.
         -4    1    1    2    0  502  0.31831866538E+01  0.95400465530E+01 -0.29925901127E+02  0.31570630715E+02  0.00000000000E+00 0. -1.
</event>
<event>
 5    1  0.2540860E-005  0.3688923E+03  0.7818608E-02  0.1010911E+00
         21   -1    0    0  501  502  0.00000000000E+00  0.00000000000E+00  0.54250934802E+03  0.54250934802E+03  0.00000000000E+00 0. -1.
         -4   -1    0    0    0  501 -0.00000000000E+00 -0.00000000000E+00 -0.13559731883E+04  0.13559731883E+04  0.00000000000E+00 0. -1.
        -13    1    1    2    0    0  0.14150073952E+03 -0.24909769874E+02 -0.78723618816E+03  0.80023982845E+03  0.10566000000E+00 0.  1.
         13    1    1    2    0    0 -0.38650537550E+03 -0.25408362551E+02  0.42951745505E+03  0.57837465845E+03  0.10566000000E+00 0. -1.
         -4    1    1    2    0  502  0.24500463598E+03  0.50318132425E+02 -0.45574510717E+03  0.51986804942E+03  0.00000000000E+00 0. -1.
</event>
<event>
 5    1  0.2540860E-005  0.1987468E+03  0.7818608E-02  0.1060998E+00
         21   -1    0    0  501  502  0.00000000000E+00  0.00000000000E+00  0.13820919062E+03  0.13820919062E+03  0.00000000000E+00 0.  1.
          4   -1    0    0  502    0 -0.00000000000E+00 -0.00000000000E+00 -0.26407212441E+04  0.26407212441E+04  0.00000000000E+00 0.  1.
        -13    1    1    2    0    0  0.26245244665E+03 -0.99872224546E+02 -0.45178461419E+02  0.28442372005E+03  0.10566000000E+00 0.  1.
         13    1    1    2    0    0 -0.18538872207E+03  0.29146849200E+02 -0.49488905799E+03  0.52927658929E+03  0.10566000000E+00 0. -1.
          4    1    1    2  501    0 -0.77063724574E+02  0.70725375347E+02 -0.19624445341E+04  0.19652301254E+04  0.00000000000E+00 0.  1.
</event>
<event>
 5    1  0.2540860E-005  0.2537526E+03  0.7818608E-02  0.1028466E+00
         21   -1    0    0  501  502  0.00000000000E+00  0.00000000000E+00  0.53118104817E+02  0.53118104817E+02  0.00000000000E+00 0. -1.
          4   -1    0    0  502    0 -0.00000000000E+00 -0.00000000000E+00 -0.38973525676E+04  0.38973525676E+04  0.00000000000E+00 0.  1.
        -13    1    1    2    0    0  0.19213098197E+03 -0.23933454528E+03 -0.77912425131E+03  0.83739473902E+03  0.10566000000E+00 0.  1.
         13    1    1    2    0    0 -0.17254722166E+02  0.23567991245E+03 -0.64971114055E+03  0.69135180906E+03  0.10566000000E+00 0. -1.
          4    1    1    2  501    0 -0.17487625980E+03  0.36546328285E+01 -0.24153990709E+04  0.24217241244E+04  0.00000000000E+00 0.  1.
</event>
<event>
 5    1  0.2540860E-005  0.1586315E+03  0.7818608E-02  0.1092898E+00
         -4   -1    0    0    0  501 -0.00000000000E+00  0.00000000000E+00  0.14568845702E+04  0.14568845702E+04  0.00000000000E+00 0. -1.
         21   -1    0    0  501  502  0.00000000000E+00 -0.00000000000E+00 -0.38105474783E+02  0.38105474783E+02  0.00000000000E+00 0.  1.
        -13    1    1    2    0    0  0.12924184522E+03  0.36009157587E+02  0.46229882018E+03  0.48137337306E+03  0.10566000000E+00 0.  1.
         13    1    1    2    0    0 -0.14625471830E+03 -0.14152876098E+03  0.78988162972E+03  0.81567998195E+03  0.10566000000E+00 0. -1.
         -4    1    1    2    0  502  0.17012873086E+02  0.10551960340E+03  0.16659864550E+03  0.19793668996E+03  0.00000000000E+00 0. -1.
</event>
<event>
 5    1  0.2540860E-005  0.1438638E+03  0.7818608E-02  0.1137454E+00
         -4   -1    0    0    0  501 -0.00000000000E+00  0.00000000000E+00  0.26594986446E+03  0.26594986446E+03  0.00000000000E+00 0. -1.
         21   -1    0    0  501  502  0.00000000000E+00 -0.00000000000E+00 -0.60374138638E+03  0.60374138638E+03  0.00000000000E+00 0. -1.
        -13    1    1    2    0    0 -0.17013833756E+02 -0.63432973553E+02  0.22468049160E+03  0.23408235120E+03  0.10566000000E+00 0.  1.
         13    1    1    2    0    0  0.39664259334E+02  0.16949997955E+03 -0.43318130995E+03  0.46685067740E+03  0.10566000000E+00 0. -1.
         -4    1    1    2    0  502 -0.22650425577E+02 -0.10606700599E+03 -0.12929070357E+03  0.16875822223E+03  0.00000000000E+00 0. -1.
</event>
<event>
 5    1  0.2540860E-005  0.1917882E+03  0.7818608E-02  0.1065916E+00
         -4   -1    0    0    0  501 -0.00000000000E+00  0.00000000000E+00  0.35298271102E+03  0.35298271102E+03  0.00000000000E+00 0. -1.
         21   -1    0    0  501  502  0.00000000000E+00 -0.00000000000E+00 -0.22602967276E+03  0.22602967276E+03  0.00000000000E+00 0.  1.
        -13    1    1    2    0    0 -0.30930676039E+02 -0.17768863809E+03 -0.16484392043E+02  0.18111241032E+03  0.10566000000E+00 0.  1.
         13    1    1    2    0    0  0.40079149004E+02  0.19178545212E+03  0.23434072195E+03  0.30545635196E+03  0.10566000000E+00 0. -1.
         -4    1    1    2    0  502 -0.91484729645E+01 -0.14096814027E+02 -0.90903291646E+02  0.92443621496E+02  0.00000000000E+00 0. -1.
</event>
<event>
 5    1  0.2540860E-005  0.3445926E+03  0.7818608E-02  0.9991090E-01
         -4   -1    0    0    0  501 -0.00000000000E+00  0.00000000000E+00  0.11526796140E+04  0.11526796140E+04  0.00000000000E+00 0. -1.
         21   -1    0    0  501  502  0.00000000000E+00 -0.00000000000E+00 -0.59623155413E+03  0.59623155413E+03  0.00000000000E+00 0. -1.
        -13    1    1    2    0    0 -0.46895910099E+03 -0.19908388580E+03  0.31644086062E+03  0.59974316288E+03  0.10566000000E+00 0.  1.
         13    1    1    2    0    0  0.77600060522E+02  0.27065696196E+03  0.56773333697E+03  0.63371769229E+03  0.10566000000E+00 0. -1.
         -4    1    1    2    0  502  0.39135904047E+03 -0.71573076152E+02 -0.32772613773E+03  0.51545031296E+03  0.00000000000E+00 0. -1.
</event>
<event>
 5    1  0.2540860E-005  0.4877820E+03  0.7818608E-02  0.9684416E-01
         -4   -1    0    0    0  501 -0.00000000000E+00  0.00000000000E+00  0.21403214406E+04  0.21403214406E+04  0.00000000000E+00 0. -1.
         21   -1    0    0  501  502  0.00000000000E+00 -0.00000000000E+00 -0.30996358805E+03  0.30996358805E+03  0.00000000000E+00 0. -1.
        -13    1    1    2    0    0  0.68888980320E+02 -0.24823509393E+03  0.12468933010E+04  0.12732278934E+04  0.10566000000E+00 0.  1.
         13    1    1    2    0    0  0.10092113291E+03  0.61164496616E+03  0.32593437002E+03  0.70037694452E+03  0.10566000000E+00 0. -1.
         -4    1    1    2    0  502 -0.16981011323E+03 -0.36340987223E+03  0.25753018161E+03  0.47668019073E+03  0.00000000000E+00 0. -1.
</event>
<event>
 5    1  0.2540860E-005  0.5278605E+03  0.7818608E-02  0.9418913E-01
         21   -1    0    0  501  502  0.00000000000E+00  0.00000000000E+00  0.53804242066E+03  0.53804242066E+03  0.00000000000E+00 0. -1.
          4   -1    0    0  502    0 -0.00000000000E+00 -0.00000000000E+00 -0.10910526445E+04  0.10910526445E+04  0.00000000000E+00 0.  1.
        -13    1    1    2    0    0  0.17826328621E+03  0.67848833916E+03 -0.34980342352E+03  0.78389200267E+03  0.10566000000E+00 0.  1.
         13    1    1    2    0    0 -0.24882490802E+03 -0.36413826536E+03 -0.26870194397E+03  0.51644095210E+03  0.10566000000E+00 0. -1.
          4    1    1    2  501    0  0.70561621813E+02 -0.31435007379E+03  0.65495143662E+02  0.32876211036E+03  0.00000000000E+00 0.  1.
</event>
<event>
 5    1  0.2832334E-005  0.2872903E+03  0.7818608E-02  0.1012694E+00
         -4   -1    0    0    0  501 -0.00000000000E+00  0.00000000000E+00  0.17030298767E+04  0.17030298767E+04  0.00000000000E+00 0. -1.
         21   -1    0    0  501  502  0.00000000000E+00 -0.00000000000E+00 -0.48193517057E+03  0.48193517057E+03  0.00000000000E+00 0. -1.
        -13    1    1    2    0    0  0.24446713018E+03  0.29374681895E+03  0.10365911833E+04  0.11047953040E+04  0.10566000000E+00 0.  1.
         13    1    1    2    0    0 -0.50197336855E+02 -0.23180172296E+03  0.58472649766E+03  0.63099675088E+03  0.10566000000E+00 0. -1.
         -4    1    1    2    0  502 -0.19426979332E+03 -0.61945095989E+02 -0.40022297481E+03  0.44917299237E+03  0.00000000000E+00 0. -1.
</event>
<event>
 5    1  0.2540860E-005  0.4845943E+03  0.7818608E-02  0.9700790E-01
         -4   -1    0    0    0  501 -0.00000000000E+00  0.00000000000E+00  0.28458352027E+04  0.28458352027E+04  0.00000000000E+00 0. -1.
         21   -1    0    0  501  502  0.00000000000E+00 -0.00000000000E+00 -0.17582744820E+03  0.17582744820E+03  0.00000000000E+00 0. -1.
        -13    1    1    2    0    0  0.10734463023E+03  0.22373154016E+03  0.12169147387E+04  0.12419581974E+04  0.10566000000E+00 0.  1.
         13    1    1    2    0    0 -0.44237011080E+03  0.16744130041E+03  0.94218743840E+03  0.10542509589E+04  0.10566000000E+00 0. -1.
         -4    1    1    2    0  502  0.33502548057E+03 -0.39117284057E+03  0.51090557737E+03  0.72545349459E+03  0.00000000000E+00 0. -1.
</event>
<event>
 5    1  0.2540860E-005  0.2021507E+03  0.7818608E-02  0.1058671E+00
         -4   -1    0    0    0  501 -0.00000000000E+00  0.00000000000E+00  0.14599487066E+04  0.14599487066E+04  0.00000000000E+00 0. -1.
         21   -1    0    0  501  502  0.00000000000E+00 -0.00000000000E+00 -0.15858531113E+03  0.15858531113E+03  0.00000000000E+00 0. -1.
        -13    1    1    2    0    0 -0.16870721110E+03  0.27800239880E+02  0.46237888105E+03  0.49297993592E+03  0.10566000000E+00 0.  1.
         13    1    1    2    0    0  0.22822491623E+03 -0.27029783362E+02  0.96190596682E+03  0.98897943444E+03  0.10566000000E+00 0. -1.
         -4    1    1    2    0  502 -0.59517705129E+02 -0.77045651792E+00 -0.12292145243E+03  0.13657464733E+03  0.00000000000E+00 0. -1.
</event>
<event>
 5    1  0.2540860E-005  0.3713699E+03  0.7818608E-02  0.9815579E-01
         21   -1    0    0  501  502  0.00000000000E+00  0.00000000000E+00  0.26187271577E+03  0.26187271577E+03  0.00000000000E+00 0.  1.
          4   -1    0    0  502    0 -0.00000000000E+00 -0.00000000000E+00 -0.10511245750E+04  0.10511245750E+04  0.00000000000E+00 0.  1.
        -13    1    1    2    0    0  0.47644089231E+03  0.29126858274E+02 -0.62126673604E+03  0.78346452773E+03  0.10566000000E+00 0.  1.
         13    1    1    2    0    0 -0.26394732931E+03  0.49366029915E+02 -0.13521786812E+03  0.30064776830E+03  0.10566000000E+00 0. -1.
          4    1    1    2  501    0 -0.21249356301E+03 -0.78492888189E+02 -0.32767255080E+02  0.22888499475E+03  0.00000000000E+00 0.  1.
</event>
<event>
 5    1  0.2540860E-005  0.4390841E+03  0.7818608E-02  0.9775855E-01
         -4   -1    0    0    0  501 -0.00000000000E+00  0.00000000000E+00  0.35668549359E+03  0.35668549359E+03  0.00000000000E+00 0. -1.
         21   -1    0    0  501  502  0.00000000000E+00 -0.00000000000E+00 -0.14536333539E+04  0.14536333539E+04  0.00000000000E+00 0. -1.
        -13    1    1    2    0    0 -0.60037104350E+00  0.25735412047E+03  0.57362893451E+02  0.26367027985E+03  0.10566000000E+00 0.  1.
         13    1    1    2    0    0  0.33916119147E+03 -0.46894286595E+03 -0.43507878693E+03  0.72403818085E+03  0.10566000000E+00 0. -1.
         -4    1    1    2    0  502 -0.33856082043E+03  0.21158874548E+03 -0.71923196680E+03  0.82261038676E+03  0.00000000000E+00 0. -1.
</event>
<event>
 5    1  0.2540860E-005  0.4953460E+03  0.7818608E-02  0.9907983E-01
         21   -1    0    0  501  502  0.00000000000E+00  0.00000000000E+00  0.14328008818E+03  0.14328008818E+03  0.00000000000E+00 0.  1.
          4   -1    0    0  502    0 -0.00000000000E+00 -0.00000000000E+00 -0.21857870866E+04  0.21857870866E+04  0.00000000000E+00 0.  1.
        -13    1    1    2    0    0 -0.45183033125E+03  0.10219994645E+03 -0.87472796589E+03  0.98982043966E+03  0.10566000000E+00 0.  1.
         13    1    1    2    0    0 -0.79765491985E+02 -0.82288511938E+02 -0.30297739900E+03  0.32392784440E+03  0.10566000000E+00 0. -1.
          4    1    1    2  501    0  0.53159582323E+03 -0.19911434516E+02 -0.86480163352E+03  0.10153188907E+04  0.00000000000E+00 0.  1.
</event>
<event>
 5    1  0.2540860E-005  0.2241724E+03  0.7818608E-02  0.1044719E+00
         21   -1    0    0  501  502  0.00000000000E+00  0.00000000000E+00  0.82083084242E+02  0.82083084242E+02  0.00000000000E+00 0. -1.
         -4   -1    0    0    0  501 -0.00000000000E+00 -0.00000000000E+00 -0.24589631760E+04  0.24589631760E+04  0.00000000000E+00 0. -1.
        -13    1    1    2    0    0  0.61750141379E+02  0.21962476616E+03 -0.12455236780E+04  0.12662453796E+04  0.10566000000E+00 0.  1.
         13    1    1    2    0    0 -0.73869131861E+02 -0.20781086195E+03 -0.11917986453E+04  0.12120338383E+04  0.10566000000E+00 0. -1.
         -4    1    1    2    0  502  0.12118990482E+02 -0.11813904208E+02  0.60442231485E+02  0.62767042386E+02  0.00000000000E+00 0. -1.
</event>
<event>
 5    1  0.2540860E-005  0.4695011E+03  0.7818608E-02  0.9609544E-01
         -4   -1    0    0    0  501 -0.00000000000E+00  0.00000000000E+00  0.22802220538E+04  0.22802220538E+04  0.00000000000E+00 0. -1.
         21   -1    0    0  501  502  0.00000000000E+00 -0.00000000000E+00 -0.23668156207E+03  0.23668156207E+03  0.00000000000E+00 0.  1.
        -13    1    1    2    0    0  0.15517018138E+03  0.34255819537E+03  0.75915012587E+03  0.84719113970E+03  0.10566000000E+00 0.  1.
         13    1    1    2    0    0 -0.44243062951E+03  0.95879200201E+02  0.93773293783E+03  0.10412880278E+04  0.10566000000E+00 0. -1.
         -4    1    1    2    0  502  0.28726044813E+03 -0.43843739558E+03  0.34665742799E+03  0.62842444835E+03  0.00000000000E+00 0. -1.
</event>
<event>
 5    1  0.2540860E-005  0.4976923E+03  0.7818608E-02  0.9663578E-01
         -4   -1    0    0    0  501 -0.00000000000E+00  0.00000000000E+00  0.29124539621E+04  0.29124539621E+04  0.00000000000E+00 0. -1.
         21   -1    0    0  501  502  0.00000000000E+00 -0.00000000000E+00 -0.14514923230E+03  0.14514923230E+03  0.00000000000E+00 0. -1.
        -13    1    1    2    0    0  0.23147969044E+03 -0.12033538466E+03  0.67843119524E+03  0.72686473963E+03  0.10566000000E+00 0.  1.
         13    1    1    2    0    0 -0.16805268132E+03 -0.43944329428E+03  0.93825628577E+03  0.10496080133E+04  0.10566000000E+00 0. -1.
         -4    1    1    2    0  502 -0.63427009123E+02  0.55977867894E+03  0.11506172487E+04  0.12811304414E+04  0.00000000000E+00 0. -1.
</event>
<event>
 5    1  0.2540860E-005  0.3868529E+03  0.7818608E-02  0.9767801E-01
         -4   -1    0    0    0  501 -0.00000000000E+00  0.00000000000E+00  0.15406214251E+04  0.15406214251E+04  0.00000000000E+00 0. -1.
         21   -1    0    0  501  502  0.00000000000E+00 -0.00000000000E+00 -0.28001356669E+03  0.28001356669E+03  0.00000000000E+00 0. -1.
        -13    1    1    2    0    0  0.22402422351E+03 -0.19074838417E+03  0.31730559784E+03  0.43272930611E+03  0.10566000000E+00 0.  1.
         13    1    1    2    0    0 -0.24421002383E+03  0.41560598114E+03  0.10369298584E+04  0.11434991953E+04  0.10566000000E+00 0. -1.
         -4    1    1    2    0  502  0.20185800322E+02 -0.22485759697E+03 -0.93627597827E+02  0.24440649035E+03  0.00000000000E+00 0. -1.
</event>
<event>
 5    1  0.2540860E-005  0.7404639E+02  0.7818608E-02  0.1216494E+00
         21   -1    0    0  501  502  0.00000000000E+00  0.00000000000E+00  0.80747710095E+02  0.80747710095E+02  0.00000000000E+00 0.  1.
         -4   -1    0    0    0  501 -0.00000000000E+00 -0.00000000000E+00 -0.30343554652E+03  0.30343554652E+03  0.00000000000E+00 0. -1.
        -13    1    1    2    0    0 -0.10694023594E+03  0.35550984704E+01 -0.65637761678E+01  0.10720049958E+03  0.10566000000E+00 0.  1.
         13    1    1    2    0    0  0.70030276748E+02  0.93247421940E+01 -0.22589716455E+03  0.23668698864E+03  0.10566000000E+00 0. -1.
         -4    1    1    2    0  502  0.36909959194E+02 -0.12879840664E+02  0.97731042873E+01  0.40295768396E+02  0.00000000000E+00 0. -1.
</event>
<event>
 5    1  0.2540860E-005  0.4291722E+03  0.7818608E-02  0.9872450E-01
         21   -1    0    0  501  502  0.00000000000E+00  0.00000000000E+00  0.21691120989E+03  0.21691120989E+03  0.00000000000E+00 0. -1.
         -4   -1    0    0    0  501 -0.00000000000E+00 -0.00000000000E+00 -0.23852376136E+04  0.23852376136E+04  0.00000000000E+00 0. -1.
        -13    1    1    2    0    0  0.19458951360E+03  0.39200163424E+02 -0.10032479770E+04  0.10226965563E+04  0.10566000000E+00 0.  1.
         13    1    1    2    0    0 -0.46680487649E+03  0.49086827483E+02 -0.10440316194E+03  0.48084960303E+03  0.10566000000E+00 0. -1.
         -4    1    1    2    0  502  0.27221536289E+03 -0.88286990908E+02 -0.10606752648E+04  0.10986026642E+04  0.00000000000E+00 0. -1.
</event>
<event>
 5    1  0.2540860E-005  0.3641405E+03  0.7818608E-02  0.1011785E+00
          4   -1    0    0  502    0 -0.00000000000E+00  0.00000000000E+00  0.29943931556E+04  0.29943931556E+04  0.00000000000E+00 0.  1.
         21   -1    0    0  501  502  0.00000000000E+00 -0.00000000000E+00 -0.11290966615E+03  0.11290966615E+03  0.00000000000E+00 0.  1.
        -13    1    1    2    0    0  0.28484000698E+02 -0.37257132982E+03  0.20491743811E+04  0.20829633673E+04  0.10566000000E+00 0.  1.
         13    1    1    2    0    0  0.13791692502E+03  0.45562243584E+02  0.52812548923E+03  0.54773491745E+03  0.10566000000E+00 0. -1.
          4    1    1    2  501    0 -0.16640092572E+03  0.32700908623E+03  0.30418361905E+03  0.47660453697E+03  0.00000000000E+00 0.  1.
</event>
<event>
 5    1  0.2540860E-005  0.1687819E+03  0.7818608E-02  0.1083934E+00
          4   -1    0    0  502    0 -0.00000000000E+00  0.00000000000E+00  0.45640362261E+03  0.45640362261E+03  0.00000000000E+00 0.  1.
         21   -1    0    0  501  502  0.00000000000E+00 -0.00000000000E+00 -0.18442243331E+03  0.18442243331E+03  0.00000000000E+00 0.  1.
        -13    1    1    2    0    0  0.17759987984E+03 -0.52072730470E+01  0.38532925418E+03  0.42432001874E+03  0.10566000000E+00 0.  1.
         13    1    1    2    0    0 -0.12358094021E+03 -0.14941912315E+02 -0.60963855770E+02  0.13860776458E+03  0.10566000000E+00 0. -1.
          4    1    1    2  501    0 -0.54018939633E+02  0.20149185362E+02 -0.52384209108E+02  0.77898272598E+02  0.00000000000E+00 0.  1.
</event>
<event>
 5    1  0.2540860E-005  0.1176134E+03  0.7818608E-02  0.1138312E+00
         21   -1    0    0  501  502  0.00000000000E+00  0.00000000000E+00  0.68232973766E+03  0.68232973766E+03  0.00000000000E+00 0.  1.
         -4   -1    0    0    0  501 -0.00000000000E+00 -0.00000000000E+00 -0.55956108161E+02  0.55956108161E+02  0.00000000000E+00 0. -1.
        -13    1    1    2    0    0 -0.81169095912E+02  0.15136958497E+03  0.34292398844E+03  0.38353363138E+03  0.10566000000E+00 0.  1.
         13    1    1    2    0    0  0.42203510734E+02 -0.95516460953E+02  0.58446137138E+02  0.11966826121E+03  0.10566000000E+00 0. -1.
         -4    1    1    2    0  502  0.38965585177E+02 -0.55853124018E+02  0.22500350392E+03  0.23508395323E+03  0.00000000000E+00 0. -1.
</event>
<event>
 5    1  0.2540860E-005  0.2514852E+03  0.7818608E-02  0.1029626E+00
          4   -1    0    0  502    0 -0.00000000000E+00  0.00000000000E+00  0.14322558679E+03  0.14322558679E+03  0.00000000000E+00 0.  1.
         21   -1    0    0  501  502  0.00000000000E+00 -0.00000000000E+00 -0.57823489421E+03  0.57823489421E+03  0.00000000000E+00 0. -1.
        -13    1    1    2    0    0 -0.31313562829E+02  0.26078964680E+03 -0.26576516218E+03  0.37366149345E+03  0.10566000000E+00 0.  1.
         13    1    1    2    0    0  0.73203523510E+02 -0.23536063745E+03 -0.10732520316E+03  0.26883469998E+03  0.10566000000E+00 0. -1.
          4    1    1    2  501    0 -0.41889960681E+02 -0.25429009352E+02 -0.61918942087E+02  0.78964287571E+02  0.00000000000E+00 0.  1.
</event>
<event>
 5    1  0.2540860E-005  0.2638682E+03  0.7818608E-02  0.1044091E+00
         21   -1    0    0  501  502  0.00000000000E+00  0.00000000000E+00  0.32556416659E+03  0.32556416659E+03  0.00000000000E+00 0.  1.
          4   -1    0    0  502    0 -0.00000000000E+00 -0.00000000000E+00 -0.15330579678E+04  0.15330579678E+04  0.00000000000E+00 0.  1.
        -13    1    1    2    0    0 -0.13630942658E+03  0.42954855777E+02 -0.62599737076E+03  0.64210442980E+03  0.10566000000E+00 0.  1.
         13    1    1    2    0    0 -0.10191226515E+03  0.96098111172E+02 -0.83212048187E+03  0.84382786412E+03  0.10566000000E+00 0. -1.
          4    1    1    2  501    0  0.23822169173E+03 -0.13905296695E+03  0.25062405142E+03  0.37268984046E+03  0.00000000000E+00 0.  1.
</event>
<event>
 5    1  0.2540860E-005  0.3716967E+02  0.7818608E-02  0.1355126E+00
         21   -1    0    0  501  502  0.00000000000E+00  0.00000000000E+00  0.49433121538E+02  0.49433121538E+02  0.00000000000E+00 0. -1.
          4   -1    0    0  502    0 -0.00000000000E+00 -0.00000000000E+00 -0.11769298411E+03  0.11769298411E+03  0.00000000000E+00 0.  1.
        -13    1    1    2    0    0  0.72778335903E+01  0.36256258876E+02 -0.98972851026E+02  0.10565566513E+03  0.10566000000E+00 0.  1.
         13    1    1    2    0    0 -0.19348122293E+02 -0.35732244024E+02  0.19851627805E+02  0.45224345101E+02  0.10566000000E+00 0. -1.
          4    1    1    2  501    0  0.12070288703E+02 -0.52401485210E+00  0.10861360654E+02  0.16246095414E+02  0.00000000000E+00 0.  1.
</event>
<event>
 5    1  0.2540860E-005  0.1226960E+03  0.7818608E-02  0.1131663E+00
         21   -1    0    0  501  502  0.00000000000E+00  0.00000000000E+00  0.52790619497E+03  0.52790619497E+03  0.00000000000E+00 0.  1.
         -4   -1    0    0    0  501 -0.00000000000E+00 -0.00000000000E+00 -0.74690302005E+02  0.74690302005E+02  0.00000000000E+00 0. -1.
        -13    1    1    2    0    0 -0.58500930489E+02  0.10458412500E+03  0.73513997089E+02  0.14058633291E+03  0.10566000000E+00 0.  1.
         13    1    1    2    0    0  0.14679591259E+03 -0.47553561919E+02  0.18643733789E+03  0.24201089506E+03  0.10566000000E+00 0. -1.
         -4    1    1    2    0  502 -0.88294982096E+02 -0.57030563082E+02  0.19326455799E+03  0.21999926901E+03  0.00000000000E+00 0. -1.
</event>
<event>
 5    1  0.2540860E-005  0.4876452E+03  0.7818608E-02  0.9805857E-01
         21   -1    0    0  501  502  0.00000000000E+00  0.00000000000E+00  0.50211949619E+03  0.50211949619E+03  0.00000000000E+00 0. -1.
         -4   -1    0    0    0  501 -0.00000000000E+00 -0.00000000000E+00 -0.92806558944E+03  0.92806558944E+03  0.00000000000E+00 0. -1.
        -13    1    1    2    0    0  0.53457139320E+02 -0.16090234834E+03 -0.38755341126E+03  0.42301878113E+03  0.10566000000E+00 0.  1.
         13    1    1    2    0    0 -0.40183806366E+03 -0.23988234890E+03  0.42860629557E+02  0.46995150330E+03  0.10566000000E+00 0. -1.
         -4    1    1    2    0  502  0.34838092434E+03  0.40078469724E+03 -0.81253311553E+02  0.53721480120E+03  0.00000000000E+00 0. -1.
</event>
<event>
 5    1  0.2540860E-005  0.6561682E+02  0.7818608E-02  0.1238720E+00
         21   -1    0    0  501  502  0.00000000000E+00  0.00000000000E+00  0.20056610962E+03  0.20056610962E+03  0.00000000000E+00 0.  1.
         -4   -1    0    0    0  501 -0.00000000000E+00 -0.00000000000E+00 -0.35595588928E+02  0.35595588928E+02  0.00000000000E+00 0. -1.
        -13    1    1    2    0    0 -0.32885515616E+02  0.48286337370E+02  0.83707707551E+02  0.10207849422E+03  0.10566000000E+00 0.  1.
         13    1    1    2    0    0  0.46196438023E+02 -0.51837419641E+02  0.21403643057E+02  0.72659177405E+02  0.10566000000E+00 0. -1.
         -4    1    1    2    0  502 -0.13310922406E+02  0.35510822707E+01  0.59859170083E+02  0.61424026925E+02  0.00000000000E+00 0. -1.
</event>
<event>
 5    1  0.2540860E-005  0.3467710E+03  0.7818608E-02  0.9896795E-01
         -4   -1    0    0    0  501 -0.00000000000E+00  0.00000000000E+00  0.25954747508E+04  0.25954747508E+04  0.00000000000E+00 0. -1.
         21   -1    0    0  501  502  0.00000000000E+00 -0.00000000000E+00 -0.19852505584E+03  0.19852505584E+03  0.00000000000E+00 0. -1.
        -13    1    1    2    0    0  0.30414758800E+03 -0.71515944523E+02  0.10212428168E+04  0.10679687204E+04  0.10566000000E+00 0.  1.
         13    1    1    2    0    0 -0.58313227269E+03  0.19715812551E+02  0.39374634018E+03  0.70389498669E+03  0.10566000000E+00 0. -1.
         -4    1    1    2    0  502  0.27898468468E+03  0.51800131972E+02  0.98196053798E+03  0.10221360996E+04  0.00000000000E+00 0. -1.
</event>
<event>
 5    1  0.2540860E-005  0.1115849E+03  0.7818608E-02  0.1146692E+00
         -4   -1    0    0    0  501 -0.00000000000E+00  0.00000000000E+00  0.33701538489E+03  0.33701538489E+03  0.00000000000E+00 0. -1.
         21   -1    0    0  501  502  0.00000000000E+00 -0.00000000000E+00 -0.13246568259E+03  0.13246568259E+03  0.00000000000E+00 0.  1.
        -13    1    1    2    0    0 -0.68352787318E+02 -0.61182026527E+02 -0.86441113371E+02  0.12604531387E+03  0.10566000000E+00 0.  1.
         13    1    1    2    0    0  0.71283450502E+02  0.88547749813E+02  0.29451247465E+03  0.31568915598E+03  0.10566000000E+00 0. -1.
         -4    1    1    2    0  502 -0.29306631841E+01 -0.27365723286E+02 -0.35216589847E+01  0.27746597623E+02  0.00000000000E+00 0. -1.
</event>
<event>
 5    1  0.2540860E-005  0.1684756E+03  0.7818608E-02  0.1084195E+00
          4   -1    0    0  502    0 -0.00000000000E+00  0.00000000000E+00  0.10875670976E+03  0.10875670976E+03  0.00000000000E+00 0.  1.
         21   -1    0    0  501  502  0.00000000000E+00 -0.00000000000E+00 -0.42561437998E+03  0.42561437998E+03  0.00000000000E+00 0.  1.
        -13    1    1    2    0    0  0.22785209634E+02  0.17354252655E+03 -0.99508318485E+02  0.20134073336E+03  0.10566000000E+00 0.  1.
         13    1    1    2    0    0 -0.17096793447E+02 -0.16254969544E+03 -0.58349328943E+02  0.17354929901E+03  0.10566000000E+00 0. -1.
          4    1    1    2  501    0 -0.56884161866E+01 -0.10992831103E+02 -0.15900002279E+03  0.15948105738E+03  0.00000000000E+00 0.  1.
</event>
<event>
 5    1  0.2540860E-005  0.1101592E+03  0.7818608E-02  0.1148760E+00
         -4   -1    0    0    0  501 -0.00000000000E+00  0.00000000000E+00  0.84516966184E+03  0.84516966184E+03  0.00000000000E+00 0. -1.
         21   -1    0    0  501  502  0.00000000000E+00 -0.00000000000E+00 -0.44441994430E+02  0.44441994430E+02  0.00000000000E+00 0. -1.
        -13    1    1    2    0    0 -0.51135270756E+02  0.72098459020E+02  0.31627935698E+03  0.32839860920E+03  0.10566000000E+00 0.  1.
         13    1    1    2    0    0  0.11266745873E+03 -0.11675159708E+03  0.44883013786E+03  0.47725611101E+03  0.10566000000E+00 0. -1.
         -4    1    1    2    0  502 -0.61532187978E+02  0.44653138062E+02  0.35618172573E+02  0.83956936066E+02  0.00000000000E+00 0. -1.
</event>
<event>
 5    1  0.2540860E-005  0.3703356E+03  0.7818608E-02  0.1007434E+00
         21   -1    0    0  501  502  0.00000000000E+00  0.00000000000E+00  0.18018188976E+03  0.18018188976E+03  0.00000000000E+00 0.  1.
         -4   -1    0    0    0  501 -0.00000000000E+00 -0.00000000000E+00 -0.23104007136E+04  0.23104007136E+04  0.00000000000E+00 0. -1.
        -13    1    1    2    0    0 -0.23198550600E+02  0.15711537752E+03 -0.23938957680E+02  0.16061288698E+03  0.10566000000E+00 0.  1.
         13    1    1    2    0    0 -0.73649728759E+02 -0.48873562949E+03 -0.18054342704E+04  0.18718653034E+04  0.10566000000E+00 0. -1.
         -4    1    1    2    0  502  0.96848279359E+02  0.33162025196E+03 -0.30084559578E+03  0.45810441301E+03  0.00000000000E+00 0. -1.
</event>
<event>
 5    1  0.2540860E-005  0.4164203E+03  0.7818608E-02  0.9682785E-01
         -4   -1    0    0    0  501 -0.00000000000E+00  0.00000000000E+00  0.18008024338E+04  0.18008024338E+04  0.00000000000E+00 0. -1.
         21   -1    0    0  501  502  0.00000000000E+00 -0.00000000000E+00 -0.43387092193E+03  0.43387092193E+03  0.00000000000E+00 0.  1.
        -13    1    1    2    0    0 -0.25521552031E+03 -0.31264152233E+03 -0.18204465956E+03  0.44274140594E+03  0.10566000000E+00 0.  1.
         13    1    1    2    0    0  0.26528205565E+03  0.32237483334E+03  0.16438463920E+04  0.16960339247E+04  0.10566000000E+00 0. -1.
         -4    1    1    2    0  502 -0.10066535337E+02 -0.97333110146E+01 -0.94870220513E+02  0.95898025095E+02  0.00000000000E+00 0. -1.
</event>
<event>
 5    1  0.2540860E-005  0.3696441E+02  0.7818608E-02  0.1356368E+00
         -4   -1    0    0    0  501 -0.00000000000E+00  0.00000000000E+00  0.86058337561E+02  0.86058337561E+02  0.00000000000E+00 0. -1.
         21   -1    0    0  501  502  0.00000000000E+00 -0.00000000000E+00 -0.92690419682E+02  0.92690419682E+02  0.00000000000E+00 0. -1.
        -13    1    1    2    0    0 -0.10550320652E+02  0.21845154826E+02 -0.69579773021E+02  0.73687692547E+02  0.10566000000E+00 0.  1.
         13    1    1    2    0    0  0.18760896317E+02 -0.32753092161E+02  0.76823048082E+02  0.85595140968E+02  0.10566000000E+00 0. -1.
         -4    1    1    2    0  502 -0.82105756652E+01  0.10907937335E+02 -0.13875357182E+02  0.19465923728E+02  0.00000000000E+00 0. -1.
</event>
<event>
 5    1  0.2540860E-005  0.4761616E+03  0.7818608E-02  0.9718998E-01
         21   -1    0    0  501  502  0.00000000000E+00  0.00000000000E+00  0.99136836363E+03  0.99136836363E+03  0.00000000000E+00 0.  1.
          4   -1    0    0  502    0 -0.00000000000E+00 -0.00000000000E+00 -0.49932747400E+03  0.49932747400E+03  0.00000000000E+00 0.  1.
        -13    1    1    2    0    0 -0.31914416083E+03 -0.30361229434E+03  0.38399779847E+03  0.58436952441E+03  0.10566000000E+00 0.  1.
         13    1    1    2    0    0  0.99292484171E+02 -0.22455546620E+03 -0.14014893038E+03  0.28271167055E+03  0.10566000000E+00 0. -1.
          4    1    1    2  501    0  0.21985167666E+03  0.52816776053E+03  0.24819202153E+03  0.62361464267E+03  0.00000000000E+00 0.  1.
</event>
<event>
 5    1  0.2540860E-005  0.2879359E+02  0.7818608E-02  0.1421157E+00
         -4   -1    0    0    0  501 -0.00000000000E+00  0.00000000000E+00  0.29731102907E+02  0.29731102907E+02  0.00000000000E+00 0. -1.
         21   -1    0    0  501  502  0.00000000000E+00 -0.00000000000E+00 -0.19177364291E+03  0.19177364291E+03  0.00000000000E+00 0. -1.
        -13    1    1    2    0    0 -0.11485872254E+02  0.23309681998E+02 -0.67918978512E+02  0.72720460274E+02  0.10566000000E+00 0.  1.
         13    1    1    2    0    0  0.37264220778E+02 -0.32702469282E+02  0.11972560074E+01  0.49593530156E+02  0.10566000000E+00 0. -1.
         -4    1    1    2    0  502 -0.25778348524E+02  0.93927872845E+01 -0.95320817499E+02  0.99190755387E+02  0.00000000000E+00 0. -1.
</event>
<event>
 5    1  0.2974506E-005  0.2686991E+03  0.7818608E-02  0.1036151E+00
         21   -1    0    0  501  502  0.00000000000E+00  0.00000000000E+00  0.30709240467E+03  0.30709240467E+03  0.00000000000E+00 0.  1.
          4   -1    0    0  502    0 -0.00000000000E+00 -0.00000000000E+00 -0.11564018323E+04  0.11564018323E+04  0.00000000000E+00 0.  1.
        -13    1    1    2    0    0 -0.17605677429E+02  0.24576739028E+03 -0.82742261613E+03  0.86333062430E+03  0.10566000000E+00 0.  1.
         13    1    1    2    0    0 -0.16399283115E+03 -0.39695842876E+02 -0.20840885077E+03  0.26814859473E+03  0.10566000000E+00 0. -1.
          4    1    1    2  501    0  0.18159850858E+03 -0.20607154740E+03  0.18652203931E+03  0.33201501791E+03  0.00000000000E+00 0.  1.
</event>
<event>
 5    1  0.2540860E-005  0.4931969E+03  0.7818608E-02  0.9674751E-01
         21   -1    0    0  501  502  0.00000000000E+00  0.00000000000E+00  0.20022212193E+03  0.20022212193E+03  0.00000000000E+00 0. -1.
          4   -1    0    0  502    0 -0.00000000000E+00 -0.00000000000E+00 -0.21277503116E+04  0.21277503116E+04  0.00000000000E+00 0.  1.
        -13    1    1    2    0    0  0.35880700800E+03 -0.20429262474E+03 -0.10069851365E+04  0.10883460028E+04  0.10566000000E+00 0.  1.
         13    1    1    2    0    0 -0.38419367053E+02 -0.25491408346E+03 -0.39511398264E+03  0.47177569687E+03  0.10566000000E+00 0. -1.
          4    1    1    2  501    0 -0.32038764094E+03  0.45920670821E+03 -0.52542907054E+03  0.76785073386E+03  0.00000000000E+00 0.  1.
</event>
<event>
 5    1  0.2540860E-005  0.5124095E+03  0.7818608E-02  0.9464105E-01
         -4   -1    0    0    0  501 -0.00000000000E+00  0.00000000000E+00  0.17773909152E+04  0.17773909152E+04  0.00000000000E+00 0. -1.
         21   -1    0    0  501  502  0.00000000000E+00 -0.00000000000E+00 -0.55289291957E+03  0.55289291957E+03  0.00000000000E+00 0. -1.
        -13    1    1    2    0    0  0.31199817544E+03 -0.42185184947E+03  0.10645726235E+04  0.11868516025E+04  0.10566000000E+00 0.  1.
         13    1    1    2    0    0  0.14508703025E+03 -0.21146841948E+03  0.24885318032E+03  0.35734724751E+03  0.10566000000E+00 0. -1.
         -4    1    1    2    0  502 -0.45708520570E+03  0.63332026895E+03 -0.88927808150E+02  0.78608498484E+03  0.00000000000E+00 0. -1.
</event>
<event>
 5    1  0.2540860E-005  0.4422805E+03  0.7818608E-02  0.9720145E-01
          4   -1    0    0  502    0 -0.00000000000E+00  0.00000000000E+00  0.83935617417E+03  0.83935617417E+03  0.00000000000E+00 0.  1.
         21   -1    0    0  501  502  0.00000000000E+00 -0.00000000000E+00 -0.11103119585E+04  0.11103119585E+04  0.00000000000E+00 0.  1.
        -13    1    1    2    0    0  0.51709643997E+03 -0.40505703972E+03 -0.38399750053E+03  0.76086399917E+03  0.10566000000E+00 0.  1.
         13    1    1    2    0    0 -0.27822387040E+03  0.12538253878E+03  0.54306993229E+03  0.62294001767E+03  0.10566000000E+00 0. -1.
          4    1    1    2  501    0 -0.23887256957E+03  0.27967450093E+03 -0.43002821614E+03  0.56586411588E+03  0.00000000000E+00 0.  1.
</event>
<event>
 5    1  0.2540860E-005  0.2405798E+03  0.7818608E-02  0.1035393E+00
         21   -1    0    0  501  502  0.00000000000E+00  0.00000000000E+00  0.27362446856E+03  0.27362446856E+03  0.00000000000E+00 0.  1.
         -4   -1    0    0    0  501 -0.00000000000E+00 -0.00000000000E+00 -0.31921701390E+03  0.31921701390E+03  0.00000000000E+00 0. -1.
        -13    1    1    2    0    0 -0.12446259747E+03  0.22677667343E+03  0.11113503950E+02  0.25892492911E+03  0.10566000000E+00 0.  1.
         13    1    1    2    0    0  0.11774744230E+03 -0.19908563479E+03 -0.12284727048E+03  0.26189886059E+03  0.10566000000E+00 0. -1.
         -4    1    1    2    0  502  0.67151551686E+01 -0.27691038637E+02  0.66141221192E+02  0.72017692760E+02  0.00000000000E+00 0. -1.
</event>
<event>
 5    1  0.2540860E-005  0.1887492E+02  0.7818608E-02  0.1526132E+00
         21   -1    0    0  501  502  0.00000000000E+00  0.00000000000E+00  0.91244642664E+02  0.91244642664E+02  0.00000000000E+00 0.  1.
          4   -1    0    0  502    0 -0.00000000000E+00 -0.00000000000E+00 -0.25418307280E+02  0.25418307280E+02  0.00000000000E+00 0.  1.
        -13    1    1    2    0    0  0.14889224430E+02 -0.12325612612E+02 -0.18520937755E+02  0.26770245231E+02  0.10566000000E+00 0.  1.
         13    1    1    2    0    0 -0.16935160387E+02 -0.10390584983E+01  0.55470418158E+02  0.58007393965E+02  0.10566000000E+00 0. -1.
          4    1    1    2  501    0  0.20459359576E+01  0.13364671110E+02  0.28876854982E+02  0.31885310747E+02  0.00000000000E+00 0.  1.
</event>
<event>
 5    1  0.2540860E-005  0.6887147E+02  0.7818608E-02  0.1272854E+00
         -4   -1    0    0    0  501 -0.00000000000E+00  0.00000000000E+00  0.18395942569E+02  0.18395942569E+02  0.00000000000E+00 0. -1.
         21   -1    0    0  501  502  0.00000000000E+00 -0.00000000000E+00 -0.49391165339E+03  0.49391165339E+03  0.00000000000E+00 0. -1.
        -13    1    1    2    0    0 -0.23788117804E+02  0.14592031890E+02 -0.27766051554E+02  0.39367076680E+02  0.10566000000E+00 0.  1.
         13    1    1    2    0    0  0.20591634719E+01 -0.73114020166E+02 -0.34536700648E+03  0.35302730833E+03  0.10566000000E+00 0. -1.
         -4    1    1    2    0  502  0.21728954332E+02  0.58521988276E+02 -0.10238265279E+03  0.11991321095E+03  0.00000000000E+00 0. -1.
</event>
<event>
 5    1  0.2540860E-005  0.6674723E+03  0.7818608E-02  0.9171548E-01
         21   -1    0    0  501  502  0.00000000000E+00  0.00000000000E+00  0.21117862032E+03  0.21117862032E+03  0.00000000000E+00 0. -1.
         -4   -1    0    0    0  501 -0.00000000000E+00 -0.00000000000E+00 -0.36512301558E+04  0.36512301558E+04  0.00000000000E+00 0. -1.
        -13    1    1    2    0    0  0.37845218542E+03 -0.38582305556E+03 -0.69380088117E+03  0.87945731035E+03  0.10566000000E+00 0.  1.
         13    1    1    2    0    0 -0.72427688800E+03  0.29944707869E+03 -0.21485777759E+04  0.22870575055E+04  0.10566000000E+00 0. -1.
         -4    1    1    2    0  502  0.34582470258E+03  0.86375976862E+02 -0.59767287846E+03  0.69589396027E+03  0.00000000000E+00 0. -1.
</event>
<event>
 5    1  0.2540860E-005  0.4897071E+03  0.7818608E-02  0.9665554E-01
         -4   -1    0    0    0  501 -0.00000000000E+00  0.00000000000E+00  0.25065403714E+04  0.25065403714E+04  0.00000000000E+00 0. -1.
         21   -1    0    0  501  502  0.00000000000E+00 -0.00000000000E+00 -0.19245639049E+03  0.19245639049E+03  0.00000000000E+00 0. -1.
        -13    1    1    2    0    0  0.27150873429E+03 -0.15828542030E+02  0.90853429624E+03  0.94836813219E+03  0.10566000000E+00 0.  1.
         13    1    1    2    0    0 -0.31170459417E+03  0.44948448862E+03  0.48000197888E+03  0.72773482151E+03  0.10566000000E+00 0. -1.
         -4    1    1    2    0  502  0.40195859876E+02 -0.43365594659E+03  0.92554770582E+03  0.10228938082E+04  0.00000000000E+00 0. -1.
</event>
<event>
 5    1  0.2540860E-005  0.4637114E+03  0.7818608E-02  0.9942918E-01
          4   -1    0    0  502    0 -0.00000000000E+00  0.00000000000E+00  0.29932184551E+03  0.29932184551E+03  0.00000000000E+00 0.  1.
         21   -1    0    0  501  502  0.00000000000E+00 -0.00000000000E+00 -0.17316686189E+04  0.17316686189E+04  0.00000000000E+00 0.  1.
        -13    1    1    2    0    0  0.34533828297E+03 -0.42337297512E+03 -0.52311617704E+03  0.75640845553E+03  0.10566000000E+00 0.  1.
         13    1    1    2    0    0 -0.10866896552E+03  0.60472357166E+02  0.11066889752E+03  0.16647361981E+03  0.10566000000E+00 0. -1.
          4    1    1    2  501    0 -0.23666931744E+03  0.36290061795E+03 -0.10198994939E+04  0.11081083891E+04  0.00000000000E+00 0.  1.
</event>
<event>
 5    1  0.2540860E-005  0.4767698E+03  0.7818608E-02  0.1013364E+00
          4   -1    0    0  502    0 -0.00000000000E+00  0.00000000000E+00  0.48116666173E+03  0.48116666173E+03  0.00000000000E+00 0.  1.
         21   -1    0    0  501  502  0.00000000000E+00 -0.00000000000E+00 -0.73963783155E+03  0.73963783155E+03  0.00000000000E+00 0.  1.
        -13    1    1    2    0    0 -0.48058628702E+03  0.65353880947E+02 -0.37539593959E+03  0.61331593135E+03  0.10566000000E+00 0.  1.
         13    1    1    2    0    0  0.32337318403E+02  0.52343649655E+02  0.13003850513E+03  0.14385959753E+03  0.10566000000E+00 0. -1.
          4    1    1    2  501    0  0.44824896862E+03 -0.11769753060E+03 -0.13113735352E+02  0.46362896440E+03  0.00000000000E+00 0.  1.
</event>
<event>
 5    1  0.2540860E-005  0.1090312E+03  0.7818608E-02  0.1150420E+00
         21   -1    0    0  501  502  0.00000000000E+00  0.00000000000E+00  0.11362709551E+03  0.11362709551E+03  0.00000000000E+00 0.  1.
          4   -1    0    0  502    0 -0.00000000000E+00 -0.00000000000E+00 -0.24194607881E+03  0.24194607881E+03  0.00000000000E+00 0.  1.
        -13    1    1    2    0    0  0.53844203613E+02 -0.10078053293E+03 -0.18559024426E+03  0.21794417636E+03  0.10566000000E+00 0.  1.
         13    1    1    2    0    0 -0.45713643652E+02  0.78589824298E+02  0.19362950977E+02  0.92957155365E+02  0.10566000000E+00 0. -1.
          4    1    1    2  501    0 -0.81305599612E+01  0.22190708630E+02  0.37908309984E+02  0.44671842592E+02  0.00000000000E+00 0.  1.
</event>
<event>
 5    1  0.2540860E-005  0.3034171E+03  0.7818608E-02  0.1031984E+00
         -4   -1    0    0    0  501 -0.00000000000E+00  0.00000000000E+00  0.11751277176E+04  0.11751277176E+04  0.00000000000E+00 0. -1.
         21   -1    0    0  501  502  0.00000000000E+00 -0.00000000000E+00 -0.20859686973E+03  0.20859686973E+03  0.00000000000E+00 0. -1.
        -13    1    1    2    0    0  0.12735786474E+03 -0.38837868778E+02  0.15884707888E+03  0.20726989988E+03  0.10566000000E+00 0.  1.
         13    1    1    2    0    0  0.28386883192E+03  0.16378390012E+02  0.16885722426E+02  0.28484189330E+03  0.10566000000E+00 0. -1.
         -4    1    1    2    0  502 -0.41122669666E+03  0.22459478766E+02  0.79079804656E+03  0.89161279414E+03  0.00000000000E+00 0. -1.
</event>
<event>
 5    1  0.2540860E-005  0.4021827E+03  0.7818608E-02  0.1011034E+00
         -4   -1    0    0    0  501 -0.00000000000E+00  0.00000000000E+00  0.57994668168E+03  0.57994668168E+03  0.00000000000E+00 0. -1.
         21   -1    0    0  501  502  0.00000000000E+00 -0.00000000000E+00 -0.87832490649E+03  0.87832490649E+03  0.00000000000E+00 0. -1.
        -13    1    1    2    0    0 -0.40435562506E+02 -0.10276344579E+03  0.27833173128E+03  0.29943934997E+03  0.10566000000E+00 0.  1.
         13    1    1    2    0    0  0.43337585739E+03  0.53289816890E+02  0.26260233721E+02  0.43742890782E+03  0.10566000000E+00 0. -1.
         -4    1    1    2    0  502 -0.39294029488E+03  0.49473628904E+02 -0.60297018981E+03  0.72140333039E+03  0.00000000000E+00 0. -1.
</event>
<event>
 5    1  0.2540860E-005  0.6334833E+02  0.7818608E-02  0.1245342E+00
         21   -1    0    0  501  502  0.00000000000E+00  0.00000000000E+00  0.49409692847E+02  0.49409692847E+02  0.00000000000E+00 0.  1.
          4   -1    0    0  502    0 -0.00000000000E+00 -0.00000000000E+00 -0.49374700994E+03  0.49374700994E+03  0.00000000000E+00 0.  1.
        -13    1    1    2    0    0  0.37111859720E+02  0.56705457943E+02 -0.31109560842E+03  0.31839172074E+03  0.10566000000E+00 0.  1.
         13    1    1    2    0    0 -0.18873629136E+02 -0.55467934817E+02 -0.17211155418E+03  0.18181117654E+03  0.10566000000E+00 0. -1.
          4    1    1    2  501    0 -0.18238230584E+02 -0.12375231253E+01  0.38869845504E+02  0.42953805510E+02  0.00000000000E+00 0.  1.
</event>
<event>
 5    1  0.2540860E-005  0.1471652E+02  0.7818608E-02  0.1600296E+00
         21   -1    0    0  501  502  0.00000000000E+00  0.00000000000E+00  0.20184367680E+02  0.20184367680E+02  0.00000000000E+00 0.  1.
          4   -1    0    0  502    0 -0.00000000000E+00 -0.00000000000E+00 -0.51435952476E+02  0.51435952476E+02  0.00000000000E+00 0.  1.
        -13    1    1    2    0    0  0.14147804863E+02 -0.13846775258E+01 -0.34657224809E+02  0.37459472898E+02  0.10566000000E+00 0.  1.
         13    1    1    2    0    0 -0.15809182702E+02  0.11986387665E+02 -0.50803843895E+01  0.20479873450E+02  0.10566000000E+00 0. -1.
          4    1    1    2  501    0  0.16613778381E+01 -0.10601710139E+02  0.84860244025E+01  0.13680973809E+02  0.00000000000E+00 0.  1.
</event>
<event>
 5    1  0.2540860E-005  0.4654145E+03  0.7818608E-02  0.1012992E+00
         -4   -1    0    0    0  501 -0.00000000000E+00  0.00000000000E+00  0.17709051221E+04  0.17709051221E+04  0.00000000000E+00 0. -1.
         21   -1    0    0  501  502  0.00000000000E+00 -0.00000000000E+00 -0.15392456909E+03  0.15392456909E+03  0.00000000000E+00 0. -1.
        -13    1    1    2    0    0  0.40768666798E+02  0.53082290076E+02  0.73219341263E+02  0.99201294403E+02  0.10566000000E+00 0.  1.
         13    1    1    2    0    0  0.35627320667E+03 -0.29929188051E+03  0.10356947173E+04  0.11354161291E+04  0.10566000000E+00 0. -1.
         -4    1    1    2    0  502 -0.39704187347E+03  0.24620959044E+03  0.50806649437E+03  0.69021226765E+03  0.00000000000E+00 0. -1.
</event>
<event>
 5    1  0.2789527E-005  0.3571117E+03  0.7818608E-02  0.9944959E-01
         21   -1    0    0  501  502  0.00000000000E+00  0.00000000000E+00  0.95911578097E+03  0.95911578097E+03  0.00000000000E+00 0.  1.
          4   -1    0    0  502    0 -0.00000000000E+00 -0.00000000000E+00 -0.57542739229E+03  0.57542739229E+03  0.00000000000E+00 0.  1.
        -13    1    1    2    0    0  0.57422146537E+02 -0.22376009416E+03 -0.20507130780E+03  0.30890149741E+03  0.10566000000E+00 0.  1.
         13    1    1    2    0    0 -0.24327360652E+03 -0.11814691505E+03 -0.20650209979E+03  0.34027028896E+03  0.10566000000E+00 0. -1.
          4    1    1    2  501    0  0.18585145998E+03  0.34190700921E+03  0.79526179628E+03  0.88537138690E+03  0.00000000000E+00 0.  1.
</event>
<event>
 5    1  0.2540860E-005  0.4538932E+03  0.7818608E-02  0.9723243E-01
         21   -1    0    0  501  502  0.00000000000E+00  0.00000000000E+00  0.42445904054E+03  0.42445904054E+03  0.00000000000E+00 0.  1.
          4   -1    0    0  502    0 -0.00000000000E+00 -0.00000000000E+00 -0.17349184113E+04  0.17349184113E+04  0.00000000000E+00 0.  1.
        -13    1    1    2    0    0  0.58513974826E+03 -0.73469984903E+02 -0.27096841395E+03  0.64900713109E+03  0.10566000000E+00 0.  1.
         13    1    1    2    0    0 -0.19401153880E+03  0.20095277903E+03 -0.10622503688E+04  0.10983616680E+04  0.10566000000E+00 0. -1.
          4    1    1    2  501    0 -0.39112820946E+03 -0.12748279413E+03  0.22759412054E+02  0.41200865267E+03  0.00000000000E+00 0.  1.
</event>
<event>
 5    1  0.2540860E-005  0.7007771E+02  0.7818608E-02  0.1226523E+00
          4   -1    0    0  502    0 -0.00000000000E+00  0.00000000000E+00  0.46647080278E+02  0.46647080278E+02  0.00000000000E+00 0.  1.
         21   -1    0    0  501  502  0.00000000000E+00 -0.00000000000E+00 -0.25285115924E+03  0.25285115924E+03  0.00000000000E+00 0. -1.
        -13    1    1    2    0    0  0.12224308011E+02  0.69415331152E+02  0.64958400781E+01  0.70782264781E+02  0.10566000000E+00 0.  1.
         13    1    1    2    0    0  0.26218162236E+01 -0.68996289759E+02 -0.18052139428E+03  0.19327531368E+03  0.10566000000E+00 0. -1.
          4    1    1    2  501    0 -0.14846124235E+02 -0.41904139284E+00 -0.32178524758E+02  0.35440661056E+02  0.00000000000E+00 0.  1.
</event>
<event>
 5    1  0.2540860E-005  0.6092680E+03  0.7818608E-02  0.9266140E-01
         21   -1    0    0  501  502  0.00000000000E+00  0.00000000000E+00  0.82960731745E+03  0.82960731745E+03  0.00000000000E+00 0. -1.
         -4   -1    0    0    0  501 -0.00000000000E+00 -0.00000000000E+00 -0.33113206769E+04  0.33113206769E+04  0.00000000000E+00 0. -1.
        -13    1    1    2    0    0  0.44878413724E+03 -0.42301159524E+03 -0.28490613270E+04  0.29150465636E+04  0.10566000000E+00 0.  1.
         13    1    1    2    0    0 -0.41795580606E+03  0.19366560501E+03  0.68950721329E+03  0.82922471666E+03  0.10566000000E+00 0. -1.
         -4    1    1    2    0  502 -0.30828331180E+02  0.22934599023E+03 -0.32215924571E+03  0.39665671409E+03  0.00000000000E+00 0. -1.
</event>
<event>
 5    1  0.2540860E-005  0.5045797E+03  0.7818608E-02  0.9698352E-01
          4   -1    0    0  502    0 -0.00000000000E+00  0.00000000000E+00  0.30572948211E+03  0.30572948211E+03  0.00000000000E+00 0.  1.
         21   -1    0    0  501  502  0.00000000000E+00 -0.00000000000E+00 -0.12879781081E+04  0.12879781081E+04  0.00000000000E+00 0.  1.
        -13    1    1    2    0    0 -0.22985639724E+03  0.43319438735E+03 -0.35372870304E+03  0.60466134910E+03  0.10566000000E+00 0.  1.
         13    1    1    2    0    0  0.19414019456E+03  0.10703438977E+03 -0.16558837704E+03  0.27670615734E+03  0.10566000000E+00 0. -1.
          4    1    1    2  501    0  0.35716202678E+02 -0.54022877712E+03 -0.46293154595E+03  0.71234008381E+03  0.00000000000E+00 0.  1.
</event>
<event>
 5    1  0.2540860E-005  0.7394448E+02  0.7818608E-02  0.1264742E+00
         21   -1    0    0  501  502  0.00000000000E+00  0.00000000000E+00  0.11429783033E+03  0.11429783033E+03  0.00000000000E+00 0.  1.
         -4   -1    0    0    0  501 -0.00000000000E+00 -0.00000000000E+00 -0.14204086409E+03  0.14204086409E+03  0.00000000000E+00 0. -1.
        -13    1    1    2    0    0  0.14797509775E+02  0.93021437592E+02 -0.13378390803E+02  0.95136463313E+02  0.10566000000E+00 0.  1.
         13    1    1    2    0    0  0.73809831356E+01 -0.22481377014E+02 -0.66593500796E+02  0.70672460950E+02  0.10566000000E+00 0. -1.
         -4    1    1    2    0  502 -0.22178492910E+02 -0.70540060577E+02  0.52228857838E+02  0.90529770159E+02  0.00000000000E+00 0. -1.
</event>
<event>
 5    1  0.2540860E-005  0.2018330E+03  0.7818608E-02  0.1058886E+00
         21   -1    0    0  501  502  0.00000000000E+00  0.00000000000E+00  0.20090594542E+03  0.20090594542E+03  0.00000000000E+00 0. -1.
          4   -1    0    0  502    0 -0.00000000000E+00 -0.00000000000E+00 -0.28180577843E+03  0.28180577843E+03  0.00000000000E+00 0.  1.
        -13    1    1    2    0    0 -0.35701233928E+02  0.18218029904E+03 -0.14525615112E+02  0.18621289999E+03  0.10566000000E+00 0.  1.
         13    1    1    2    0    0  0.29067783394E+02 -0.21223283593E+03 -0.11179643766E+03  0.24163229775E+03  0.10566000000E+00 0. -1.
          4    1    1    2  501    0  0.66334505344E+01  0.30052536884E+02  0.45422219770E+02  0.54866526116E+02  0.00000000000E+00 0.  1.
</event>
<event>
 5    1  0.2540860E-005  0.2289162E+03  0.7818608E-02  0.1041937E+00
          4   -1    0    0  502    0 -0.00000000000E+00  0.00000000000E+00  0.20063703781E+03  0.20063703781E+03  0.00000000000E+00 0.  1.
         21   -1    0    0  501  502  0.00000000000E+00 -0.00000000000E+00 -0.39571610981E+03  0.39571610981E+03  0.00000000000E+00 0. -1.
        -13    1    1    2    0    0  0.56417524892E+01  0.22827925493E+03  0.48012035538E+02  0.23334184006E+03  0.10566000000E+00 0.  1.
         13    1    1    2    0    0 -0.16233742400E+02 -0.22987709058E+03 -0.16315082651E+03  0.28235653794E+03  0.10566000000E+00 0. -1.
          4    1    1    2  501    0  0.10591989911E+02  0.15978356505E+01 -0.79940281036E+02  0.80654769612E+02  0.00000000000E+00 0.  1.
</event>
<event>
 5    1  0.2540860E-005  0.2030301E+03  0.7818608E-02  0.1065882E+00
         21   -1    0    0  501  502  0.00000000000E+00  0.00000000000E+00  0.16505379306E+03  0.16505379306E+03  0.00000000000E+00 0. -1.
         -4   -1    0    0    0  501 -0.00000000000E+00 -0.00000000000E+00 -0.21165442474E+04  0.21165442474E+04  0.00000000000E+00 0. -1.
        -13    1    1    2    0    0  0.12052456015E+03 -0.10798094142E+03 -0.18285563741E+03  0.24417667498E+03  0.10566000000E+00 0.  1.
         13    1    1    2    0    0 -0.87561133737E+01 -0.19833206852E+03  0.37545799301E+02  0.20204449296E+03  0.10566000000E+00 0. -1.
         -4    1    1    2    0  502 -0.11176844678E+03  0.30631300994E+03 -0.18061806163E+04  0.18353768726E+04  0.00000000000E+00 0. -1.
</event>
<event>
 5    1  0.2540860E-005  0.1659744E+03  0.7818608E-02  0.1132455E+00
         21   -1    0    0  501  502  0.00000000000E+00  0.00000000000E+00  0.45847659834E+03  0.45847659834E+03  0.00000000000E+00 0. -1.
         -4   -1    0    0    0  501 -0.00000000000E+00 -0.00000000000E+00 -0.11624151976E+03  0.11624151976E+03  0.00000000000E+00 0. -1.
        -13    1    1    2    0    0  0.34075246841E+02  0.34615387356E+02 -0.22772678663E+02  0.53646561368E+02  0.10566000000E+00 0.  1.
         13    1    1    2    0    0  0.32246257463E+02 -0.18082877960E+03  0.94646335110E+02  0.20663206083E+03  0.10566000000E+00 0. -1.
         -4    1    1    2    0  502 -0.66321504304E+02  0.14621339224E+03  0.27036142213E+03  0.31443949590E+03  0.00000000000E+00 0. -1.
</event>
<event>
 5    1  0.2540860E-005  0.5108837E+03  0.7818608E-02  0.9454431E-01
         21   -1    0    0  501  502  0.00000000000E+00  0.00000000000E+00  0.16843948027E+03  0.16843948027E+03  0.00000000000E+00 0.  1.
         -4   -1    0    0    0  501 -0.00000000000E+00 -0.00000000000E+00 -0.20914541275E+04  0.20914541275E+04  0.00000000000E+00 0. -1.
        -13    1    1    2    0    0 -0.41163579768E+03 -0.30158550861E+03 -0.86782988403E+03  0.10067405662E+04  0.10566000000E+00 0.  1.
         13    1    1    2    0    0  0.41993722940E+03  0.29192606844E+03 -0.10965053355E+04  0.12099140747E+04  0.10566000000E+00 0. -1.
         -4    1    1    2    0  502 -0.83014317259E+01  0.96594401653E+01  0.41320572361E+02  0.43238966838E+02  0.00000000000E+00 0. -1.
</event>
<event>
 5    1  0.2540860E-005  0.6730845E+02  0.7818608E-02  0.1304833E+00
         -4   -1    0    0    0  501 -0.00000000000E+00  0.00000000000E+00  0.69539502781E+03  0.69539502781E+03  0.00000000000E+00 0. -1.
         21   -1    0    0  501  502  0.00000000000E+00 -0.00000000000E+00 -0.83128897213E+01  0.83128897213E+01  0.00000000000E+00 0. -1.
        -13    1    1    2    0    0  0.55364239426E+01  0.14907837189E+02  0.59890389849E+02  0.61965841881E+02  0.10566000000E+00 0.  1.
         13    1    1    2    0    0  0.26094914740E+02 -0.68688070771E+02  0.33541168785E+03  0.34336570468E+03  0.10566000000E+00 0. -1.
         -4    1    1    2    0  502 -0.31631338683E+02  0.53780233582E+02  0.29178006039E+03  0.29837637097E+03  0.00000000000E+00 0. -1.
</event>
<event>
 5    1  0.2540860E-005  0.1813734E+03  0.7818608E-02  0.1073714E+00
         21   -1    0    0  501  502  0.00000000000E+00  0.00000000000E+00  0.68637619038E+03  0.68637619038E+03  0.00000000000E+00 0. -1.
          4   -1    0    0  502    0 -0.00000000000E+00 -0.00000000000E+00 -0.67160269618E+03  0.67160269618E+03  0.00000000000E+00 0.  1.
        -13    1    1    2    0    0 -0.16920323803E+03  0.61432679967E+02 -0.61510550258E+03  0.64090443936E+03  0.10566000000E+00 0.  1.
         13    1    1    2    0    0  0.23286123514E+03 -0.80548048402E+02  0.59043455156E+03  0.63978536539E+03  0.10566000000E+00 0. -1.
          4    1    1    2  501    0 -0.63657997112E+02  0.19115368435E+02  0.39444445230E+02  0.77289081805E+02  0.00000000000E+00 0.  1.
</event>
<event>
 5    1  0.2540860E-005  0.4339443E+03  0.7818608E-02  0.9695716E-01
         21   -1    0    0  501  502  0.00000000000E+00  0.00000000000E+00  0.19060960065E+03  0.19060960065E+03  0.00000000000E+00 0.  1.
          4   -1    0    0  502    0 -0.00000000000E+00 -0.00000000000E+00 -0.26544505115E+04  0.26544505115E+04  0.00000000000E+00 0.  1.
        -13    1    1    2    0    0 -0.39987656744E+02  0.37433308570E+03 -0.46740623728E+03  0.60016070644E+03  0.10566000000E+00 0.  1.
         13    1    1    2    0    0  0.26260507744E+03  0.23401048185E+03 -0.47295129038E+03  0.58941094879E+03  0.10566000000E+00 0. -1.
          4    1    1    2  501    0 -0.22261742070E+03 -0.60834356754E+03 -0.15234833832E+04  0.16554884570E+04  0.00000000000E+00 0.  1.
</event>
<event>
 5    1  0.2540860E-005  0.3175056E+03  0.7818608E-02  0.1000330E+00
         -4   -1    0    0    0  501 -0.00000000000E+00  0.00000000000E+00  0.84173230193E+03  0.84173230193E+03  0.00000000000E+00 0. -1.
         21   -1    0    0  501  502  0.00000000000E+00 -0.00000000000E+00 -0.38227059815E+03  0.38227059815E+03  0.00000000000E+00 0. -1.
        -13    1    1    2    0    0  0.13767294971E+03 -0.32619836676E+03  0.19273028504E+03  0.40311808381E+03  0.10566000000E+00 0.  1.
         13    1    1    2    0    0 -0.78178446896E+02  0.29334970835E+03  0.49612232824E+03  0.58163845875E+03  0.10566000000E+00 0. -1.
         -4    1    1    2    0  502 -0.59494502816E+02  0.32848658407E+02 -0.22939090950E+03  0.23924635752E+03  0.00000000000E+00 0. -1.
</event>
<event>
 5    1  0.2540860E-005  0.3827719E+03  0.7818608E-02  0.9849809E-01
         21   -1    0    0  501  502  0.00000000000E+00  0.00000000000E+00  0.34440339364E+03  0.34440339364E+03  0.00000000000E+00 0.  1.
          4   -1    0    0  502    0 -0.00000000000E+00 -0.00000000000E+00 -0.13432029833E+04  0.13432029833E+04  0.00000000000E+00 0.  1.
        -13    1    1    2    0    0 -0.37045929593E+03  0.14478830295E+03  0.13394939852E+02  0.39797384108E+03  0.10566000000E+00 0.  1.
         13    1    1    2    0    0 -0.64086932364E+01 -0.30191925447E+03 -0.15340417904E+03  0.33871693326E+03  0.10566000000E+00 0. -1.
          4    1    1    2  501    0  0.37686798916E+03  0.15713095152E+03 -0.85879035047E+03  0.95091560259E+03  0.00000000000E+00 0.  1.
</event>
<event>
 5    1  0.2540860E-005  0.4998810E+03  0.7818608E-02  0.1000468E+00
         21   -1    0    0  501  502  0.00000000000E+00  0.00000000000E+00  0.27756273471E+03  0.27756273471E+03  0.00000000000E+00 0. -1.
         -4   -1    0    0    0  501 -0.00000000000E+00 -0.00000000000E+00 -0.13903663570E+04  0.13903663570E+04  0.00000000000E+00 0. -1.
        -13    1    1    2    0    0 -0.17412824422E+02  0.79097388559E+02 -0.40974002328E+03  0.41766793170E+03  0.10566000000E+00 0.  1.
         13    1    1    2    0    0 -0.48542270155E+03  0.58407005967E+02 -0.20794302820E+03  0.53130677736E+03  0.10566000000E+00 0. -1.
         -4    1    1    2    0  502  0.50283552597E+03 -0.13750439453E+03 -0.49512057084E+03  0.71895438267E+03  0.00000000000E+00 0. -1.
</event>
<event>
 5    1  0.2540860E-005  0.4746514E+03  0.7818608E-02  0.9647989E-01
         21   -1    0    0  501  502  0.00000000000E+00  0.00000000000E+00  0.81200727420E+03  0.81200727420E+03  0.00000000000E+00 0. -1.
         -4   -1    0    0    0  501 -0.00000000000E+00 -0.00000000000E+00 -0.55085048946E+03  0.55085048946E+03  0.00000000000E+00 0. -1.
        -13    1    1    2    0    0 -0.29256610513E+03 -0.12384457955E+03  0.16072948213E+03  0.35604267068E+03  0.10566000000E+00 0.  1.
         13    1    1    2    0    0  0.19509743376E+03  0.53714197520E+03  0.11049930341E+03  0.58206066471E+03  0.10566000000E+00 0. -1.
         -4    1    1    2    0  502  0.97468671364E+02 -0.41329739564E+03 -0.10072000799E+02  0.42475442828E+03  0.00000000000E+00 0. -1.
</event>
<event>
 5    1  0.2540860E-005  0.6692988E+03  0.7818608E-02  0.9168745E-01
         21   -1    0    0  501  502  0.00000000000E+00  0.00000000000E+00  0.64594255562E+03  0.64594255562E+03  0.00000000000E+00 0. -1.
         -4   -1    0    0    0  501 -0.00000000000E+00 -0.00000000000E+00 -0.21296468483E+04  0.21296468483E+04  0.00000000000E+00 0. -1.
        -13    1    1    2    0    0 -0.92349716060E+02  0.62028466729E+03 -0.19294206287E+03  0.65613122873E+03  0.10566000000E+00 0.  1.
         13    1    1    2    0    0  0.38576917671E+03 -0.58129508746E+03 -0.15665596271E+04  0.17148851019E+04  0.10566000000E+00 0. -1.
         -4    1    1    2    0  502 -0.29341946065E+03 -0.38989579832E+02  0.27579739731E+03  0.40457307324E+03  0.00000000000E+00 0. -1.
</event>
<event>
 5    1  0.2540860E-005  0.4609284E+03  0.7818608E-02  0.9611199E-01
         -4   -1    0    0    0  501 -0.00000000000E+00  0.00000000000E+00  0.10773529622E+04  0.10773529622E+04  0.00000000000E+00 0. -1.
         21   -1    0    0  501  502  0.00000000000E+00 -0.00000000000E+00 -0.68746505585E+03  0.68746505585E+03  0.00000000000E+00 0. -1.
        -13    1    1    2    0    0  0.39501104733E+03 -0.89266006982E+01  0.62052493095E+03  0.73563891469E+03  0.10566000000E+00 0.  1.
         13    1    1    2    0    0 -0.23003250841E+03 -0.45540565003E+03 -0.12119285107E+03  0.52440154397E+03  0.10566000000E+00 0. -1.
         -4    1    1    2    0  502 -0.16497853892E+03  0.46433225073E+03 -0.10944417351E+03  0.50477755941E+03  0.00000000000E+00 0. -1.
</event>
<event>
 5    1  0.2540860E-005  0.1358013E+03  0.7818608E-02  0.1116025E+00
         21   -1    0    0  501  502  0.00000000000E+00  0.00000000000E+00  0.59951410551E+03  0.59951410551E+03  0.00000000000E+00 0.  1.
          4   -1    0    0  502    0 -0.00000000000E+00 -0.00000000000E+00 -0.16411299430E+03  0.16411299430E+03  0.00000000000E+00 0.  1.
        -13    1    1    2    0    0  0.10987400497E+03 -0.80705610465E+02 -0.74334330797E+02  0.15527812604E+03  0.10566000000E+00 0.  1.
         13    1    1    2    0    0 -0.11879541528E+03  0.65005656918E+02  0.44179139032E+02  0.14244259760E+03  0.10566000000E+00 0. -1.
          4    1    1    2  501    0  0.89214103105E+01  0.15699953547E+02  0.46555630297E+03  0.46590637616E+03  0.00000000000E+00 0.  1.
</event>
<event>
 5    1  0.2540860E-005  0.4689342E+03  0.7818608E-02  0.1018027E+00
          4   -1    0    0  502    0 -0.00000000000E+00  0.00000000000E+00  0.12305525141E+04  0.12305525141E+04  0.00000000000E+00 0.  1.
         21   -1    0    0  501  502  0.00000000000E+00 -0.00000000000E+00 -0.25932582333E+03  0.25932582333E+03  0.00000000000E+00 0.  1.
        -13    1    1    2    0    0  0.40098379357E+03 -0.21133643840E+03  0.14955108681E+03  0.47730140544E+03  0.10566000000E+00 0.  1.
         13    1    1    2    0    0  0.32589789864E+02 -0.45239891043E+02  0.22427027698E+03  0.23109718831E+03  0.10566000000E+00 0. -1.
          4    1    1    2  501    0 -0.43357358344E+03  0.25657632944E+03  0.59740532701E+03  0.78147974370E+03  0.00000000000E+00 0.  1.
</event>
<event>
 5    1  0.2540860E-005  0.2880089E+03  0.7818608E-02  0.1012381E+00
         21   -1    0    0  501  502  0.00000000000E+00  0.00000000000E+00  0.11659638282E+04  0.11659638282E+04  0.00000000000E+00 0.  1.
         -4   -1    0    0    0  501 -0.00000000000E+00 -0.00000000000E+00 -0.84762984510E+02  0.84762984510E+02  0.00000000000E+00 0. -1.
        -13    1    1    2    0    0 -0.19025509634E+03 -0.22159947996E+03  0.51247718817E+03  0.58986117923E+03  0.10566000000E+00 0.  1.
         13    1    1    2    0    0  0.20765461137E+03  0.19574492307E+03  0.41266629914E+03  0.50172701556E+03  0.10566000000E+00 0. -1.
         -4    1    1    2    0  502 -0.17399515033E+02  0.25854556887E+02  0.15605735640E+03  0.15913861794E+03  0.00000000000E+00 0. -1.
</event>
<event>
 5    1  0.2540860E-005  0.2739880E+02  0.7818608E-02  0.1446323E+00
          4   -1    0    0  502    0 -0.00000000000E+00  0.00000000000E+00  0.20724909187E+03  0.20724909187E+03  0.00000000000E+00 0.  1.
         21   -1    0    0  501  502  0.00000000000E+00 -0.00000000000E+00 -0.16811743824E+02  0.16811743824E+02  0.00000000000E+00 0.  1.
        -13    1    1    2    0    0  0.42704281122E+02 -0.16167386671E+02  0.16334467301E+03  0.16960699686E+03  0.10566000000E+00 0.  1.
         13    1    1    2    0    0 -0.18680573383E+02  0.76562616976E+01  0.18972631168E+02  0.27704766062E+02  0.10566000000E+00 0. -1.
          4    1    1    2  501    0 -0.24023707739E+02  0.85111249737E+01  0.81200438678E+01  0.26749072774E+02  0.00000000000E+00 0.  1.
</event>
<event>
 5    1  0.2540860E-005  0.2590806E+03  0.7818608E-02  0.1032364E+00
         21   -1    0    0  501  502  0.00000000000E+00  0.00000000000E+00  0.15458169913E+03  0.15458169913E+03  0.00000000000E+00 0.  1.
          4   -1    0    0  502    0 -0.00000000000E+00 -0.00000000000E+00 -0.29599137367E+04  0.29599137367E+04  0.00000000000E+00 0.  1.
        -13    1    1    2    0    0  0.23131363394E+03 -0.37925397796E+03 -0.16380555100E+04  0.16972228616E+04  0.10566000000E+00 0.  1.
         13    1    1    2    0    0 -0.15169549354E+03  0.14721437832E+03 -0.11522657233E+04  0.11714947308E+04  0.10566000000E+00 0. -1.
          4    1    1    2  501    0 -0.79618140401E+02  0.23203959965E+03 -0.15010804274E+02  0.24577784345E+03  0.00000000000E+00 0.  1.
</event>
<event>
 5    1  0.2540860E-005  0.2135572E+03  0.7818608E-02  0.1053642E+00
          4   -1    0    0  502    0 -0.00000000000E+00  0.00000000000E+00  0.20058761521E+04  0.20058761521E+04  0.00000000000E+00 0.  1.
         21   -1    0    0  501  502  0.00000000000E+00 -0.00000000000E+00 -0.20837651439E+03  0.20837651439E+03  0.00000000000E+00 0.  1.
        -13    1    1    2    0    0  0.11309460719E+03  0.17058095892E+03 -0.98451911660E+02  0.22711460498E+03  0.10566000000E+00 0.  1.
         13    1    1    2    0    0  0.40462532861E+02  0.19461625998E+03  0.65118131170E+03  0.68084492881E+03  0.10566000000E+00 0. -1.
          4    1    1    2  501    0 -0.15355714005E+03 -0.36519721890E+03  0.12447702377E+04  0.13062931327E+04  0.00000000000E+00 0.  1.
</event>
<event>
 5    1  0.2540860E-005  0.1152795E+03  0.7818608E-02  0.1141489E+00
         -4   -1    0    0    0  501 -0.00000000000E+00  0.00000000000E+00  0.87368190611E+02  0.87368190611E+02  0.00000000000E+00 0. -1.
         21   -1    0    0  501  502  0.00000000000E+00 -0.00000000000E+00 -0.76628656823E+03  0.76628656823E+03  0.00000000000E+00 0.  1.
        -13    1    1    2    0    0 -0.59667469351E+02  0.84470745665E+02 -0.52836163424E+03  0.53838790985E+03  0.10566000000E+00 0.  1.
         13    1    1    2    0    0  0.63266665165E+02 -0.97465840202E+02  0.41011778184E+02  0.12322434030E+03  0.10566000000E+00 0. -1.
         -4    1    1    2    0  502 -0.35991958140E+01  0.12995094537E+02 -0.19156852156E+03  0.19204250870E+03  0.00000000000E+00 0. -1.
</event>
<event>
 5    1  0.2540860E-005  0.6047303E+02  0.7818608E-02  0.1254192E+00
          4   -1    0    0  502    0 -0.00000000000E+00  0.00000000000E+00  0.39851421583E+02  0.39851421583E+02  0.00000000000E+00 0.  1.
         21   -1    0    0  501  502  0.00000000000E+00 -0.00000000000E+00 -0.54191664679E+03  0.54191664679E+03  0.00000000000E+00 0.  1.
        -13    1    1    2    0    0  0.38528322665E+02 -0.70461688000E+02 -0.79829618983E+02  0.11323453693E+03  0.10566000000E+00 0.  1.
         13    1    1    2    0    0 -0.15857501854E+02  0.51808199183E+02 -0.98068880766E+01  0.55061203087E+02  0.10566000000E+00 0. -1.
          4    1    1    2  501    0 -0.22670820811E+02  0.18653488817E+02 -0.41242871815E+03  0.41347232836E+03  0.00000000000E+00 0.  1.
</event>
<event>
 5    1  0.2540860E-005  0.3987161E+02  0.7818608E-02  0.1395537E+00
         -4   -1    0    0    0  501 -0.00000000000E+00  0.00000000000E+00  0.85626394643E+02  0.85626394643E+02  0.00000000000E+00 0. -1.
         21   -1    0    0  501  502  0.00000000000E+00 -0.00000000000E+00 -0.22606541381E+03  0.22606541381E+03  0.00000000000E+00 0. -1.
        -13    1    1    2    0    0  0.45832662638E+02  0.23546236353E+02 -0.32992921169E+01  0.51632883934E+02  0.10566000000E+00 0.  1.
         13    1    1    2    0    0 -0.77698833044E+01 -0.11673166679E+02  0.58623100724E+02  0.60276969146E+02  0.10566000000E+00 0. -1.
         -4    1    1    2    0  502 -0.38062779333E+02 -0.11873069674E+02 -0.19576282778E+03  0.19978195538E+03  0.00000000000E+00 0. -1.
</event>
<event>
 5    1  0.2540860E-005  0.4889838E+03  0.7818608E-02  0.1014777E+00
         21   -1    0    0  501  502  0.00000000000E+00  0.00000000000E+00  0.17208738558E+03  0.17208738558E+03  0.00000000000E+00 0.  1.
          4   -1    0    0  502    0 -0.00000000000E+00 -0.00000000000E+00 -0.16223789859E+04  0.16223789859E+04  0.00000000000E+00 0.  1.
        -13    1    1    2    0    0  0.10031536069E+02 -0.47006524224E+03 -0.54239235518E+03  0.71781017115E+03  0.10566000000E+00 0.  1.
         13    1    1    2    0    0  0.34375239055E+02 -0.42315312223E+02 -0.15964117228E+03  0.16869368026E+03  0.10566000000E+00 0. -1.
          4    1    1    2  501    0 -0.44406775125E+02  0.51238055447E+03 -0.74825807288E+03  0.90796252010E+03  0.00000000000E+00 0.  1.
</event>
<event>
 5    1  0.2540860E-005  0.4861927E+03  0.7818608E-02  0.9508759E-01
          4   -1    0    0  502    0 -0.00000000000E+00  0.00000000000E+00  0.18132844304E+04  0.18132844304E+04  0.00000000000E+00 0.  1.
         21   -1    0    0  501  502  0.00000000000E+00 -0.00000000000E+00 -0.33955310071E+03  0.33955310071E+03  0.00000000000E+00 0.  1.
        -13    1    1    2    0    0 -0.59929092710E+03  0.14798770651E+03  0.57137736466E+03  0.84114331751E+03  0.10566000000E+00 0.  1.
         13    1    1    2    0    0  0.21646899715E+03 -0.42445136770E+03  0.50791699918E+03  0.69641760424E+03  0.10566000000E+00 0. -1.
          4    1    1    2  501    0  0.38282192995E+03  0.27646366119E+03  0.39443696588E+03  0.61527660939E+03  0.00000000000E+00 0.  1.
</event>
<event>
 5    1  0.2540860E-005  0.5011864E+03  0.7818608E-02  0.9599481E-01
          4   -1    0    0  502    0 -0.00000000000E+00  0.00000000000E+00  0.10155219804E+04  0.10155219804E+04  0.00000000000E+00 0.  1.
         21   -1    0    0  501  502  0.00000000000E+00 -0.00000000000E+00 -0.54107054124E+03  0.54107054124E+03  0.00000000000E+00 0.  1.
        -13    1    1    2    0    0 -0.26374357242E+03  0.61185487888E+03 -0.64467846341E+02  0.66939015467E+03  0.10566000000E+00 0.  1.
         13    1    1    2    0    0  0.73145168933E+02 -0.31194949357E+03  0.38245756562E+03  0.49893536951E+03  0.10566000000E+00 0. -1.
          4    1    1    2  501    0  0.19059840349E+03 -0.29990538530E+03  0.15646171993E+03  0.38826699750E+03  0.00000000000E+00 0.  1.
</event>
<event>
 5    1  0.2540860E-005  0.5915486E+03  0.7818608E-02  0.9297164E-01
          4   -1    0    0  502    0 -0.00000000000E+00  0.00000000000E+00  0.79944083077E+03  0.79944083077E+03  0.00000000000E+00 0.  1.
         21   -1    0    0  501  502  0.00000000000E+00 -0.00000000000E+00 -0.81171827259E+03  0.81171827259E+03  0.00000000000E+00 0.  1.
        -13    1    1    2    0    0 -0.71027788244E+03  0.81081807319E+02  0.19973655954E+03  0.74226924639E+03  0.10566000000E+00 0.  1.
         13    1    1    2    0    0  0.47820474641E+03  0.13312720410E+03 -0.14920030139E+02  0.49661378397E+03  0.10566000000E+00 0. -1.
          4    1    1    2  501    0  0.23207313602E+03 -0.21420901142E+03 -0.19709397122E+03  0.37227607300E+03  0.00000000000E+00 0.  1.
</event>
<event>
 5    1  0.2540860E-005  0.4589402E+03  0.7818608E-02  0.1001139E+00
         -4   -1    0    0    0  501 -0.00000000000E+00  0.00000000000E+00  0.22398255874E+04  0.22398255874E+04  0.00000000000E+00 0. -1.
         21   -1    0    0  501  502  0.00000000000E+00 -0.00000000000E+00 -0.15570193554E+03  0.15570193554E+03  0.00000000000E+00 0. -1.
        -13    1    1    2    0    0  0.10228590620E+03 -0.45105277790E+01  0.49293870390E+03  0.50345936125E+03  0.10566000000E+00 0.  1.
         13    1    1    2    0    0  0.23048893980E+03  0.37983802329E+03  0.39318005660E+03  0.59328967914E+03  0.10566000000E+00 0. -1.
         -4    1    1    2    0  502 -0.33277484599E+03 -0.37532749551E+03  0.11980048913E+04  0.12987784825E+04  0.00000000000E+00 0. -1.
</event>
<event>
 5    1  0.2562665E-005  0.3055602E+03  0.7818608E-02  0.1014041E+00
         21   -1    0    0  501  502  0.00000000000E+00  0.00000000000E+00  0.24436749432E+03  0.24436749432E+03  0.00000000000E+00 0. -1.
         -4   -1    0    0    0  501 -0.00000000000E+00 -0.00000000000E+00 -0.18382812323E+04  0.18382812323E+04  0.00000000000E+00 0. -1.
        -13    1    1    2    0    0  0.10453274271E+03 -0.20343799868E+03 -0.62767219428E+03  0.66804678597E+03  0.10566000000E+00 0.  1.
         13    1    1    2    0    0  0.20727911712E+03  0.13057373909E+03 -0.10543927070E+04  0.10824777713E+04  0.10566000000E+00 0. -1.
         -4    1    1    2    0  502 -0.31181185983E+03  0.72864259587E+02  0.88151163278E+02  0.33212416932E+03  0.00000000000E+00 0. -1.
</event>
<event>
 5    1  0.2540860E-005  0.3760805E+03  0.7818608E-02  0.9981289E-01
         21   -1    0    0  501  502  0.00000000000E+00  0.00000000000E+00  0.11938117862E+04  0.11938117862E+04  0.00000000000E+00 0. -1.
         -4   -1    0    0    0  501 -0.00000000000E+00 -0.00000000000E+00 -0.34253996772E+03  0.34253996772E+03  0.00000000000E+00 0. -1.
        -13    1    1    2    0    0 -0.20850734894E+02 -0.20431237089E+03 -0.63041185613E+01  0.20547031688E+03  0.10566000000E+00 0.  1.
         13    1    1    2    0    0 -0.37045340617E+03  0.74264974407E+02  0.83664623159E+03  0.91800214627E+03  0.10566000000E+00 0. -1.
         -4    1    1    2    0  502  0.39130414107E+03  0.13004739648E+03  0.20929705426E+02  0.41287929073E+03  0.00000000000E+00 0. -1.
</event>
<event>
 5    1  0.2540860E-005  0.7683200E+02  0.7818608E-02  0.1209863E+00
          4   -1    0    0  502    0 -0.00000000000E+00  0.00000000000E+00  0.53554514607E+03  0.53554514607E+03  0.00000000000E+00 0.  1.
         21   -1    0    0  501  502  0.00000000000E+00 -0.00000000000E+00 -0.25321576399E+02  0.25321576399E+02  0.00000000000E+00 0. -1.
        -13    1    1    2    0    0 -0.48119928487E+02  0.24472623852E+02  0.18810955891E+02  0.57169048106E+02  0.10566000000E+00 0.  1.
         13    1    1    2    0    0  0.74246356721E+02 -0.34680034889E+02  0.38717032092E+03  0.39574751405E+03  0.10566000000E+00 0. -1.
          4    1    1    2  501    0 -0.26126428234E+02  0.10207411037E+02  0.10424229285E+03  0.10795016031E+03  0.00000000000E+00 0.  1.
</event>
<event>
 5    1  0.2540860E-005  0.4988179E+03  0.7818608E-02  0.9811457E-01
         -4   -1    0    0    0  501 -0.00000000000E+00  0.00000000000E+00  0.17451293604E+04  0.17451293604E+04  0.00000000000E+00 0. -1.
         21   -1    0    0  501  502  0.00000000000E+00 -0.00000000000E+00 -0.29841873123E+03  0.29841873123E+03  0.00000000000E+00 0. -1.
        -13    1    1    2    0    0  0.13121836681E+03 -0.83281793575E+02  0.85768657127E+03  0.87165382041E+03  0.10566000000E+00 0.  1.
         13    1    1    2    0    0 -0.54421461274E+03  0.15856164149E+03  0.20450081271E+03  0.60260429175E+03  0.10566000000E+00 0. -1.
         -4    1    1    2    0  502  0.41299624593E+03 -0.75279847920E+02  0.38452324523E+03  0.56928997952E+03  0.00000000000E+00 0. -1.
</event>
<event>
 5    1  0.2540860E-005  0.3307593E+03  0.7818608E-02  0.9953610E-01
         21   -1    0    0  501  502  0.00000000000E+00  0.00000000000E+00  0.13151296593E+03  0.13151296593E+03  0.00000000000E+00 0. -1.
         -4   -1    0    0    0  501 -0.00000000000E+00 -0.00000000000E+00 -0.25516647042E+04  0.25516647042E+04  0.00000000000E+00 0. -1.
        -13    1    1    2    0    0 -0.21514970543E+03 -0.21509461031E+03 -0.51184530557E+03  0.59543321635E+03  0.10566000000E+00 0.  1.
         13    1    1    2    0    0  0.10109320129E+03  0.40558841282E+03 -0.45611640732E+03  0.61867922557E+03  0.10566000000E+00 0. -1.
         -4    1    1    2    0  502  0.11405650414E+03 -0.19049380251E+03 -0.14521900254E+04  0.14690652282E+04  0.00000000000E+00 0. -1.
</event>
<event>
 5    1  0.2540860E-005  0.4334014E+02  0.7818608E-02  0.1321567E+00
         -4   -1    0    0    0  501 -0.00000000000E+00  0.00000000000E+00  0.19326797379E+02  0.19326797379E+02  0.00000000000E+00 0. -1.
         21   -1    0    0  501  502  0.00000000000E+00 -0.00000000000E+00 -0.21411330825E+03  0.21411330825E+03  0.00000000000E+00 0.  1.
        -13    1    1    2    0    0 -0.14705550548E+02  0.36520711145E+02 -0.93561622800E+02  0.10150765481E+03  0.10566000000E+00 0.  1.
         13    1    1    2    0    0  0.51569973851E+01 -0.44816410718E+02 -0.19351332548E+02  0.49087580172E+02  0.10566000000E+00 0. -1.
         -4    1    1    2    0  502  0.95485531625E+01  0.82956995728E+01 -0.81873555522E+02  0.82844870648E+02  0.00000000000E+00 0. -1.
</event>
<event>
 5    1  0.2540860E-005  0.1322223E+03  0.7818608E-02  0.1120100E+00
          4   -1    0    0  502    0 -0.00000000000E+00  0.00000000000E+00  0.53482235259E+03  0.53482235259E+03  0.00000000000E+00 0.  1.
         21   -1    0    0  501  502  0.00000000000E+00 -0.00000000000E+00 -0.75126293742E+02  0.75126293742E+02  0.00000000000E+00 0.  1.
        -13    1    1    2    0    0  0.14050167382E+03 -0.11575588827E+02  0.43569020822E+03  0.45793087176E+03  0.10566000000E+00 0.  1.
         13    1    1    2    0    0 -0.10327531092E+03  0.13245276070E+02  0.39901864973E+02  0.11150514417E+03  0.10566000000E+00 0. -1.
          4    1    1    2  501    0 -0.37226362897E+02 -0.16696872424E+01 -0.15896014351E+02  0.40512630404E+02  0.00000000000E+00 0.  1.
</event>
<event>
 5    1  0.2540860E-005  0.2160086E+03  0.7818608E-02  0.1049683E+00
         21   -1    0    0  501  502  0.00000000000E+00  0.00000000000E+00  0.28394641481E+02  0.28394641481E+02  0.00000000000E+00 0. -1.
          4   -1    0    0  502    0 -0.00000000000E+00 -0.00000000000E+00 -0.22343293615E+04  0.22343293615E+04  0.00000000000E+00 0.  1.
        -13    1    1    2    0    0  0.92713057908E+01 -0.19744405783E+03 -0.90630126347E+03  0.92760557589E+03  0.10566000000E+00 0.  1.
         13    1    1    2    0    0  0.17614077031E+02  0.23569562087E+03 -0.12207499541E+04  0.12434199383E+04  0.10566000000E+00 0. -1.
          4    1    1    2  501    0 -0.26885382821E+02 -0.38251563041E+02 -0.78883502424E+02  0.91698488751E+02  0.00000000000E+00 0.  1.
</event>
<event>
 5    1  0.2540860E-005  0.3583932E+03  0.7818608E-02  0.1000297E+00
          4   -1    0    0  502    0 -0.00000000000E+00  0.00000000000E+00  0.12826764611E+04  0.12826764611E+04  0.00000000000E+00 0.  1.
         21   -1    0    0  501  502  0.00000000000E+00 -0.00000000000E+00 -0.31409220697E+03  0.31409220697E+03  0.00000000000E+00 0.  1.
        -13    1    1    2    0    0  0.43478341604E+03 -0.56472679708E+02  0.78149654231E+03  0.89608182619E+03  0.10566000000E+00 0.  1.
         13    1    1    2    0    0 -0.10890749255E+03  0.19230191594E+03  0.25891025854E+03  0.34040476194E+03  0.10566000000E+00 0. -1.
          4    1    1    2  501    0 -0.32587592349E+03 -0.13582923624E+03 -0.71822546702E+02  0.36028207996E+03  0.00000000000E+00 0.  1.
</event>
<event>
 5    1  0.2540860E-005  0.3986525E+03  0.7818608E-02  0.1002711E+00
          4   -1    0    0  502    0 -0.00000000000E+00  0.00000000000E+00  0.47960474143E+03  0.47960474143E+03  0.00000000000E+00 0.  1.
         21   -1    0    0  501  502  0.00000000000E+00 -0.00000000000E+00 -0.91367642008E+03  0.91367642008E+03  0.00000000000E+00 0.  1.
        -13    1    1    2    0    0 -0.14728059082E+02  0.49008196633E+03 -0.39952958998E+02  0.49192834798E+03  0.10566000000E+00 0.  1.
         13    1    1    2    0    0 -0.80576315540E+02 -0.12461967162E+03  0.16798613080E+03  0.22414717595E+03  0.10566000000E+00 0. -1.
          4    1    1    2  501    0  0.95304374622E+02 -0.36546229470E+03 -0.56210485045E+03  0.67720563758E+03  0.00000000000E+00 0.  1.
</event>
<event>
 5    1  0.2540860E-005  0.4803618E+03  0.7818608E-02  0.9815752E-01
         -4   -1    0    0    0  501 -0.00000000000E+00  0.00000000000E+00  0.46677502342E+03  0.46677502342E+03  0.00000000000E+00 0. -1.
         21   -1    0    0  501  502  0.00000000000E+00 -0.00000000000E+00 -0.72791884623E+03  0.72791884623E+03  0.00000000000E+00 0. -1.
        -13    1    1    2    0    0  0.27004259227E+01 -0.17147929435E+03 -0.89072263708E+02  0.19325195993E+03  0.10566000000E+00 0.  1.
         13    1    1    2    0    0  0.47785192458E+03  0.10911275347E+03 -0.16377493979E+03  0.51678844498E+03  0.10566000000E+00 0. -1.
         -4    1    1    2    0  502 -0.48055235050E+03  0.62366540884E+02 -0.82966193141E+01  0.48465346474E+03  0.00000000000E+00 0. -1.
</event>
<event>
 5    1  0.2540860E-005  0.4882784E+03  0.7818608E-02  0.9548627E-01
          4   -1    0    0  502    0 -0.00000000000E+00  0.00000000000E+00  0.23516870317E+04  0.23516870317E+04  0.00000000000E+00 0.  1.
         21   -1    0    0  501  502  0.00000000000E+00 -0.00000000000E+00 -0.24170254873E+03  0.24170254873E+03  0.00000000000E+00 0.  1.
        -13    1    1    2    0    0 -0.16418088444E+03  0.27297085985E+03  0.10742215645E+04  0.11204554583E+04  0.10566000000E+00 0.  1.
         13    1    1    2    0    0  0.23128052506E+03  0.34533107949E+03  0.51480586474E+03  0.66164138721E+03  0.10566000000E+00 0. -1.
          4    1    1    2  501    0 -0.67099640620E+02 -0.61830193934E+03  0.52095705374E+03  0.81129273496E+03  0.00000000000E+00 0.  1.
</event>
<event>
 5    1  0.2540860E-005  0.6920986E+02  0.7818608E-02  0.1228816E+00
         21   -1    0    0  501  502  0.00000000000E+00  0.00000000000E+00  0.23637298848E+03  0.23637298848E+03  0.00000000000E+00 0.  1.
         -4   -1    0    0    0  501 -0.00000000000E+00 -0.00000000000E+00 -0.30738434502E+02  0.30738434502E+02  0.00000000000E+00 0. -1.
        -13    1    1    2    0    0  0.67115520525E+02 -0.44614717010E+01  0.42790553814E+02  0.79721016581E+02  0.10566000000E+00 0.  1.
         13    1    1    2    0    0 -0.71488325750E+02  0.20078487821E+02  0.11515968838E+03  0.13702368914E+03  0.10566000000E+00 0. -1.
         -4    1    1    2    0  502  0.43728052256E+01 -0.15617016120E+02  0.47684311776E+02  0.50366717261E+02  0.00000000000E+00 0. -1.
</event>
<event>
 5    1  0.2540860E-005  0.6806664E+02  0.7818608E-02  0.1231894E+00
         -4   -1    0    0    0  501 -0.00000000000E+00  0.00000000000E+00  0.52477414944E+03  0.52477414944E+03  0.00000000000E+00 0. -1.
         21   -1    0    0  501  502  0.00000000000E+00 -0.00000000000E+00 -0.18886974816E+02  0.18886974816E+02  0.00000000000E+00 0.  1.
        -13    1    1    2    0    0 -0.32525254502E+02 -0.50388908946E+02  0.74280340567E+02  0.95469966398E+02  0.10566000000E+00 0.  1.
         13    1    1    2    0    0  0.69693040014E+02  0.27731620944E+02  0.31260600761E+03  0.32147891033E+03  0.10566000000E+00 0. -1.
         -4    1    1    2    0  502 -0.37167785512E+02  0.22657288002E+02  0.11900082644E+03  0.12671224753E+03  0.00000000000E+00 0. -1.
</event>
<event>
 5    1  0.2540860E-005  0.3368223E+03  0.7818608E-02  0.9931701E-01
         21   -1    0    0  501  502  0.00000000000E+00  0.00000000000E+00  0.51611911552E+03  0.51611911552E+03  0.00000000000E+00 0. -1.
         -4   -1    0    0    0  501 -0.00000000000E+00 -0.00000000000E+00 -0.12807877408E+04  0.12807877408E+04  0.00000000000E+00 0. -1.
        -13    1    1    2    0    0  0.27415062888E+03  0.20709672709E+03 -0.65627841469E+03  0.74077593808E+03  0.10566000000E+00 0.  1.
         13    1    1    2    0    0 -0.86349510510E+02 -0.36925367850E+03 -0.47850018311E+03  0.61054643841E+03  0.10566000000E+00 0. -1.
         -4    1    1    2    0  502 -0.18780111837E+03  0.16215695141E+03  0.37010997250E+03  0.44558447986E+03  0.00000000000E+00 0. -1.
</event>
<event>
 5    1  0.2540860E-005  0.4963159E+03  0.7818608E-02  0.9678860E-01
         21   -1    0    0  501  502  0.00000000000E+00  0.00000000000E+00  0.71360982189E+03  0.71360982189E+03  0.00000000000E+00 0.  1.
          4   -1    0    0  502    0 -0.00000000000E+00 -0.00000000000E+00 -0.64417454080E+03  0.64417454080E+03  0.00000000000E+00 0.  1.
        -13    1    1    2    0    0  0.85959641925E+02  0.49212089437E+03 -0.18841027177E+02  0.49992702486E+03  0.10566000000E+00 0.  1.
         13    1    1    2    0    0  0.23449309094E+03 -0.84788958333E+02 -0.14615399557E+03  0.28902798954E+03  0.10566000000E+00 0. -1.
          4    1    1    2  501    0 -0.32045273286E+03 -0.40733193603E+03  0.23443030384E+03  0.56882934829E+03  0.00000000000E+00 0.  1.
</event>
<event>
 5    1  0.2540860E-005  0.9126265E+02  0.7818608E-02  0.1179882E+00
         21   -1    0    0  501  502  0.00000000000E+00  0.00000000000E+00  0.13942016481E+03  0.13942016481E+03  0.00000000000E+00 0. -1.
          4   -1    0    0  502    0 -0.00000000000E+00 -0.00000000000E+00 -0.10581703577E+03  0.10581703577E+03  0.00000000000E+00 0.  1.
        -13    1    1    2    0    0  0.43287948357E+02  0.91517502455E+02 -0.45988857779E+02  0.11119481073E+03  0.10566000000E+00 0.  1.
         13    1    1    2    0    0 -0.29614220099E+02 -0.58268770257E+02  0.72103735694E+02  0.97320149426E+02  0.10566000000E+00 0. -1.
          4    1    1    2  501    0 -0.13673728258E+02 -0.33248732198E+02  0.74882511226E+01  0.36722240429E+02  0.00000000000E+00 0.  1.
</event>
<event>
 5    1  0.2540860E-005  0.2476926E+03  0.7818608E-02  0.1038505E+00
         -4   -1    0    0    0  501 -0.00000000000E+00  0.00000000000E+00  0.76526883211E+03  0.76526883211E+03  0.00000000000E+00 0. -1.
         21   -1    0    0  501  502  0.00000000000E+00 -0.00000000000E+00 -0.62175967796E+03  0.62175967796E+03  0.00000000000E+00 0. -1.
        -13    1    1    2    0    0 -0.15804128371E+03 -0.23302547843E+03  0.21473216922E+03  0.35410144961E+03  0.10566000000E+00 0.  1.
         13    1    1    2    0    0 -0.11670183913E+03  0.21548366927E+03  0.41050209922E+03  0.47808421393E+03  0.10566000000E+00 0. -1.
         -4    1    1    2    0  502  0.27474312284E+03  0.17541809162E+02 -0.48172511429E+03  0.55484284654E+03  0.00000000000E+00 0. -1.
</event>
<event>
 5    1  0.2540860E-005  0.4736793E+03  0.7818608E-02  0.9594998E-01
         21   -1    0    0  501  502  0.00000000000E+00  0.00000000000E+00  0.40318185337E+03  0.40318185337E+03  0.00000000000E+00 0. -1.
          4   -1    0    0  502    0 -0.00000000000E+00 -0.00000000000E+00 -0.25339694267E+04  0.25339694267E+04  0.00000000000E+00 0.  1.
        -13    1    1    2    0    0 -0.18184655654E+03  0.24228074439E+03 -0.76946829025E+03  0.82695198778E+03  0.10566000000E+00 0.  1.
         13    1    1    2    0    0  0.65116238616E+03 -0.17813467826E+03 -0.14758045038E+04  0.16228811914E+04  0.10566000000E+00 0. -1.
          4    1    1    2  501    0 -0.46931582962E+03 -0.64146066131E+02  0.11448522070E+03  0.48731810093E+03  0.00000000000E+00 0.  1.
</event>
<event>
 5    1  0.2540860E-005  0.4920402E+03  0.7818608E-02  0.9535833E-01
         21   -1    0    0  501  502  0.00000000000E+00  0.00000000000E+00  0.54422676510E+03  0.54422676510E+03  0.00000000000E+00 0. -1.
          4   -1    0    0  502    0 -0.00000000000E+00 -0.00000000000E+00 -0.11189683958E+04  0.11189683958E+04  0.00000000000E+00 0.  1.
        -13    1    1    2    0    0 -0.25735981725E+03 -0.15177404773E+03 -0.41954117829E+03  0.51505751965E+03  0.10566000000E+00 0.  1.
         13    1    1    2    0    0  0.19904817704E+02 -0.42485023613E+03 -0.28393799673E+03  0.51138510152E+03  0.10566000000E+00 0. -1.
          4    1    1    2  501    0  0.23745499955E+03  0.57662428386E+03  0.12873754432E+03  0.63675253974E+03  0.00000000000E+00 0.  1.
</event>
<event>
 5    1  0.2540860E-005  0.4131651E+02  0.7818608E-02  0.1342032E+00
         21   -1    0    0  501  502  0.00000000000E+00  0.00000000000E+00  0.52872182700E+03  0.52872182700E+03  0.00000000000E+00 0. -1.
         -4   -1    0    0    0  501 -0.00000000000E+00 -0.00000000000E+00 -0.36280120607E+02  0.36280120607E+02  0.00000000000E+00 0. -1.
        -13    1    1    2    0    0  0.15302309819E+01 -0.34233739414E+02 -0.56381287366E+01  0.34728809090E+02  0.10566000000E+00 0.  1.
         13    1    1    2    0    0 -0.41959452882E+02  0.40386995175E+02  0.40657510695E+02  0.71026399355E+02  0.10566000000E+00 0. -1.
         -4    1    1    2    0  502  0.40429221900E+02 -0.61532557610E+01  0.45742232443E+03  0.45924673916E+03  0.00000000000E+00 0. -1.
</event>
<event>
 5    1  0.2540860E-005  0.1419936E+03  0.7818608E-02  0.1109288E+00
         21   -1    0    0  501  502  0.00000000000E+00  0.00000000000E+00  0.52655570652E+03  0.52655570652E+03  0.00000000000E+00 0. -1.
          4   -1    0    0  502    0 -0.00000000000E+00 -0.00000000000E+00 -0.65638680799E+02  0.65638680799E+02  0.00000000000E+00 0.  1.
        -13    1    1    2    0    0 -0.11745302619E+03 -0.84555193335E+02  0.51061538615E+02  0.15346688884E+03  0.10566000000E+00 0.  1.
         13    1    1    2    0    0  0.11123942464E+03  0.69804167117E+02  0.39712368382E+03  0.41827510415E+03  0.10566000000E+00 0. -1.
          4    1    1    2  501    0  0.62136015512E+01  0.14751026218E+02  0.12731803286E+02  0.20452394326E+02  0.00000000000E+00 0.  1.
</event>
<event>
 5    1  0.2540860E-005  0.3733908E+03  0.7818608E-02  0.9849440E-01
         -4   -1    0    0    0  501 -0.00000000000E+00  0.00000000000E+00  0.16305991259E+04  0.16305991259E+04  0.00000000000E+00 0. -1.
         21   -1    0    0  501  502  0.00000000000E+00 -0.00000000000E+00 -0.32129670753E+03  0.32129670753E+03  0.00000000000E+00 0. -1.
        -13    1    1    2    0    0 -0.19577120249E+03  0.26033639569E+03  0.41161029698E+03  0.52490422973E+03  0.10566000000E+00 0.  1.
         13    1    1    2    0    0  0.24773628731E+03  0.26441641037E+03 -0.26114984581E+02  0.36327855662E+03  0.10566000000E+00 0. -1.
         -4    1    1    2    0  502 -0.51965084819E+02 -0.52475280606E+03  0.92380710600E+03  0.10637130471E+04  0.00000000000E+00 0. -1.
</event>
<event>
 5    1  0.2540860E-005  0.6366004E+02  0.7818608E-02  0.1244414E+00
         21   -1    0    0  501  502  0.00000000000E+00  0.00000000000E+00  0.52233121761E+03  0.52233121761E+03  0.00000000000E+00 0.  1.
          4   -1    0    0  502    0 -0.00000000000E+00 -0.00000000000E+00 -0.38808430686E+02  0.38808430686E+02  0.00000000000E+00 0.  1.
        -13    1    1    2    0    0 -0.48997876834E+02 -0.46699777345E+02  0.30820653210E+02  0.74374625825E+02  0.10566000000E+00 0.  1.
         13    1    1    2    0    0  0.16469518844E+02  0.62051593905E+02  0.47232173140E+02  0.79702789793E+02  0.10566000000E+00 0. -1.
          4    1    1    2  501    0  0.32528357989E+02 -0.15351816560E+02  0.40546996058E+03  0.40706223268E+03  0.00000000000E+00 0.  1.
</event>
<event>
 5    1  0.2540860E-005  0.1288120E+03  0.7818608E-02  0.1124114E+00
         21   -1    0    0  501  502  0.00000000000E+00  0.00000000000E+00  0.18676466625E+03  0.18676466625E+03  0.00000000000E+00 0. -1.
          4   -1    0    0  502    0 -0.00000000000E+00 -0.00000000000E+00 -0.43659221944E+03  0.43659221944E+03  0.00000000000E+00 0.  1.
        -13    1    1    2    0    0 -0.69403995750E+02  0.10808857279E+03 -0.39613112800E+03  0.41643719325E+03  0.10566000000E+00 0.  1.
         13    1    1    2    0    0  0.80294331009E+02 -0.10814117808E+03  0.12917604297E+03  0.18662302974E+03  0.10566000000E+00 0. -1.
          4    1    1    2  501    0 -0.10890335260E+02  0.52605287321E-01  0.17127531833E+02  0.20296662684E+02  0.00000000000E+00 0.  1.
</event>
<event>
 5    1  0.2540860E-005  0.2259047E+03  0.7818608E-02  0.1043695E+00
         21   -1    0    0  501  502  0.00000000000E+00  0.00000000000E+00  0.36548483490E+02  0.36548483490E+02  0.00000000000E+00 0.  1.
         -4   -1    0    0    0  501 -0.00000000000E+00 -0.00000000000E+00 -0.18999370528E+04  0.18999370528E+04  0.00000000000E+00 0. -1.
        -13    1    1    2    0    0 -0.18640807864E+03 -0.90216811287E+02 -0.77716211721E+03  0.80428105312E+03  0.10566000000E+00 0.  1.
         13    1    1    2    0    0  0.21801431605E+03  0.11300822337E+03 -0.10521923664E+04  0.10804674394E+04  0.10566000000E+00 0. -1.
         -4    1    1    2    0  502 -0.31606237409E+02 -0.22791412088E+02 -0.34034085729E+02  0.51737043784E+02  0.00000000000E+00 0. -1.
</event>
<event>
 5    1  0.2540860E-005  0.9830437E+02  0.7818608E-02  0.1167392E+00
         21   -1    0    0  501  502  0.00000000000E+00  0.00000000000E+00  0.20250812123E+03  0.20250812123E+03  0.00000000000E+00 0. -1.
          4   -1    0    0  502    0 -0.00000000000E+00 -0.00000000000E+00 -0.71560351918E+02  0.71560351918E+02  0.00000000000E+00 0.  1.
        -13    1    1    2    0    0 -0.65738370978E+02 -0.62297675771E+02  0.46901362211E+02  0.10199158184E+03  0.10566000000E+00 0.  1.
         13    1    1    2    0    0  0.10067360712E+03  0.45549298075E+02  0.53654528509E+02  0.12283620524E+03  0.10566000000E+00 0. -1.
          4    1    1    2  501    0 -0.34935236139E+02  0.16748377696E+02  0.30391878591E+02  0.49240686062E+02  0.00000000000E+00 0.  1.
</event>
<event>
 5    1  0.2540860E-005  0.5102071E+03  0.7818608E-02  0.9547243E-01
         21   -1    0    0  501  502  0.00000000000E+00  0.00000000000E+00  0.18831522945E+03  0.18831522945E+03  0.00000000000E+00 0. -1.
         -4   -1    0    0    0  501 -0.00000000000E+00 -0.00000000000E+00 -0.28027922079E+04  0.28027922079E+04  0.00000000000E+00 0. -1.
        -13    1    1    2    0    0 -0.23682648098E+03 -0.27921016050E+03 -0.58287056896E+03  0.68831911723E+03  0.10566000000E+00 0.  1.
         13    1    1    2    0    0  0.38961627198E+02 -0.36268221841E+03 -0.10648231157E+04  0.11255686025E+04  0.10566000000E+00 0. -1.
         -4    1    1    2    0  502  0.19786485378E+03  0.64189237890E+03 -0.96678329371E+03  0.11772197176E+04  0.00000000000E+00 0. -1.
</event>
<event>
 5    1  0.2540860E-005  0.1921054E+03  0.7818608E-02  0.1065687E+00
         21   -1    0    0  501  502  0.00000000000E+00  0.00000000000E+00  0.27484141472E+03  0.27484141472E+03  0.00000000000E+00 0. -1.
         -4   -1    0    0    0  501 -0.00000000000E+00 -0.00000000000E+00 -0.11413121968E+04  0.11413121968E+04  0.00000000000E+00 0. -1.
        -13    1    1    2    0    0 -0.19000945252E+03  0.46286995431E+02 -0.46738978185E+03  0.50665500820E+03  0.10566000000E+00 0.  1.
         13    1    1    2    0    0  0.11833096165E+03 -0.13156982400E+03  0.21894427247E+03  0.28151277180E+03  0.10566000000E+00 0. -1.
         -4    1    1    2    0  502  0.71678490870E+02  0.85282828573E+02 -0.61802527269E+03  0.62798583152E+03  0.00000000000E+00 0. -1.
</event>
<event>
 5    1  0.2540860E-005  0.6371093E+03  0.7818608E-02  0.9219571E-01
         21   -1    0    0  501  502  0.00000000000E+00  0.00000000000E+00  0.12403001045E+04  0.12403001045E+04  0.00000000000E+00 0.  1.
         -4   -1    0    0    0  501 -0.00000000000E+00 -0.00000000000E+00 -0.57068870036E+03  0.57068870036E+03  0.00000000000E+00 0. -1.
        -13    1    1    2    0    0 -0.41362083824E+03  0.34792148063E+03  0.28010701896E+03  0.60876227523E+03  0.10566000000E+00 0.  1.
         13    1    1    2    0    0  0.38457349884E+03 -0.68952551242E+03  0.32280030413E+03  0.85296087589E+03  0.10566000000E+00 0. -1.
         -4    1    1    2    0  502  0.29047339402E+02  0.34160403179E+03  0.66704081076E+02  0.34926565376E+03  0.00000000000E+00 0. -1.
</event>
<event>
 5    1  0.2540860E-005  0.3579578E+03  0.7818608E-02  0.1023321E+00
          4   -1    0    0  502    0 -0.00000000000E+00  0.00000000000E+00  0.19357055633E+04  0.19357055633E+04  0.00000000000E+00 0.  1.
         21   -1    0    0  501  502  0.00000000000E+00 -0.00000000000E+00 -0.16132458078E+03  0.16132458078E+03  0.00000000000E+00 0.  1.
        -13    1    1    2    0    0  0.83154248252E+01 -0.34124932044E+03  0.15182376820E+04  0.15561381414E+04  0.10566000000E+00 0.  1.
         13    1    1    2    0    0 -0.10575459952E+03 -0.86709581599E+01  0.99007656672E+02  0.14512666219E+03  0.10566000000E+00 0. -1.
          4    1    1    2  501    0  0.97439174693E+02  0.34992027860E+03  0.15713564385E+03  0.39576534046E+03  0.00000000000E+00 0.  1.
</event>
<event>
 5    1  0.2540860E-005  0.1418190E+03  0.7818608E-02  0.1109472E+00
         21   -1    0    0  501  502  0.00000000000E+00  0.00000000000E+00  0.23556400282E+03  0.23556400282E+03  0.00000000000E+00 0. -1.
         -4   -1    0    0    0  501 -0.00000000000E+00 -0.00000000000E+00 -0.17271592245E+04  0.17271592245E+04  0.00000000000E+00 0. -1.
        -13    1    1    2    0    0  0.12040542917E+03 -0.69699571675E+02 -0.60295364820E+03  0.61879609785E+03  0.10566000000E+00 0.  1.
         13    1    1    2    0    0 -0.22386325284E+03  0.47955015088E+02  0.16676421470E+03  0.28323974635E+03  0.10566000000E+00 0. -1.
         -4    1    1    2    0  502  0.10345782367E+03  0.21744556587E+02 -0.10554057882E+04  0.10606873832E+04  0.00000000000E+00 0. -1.
</event>
<event>
 5    1  0.2540860E-005  0.5183582E+03  0.7818608E-02  0.9438618E-01
         -4   -1    0    0    0  501 -0.00000000000E+00  0.00000000000E+00  0.43896742399E+04  0.43896742399E+04  0.00000000000E+00 0. -1.
         21   -1    0    0  501  502  0.00000000000E+00 -0.00000000000E+00 -0.16083361227E+03  0.16083361227E+03  0.00000000000E+00 0. -1.
        -13    1    1    2    0    0  0.34556510196E+03  0.30228389880E+03  0.21236516685E+04  0.21727142507E+04  0.10566000000E+00 0.  1.
         13    1    1    2    0    0 -0.48643189886E+03 -0.59891350769E+03  0.13636232630E+04  0.15667743285E+04  0.10566000000E+00 0. -1.
         -4    1    1    2    0  502  0.14086679690E+03  0.29662960889E+03  0.74156569614E+03  0.81101927291E+03  0.00000000000E+00 0. -1.
</event>
<event>
 5    1  0.2540860E-005  0.3619802E+03  0.7818608E-02  0.1029578E+00
         21   -1    0    0  501  502  0.00000000000E+00  0.00000000000E+00  0.28023636245E+03  0.28023636245E+03  0.00000000000E+00 0. -1.
         -4   -1    0    0    0  501 -0.00000000000E+00 -0.00000000000E+00 -0.10747798543E+04  0.10747798543E+04  0.00000000000E+00 0. -1.
        -13    1    1    2    0    0 -0.17833807303E+02  0.82554076196E+02 -0.80911164723E+02  0.11696088201E+03  0.10566000000E+00 0.  1.
         13    1    1    2    0    0  0.31015675524E+03  0.17851676478E+03  0.67443037794E+02  0.36416208292E+03  0.10566000000E+00 0. -1.
         -4    1    1    2    0  502 -0.29232294793E+03 -0.26107084097E+03 -0.78107536491E+03  0.87389325181E+03  0.00000000000E+00 0. -1.
</event>
<event>
 5    1  0.2540860E-005  0.4048495E+02  0.7818608E-02  0.1336249E+00
         -4   -1    0    0    0  501 -0.00000000000E+00  0.00000000000E+00  0.14860396876E+03  0.14860396876E+03  0.00000000000E+00 0. -1.
         21   -1    0    0  501  502  0.00000000000E+00 -0.00000000000E+00 -0.75751338123E+02  0.75751338123E+02  0.00000000000E+00 0.  1.
        -13    1    1    2    0    0 -0.31725005267E+02  0.25778148052E+02 -0.56432543586E+02  0.69682365171E+02  0.10566000000E+00 0.  1.
         13    1    1    2    0    0  0.40947612814E+02  0.33768544981E+01  0.11254820139E+03  0.11981326697E+03  0.10566000000E+00 0. -1.
         -4    1    1    2    0  502 -0.92226075468E+01 -0.29155002550E+02  0.16736972836E+02  0.34859674746E+02  0.00000000000E+00 0. -1.
</event>
<event>
 5    1  0.3187171E-005  0.3374540E+03  0.7818608E-02  0.1003382E+00
          4   -1    0    0  502    0 -0.00000000000E+00  0.00000000000E+00  0.38679377432E+03  0.38679377432E+03  0.00000000000E+00 0.  1.
         21   -1    0    0  501  502  0.00000000000E+00 -0.00000000000E+00 -0.13037075855E+04  0.13037075855E+04  0.00000000000E+00 0.  1.
        -13    1    1    2    0    0  0.49943686401E+02 -0.16416485988E+03  0.15083751027E+03  0.22846539935E+03  0.10566000000E+00 0.  1.
         13    1    1    2    0    0 -0.14734755302E+03 -0.18865713842E+03  0.83870116285E+02  0.25364744199E+03  0.10566000000E+00 0. -1.
          4    1    1    2  501    0  0.97403866619E+02  0.35282199831E+03 -0.11516214377E+04  0.12083885185E+04  0.00000000000E+00 0.  1.
</event>
<event>
 5    1  0.2540860E-005  0.5129440E+03  0.7818608E-02  0.9475195E-01
         21   -1    0    0  501  502  0.00000000000E+00  0.00000000000E+00  0.32954805705E+03  0.32954805705E+03  0.00000000000E+00 0.  1.
          4   -1    0    0  502    0 -0.00000000000E+00 -0.00000000000E+00 -0.21183016251E+04  0.21183016251E+04  0.00000000000E+00 0.  1.
        -13    1    1    2    0    0 -0.75839392189E+02  0.20705832012E+03 -0.79454404884E+03  0.82457565938E+03  0.10566000000E+00 0.  1.
         13    1    1    2    0    0  0.25884670793E+03  0.47062986864E+03 -0.64465748609E+03  0.83909318732E+03  0.10566000000E+00 0. -1.
          4    1    1    2  501    0 -0.18300731574E+03 -0.67768818876E+03 -0.34955203310E+03  0.78418083543E+03  0.00000000000E+00 0.  1.
</event>
<event>
 5    1  0.5595308E-005  0.3235033E+03  0.7818608E-02  0.1038070E+00
         -4   -1    0    0    0  501 -0.00000000000E+00  0.00000000000E+00  0.65837401041E+03  0.65837401041E+03  0.00000000000E+00 0. -1.
         21   -1    0    0  501  502  0.00000000000E+00 -0.00000000000E+00 -0.58026947683E+03  0.58026947683E+03  0.00000000000E+00 0. -1.
        -13    1    1    2    0    0  0.89101788220E+02 -0.19417563136E+02  0.20375715625E+03  0.22323342113E+03  0.10566000000E+00 0.  1.
         13    1    1    2    0    0  0.10893652987E+03  0.28072562799E+03  0.33470798940E+03  0.45022604887E+03  0.10566000000E+00 0. -1.
         -4    1    1    2    0  502 -0.19803831809E+03 -0.26130806486E+03 -0.46036061207E+03  0.56518401724E+03  0.00000000000E+00 0. -1.
</event>
<event>
 5    1  0.2540860E-005  0.4754405E+03  0.7818608E-02  0.9662409E-01
          4   -1    0    0  502    0 -0.00000000000E+00  0.00000000000E+00  0.15076533888E+04  0.15076533888E+04  0.00000000000E+00 0.  1.
         21   -1    0    0  501  502  0.00000000000E+00 -0.00000000000E+00 -0.32294246442E+03  0.32294246442E+03  0.00000000000E+00 0. -1.
        -13    1    1    2    0    0  0.20643327396E+03 -0.63329879175E+03  0.43793772803E+03  0.79716467623E+03  0.10566000000E+00 0.  1.
         13    1    1    2    0    0 -0.13707767765E+03  0.26740502858E+03  0.51056492276E+03  0.59242914389E+03  0.10566000000E+00 0. -1.
          4    1    1    2  501    0 -0.69355596314E+02  0.36589376317E+03  0.23620827355E+03  0.44100203306E+03  0.00000000000E+00 0.  1.
</event>
<event>
 5    1  0.2540860E-005  0.2447869E+03  0.7818608E-02  0.1033130E+00
          4   -1    0    0  502    0 -0.00000000000E+00  0.00000000000E+00  0.41013001738E+03  0.41013001738E+03  0.00000000000E+00 0.  1.
         21   -1    0    0  501  502  0.00000000000E+00 -0.00000000000E+00 -0.25493360306E+03  0.25493360306E+03  0.00000000000E+00 0. -1.
        -13    1    1    2    0    0 -0.22645541372E+03  0.98953811248E+02  0.26470167936E+03  0.36213381695E+03  0.10566000000E+00 0.  1.
         13    1    1    2    0    0  0.22031227235E+03 -0.89442164734E+02 -0.50799356547E+02  0.24314190089E+03  0.10566000000E+00 0. -1.
          4    1    1    2  501    0  0.61431413713E+01 -0.95116465141E+01 -0.58705908486E+02  0.59787902593E+02  0.00000000000E+00 0.  1.
</event>
<event>
 5    1  0.2540860E-005  0.4050113E+03  0.7818608E-02  0.9794089E-01
         21   -1    0    0  501  502  0.00000000000E+00  0.00000000000E+00  0.12240731969E+04  0.12240731969E+04  0.00000000000E+00 0.  1.
          4   -1    0    0  502    0 -0.00000000000E+00 -0.00000000000E+00 -0.37246692876E+03  0.37246692876E+03  0.00000000000E+00 0.  1.
        -13    1    1    2    0    0  0.40129013210E+03  0.31672905443E+03  0.86880286478E+02  0.51855497238E+03  0.10566000000E+00 0.  1.
         13    1    1    2    0    0 -0.39151571105E+01 -0.30805090734E+03  0.14200903085E+03  0.33923040249E+03  0.10566000000E+00 0. -1.
          4    1    1    2  501    0 -0.39737497499E+03 -0.86781470893E+01  0.62271695076E+03  0.73875475074E+03  0.00000000000E+00 0.  1.
</event>
<event>
 5    1  0.2540860E-005  0.2389240E+03  0.7818608E-02  0.1036298E+00
         -4   -1    0    0    0  501 -0.00000000000E+00  0.00000000000E+00  0.95833830759E+03  0.95833830759E+03  0.00000000000E+00 0. -1.
         21   -1    0    0  501  502  0.00000000000E+00 -0.00000000000E+00 -0.19171369116E+03  0.19171369116E+03  0.00000000000E+00 0.  1.
        -13    1    1    2    0    0  0.21962457068E+03  0.11237405366E+03 -0.40772414192E+02  0.25005055670E+03  0.10566000000E+00 0.  1.
         13    1    1    2    0    0 -0.20655459330E+03 -0.11835937569E+03  0.83532767671E+03  0.86858855649E+03  0.10566000000E+00 0. -1.
         -4    1    1    2    0  502 -0.13069977379E+02  0.59853220253E+01 -0.27930646090E+02  0.31412885564E+02  0.00000000000E+00 0. -1.
</event>
<event>
 5    1  0.2540860E-005  0.3366247E+03  0.7818608E-02  0.1003986E+00
          4   -1    0    0  502    0 -0.00000000000E+00  0.00000000000E+00  0.15035095707E+04  0.15035095707E+04  0.00000000000E+00 0.  1.
         21   -1    0    0  501  502  0.00000000000E+00 -0.00000000000E+00 -0.36965603474E+03  0.36965603474E+03  0.00000000000E+00 0.  1.
        -13    1    1    2    0    0 -0.12951164502E+03 -0.18720089601E+02  0.73086046682E+03  0.74248282208E+03  0.10566000000E+00 0.  1.
         13    1    1    2    0    0 -0.21487199311E+03 -0.98723057284E+02  0.64948538305E+03  0.69119280191E+03  0.10566000000E+00 0. -1.
          4    1    1    2  501    0  0.34438363813E+03  0.11744314688E+03 -0.24649231392E+03  0.43948998143E+03  0.00000000000E+00 0.  1.
</event>
<event>
 5    1  0.2540860E-005  0.1414194E+03  0.7818608E-02  0.1109897E+00
          4   -1    0    0  502    0 -0.00000000000E+00  0.00000000000E+00  0.27272037911E+03  0.27272037911E+03  0.00000000000E+00 0.  1.
         21   -1    0    0  501  502  0.00000000000E+00 -0.00000000000E+00 -0.33300012842E+03  0.33300012842E+03  0.00000000000E+00 0.  1.
        -13    1    1    2    0    0 -0.38301370015E+01  0.14283263483E+03  0.15896627681E+03  0.21374311649E+03  0.10566000000E+00 0.  1.
         13    1    1    2    0    0 -0.20077986510E+02 -0.13831264411E+03  0.28835065061E+02  0.14270593963E+03  0.10566000000E+00 0. -1.
          4    1    1    2  501    0  0.23908123512E+02 -0.45199907167E+01 -0.24808109118E+03  0.24927145141E+03  0.00000000000E+00 0.  1.
</event>
<event>
 5    1  0.2540860E-005  0.5726422E+02  0.7818608E-02  0.1264744E+00
         21   -1    0    0  501  502  0.00000000000E+00  0.00000000000E+00  0.35884052250E+02  0.35884052250E+02  0.00000000000E+00 0.  1.
          4   -1    0    0  502    0 -0.00000000000E+00 -0.00000000000E+00 -0.35233807389E+03  0.35233807389E+03  0.00000000000E+00 0.  1.
        -13    1    1    2    0    0  0.63775286048E+02 -0.52611278088E+01 -0.28054606013E+03  0.28775174995E+03  0.10566000000E+00 0.  1.
         13    1    1    2    0    0 -0.43518899420E+02 -0.28946048186E+01 -0.55874244478E+02  0.70881702179E+02  0.10566000000E+00 0. -1.
          4    1    1    2  501    0 -0.20256386628E+02  0.81557326274E+01  0.19966282976E+02  0.29588674012E+02  0.00000000000E+00 0.  1.
</event>
<event>
 5    1  0.2540860E-005  0.3734223E+03  0.7818608E-02  0.1000719E+00
          4   -1    0    0  502    0 -0.00000000000E+00  0.00000000000E+00  0.58780283171E+03  0.58780283171E+03  0.00000000000E+00 0.  1.
         21   -1    0    0  501  502  0.00000000000E+00 -0.00000000000E+00 -0.79007631289E+03  0.79007631289E+03  0.00000000000E+00 0.  1.
        -13    1    1    2    0    0 -0.12077898009E+03  0.32664244699E+03  0.17958938629E+03  0.39183569138E+03  0.10566000000E+00 0.  1.
         13    1    1    2    0    0 -0.17582395904E+03 -0.78863161351E+02  0.20627810545E+03  0.28228377698E+03  0.10566000000E+00 0. -1.
          4    1    1    2  501    0  0.29660293912E+03 -0.24777928564E+03 -0.58814097292E+03  0.70375967625E+03  0.00000000000E+00 0.  1.
</event>
<event>
 5    1  0.2540860E-005  0.7165615E+02  0.7818608E-02  0.1261477E+00
         21   -1    0    0  501  502  0.00000000000E+00  0.00000000000E+00  0.26580571567E+03  0.26580571567E+03  0.00000000000E+00 0. -1.
         -4   -1    0    0    0  501 -0.00000000000E+00 -0.00000000000E+00 -0.41289028538E+02  0.41289028538E+02  0.00000000000E+00 0. -1.
        -13    1    1    2    0    0 -0.26554668310E+02  0.16485125756E+02  0.57412803764E-01  0.31255787312E+02  0.10566000000E+00 0.  1.
         13    1    1    2    0    0  0.85830011005E+02 -0.36812336164E+02  0.10212252302E+03  0.13838699272E+03  0.10566000000E+00 0. -1.
         -4    1    1    2    0  502 -0.59275342695E+02  0.20327210408E+02  0.12233675131E+03  0.13745196417E+03  0.00000000000E+00 0. -1.
</event>
<event>
 5    1  0.2540860E-005  0.4880668E+03  0.7818608E-02  0.9504518E-01
         21   -1    0    0  501  502  0.00000000000E+00  0.00000000000E+00  0.25839607327E+03  0.25839607327E+03  0.00000000000E+00 0.  1.
         -4   -1    0    0    0  501 -0.00000000000E+00 -0.00000000000E+00 -0.14133133822E+04  0.14133133822E+04  0.00000000000E+00 0. -1.
        -13    1    1    2    0    0  0.48812610523E+03 -0.23788643868E+02 -0.74052760306E+03  0.88725088686E+03  0.10566000000E+00 0.  1.
         13    1    1    2    0    0 -0.48784425144E+03 -0.14369787775E+02 -0.49508022181E+03  0.69519992927E+03  0.10566000000E+00 0. -1.
         -4    1    1    2    0  502 -0.28185378494E+00  0.38158431642E+02  0.80690515903E+02  0.89258639378E+02  0.00000000000E+00 0. -1.
</event>
<event>
 5    1  0.2540860E-005  0.3716206E+03  0.7818608E-02  0.9814786E-01
         21   -1    0    0  501  502  0.00000000000E+00  0.00000000000E+00  0.73201538007E+03  0.73201538007E+03  0.00000000000E+00 0.  1.
         -4   -1    0    0    0  501 -0.00000000000E+00 -0.00000000000E+00 -0.24598415537E+03  0.24598415537E+03  0.00000000000E+00 0. -1.
        -13    1    1    2    0    0  0.11678670705E+03 -0.34083953898E+03  0.28565299332E+03  0.45979165938E+03  0.10566000000E+00 0.  1.
         13    1    1    2    0    0 -0.18563331857E+03  0.33315997380E+03  0.96594124753E+02  0.39342818050E+03  0.10566000000E+00 0. -1.
         -4    1    1    2    0  502  0.68846611516E+02  0.76795651731E+01  0.10378410662E+03  0.12477969557E+03  0.00000000000E+00 0. -1.
</event>
<event>
 5    1  0.2540860E-005  0.6056314E+02  0.7818608E-02  0.1253907E+00
         -4   -1    0    0    0  501 -0.00000000000E+00  0.00000000000E+00  0.12673133713E+03  0.12673133713E+03  0.00000000000E+00 0. -1.
         21   -1    0    0  501  502  0.00000000000E+00 -0.00000000000E+00 -0.64857963062E+02  0.64857963062E+02  0.00000000000E+00 0. -1.
        -13    1    1    2    0    0  0.52141288520E+02  0.43560047126E+02  0.79441093302E+01  0.68405494745E+02  0.10566000000E+00 0.  1.
         13    1    1    2    0    0 -0.38089720799E+02 -0.44237094270E+02  0.76718179150E+02  0.96402476712E+02  0.10566000000E+00 0. -1.
         -4    1    1    2    0  502 -0.14051567721E+02  0.67704714351E+00 -0.22788914417E+02  0.26781328731E+02  0.00000000000E+00 0. -1.
</event>
<event>
 5    1  0.2540860E-005  0.4454022E+03  0.7818608E-02  0.9754057E-01
         21   -1    0    0  501  502  0.00000000000E+00  0.00000000000E+00  0.91219334210E+03  0.91219334210E+03  0.00000000000E+00 0. -1.
         -4   -1    0    0    0  501 -0.00000000000E+00 -0.00000000000E+00 -0.10009071953E+04  0.10009071953E+04  0.00000000000E+00 0. -1.
        -13    1    1    2    0    0 -0.24336783476E+03  0.10673382196E+03 -0.67703133936E+03  0.72731798918E+03  0.10566000000E+00 0.  1.
         13    1    1    2    0    0  0.40790396830E+03  0.30304844728E+03  0.83307820591E+02  0.51494098000E+03  0.10566000000E+00 0. -1.
         -4    1    1    2    0  502 -0.16453613354E+03 -0.40978226924E+03  0.50500966553E+03  0.67084156826E+03  0.00000000000E+00 0. -1.
</event>
<event>
 5    1  0.2540860E-005  0.5120934E+03  0.7818608E-02  0.9638936E-01
          4   -1    0    0  502    0 -0.00000000000E+00  0.00000000000E+00  0.18519977988E+04  0.18519977988E+04  0.00000000000E+00 0.  1.
         21   -1    0    0  501  502  0.00000000000E+00 -0.00000000000E+00 -0.26582020005E+03  0.26582020005E+03  0.00000000000E+00 0.  1.
        -13    1    1    2    0    0 -0.35461177131E+03  0.77728498071E+02  0.70141140510E+03  0.78979060398E+03  0.10566000000E+00 0.  1.
         13    1    1    2    0    0 -0.20942036327E+03  0.15608064243E+03  0.59985735954E+03  0.65425294684E+03  0.10566000000E+00 0. -1.
          4    1    1    2  501    0  0.56403213458E+03 -0.23380914050E+03  0.28490883407E+03  0.67377444798E+03  0.00000000000E+00 0.  1.
</event>
<event>
 5    1  0.2540860E-005  0.2610000E+03  0.7818608E-02  0.1024845E+00
         -4   -1    0    0    0  501 -0.00000000000E+00  0.00000000000E+00  0.88898784391E+03  0.88898784391E+03  0.00000000000E+00 0. -1.
         21   -1    0    0  501  502  0.00000000000E+00 -0.00000000000E+00 -0.10949150090E+03  0.10949150090E+03  0.00000000000E+00 0.  1.
        -13    1    1    2    0    0 -0.33635198210E+02 -0.27193158484E+03  0.33402793106E+03  0.43203331270E+03  0.10566000000E+00 0.  1.
         13    1    1    2    0    0 -0.36737813918E+02  0.25278048408E+03  0.41520023757E+03  0.48748219306E+03  0.10566000000E+00 0. -1.
         -4    1    1    2    0  502  0.70373012128E+02  0.19151100759E+02  0.30268174386E+02  0.78963839046E+02  0.00000000000E+00 0. -1.
</event>
<event>
 5    1  0.2540860E-005  0.3169240E+03  0.7818608E-02  0.1035832E+00
         -4   -1    0    0    0  501 -0.00000000000E+00  0.00000000000E+00  0.22861593960E+03  0.22861593960E+03  0.00000000000E+00 0. -1.
         21   -1    0    0  501  502  0.00000000000E+00 -0.00000000000E+00 -0.14943259703E+04  0.14943259703E+04  0.00000000000E+00 0. -1.
        -13    1    1    2    0    0  0.72642496200E+02 -0.74194751123E+02 -0.22033600116E+02  0.10614746368E+03  0.10566000000E+00 0.  1.
         13    1    1    2    0    0  0.18304498782E+03  0.26367663348E+03  0.12207110856E+02  0.32121621897E+03  0.10566000000E+00 0. -1.
         -4    1    1    2    0  502 -0.25568748402E+03 -0.18948188236E+03 -0.12558835414E+04  0.12955782272E+04  0.00000000000E+00 0. -1.
</event>
<event>
 5    1  0.2540860E-005  0.4347465E+03  0.7818608E-02  0.9799870E-01
          4   -1    0    0  502    0 -0.00000000000E+00  0.00000000000E+00  0.19805682733E+04  0.19805682733E+04  0.00000000000E+00 0.  1.
         21   -1    0    0  501  502  0.00000000000E+00 -0.00000000000E+00 -0.38670974584E+03  0.38670974584E+03  0.00000000000E+00 0.  1.
        -13    1    1    2    0    0  0.46339153727E+03 -0.19199006487E+03 -0.15487898243E+03  0.52495658124E+03  0.10566000000E+00 0.  1.
         13    1    1    2    0    0 -0.21072392928E+03  0.12343740741E+03  0.13004765961E+04  0.13232085082E+04  0.10566000000E+00 0. -1.
          4    1    1    2  501    0 -0.25266760800E+03  0.68552657451E+02  0.44826091377E+03  0.51911292970E+03  0.00000000000E+00 0.  1.
</event>
<event>
 5    1  0.2540860E-005  0.7513975E+03  0.7818608E-02  0.9051577E-01
         21   -1    0    0  501  502  0.00000000000E+00  0.00000000000E+00  0.15056058613E+04  0.15056058613E+04  0.00000000000E+00 0.  1.
         -4   -1    0    0    0  501 -0.00000000000E+00 -0.00000000000E+00 -0.99957798395E+03  0.99957798395E+03  0.00000000000E+00 0. -1.
        -13    1    1    2    0    0 -0.78234512181E+03 -0.65940813600E+02  0.65419131973E+03  0.10219483228E+04  0.10566000000E+00 0.  1.
         13    1    1    2    0    0  0.74429686120E+03  0.24897143843E+02 -0.64381972302E+03  0.98442954663E+03  0.10566000000E+00 0. -1.
         -4    1    1    2    0  502  0.38048260610E+02  0.41043669757E+02  0.49565628060E+03  0.49880597577E+03  0.00000000000E+00 0. -1.
</event>
<event>
 5    1  0.2540860E-005  0.3711366E+03  0.7818608E-02  0.9901300E-01
         21   -1    0    0  501  502  0.00000000000E+00  0.00000000000E+00  0.60144757187E+03  0.60144757187E+03  0.00000000000E+00 0. -1.
         -4   -1    0    0    0  501 -0.00000000000E+00 -0.00000000000E+00 -0.19872408440E+04  0.19872408440E+04  0.00000000000E+00 0. -1.
        -13    1    1    2    0    0 -0.20504238028E+03 -0.18865461739E+03 -0.15217653292E+04  0.15470625943E+04  0.10566000000E+00 0.  1.
         13    1    1    2    0    0  0.46836978321E+03 -0.64625889265E+02 -0.22887163760E+03  0.52528944121E+03  0.10566000000E+00 0. -1.
         -4    1    1    2    0  502 -0.26332740292E+03  0.25328050666E+03  0.36484369465E+03  0.51633638038E+03  0.00000000000E+00 0. -1.
</event>
<event>
 5    1  0.2540860E-005  0.5781947E+03  0.7818608E-02  0.9321312E-01
         21   -1    0    0  501  502  0.00000000000E+00  0.00000000000E+00  0.93146509147E+03  0.93146509147E+03  0.00000000000E+00 0. -1.
         -4   -1    0    0    0  501 -0.00000000000E+00 -0.00000000000E+00 -0.11302874018E+04  0.11302874018E+04  0.00000000000E+00 0. -1.
        -13    1    1    2    0    0  0.41550609492E+03 -0.37985878174E+03  0.36084910752E+02  0.56412777003E+03  0.10566000000E+00 0.  1.
         13    1    1    2    0    0 -0.43190933406E+03  0.39185132443E+03 -0.76790126908E+03  0.96424348768E+03  0.10566000000E+00 0. -1.
         -4    1    1    2    0  502  0.16403239145E+02 -0.11992542692E+02  0.53299404796E+03  0.53338123561E+03  0.00000000000E+00 0. -1.
</event>
<event>
 5    1  0.2540860E-005  0.7885422E+02  0.7818608E-02  0.1205242E+00
         21   -1    0    0  501  502  0.00000000000E+00  0.00000000000E+00  0.54813990353E+03  0.54813990353E+03  0.00000000000E+00 0. -1.
          4   -1    0    0  502    0 -0.00000000000E+00 -0.00000000000E+00 -0.16323336416E+02  0.16323336416E+02  0.00000000000E+00 0.  1.
        -13    1    1    2    0    0  0.41200881081E+02  0.66517656210E+02  0.16435182093E+03  0.18202649092E+03  0.10566000000E+00 0.  1.
         13    1    1    2    0    0 -0.27409317739E+02 -0.75856871106E+02  0.22535406271E+03  0.23935329606E+03  0.10566000000E+00 0. -1.
          4    1    1    2  501    0 -0.13791563342E+02  0.93392148957E+01  0.14211068348E+03  0.14308345296E+03  0.00000000000E+00 0.  1.
</event>
<event>
 5    1  0.2540860E-005  0.5802833E+03  0.7818608E-02  0.9317490E-01
          4   -1    0    0  502    0 -0.00000000000E+00  0.00000000000E+00  0.14107110054E+04  0.14107110054E+04  0.00000000000E+00 0.  1.
         21   -1    0    0  501  502  0.00000000000E+00 -0.00000000000E+00 -0.46860375601E+03  0.46860375601E+03  0.00000000000E+00 0. -1.
        -13    1    1    2    0    0 -0.16590269198E+03 -0.64928006152E+03  0.78057383107E+03  0.10287778275E+04  0.10566000000E+00 0.  1.
         13    1    1    2    0    0  0.33614937785E+03  0.35634859944E+03  0.14682017698E+03  0.51140678925E+03  0.10566000000E+00 0. -1.
          4    1    1    2  501    0 -0.17024668587E+03  0.29293146208E+03  0.14713241330E+02  0.33913014463E+03  0.00000000000E+00 0.  1.
</event>
<event>
 5    1  0.2540860E-005  0.3900834E+03  0.7818608E-02  0.9758130E-01
          4   -1    0    0  502    0 -0.00000000000E+00  0.00000000000E+00  0.36835000694E+03  0.36835000694E+03  0.00000000000E+00 0.  1.
         21   -1    0    0  501  502  0.00000000000E+00 -0.00000000000E+00 -0.10087300957E+04  0.10087300957E+04  0.00000000000E+00 0.  1.
        -13    1    1    2    0    0  0.32747183493E+03 -0.20868819078E+03  0.10444552098E+03  0.40211620418E+03  0.10566000000E+00 0.  1.
         13    1    1    2    0    0 -0.34371469872E+03  0.19364702436E+03 -0.22400064207E+03  0.45366867092E+03  0.10566000000E+00 0. -1.
          4    1    1    2  501    0  0.16242863788E+02  0.15041166413E+02 -0.52082496770E+03  0.52129522757E+03  0.00000000000E+00 0.  1.
</event>
<event>
 5    1  0.2540860E-005  0.4344606E+03  0.7818608E-02  0.9797945E-01
         -4   -1    0    0    0  501 -0.00000000000E+00  0.00000000000E+00  0.23405113076E+04  0.23405113076E+04  0.00000000000E+00 0. -1.
         21   -1    0    0  501  502  0.00000000000E+00 -0.00000000000E+00 -0.18045712359E+03  0.18045712359E+03  0.00000000000E+00 0. -1.
        -13    1    1    2    0    0  0.90032829758E+02 -0.22926798089E+03  0.73615930745E+03  0.77627331179E+03  0.10566000000E+00 0.  1.
         13    1    1    2    0    0  0.23590624470E+03 -0.14558758308E+03  0.11385873659E+04  0.11718484124E+04  0.10566000000E+00 0. -1.
         -4    1    1    2    0  502 -0.32593907446E+03  0.37485556397E+03  0.28530751066E+03  0.57284670701E+03  0.00000000000E+00 0. -1.
</event>
<event>
 5    1  0.2540860E-005  0.2071472E+03  0.7818608E-02  0.1055344E+00
         21   -1    0    0  501  502  0.00000000000E+00  0.00000000000E+00  0.65195556222E+02  0.65195556222E+02  0.00000000000E+00 0.  1.
          4   -1    0    0  502    0 -0.00000000000E+00 -0.00000000000E+00 -0.10237066346E+04  0.10237066346E+04  0.00000000000E+00 0.  1.
        -13    1    1    2    0    0 -0.16406161827E+03  0.13371874600E+03 -0.78132772931E+03  0.80948746091E+03  0.10566000000E+00 0.  1.
         13    1    1    2    0    0  0.15081902123E+03 -0.12111511316E+03 -0.17528189432E+03  0.26103448324E+03  0.10566000000E+00 0. -1.
          4    1    1    2  501    0  0.13242597039E+02 -0.12603632845E+02 -0.19014547421E+01  0.18380246662E+02  0.00000000000E+00 0.  1.
</event>
<event>
 5    1  0.2540860E-005  0.1034496E+03  0.7818608E-02  0.1158971E+00
         21   -1    0    0  501  502  0.00000000000E+00  0.00000000000E+00  0.84995568946E+03  0.84995568946E+03  0.00000000000E+00 0. -1.
         -4   -1    0    0    0  501 -0.00000000000E+00 -0.00000000000E+00 -0.13791537941E+03  0.13791537941E+03  0.00000000000E+00 0. -1.
        -13    1    1    2    0    0 -0.12069964301E+03 -0.10590184458E+03  0.27183964715E+03  0.31572204459E+03  0.10566000000E+00 0.  1.
         13    1    1    2    0    0  0.31660616547E+02  0.95472081706E+02 -0.89667851753E+02  0.13475031661E+03  0.10566000000E+00 0. -1.
         -4    1    1    2    0  502  0.89039026466E+02  0.10429762876E+02  0.52986851464E+03  0.53739870766E+03  0.00000000000E+00 0. -1.
</event>
<event>
 5    1  0.2540860E-005  0.4499084E+03  0.7818608E-02  0.9731626E-01
          4   -1    0    0  502    0 -0.00000000000E+00  0.00000000000E+00  0.17254209844E+04  0.17254209844E+04  0.00000000000E+00 0.  1.
         21   -1    0    0  501  502  0.00000000000E+00 -0.00000000000E+00 -0.22155923386E+03  0.22155923386E+03  0.00000000000E+00 0. -1.
        -13    1    1    2    0    0  0.35260562738E+03 -0.37317148531E+03  0.40796925921E+03  0.65576414475E+03  0.10566000000E+00 0.  1.
         13    1    1    2    0    0  0.38431210043E+02  0.27594126710E+03  0.40945837081E+03  0.49525418664E+03  0.10566000000E+00 0. -1.
          4    1    1    2  501    0 -0.39103683743E+03  0.97230218212E+02  0.68643412055E+03  0.79596188691E+03  0.00000000000E+00 0.  1.
</event>
<event>
 5    1  0.2540860E-005  0.5019092E+03  0.7818608E-02  0.9588811E-01
         21   -1    0    0  501  502  0.00000000000E+00  0.00000000000E+00  0.74692931865E+03  0.74692931865E+03  0.00000000000E+00 0.  1.
          4   -1    0    0  502    0 -0.00000000000E+00 -0.00000000000E+00 -0.68092818745E+03  0.68092818745E+03  0.00000000000E+00 0.  1.
        -13    1    1    2    0    0  0.50185027866E+02 -0.49165119287E+03  0.58429282001E+02  0.49764789222E+03  0.10566000000E+00 0.  1.
         13    1    1    2    0    0  0.32329504139E+03  0.72774954142E+02 -0.12394572805E+03  0.35380564213E+03  0.10566000000E+00 0. -1.
          4    1    1    2  501    0 -0.37348006926E+03  0.41887623873E+03  0.13151757725E+03  0.57640397174E+03  0.00000000000E+00 0.  1.
</event>
<event>
 5    1  0.2540860E-005  0.1466531E+03  0.7818608E-02  0.1132806E+00
         21   -1    0    0  501  502  0.00000000000E+00  0.00000000000E+00  0.58061543236E+03  0.58061543236E+03  0.00000000000E+00 0.  1.
          4   -1    0    0  502    0 -0.00000000000E+00 -0.00000000000E+00 -0.57899077674E+03  0.57899077674E+03  0.00000000000E+00 0.  1.
        -13    1    1    2    0    0  0.30012823816E+02  0.14247200522E+03  0.53818193568E+03  0.55752923593E+03  0.10566000000E+00 0.  1.
         13    1    1    2    0    0 -0.37428217629E+02  0.58895552721E+02 -0.10914057749E+03  0.12954240396E+03  0.10566000000E+00 0. -1.
          4    1    1    2  501    0  0.74153938135E+01 -0.20136755794E+03 -0.42741670257E+03  0.47253456920E+03  0.00000000000E+00 0.  1.
</event>
<event>
 5    1  0.2540860E-005  0.1154056E+03  0.7818608E-02  0.1141315E+00
          4   -1    0    0  502    0 -0.00000000000E+00  0.00000000000E+00  0.84946456510E+03  0.84946456510E+03  0.00000000000E+00 0.  1.
         21   -1    0    0  501  502  0.00000000000E+00 -0.00000000000E+00 -0.44352613941E+02  0.44352613941E+02  0.00000000000E+00 0. -1.
        -13    1    1    2    0    0 -0.78024559920E+02  0.76464447381E+02  0.46701840091E+03  0.47962573077E+03  0.10566000000E+00 0.  1.
         13    1    1    2    0    0  0.65448051639E+02 -0.11168359819E+03  0.35141011115E+03  0.37449399321E+03  0.10566000000E+00 0. -1.
          4    1    1    2  501    0  0.12576508281E+02  0.35219150813E+02 -0.13316560896E+02  0.39697455065E+02  0.00000000000E+00 0.  1.
</event>
<event>
 5    1  0.2540860E-005  0.3671449E+03  0.7818608E-02  0.9829046E-01
          4   -1    0    0  502    0 -0.00000000000E+00  0.00000000000E+00  0.18211629804E+04  0.18211629804E+04  0.00000000000E+00 0.  1.
         21   -1    0    0  501  502  0.00000000000E+00 -0.00000000000E+00 -0.27170183980E+03  0.27170183980E+03  0.00000000000E+00 0. -1.
        -13    1    1    2    0    0 -0.35951933439E+03 -0.94672296562E+02  0.12936985397E+04  0.13460582894E+04  0.10566000000E+00 0.  1.
         13    1    1    2    0    0  0.35086705093E+03  0.63980259109E+02  0.43627210656E+03  0.56350201695E+03  0.10566000000E+00 0. -1.
          4    1    1    2  501    0  0.86522834533E+01  0.30692037454E+02 -0.18050950567E+03  0.18330451388E+03  0.00000000000E+00 0.  1.
</event>
<event>
 5    1  0.2540860E-005  0.4751316E+02  0.7818608E-02  0.1302259E+00
         21   -1    0    0  501  502  0.00000000000E+00  0.00000000000E+00  0.10414195748E+03  0.10414195748E+03  0.00000000000E+00 0.  1.
         -4   -1    0    0    0  501 -0.00000000000E+00 -0.00000000000E+00 -0.14048393654E+03  0.14048393654E+03  0.00000000000E+00 0. -1.
        -13    1    1    2    0    0 -0.34087089566E+02  0.10774213758E+02  0.83649065166E+02  0.90968074754E+02  0.10566000000E+00 0.  1.
         13    1    1    2    0    0  0.48049265717E+02 -0.31982277416E+01 -0.12735019996E+03  0.13615081781E+03  0.10566000000E+00 0. -1.
         -4    1    1    2    0  502 -0.13962176151E+02 -0.75759860164E+01  0.73591557361E+01  0.17507001461E+02  0.00000000000E+00 0. -1.
</event>
<event>
 5    1  0.2540860E-005  0.1298794E+03  0.7818608E-02  0.1122843E+00
         21   -1    0    0  501  502  0.00000000000E+00  0.00000000000E+00  0.81721911082E+02  0.81721911082E+02  0.00000000000E+00 0. -1.
          4   -1    0    0  502    0 -0.00000000000E+00 -0.00000000000E+00 -0.27145466376E+03  0.27145466376E+03  0.00000000000E+00 0.  1.
        -13    1    1    2    0    0 -0.26833929980E+01  0.14043738651E+03 -0.69592359106E+02  0.15675767202E+03  0.10566000000E+00 0.  1.
         13    1    1    2    0    0 -0.22835658796E+01 -0.12378945570E+03 -0.12734480857E+03  0.17761124809E+03  0.10566000000E+00 0. -1.
          4    1    1    2  501    0  0.49669588775E+01 -0.16647930812E+02  0.72044149980E+01  0.18807654725E+02  0.00000000000E+00 0.  1.
</event>
<event>
 5    1  0.2540860E-005  0.4403717E+03  0.7818608E-02  0.9650667E-01
         21   -1    0    0  501  502  0.00000000000E+00  0.00000000000E+00  0.53714283866E+03  0.53714283866E+03  0.00000000000E+00 0.  1.
          4   -1    0    0  502    0 -0.00000000000E+00 -0.00000000000E+00 -0.13747866186E+04  0.13747866186E+04  0.00000000000E+00 0.  1.
        -13    1    1    2    0    0  0.38818150253E+03  0.91653225093E+01 -0.72261081963E+03  0.82032633131E+03  0.10566000000E+00 0.  1.
         13    1    1    2    0    0 -0.35287486921E+03 -0.44811934581E+03 -0.26156363109E+03  0.62749276146E+03  0.10566000000E+00 0. -1.
          4    1    1    2  501    0 -0.35306633317E+02  0.43895402330E+03  0.14653067078E+03  0.46411036447E+03  0.00000000000E+00 0.  1.
</event>
<event>
 5    1  0.2540860E-005  0.3927699E+02  0.7818608E-02  0.1342881E+00
          4   -1    0    0  502    0 -0.00000000000E+00  0.00000000000E+00  0.84670379060E+02  0.84670379060E+02  0.00000000000E+00 0.  1.
         21   -1    0    0  501  502  0.00000000000E+00 -0.00000000000E+00 -0.60522241818E+02  0.60522241818E+02  0.00000000000E+00 0. -1.
        -13    1    1    2    0    0 -0.82557483432E+01  0.36355370580E+02  0.54868349818E+02  0.66335641450E+02  0.10566000000E+00 0.  1.
         13    1    1    2    0    0 -0.16541495512E+00 -0.53004999817E+02 -0.16887666825E+02  0.55630583518E+02  0.10566000000E+00 0. -1.
          4    1    1    2  501    0  0.84211632983E+01  0.16649629237E+02 -0.13832545751E+02  0.23226395910E+02  0.00000000000E+00 0.  1.
</event>
<event>
 5    1  0.2540860E-005  0.1579640E+03  0.7818608E-02  0.1116753E+00
         21   -1    0    0  501  502  0.00000000000E+00  0.00000000000E+00  0.41098673277E+03  0.41098673277E+03  0.00000000000E+00 0.  1.
          4   -1    0    0  502    0 -0.00000000000E+00 -0.00000000000E+00 -0.18949982861E+03  0.18949982861E+03  0.00000000000E+00 0.  1.
        -13    1    1    2    0    0  0.10694128318E+03  0.15081295151E+03  0.24497511027E+02  0.18649698015E+03  0.10566000000E+00 0.  1.
         13    1    1    2    0    0 -0.84612468573E+02  0.25890831508E+01 -0.66927301031E+02  0.10791315016E+03  0.10566000000E+00 0. -1.
          4    1    1    2  501    0 -0.22328814610E+02 -0.15340203467E+03  0.26391669417E+03  0.30607643108E+03  0.00000000000E+00 0.  1.
</event>
<event>
 5    1  0.2540860E-005  0.4150423E+02  0.7818608E-02  0.1330855E+00
         -4   -1    0    0    0  501 -0.00000000000E+00  0.00000000000E+00  0.10810328470E+03  0.10810328470E+03  0.00000000000E+00 0. -1.
         21   -1    0    0  501  502  0.00000000000E+00 -0.00000000000E+00 -0.15741408337E+03  0.15741408337E+03  0.00000000000E+00 0.  1.
        -13    1    1    2    0    0 -0.44079794561E+02 -0.52592004923E+01 -0.74849494385E+02  0.87023821176E+02  0.10566000000E+00 0.  1.
         13    1    1    2    0    0  0.41054519728E+02 -0.55115664682E+01  0.97360257900E+02  0.10580586911E+03  0.10566000000E+00 0. -1.
         -4    1    1    2    0  502  0.30252748332E+01  0.10770766960E+02 -0.71821562182E+02  0.72687677794E+02  0.00000000000E+00 0. -1.
</event>
<event>
 5    1  0.2540860E-005  0.1175384E+03  0.7818608E-02  0.1150584E+00
         -4   -1    0    0    0  501 -0.00000000000E+00  0.00000000000E+00  0.62246391227E+03  0.62246391227E+03  0.00000000000E+00 0. -1.
         21   -1    0    0  501  502  0.00000000000E+00 -0.00000000000E+00 -0.56929882723E+02  0.56929882723E+02  0.00000000000E+00 0. -1.
        -13    1    1    2    0    0  0.47396471003E+02 -0.72570117517E+02  0.28969395210E+03  0.30238294341E+03  0.10566000000E+00 0.  1.
         13    1    1    2    0    0 -0.13318010028E+03  0.51577730638E+02  0.83680331064E+02  0.16552827667E+03  0.10566000000E+00 0. -1.
         -4    1    1    2    0  502  0.85783629276E+02  0.20992386878E+02  0.19215974638E+03  0.21148257491E+03  0.00000000000E+00 0. -1.
</event>
<event>
 5    1  0.2540860E-005  0.4980103E+03  0.7818608E-02  0.9662829E-01
          4   -1    0    0  502    0 -0.00000000000E+00  0.00000000000E+00  0.16199988028E+04  0.16199988028E+04  0.00000000000E+00 0.  1.
         21   -1    0    0  501  502  0.00000000000E+00 -0.00000000000E+00 -0.26742434326E+03  0.26742434326E+03  0.00000000000E+00 0.  1.
        -13    1    1    2    0    0 -0.46630011232E+03  0.37672210566E+03  0.54239862476E+03  0.80842539479E+03  0.10566000000E+00 0.  1.
         13    1    1    2    0    0  0.26078190389E+03  0.12385535418E+02  0.39848429459E+03  0.47639305944E+03  0.10566000000E+00 0. -1.
          4    1    1    2  501    0  0.20551820843E+03 -0.38910764108E+03  0.41169154014E+03  0.60260469179E+03  0.00000000000E+00 0.  1.
</event>
<event>
 5    1  0.2540860E-005  0.2285013E+03  0.7818608E-02  0.1057106E+00
          4   -1    0    0  502    0 -0.00000000000E+00  0.00000000000E+00  0.37183214041E+04  0.37183214041E+04  0.00000000000E+00 0.  1.
         21   -1    0    0  501  502  0.00000000000E+00 -0.00000000000E+00 -0.27075495985E+02  0.27075495985E+02  0.00000000000E+00 0.  1.
        -13    1    1    2    0    0 -0.22927523273E+03  0.11467705566E+03  0.11968911450E+04  0.12240369209E+04  0.10566000000E+00 0.  1.
         13    1    1    2    0    0  0.12725354381E+03  0.72662837589E+02  0.76597999647E+03  0.77987096275E+03  0.10566000000E+00 0. -1.
          4    1    1    2  501    0  0.10202168892E+03 -0.18733989325E+03  0.17283747666E+04  0.17414890165E+04  0.00000000000E+00 0.  1.
</event>
<event>
 5    1  0.2540860E-005  0.3874619E+02  0.7818608E-02  0.1345881E+00
         21   -1    0    0  501  502  0.00000000000E+00  0.00000000000E+00  0.45676032402E+03  0.45676032402E+03  0.00000000000E+00 0. -1.
         -4   -1    0    0    0  501 -0.00000000000E+00 -0.00000000000E+00 -0.15897606868E+03  0.15897606868E+03  0.00000000000E+00 0. -1.
        -13    1    1    2    0    0 -0.23199156630E+02  0.25332592497E+02 -0.19206583273E+02  0.39355369595E+02  0.10566000000E+00 0.  1.
         13    1    1    2    0    0  0.15418835181E+02 -0.37633177854E+02 -0.12638447812E+03  0.13276687850E+03  0.10566000000E+00 0. -1.
         -4    1    1    2    0  502  0.77803214484E+01  0.12300585357E+02  0.44337531674E+03  0.44361414460E+03  0.00000000000E+00 0. -1.
</event>
<event>
 5    1  0.2540860E-005  0.2225613E+03  0.7818608E-02  0.1046362E+00
          4   -1    0    0  502    0 -0.00000000000E+00  0.00000000000E+00  0.49562106647E+03  0.49562106647E+03  0.00000000000E+00 0.  1.
         21   -1    0    0  501  502  0.00000000000E+00 -0.00000000000E+00 -0.12700854162E+04  0.12700854162E+04  0.00000000000E+00 0.  1.
        -13    1    1    2    0    0  0.73400618619E+01  0.59146500216E+02  0.18820572378E+03  0.19741730072E+03  0.10566000000E+00 0.  1.
         13    1    1    2    0    0  0.22283759968E+03 -0.29978931398E+02  0.24848418388E+03  0.33511152317E+03  0.10566000000E+00 0. -1.
          4    1    1    2  501    0 -0.23017766154E+03 -0.29167568818E+02 -0.12111542573E+04  0.12331776587E+04  0.00000000000E+00 0.  1.
</event>
<event>
 5    1  0.2540860E-005  0.4304663E+03  0.7818608E-02  0.9837598E-01
         21   -1    0    0  501  502  0.00000000000E+00  0.00000000000E+00  0.26225076653E+03  0.26225076653E+03  0.00000000000E+00 0.  1.
          4   -1    0    0  502    0 -0.00000000000E+00 -0.00000000000E+00 -0.15341164551E+04  0.15341164551E+04  0.00000000000E+00 0.  1.
        -13    1    1    2    0    0  0.44844036489E+02  0.38279949787E+03 -0.14408566008E+03  0.41146947856E+03  0.10566000000E+00 0.  1.
         13    1    1    2    0    0 -0.10976505016E+03  0.19213402126E+03 -0.37554214975E+03  0.43588503733E+03  0.10566000000E+00 0. -1.
          4    1    1    2  501    0  0.64921013675E+02 -0.57493351914E+03 -0.75223787873E+03  0.94901270573E+03  0.00000000000E+00 0.  1.
</event>
<event>
 5    1  0.2540860E-005  0.3810859E+03  0.7818608E-02  0.9899542E-01
         21   -1    0    0  501  502  0.00000000000E+00  0.00000000000E+00  0.69668367468E+03  0.69668367468E+03  0.00000000000E+00 0. -1.
         -4   -1    0    0    0  501 -0.00000000000E+00 -0.00000000000E+00 -0.67349816945E+03  0.67349816945E+03  0.00000000000E+00 0. -1.
        -13    1    1    2    0    0  0.83324797371E+02  0.24511077250E+03 -0.25373969224E+03  0.36249986929E+03  0.10566000000E+00 0.  1.
         13    1    1    2    0    0 -0.37582957231E+01  0.18267237658E+03 -0.25925001671E+03  0.31716542100E+03  0.10566000000E+00 0. -1.
         -4    1    1    2    0  502 -0.79566501648E+02 -0.42778314908E+03  0.53617521419E+03  0.69051655384E+03  0.00000000000E+00 0. -1.
</event>
<event>
 5    1  0.2540860E-005  0.5208106E+03  0.7818608E-02  0.9433490E-01
         21   -1    0    0  501  502  0.00000000000E+00  0.00000000000E+00  0.23503066901E+04  0.23503066901E+04  0.00000000000E+00 0. -1.
          4   -1    0    0  502    0 -0.00000000000E+00 -0.00000000000E+00 -0.33496012446E+03  0.33496012446E+03  0.00000000000E+00 0.  1.
        -13    1    1    2    0    0 -0.56407229075E+03 -0.10026460971E+03  0.24084583502E+03  0.62147990198E+03  0.10566000000E+00 0.  1.
         13    1    1    2    0    0  0.40198008761E+03 -0.36757118610E+03  0.10954244370E+04  0.12233769967E+04  0.10566000000E+00 0. -1.
          4    1    1    2  501    0  0.16209220314E+03  0.46783579581E+03  0.67907629357E+03  0.84040991584E+03  0.00000000000E+00 0.  1.
</event>
<event>
 5    1  0.2540860E-005  0.6246123E+03  0.7818608E-02  0.9240159E-01
         21   -1    0    0  501  502  0.00000000000E+00  0.00000000000E+00  0.13054255874E+04  0.13054255874E+04  0.00000000000E+00 0. -1.
         -4   -1    0    0    0  501 -0.00000000000E+00 -0.00000000000E+00 -0.55618120814E+03  0.55618120814E+03  0.00000000000E+00 0. -1.
        -13    1    1    2    0    0  0.18370043554E+03 -0.50225483555E+03  0.48547848727E+03  0.72228466869E+03  0.10566000000E+00 0.  1.
         13    1    1    2    0    0  0.10702676967E+03  0.72598954001E+03  0.23842518812E+03  0.77159712488E+03  0.10566000000E+00 0. -1.
         -4    1    1    2    0  502 -0.29072720522E+03 -0.22373470445E+03  0.25340703907E+02  0.36772500201E+03  0.00000000000E+00 0. -1.
</event>
<event>
 5    1  0.2540860E-005  0.1896698E+03  0.7818608E-02  0.1067458E+00
          4   -1    0    0  502    0 -0.00000000000E+00  0.00000000000E+00  0.15292240292E+04  0.15292240292E+04  0.00000000000E+00 0.  1.
         21   -1    0    0  501  502  0.00000000000E+00 -0.00000000000E+00 -0.31272066518E+02  0.31272066518E+02  0.00000000000E+00 0. -1.
        -13    1    1    2    0    0  0.19203208586E+03 -0.94111920286E+01  0.11129376859E+04  0.11294225057E+04  0.10566000000E+00 0.  1.
         13    1    1    2    0    0 -0.18289434661E+03  0.34376131972E+01  0.36512470282E+03  0.40838489074E+03  0.10566000000E+00 0. -1.
          4    1    1    2  501    0 -0.91377392439E+01  0.59735788314E+01  0.19889573976E+02  0.22688699290E+02  0.00000000000E+00 0.  1.
</event>
<event>
 5    1  0.2540860E-005  0.4488542E+03  0.7818608E-02  0.1045540E+00
         -4   -1    0    0    0  501 -0.00000000000E+00  0.00000000000E+00  0.71833246413E+03  0.71833246413E+03  0.00000000000E+00 0. -1.
         21   -1    0    0  501  502  0.00000000000E+00 -0.00000000000E+00 -0.38377866782E+03  0.38377866782E+03  0.00000000000E+00 0. -1.
        -13    1    1    2    0    0 -0.25740055909E+02  0.89338979143E+01  0.40163715724E+02  0.48533496010E+02  0.10566000000E+00 0.  1.
         13    1    1    2    0    0  0.66804992321E+02  0.44243402041E+03 -0.93393149484E+02  0.45709196116E+03  0.10566000000E+00 0. -1.
         -4    1    1    2    0  502 -0.41064936412E+02 -0.45136791833E+03  0.38778323007E+03  0.59648567478E+03  0.00000000000E+00 0. -1.
</event>
<event>
 5    1  0.2540860E-005  0.5625756E+03  0.7818608E-02  0.9424900E-01
         21   -1    0    0  501  502  0.00000000000E+00  0.00000000000E+00  0.62524960629E+03  0.62524960629E+03  0.00000000000E+00 0. -1.
          4   -1    0    0  502    0 -0.00000000000E+00 -0.00000000000E+00 -0.15837693094E+04  0.15837693094E+04  0.00000000000E+00 0.  1.
        -13    1    1    2    0    0 -0.12915967501E+02 -0.25981309708E+03 -0.37447970859E+03  0.45596571246E+03  0.10566000000E+00 0.  1.
         13    1    1    2    0    0 -0.64453595388E+03 -0.45052502047E+02 -0.76971653776E+03  0.10049477018E+04  0.10566000000E+00 0. -1.
          4    1    1    2  501    0  0.65745192138E+03  0.30486559913E+03  0.18567654326E+03  0.74810550137E+03  0.00000000000E+00 0.  1.
</event>
<event>
 5    1  0.2540860E-005  0.2942851E+03  0.7818608E-02  0.1026565E+00
         21   -1    0    0  501  502  0.00000000000E+00  0.00000000000E+00  0.60064549296E+03  0.60064549296E+03  0.00000000000E+00 0.  1.
          4   -1    0    0  502    0 -0.00000000000E+00 -0.00000000000E+00 -0.58220258076E+03  0.58220258076E+03  0.00000000000E+00 0.  1.
        -13    1    1    2    0    0  0.32913874908E+02  0.13741186341E+03 -0.43811883162E+03  0.46034059689E+03  0.10566000000E+00 0.  1.
         13    1    1    2    0    0  0.84899496988E+02  0.15024817964E+03  0.29442894684E+01  0.17260104309E+03  0.10566000000E+00 0. -1.
          4    1    1    2  501    0 -0.11781337190E+03 -0.28766004304E+03  0.45361745436E+03  0.54990643373E+03  0.00000000000E+00 0.  1.
</event>
<event>
 5    1  0.2540860E-005  0.4144467E+03  0.7818608E-02  0.9771774E-01
         -4   -1    0    0    0  501 -0.00000000000E+00  0.00000000000E+00  0.23374825275E+04  0.23374825275E+04  0.00000000000E+00 0. -1.
         21   -1    0    0  501  502  0.00000000000E+00 -0.00000000000E+00 -0.23695051016E+03  0.23695051016E+03  0.00000000000E+00 0. -1.
        -13    1    1    2    0    0  0.52483189682E+02 -0.30588019794E+03  0.10296245840E+04  0.10753808516E+04  0.10566000000E+00 0.  1.
         13    1    1    2    0    0 -0.45416732114E+03  0.20651658172E+03  0.94145659567E+03  0.10654846723E+04  0.10566000000E+00 0. -1.
         -4    1    1    2    0  502  0.40168413146E+03  0.99363616219E+02  0.12945083764E+03  0.43356751384E+03  0.00000000000E+00 0. -1.
</event>
<event>
 5    1  0.2540860E-005  0.4623877E+03  0.7818608E-02  0.9984012E-01
         21   -1    0    0  501  502  0.00000000000E+00  0.00000000000E+00  0.12639535796E+04  0.12639535796E+04  0.00000000000E+00 0.  1.
          4   -1    0    0  502    0 -0.00000000000E+00 -0.00000000000E+00 -0.34384813143E+03  0.34384813143E+03  0.00000000000E+00 0.  1.
        -13    1    1    2    0    0 -0.52634296067E+03 -0.52181314091E+02  0.34441825203E+03  0.63117647713E+03  0.10566000000E+00 0.  1.
         13    1    1    2    0    0  0.92027618456E+02  0.59369342653E+02 -0.11620682380E+03  0.15968042606E+03  0.10566000000E+00 0. -1.
          4    1    1    2  501    0  0.43431534222E+03 -0.71880285620E+01  0.69189401995E+03  0.81694480786E+03  0.00000000000E+00 0.  1.
</event>
<event>
 5    1  0.2540860E-005  0.3194983E+03  0.7818608E-02  0.9995667E-01
          4   -1    0    0  502    0 -0.00000000000E+00  0.00000000000E+00  0.82984675078E+03  0.82984675078E+03  0.00000000000E+00 0.  1.
         21   -1    0    0  501  502  0.00000000000E+00 -0.00000000000E+00 -0.56952957629E+03  0.56952957629E+03  0.00000000000E+00 0.  1.
        -13    1    1    2    0    0 -0.35030840038E+03 -0.70616030573E+02  0.46758181717E+03  0.58850264745E+03  0.10566000000E+00 0.  1.
         13    1    1    2    0    0  0.28158672515E+03 -0.76453354702E+02  0.21240319987E+03  0.36090349084E+03  0.10566000000E+00 0. -1.
          4    1    1    2  501    0  0.68721675230E+02  0.14706938527E+03 -0.41966784254E+03  0.44997018878E+03  0.00000000000E+00 0.  1.
</event>
<event>
 5    1  0.2540860E-005  0.2230296E+03  0.7818608E-02  0.1048448E+00
          4   -1    0    0  502    0 -0.00000000000E+00  0.00000000000E+00  0.26334944390E+03  0.26334944390E+03  0.00000000000E+00 0.  1.
         21   -1    0    0  501  502  0.00000000000E+00 -0.00000000000E+00 -0.10492225772E+04  0.10492225772E+04  0.00000000000E+00 0. -1.
        -13    1    1    2    0    0  0.15793470513E+02 -0.28109202673E+03  0.11790396959E+03  0.30522699490E+03  0.10566000000E+00 0.  1.
         13    1    1    2    0    0 -0.16798305829E+03  0.11503321655E+03 -0.56459504797E+03  0.60018207916E+03  0.10566000000E+00 0. -1.
          4    1    1    2  501    0  0.15218958777E+03  0.16605881018E+03 -0.33918205493E+03  0.40716294705E+03  0.00000000000E+00 0.  1.
</event>
<event>
 5    1  0.2540860E-005  0.4207227E+03  0.7818608E-02  0.9671035E-01
         -4   -1    0    0    0  501 -0.00000000000E+00  0.00000000000E+00  0.17109389496E+04  0.17109389496E+04  0.00000000000E+00 0. -1.
         21   -1    0    0  501  502  0.00000000000E+00 -0.00000000000E+00 -0.14463868053E+03  0.14463868053E+03  0.00000000000E+00 0.  1.
        -13    1    1    2    0    0 -0.62046698084E+00 -0.42391268176E+03  0.11923293419E+04  0.12654452250E+04  0.10566000000E+00 0.  1.
         13    1    1    2    0    0 -0.34617655289E+01  0.41297448624E+03  0.39150565471E+03  0.56906642753E+03  0.10566000000E+00 0. -1.
         -4    1    1    2    0  502  0.40822325097E+01  0.10938195517E+02 -0.17534727534E+02  0.21065977621E+02  0.00000000000E+00 0. -1.
</event>
<event>
 5    1  0.2540860E-005  0.4872464E+03  0.7818608E-02  0.9562630E-01
         -4   -1    0    0    0  501 -0.00000000000E+00  0.00000000000E+00  0.13920832998E+04  0.13920832998E+04  0.00000000000E+00 0. -1.
         21   -1    0    0  501  502  0.00000000000E+00 -0.00000000000E+00 -0.43517818047E+03  0.43517818047E+03  0.00000000000E+00 0. -1.
        -13    1    1    2    0    0  0.29236477914E+03 -0.26969306415E+03  0.55669782097E+03  0.68419586959E+03  0.10566000000E+00 0.  1.
         13    1    1    2    0    0  0.31027622409E+03  0.11847852777E+03  0.40237187279E+03  0.52173904584E+03  0.10566000000E+00 0. -1.
         -4    1    1    2    0  502 -0.60264100323E+03  0.15121453639E+03 -0.21645744319E+01  0.62132656483E+03  0.00000000000E+00 0. -1.
</event>
<event>
 5    1  0.2540860E-005  0.4486772E+03  0.7818608E-02  0.9950897E-01
         -4   -1    0    0    0  501 -0.00000000000E+00  0.00000000000E+00  0.12300797135E+04  0.12300797135E+04  0.00000000000E+00 0. -1.
         21   -1    0    0  501  502  0.00000000000E+00 -0.00000000000E+00 -0.26539689486E+03  0.26539689486E+03  0.00000000000E+00 0. -1.
        -13    1    1    2    0    0 -0.76271659043E+01  0.13348702733E+03  0.15740896368E+03  0.20652978753E+03  0.10566000000E+00 0.  1.
         13    1    1    2    0    0  0.42774823739E+03 -0.24731666995E+03  0.67011478777E+03  0.83257908319E+03  0.10566000000E+00 0. -1.
         -4    1    1    2    0  502 -0.42012107148E+03  0.11382964263E+03  0.13715906719E+03  0.45636773764E+03  0.00000000000E+00 0. -1.
</event>
<event>
 5    1  0.2540860E-005  0.4882474E+03  0.7818608E-02  0.9570419E-01
         21   -1    0    0  501  502  0.00000000000E+00  0.00000000000E+00  0.79007096591E+03  0.79007096591E+03  0.00000000000E+00 0. -1.
         -4   -1    0    0    0  501 -0.00000000000E+00 -0.00000000000E+00 -0.67993402744E+03  0.67993402744E+03  0.00000000000E+00 0. -1.
        -13    1    1    2    0    0  0.37977685889E+03 -0.59685442032E+02 -0.85650660419E+02  0.39386401376E+03  0.10566000000E+00 0.  1.
         13    1    1    2    0    0 -0.39251920329E+03  0.45707191427E+03  0.28832996545E+03  0.66792233075E+03  0.10566000000E+00 0. -1.
         -4    1    1    2    0  502  0.12742344406E+02 -0.39738647224E+03 -0.92542366564E+02  0.40821864885E+03  0.00000000000E+00 0. -1.
</event>
<event>
 5    1  0.2540860E-005  0.4648669E+03  0.7818608E-02  0.9789710E-01
         -4   -1    0    0    0  501 -0.00000000000E+00  0.00000000000E+00  0.57412702428E+03  0.57412702428E+03  0.00000000000E+00 0. -1.
         21   -1    0    0  501  502  0.00000000000E+00 -0.00000000000E+00 -0.65346826769E+03  0.65346826769E+03  0.00000000000E+00 0. -1.
        -13    1    1    2    0    0  0.18723036798E+03  0.87841037021E+02 -0.76986681462E+01  0.20695540373E+03  0.10566000000E+00 0.  1.
         13    1    1    2    0    0 -0.59113864370E+03 -0.92066194914E+02  0.45707267399E+02  0.60000853809E+03  0.10566000000E+00 0. -1.
         -4    1    1    2    0  502  0.40390827572E+03  0.42251578926E+01 -0.11734984266E+03  0.42063135015E+03  0.00000000000E+00 0. -1.
</event>
<event>
 5    1  0.2540860E-005  0.4825522E+03  0.7818608E-02  0.9553536E-01
         -4   -1    0    0    0  501 -0.00000000000E+00  0.00000000000E+00  0.97819258275E+03  0.97819258275E+03  0.00000000000E+00 0. -1.
         21   -1    0    0  501  502  0.00000000000E+00 -0.00000000000E+00 -0.60383113323E+03  0.60383113323E+03  0.00000000000E+00 0.  1.
        -13    1    1    2    0    0  0.36693766672E+03 -0.21057358598E+03  0.23625026128E+03  0.48456029913E+03  0.10566000000E+00 0.  1.
         13    1    1    2    0    0  0.34039665234E+03  0.16804643258E+03  0.64194483646E+02  0.38500704841E+03  0.10566000000E+00 0. -1.
         -4    1    1    2    0  502 -0.70733431907E+03  0.42527153403E+02  0.73916704592E+02  0.71245636844E+03  0.00000000000E+00 0. -1.
</event>
<event>
 5    1  0.2540860E-005  0.4501859E+03  0.7818608E-02  0.9989649E-01
         21   -1    0    0  501  502  0.00000000000E+00  0.00000000000E+00  0.10133210595E+04  0.10133210595E+04  0.00000000000E+00 0. -1.
         -4   -1    0    0    0  501 -0.00000000000E+00 -0.00000000000E+00 -0.81238500160E+03  0.81238500160E+03  0.00000000000E+00 0. -1.
        -13    1    1    2    0    0 -0.92392689086E+02  0.70941926996E+02 -0.55873263729E+03  0.57074629840E+03  0.10566000000E+00 0.  1.
         13    1    1    2    0    0  0.51390112629E+03 -0.92496489470E+01  0.19980972845E+03  0.55145612913E+03  0.10566000000E+00 0. -1.
         -4    1    1    2    0  502 -0.42150843720E+03 -0.61692278049E+02  0.55985896673E+03  0.70350363356E+03  0.00000000000E+00 0. -1.
</event>
<event>
 5    1  0.2540860E-005  0.3679332E+03  0.7818608E-02  0.1074368E+00
          4   -1    0    0  502    0 -0.00000000000E+00  0.00000000000E+00  0.19707483362E+04  0.19707483362E+04  0.00000000000E+00 0.  1.
         21   -1    0    0  501  502  0.00000000000E+00 -0.00000000000E+00 -0.13286616380E+03  0.13286616380E+03  0.00000000000E+00 0.  1.
        -13    1    1    2    0    0  0.36558295112E+03 -0.68200261004E+01  0.20691390425E+03  0.42013186245E+03  0.10566000000E+00 0.  1.
         13    1    1    2    0    0  0.14409012677E+02  0.15722281062E+02  0.23703031844E+02  0.31885022358E+02  0.10566000000E+00 0. -1.
          4    1    1    2  501    0 -0.37999196380E+03 -0.89022549620E+01  0.16072652363E+04  0.16515976152E+04  0.00000000000E+00 0.  1.
</event>
<event>
 5    1  0.2540860E-005  0.8781989E+02  0.7818608E-02  0.1186450E+00
         21   -1    0    0  501  502  0.00000000000E+00  0.00000000000E+00  0.31672695852E+03  0.31672695852E+03  0.00000000000E+00 0. -1.
          4   -1    0    0  502    0 -0.00000000000E+00 -0.00000000000E+00 -0.42207732584E+02  0.42207732584E+02  0.00000000000E+00 0.  1.
        -13    1    1    2    0    0 -0.17853095501E+01  0.93024314595E+02  0.48036610794E+02  0.10471025536E+03  0.10566000000E+00 0.  1.
         13    1    1    2    0    0  0.26485973999E+02 -0.76466677755E+02  0.12876685199E+03  0.15208409832E+03  0.10566000000E+00 0. -1.
          4    1    1    2  501    0 -0.24700664448E+02 -0.16557636840E+02  0.97715763153E+02  0.10214033743E+03  0.00000000000E+00 0.  1.
</event>
<event>
 5    1  0.2540860E-005  0.2941026E+03  0.7818608E-02  0.1040377E+00
          4   -1    0    0  502    0 -0.00000000000E+00  0.00000000000E+00  0.21385283998E+04  0.21385283998E+04  0.00000000000E+00 0.  1.
         21   -1    0    0  501  502  0.00000000000E+00 -0.00000000000E+00 -0.35186311510E+03  0.35186311510E+03  0.00000000000E+00 0.  1.
        -13    1    1    2    0    0  0.71981164015E+02 -0.16394390042E+03  0.88076695909E+03  0.89878214148E+03  0.10566000000E+00 0.  1.
         13    1    1    2    0    0 -0.47692874948E+03 -0.82677758834E+02  0.99746941274E+03  0.11087118131E+04  0.10566000000E+00 0. -1.
          4    1    1    2  501    0  0.40494758547E+03  0.24662165926E+03 -0.91571087145E+02  0.48289756035E+03  0.00000000000E+00 0.  1.
</event>
<event>
 5    1  0.2540860E-005  0.9486108E+02  0.7818608E-02  0.1201316E+00
          4   -1    0    0  502    0 -0.00000000000E+00  0.00000000000E+00  0.69590437237E+02  0.69590437237E+02  0.00000000000E+00 0.  1.
         21   -1    0    0  501  502  0.00000000000E+00 -0.00000000000E+00 -0.31531269016E+03  0.31531269016E+03  0.00000000000E+00 0.  1.
        -13    1    1    2    0    0  0.17843973830E+01  0.11983262335E+03 -0.88267909394E+02  0.14884312777E+03  0.10566000000E+00 0.  1.
         13    1    1    2    0    0 -0.32280791654E+02 -0.37531438304E+02  0.66595097324E+01  0.49950161210E+02  0.10566000000E+00 0. -1.
          4    1    1    2  501    0  0.30496394271E+02 -0.82301185041E+02 -0.16411385326E+03  0.18610983841E+03  0.00000000000E+00 0.  1.
</event>
<event>
 5    1  0.2540860E-005  0.6077102E+03  0.7818608E-02  0.9268823E-01
          4   -1    0    0  502    0 -0.00000000000E+00  0.00000000000E+00  0.29255869106E+04  0.29255869106E+04  0.00000000000E+00 0.  1.
         21   -1    0    0  501  502  0.00000000000E+00 -0.00000000000E+00 -0.24595756169E+03  0.24595756169E+03  0.00000000000E+00 0. -1.
        -13    1    1    2    0    0 -0.13080250479E+03  0.71378966819E+03  0.12210410874E+04  0.14204035814E+04  0.10566000000E+00 0.  1.
         13    1    1    2    0    0  0.37155545753E+03 -0.39229877576E+03  0.62740604723E+03  0.82800371179E+03  0.10566000000E+00 0. -1.
          4    1    1    2  501    0 -0.24075295274E+03 -0.32149089243E+03  0.83118221429E+03  0.92313717914E+03  0.00000000000E+00 0.  1.
</event>
<event>
 5    1  0.2540860E-005  0.4449042E+03  0.7818608E-02  0.9815419E-01
         -4   -1    0    0    0  501 -0.00000000000E+00  0.00000000000E+00  0.28186463696E+03  0.28186463696E+03  0.00000000000E+00 0. -1.
         21   -1    0    0  501  502  0.00000000000E+00 -0.00000000000E+00 -0.14111678451E+04  0.14111678451E+04  0.00000000000E+00 0. -1.
        -13    1    1    2    0    0  0.14532971212E+03  0.15993943910E+03 -0.86868827492E+02  0.23291104259E+03  0.10566000000E+00 0.  1.
         13    1    1    2    0    0  0.40185504906E+03 -0.98906544846E+02 -0.69561724624E+03  0.80941543691E+03  0.10566000000E+00 0. -1.
         -4    1    1    2    0  502 -0.54718476118E+03 -0.61032894256E+02 -0.34681713440E+03  0.65070600256E+03  0.00000000000E+00 0. -1.
</event>
<event>
 5    1  0.2540860E-005  0.5013796E+03  0.7818608E-02  0.9474953E-01
         -4   -1    0    0    0  501 -0.00000000000E+00  0.00000000000E+00  0.12192018014E+04  0.12192018014E+04  0.00000000000E+00 0. -1.
         21   -1    0    0  501  502  0.00000000000E+00 -0.00000000000E+00 -0.54356432370E+03  0.54356432370E+03  0.00000000000E+00 0.  1.
        -13    1    1    2    0    0 -0.42180063330E+03 -0.25633458422E+03  0.33847782764E+03  0.59849013717E+03  0.10566000000E+00 0.  1.
         13    1    1    2    0    0  0.44090323215E+03  0.28748341408E+03 -0.24527860946E+03  0.58069267338E+03  0.10566000000E+00 0. -1.
         -4    1    1    2    0  502 -0.19102598854E+02 -0.31148829853E+02  0.58243825949E+03  0.58358331453E+03  0.00000000000E+00 0. -1.
</event>
<event>
 5    1  0.2540860E-005  0.1602634E+03  0.7818608E-02  0.1091409E+00
         -4   -1    0    0    0  501 -0.00000000000E+00  0.00000000000E+00  0.79319693384E+02  0.79319693384E+02  0.00000000000E+00 0. -1.
         21   -1    0    0  501  502  0.00000000000E+00 -0.00000000000E+00 -0.43292031586E+03  0.43292031586E+03  0.00000000000E+00 0.  1.
        -13    1    1    2    0    0  0.48588110793E+02  0.15984364360E+03 -0.13555077296E+03  0.21513906694E+03  0.10566000000E+00 0.  1.
         13    1    1    2    0    0 -0.38981847420E+02 -0.14939972339E+03 -0.11359449011E+03  0.19168615266E+03  0.10566000000E+00 0. -1.
         -4    1    1    2    0  502 -0.96062633724E+01 -0.10443920215E+02 -0.10445535941E+03  0.10541478964E+03  0.00000000000E+00 0. -1.
</event>
<event>
 5    1  0.2540860E-005  0.1849980E+03  0.7818608E-02  0.1070937E+00
         21   -1    0    0  501  502  0.00000000000E+00  0.00000000000E+00  0.30716660723E+03  0.30716660723E+03  0.00000000000E+00 0.  1.
         -4   -1    0    0    0  501 -0.00000000000E+00 -0.00000000000E+00 -0.78522793606E+03  0.78522793606E+03  0.00000000000E+00 0. -1.
        -13    1    1    2    0    0 -0.15472997088E+03 -0.34593881778E+02  0.24810804362E+03  0.29444135752E+03  0.10566000000E+00 0.  1.
         13    1    1    2    0    0  0.17607051759E+03  0.60464765966E+02 -0.73896827010E+03  0.76205703885E+03  0.10566000000E+00 0. -1.
         -4    1    1    2    0  502 -0.21340546715E+02 -0.25870884188E+02  0.12798897641E+02  0.35896146919E+02  0.00000000000E+00 0. -1.
</event>
<event>
 5    1  0.2540860E-005  0.1851917E+03  0.7818608E-02  0.1070791E+00
         -4   -1    0    0    0  501 -0.00000000000E+00  0.00000000000E+00  0.46888407957E+03  0.46888407957E+03  0.00000000000E+00 0. -1.
         21   -1    0    0  501  502  0.00000000000E+00 -0.00000000000E+00 -0.39468903604E+03  0.39468903604E+03  0.00000000000E+00 0. -1.
        -13    1    1    2    0    0  0.17589477166E+03  0.15040742043E+02  0.34195247484E+02  0.17981802115E+03  0.10566000000E+00 0.  1.
         13    1    1    2    0    0 -0.18578057285E+03 -0.30299155885E+02  0.33710252519E+03  0.38609659899E+03  0.10566000000E+00 0. -1.
         -4    1    1    2    0  502  0.98858011950E+01  0.15258413842E+02 -0.29710272914E+03  0.29765849546E+03  0.00000000000E+00 0. -1.
</event>
<event>
 5    1  0.2540860E-005  0.4171369E+03  0.7818608E-02  0.9680817E-01
          4   -1    0    0  502    0 -0.00000000000E+00  0.00000000000E+00  0.27751907582E+04  0.27751907582E+04  0.00000000000E+00 0.  1.
         21   -1    0    0  501  502  0.00000000000E+00 -0.00000000000E+00 -0.70187433583E+02  0.70187433583E+02  0.00000000000E+00 0. -1.
        -13    1    1    2    0    0  0.14923575372E+03 -0.38854196698E+03  0.17178621464E+04  0.17675651432E+04  0.10566000000E+00 0.  1.
         13    1    1    2    0    0 -0.16258492945E+03  0.38604814061E+03  0.96187763743E+03  0.10491308911E+04  0.10566000000E+00 0. -1.
          4    1    1    2  501    0  0.13349175730E+02  0.24938263694E+01  0.25263540746E+02  0.28682157409E+02  0.00000000000E+00 0.  1.
</event>
<event>
 5    1  0.2540860E-005  0.1452999E+03  0.7818608E-02  0.1110743E+00
          4   -1    0    0  502    0 -0.00000000000E+00  0.00000000000E+00  0.72280108131E+02  0.72280108131E+02  0.00000000000E+00 0.  1.
         21   -1    0    0  501  502  0.00000000000E+00 -0.00000000000E+00 -0.71259550889E+03  0.71259550889E+03  0.00000000000E+00 0.  1.
        -13    1    1    2    0    0 -0.11068011127E+03 -0.93666816387E+02 -0.17159535977E+03  0.22465203801E+03  0.10566000000E+00 0.  1.
         13    1    1    2    0    0 -0.55509815636E+02  0.11476658375E+03 -0.12858288506E+03  0.18106981491E+03  0.10566000000E+00 0. -1.
          4    1    1    2  501    0  0.16618992691E+03 -0.21099767368E+02 -0.34013715593E+03  0.37915376410E+03  0.00000000000E+00 0.  1.
</event>
<event>
 5    1  0.2540860E-005  0.4942675E+03  0.7818608E-02  0.9769152E-01
          4   -1    0    0  502    0 -0.00000000000E+00  0.00000000000E+00  0.96953731714E+03  0.96953731714E+03  0.00000000000E+00 0.  1.
         21   -1    0    0  501  502  0.00000000000E+00 -0.00000000000E+00 -0.64086837064E+03  0.64086837064E+03  0.00000000000E+00 0.  1.
        -13    1    1    2    0    0  0.40170224832E+03  0.23750999653E+03 -0.68455421510E+02  0.47165861665E+03  0.10566000000E+00 0.  1.
         13    1    1    2    0    0  0.12520848677E+03 -0.13567578754E+03  0.55047176929E+03  0.58060680708E+03  0.10566000000E+00 0. -1.
          4    1    1    2  501    0 -0.52691073509E+03 -0.10183420899E+03 -0.15334740128E+03  0.55814026405E+03  0.00000000000E+00 0.  1.
</event>
<event>
 5    1  0.2540860E-005  0.3611910E+03  0.7818608E-02  0.9848353E-01
         -4   -1    0    0    0  501 -0.00000000000E+00  0.00000000000E+00  0.36848623007E+03  0.36848623007E+03  0.00000000000E+00 0. -1.
         21   -1    0    0  501  502  0.00000000000E+00 -0.00000000000E+00 -0.43531606271E+03  0.43531606271E+03  0.00000000000E+00 0.  1.
        -13    1    1    2    0    0  0.29077574116E+03  0.20402360909E+03 -0.83295542346E+02  0.36484835652E+03  0.10566000000E+00 0.  1.
         13    1    1    2    0    0 -0.29712953328E+03 -0.21217311277E+03  0.80678479659E+02  0.37391498710E+03  0.10566000000E+00 0. -1.
         -4    1    1    2    0  502  0.63537921184E+01  0.81495036795E+01 -0.64212769953E+02  0.65038949173E+02  0.00000000000E+00 0. -1.
</event>
<event>
 5    1  0.2540860E-005  0.3589415E+02  0.7818608E-02  0.1362998E+00
         21   -1    0    0  501  502  0.00000000000E+00  0.00000000000E+00  0.94133576871E+02  0.94133576871E+02  0.00000000000E+00 0.  1.
          4   -1    0    0  502    0 -0.00000000000E+00 -0.00000000000E+00 -0.11726625919E+03  0.11726625919E+03  0.00000000000E+00 0.  1.
        -13    1    1    2    0    0 -0.29059174906E+01 -0.32369144808E+02 -0.71840563843E+02  0.78849753769E+02  0.10566000000E+00 0.  1.
         13    1    1    2    0    0  0.21073124574E+02  0.62582941939E+02 -0.72288719532E+01  0.66430181054E+02  0.10566000000E+00 0. -1.
          4    1    1    2  501    0 -0.18167207083E+02 -0.30213797131E+02  0.55936753477E+02  0.66119901239E+02  0.00000000000E+00 0.  1.
</event>
<event>
 5    1  0.2540860E-005  0.2913382E+03  0.7818608E-02  0.1035125E+00
         -4   -1    0    0    0  501 -0.00000000000E+00  0.00000000000E+00  0.15699928345E+04  0.15699928345E+04  0.00000000000E+00 0. -1.
         21   -1    0    0  501  502  0.00000000000E+00 -0.00000000000E+00 -0.23930507715E+03  0.23930507715E+03  0.00000000000E+00 0. -1.
        -13    1    1    2    0    0  0.28535081782E+02 -0.13357119527E+03  0.55950055686E+02  0.14760059279E+03  0.10566000000E+00 0.  1.
         13    1    1    2    0    0  0.23904647229E+03  0.19423068470E+01  0.13360388082E+04  0.13572570488E+04  0.10566000000E+00 0. -1.
         -4    1    1    2    0  502 -0.26758155407E+03  0.13162888842E+03 -0.61301106523E+02  0.30444027002E+03  0.00000000000E+00 0. -1.
</event>
<event>
 5    1  0.2540860E-005  0.4847818E+03  0.7818608E-02  0.9691007E-01
         21   -1    0    0  501  502  0.00000000000E+00  0.00000000000E+00  0.20652513916E+03  0.20652513916E+03  0.00000000000E+00 0.  1.
          4   -1    0    0  502    0 -0.00000000000E+00 -0.00000000000E+00 -0.24264752795E+04  0.24264752795E+04  0.00000000000E+00 0.  1.
        -13    1    1    2    0    0  0.97437480039E+02 -0.55613550170E+03 -0.80837872491E+03  0.98603089851E+03  0.10566000000E+00 0.  1.
         13    1    1    2    0    0  0.17541429367E+03  0.18708688771E+03 -0.99374841788E+03  0.10263077546E+04  0.10566000000E+00 0. -1.
          4    1    1    2  501    0 -0.27285177371E+03  0.36904861399E+03 -0.41782299753E+03  0.62066176552E+03  0.00000000000E+00 0.  1.
</event>
<event>
 5    1  0.2540860E-005  0.4854678E+03  0.7818608E-02  0.9677924E-01
         21   -1    0    0  501  502  0.00000000000E+00  0.00000000000E+00  0.15266025326E+03  0.15266025326E+03  0.00000000000E+00 0. -1.
         -4   -1    0    0    0  501 -0.00000000000E+00 -0.00000000000E+00 -0.28352259735E+04  0.28352259735E+04  0.00000000000E+00 0. -1.
        -13    1    1    2    0    0  0.12595153679E+03 -0.23578612154E+03 -0.59155991996E+03  0.64915486195E+03  0.10566000000E+00 0.  1.
         13    1    1    2    0    0 -0.56087504768E+03  0.22433930653E+03 -0.13586606016E+04  0.14868986465E+04  0.10566000000E+00 0. -1.
         -4    1    1    2    0  502  0.43492351089E+03  0.11446815010E+02 -0.73234519868E+03  0.85183271828E+03  0.00000000000E+00 0. -1.
</event>
<event>
 5    1  0.2540860E-005  0.1363323E+03  0.7818608E-02  0.1115433E+00
          4   -1    0    0  502    0 -0.00000000000E+00  0.00000000000E+00  0.98204351635E+03  0.98204351635E+03  0.00000000000E+00 0.  1.
         21   -1    0    0  501  502  0.00000000000E+00 -0.00000000000E+00 -0.57711964341E+02  0.57711964341E+02  0.00000000000E+00 0. -1.
        -13    1    1    2    0    0  0.30717303185E+02  0.11746694556E+03  0.51780739781E+03  0.53185199859E+03  0.10566000000E+00 0.  1.
         13    1    1    2    0    0 -0.15786146056E+02 -0.20981393272E+03  0.29484476886E+03  0.36222166924E+03  0.10566000000E+00 0. -1.
          4    1    1    2  501    0 -0.14931157128E+02  0.92346987163E+02  0.11167938534E+03  0.14568181287E+03  0.00000000000E+00 0.  1.
</event>
<event>
 5    1  0.2540860E-005  0.2069258E+03  0.7818608E-02  0.1065761E+00
         -4   -1    0    0    0  501 -0.00000000000E+00  0.00000000000E+00  0.15120118753E+04  0.15120118753E+04  0.00000000000E+00 0. -1.
         21   -1    0    0  501  502  0.00000000000E+00 -0.00000000000E+00 -0.35164983394E+03  0.35164983394E+03  0.00000000000E+00 0. -1.
        -13    1    1    2    0    0 -0.12895038203E+03 -0.83056931399E+02  0.68781941747E+03  0.70471428046E+03  0.10566000000E+00 0.  1.
         13    1    1    2    0    0 -0.96040298273E+02  0.18382137229E+03 -0.29057479277E+03  0.35699825932E+03  0.10566000000E+00 0. -1.
         -4    1    1    2    0  502  0.22499068030E+03 -0.10076444089E+03  0.76311741672E+03  0.80194916950E+03  0.00000000000E+00 0. -1.
</event>
<event>
 5    1  0.2540860E-005  0.1330574E+03  0.7818608E-02  0.1119137E+00
          4   -1    0    0  502    0 -0.00000000000E+00  0.00000000000E+00  0.26476241983E+03  0.26476241983E+03  0.00000000000E+00 0.  1.
         21   -1    0    0  501  502  0.00000000000E+00 -0.00000000000E+00 -0.53451191314E+03  0.53451191314E+03  0.00000000000E+00 0. -1.
        -13    1    1    2    0    0  0.12697226518E+03  0.36176273375E+02  0.23060342648E+03  0.26572284499E+03  0.10566000000E+00 0.  1.
         13    1    1    2    0    0 -0.15164637277E+03 -0.45865159211E+02 -0.41684439827E+03  0.44593665328E+03  0.10566000000E+00 0. -1.
          4    1    1    2  501    0  0.24674107587E+02  0.96888858355E+01 -0.83508521514E+02  0.87614834699E+02  0.00000000000E+00 0.  1.
</event>
<event>
 5    1  0.2540860E-005  0.1176602E+03  0.7818608E-02  0.1164105E+00
         21   -1    0    0  501  502  0.00000000000E+00  0.00000000000E+00  0.93252137605E+02  0.93252137605E+02  0.00000000000E+00 0.  1.
          4   -1    0    0  502    0 -0.00000000000E+00 -0.00000000000E+00 -0.41988629473E+03  0.41988629473E+03  0.00000000000E+00 0.  1.
        -13    1    1    2    0    0 -0.51891494506E+02 -0.48504528866E+02 -0.29354737940E+03  0.30201902529E+03  0.10566000000E+00 0.  1.
         13    1    1    2    0    0 -0.61630029706E+02 -0.73352466511E+01 -0.54754550451E+02  0.82765562670E+02  0.10566000000E+00 0. -1.
          4    1    1    2  501    0  0.11352152421E+03  0.55839775517E+02  0.21667772728E+02  0.12835384437E+03  0.00000000000E+00 0.  1.
</event>
<event>
 5    1  0.2540860E-005  0.2823237E+03  0.7818608E-02  0.1032528E+00
         21   -1    0    0  501  502  0.00000000000E+00  0.00000000000E+00  0.22200938951E+03  0.22200938951E+03  0.00000000000E+00 0.  1.
          4   -1    0    0  502    0 -0.00000000000E+00 -0.00000000000E+00 -0.17095746469E+04  0.17095746469E+04  0.00000000000E+00 0.  1.
        -13    1    1    2    0    0 -0.30715799989E+03  0.39897884452E+02 -0.12375303935E+04  0.12757034781E+04  0.10566000000E+00 0.  1.
         13    1    1    2    0    0  0.86179319796E+02  0.13780349772E+03 -0.32430173090E+03  0.36275102064E+03  0.10566000000E+00 0. -1.
          4    1    1    2  501    0  0.22097868009E+03 -0.17770138218E+03  0.74266867056E+02  0.29312953762E+03  0.00000000000E+00 0.  1.
</event>
<event>
 5    1  0.2540860E-005  0.9442535E+03  0.7818608E-02  0.8828809E-01
         21   -1    0    0  501  502  0.00000000000E+00  0.00000000000E+00  0.62398352647E+03  0.62398352647E+03  0.00000000000E+00 0.  1.
         -4   -1    0    0    0  501 -0.00000000000E+00 -0.00000000000E+00 -0.17555113889E+04  0.17555113889E+04  0.00000000000E+00 0. -1.
        -13    1    1    2    0    0 -0.32110377652E+03 -0.89248682388E+03 -0.56369453042E+03  0.11033548391E+04  0.10566000000E+00 0.  1.
         13    1    1    2    0    0  0.35590432081E+03  0.87095798103E+03 -0.67728491273E+03  0.11592888141E+04  0.10566000000E+00 0. -1.
         -4    1    1    2    0  502 -0.34800544287E+02  0.21528842857E+02  0.10945158073E+03  0.11685126221E+03  0.00000000000E+00 0. -1.
</event>
<event>
 5    1  0.2540860E-005  0.2437931E+02  0.7818608E-02  0.1456717E+00
         -4   -1    0    0    0  501 -0.00000000000E+00  0.00000000000E+00  0.12773214252E+03  0.12773214252E+03  0.00000000000E+00 0. -1.
         21   -1    0    0  501  502  0.00000000000E+00 -0.00000000000E+00 -0.73633178178E+02  0.73633178178E+02  0.00000000000E+00 0.  1.
        -13    1    1    2    0    0 -0.47887242483E+01 -0.12866702208E+02 -0.66758892343E+02  0.68156032576E+02  0.10566000000E+00 0.  1.
         13    1    1    2    0    0  0.79027103438E+01  0.23270852402E+02  0.11980322256E+03  0.12229803229E+03  0.10566000000E+00 0. -1.
         -4    1    1    2    0  502 -0.31139860955E+01 -0.10404150193E+02  0.10546341234E+01  0.10911255830E+02  0.00000000000E+00 0. -1.
</event>
<event>
 5    1  0.2540860E-005  0.2028697E+03  0.7818608E-02  0.1058186E+00
         21   -1    0    0  501  502  0.00000000000E+00  0.00000000000E+00  0.32124983160E+02  0.32124983160E+02  0.00000000000E+00 0.  1.
          4   -1    0    0  502    0 -0.00000000000E+00 -0.00000000000E+00 -0.18268724599E+04  0.18268724599E+04  0.00000000000E+00 0.  1.
        -13    1    1    2    0    0  0.20527980367E+03  0.93545442892E+01 -0.11689912852E+04  0.11869153050E+04  0.10566000000E+00 0.  1.
         13    1    1    2    0    0 -0.19860794087E+03  0.42795352071E+01 -0.62614048736E+03  0.65689827954E+03  0.10566000000E+00 0. -1.
          4    1    1    2  501    0 -0.66718628071E+01 -0.13634079496E+02  0.38429575076E+00  0.15183858543E+02  0.00000000000E+00 0.  1.
</event>
<event>
 5    1  0.2540860E-005  0.1473160E+03  0.7818608E-02  0.1103789E+00
          4   -1    0    0  502    0 -0.00000000000E+00  0.00000000000E+00  0.12134670350E+04  0.12134670350E+04  0.00000000000E+00 0.  1.
         21   -1    0    0  501  502  0.00000000000E+00 -0.00000000000E+00 -0.37795812971E+02  0.37795812971E+02  0.00000000000E+00 0.  1.
        -13    1    1    2    0    0  0.14536686158E+03 -0.13786131642E+03  0.56205184677E+03  0.59669050322E+03  0.10566000000E+00 0.  1.
         13    1    1    2    0    0 -0.74421614049E+02  0.10001911031E+03  0.50046258320E+03  0.51575692667E+03  0.10566000000E+00 0. -1.
          4    1    1    2  501    0 -0.70945247528E+02  0.37842206104E+02  0.11315679211E+03  0.13881541813E+03  0.00000000000E+00 0.  1.
</event>
<event>
 5    1  0.2540860E-005  0.4308829E+03  0.7818608E-02  0.1002480E+00
         21   -1    0    0  501  502  0.00000000000E+00  0.00000000000E+00  0.89277912896E+03  0.89277912896E+03  0.00000000000E+00 0.  1.
          4   -1    0    0  502    0 -0.00000000000E+00 -0.00000000000E+00 -0.39915286377E+03  0.39915286377E+03  0.00000000000E+00 0.  1.
        -13    1    1    2    0    0 -0.35902126551E+03  0.29814932368E+03  0.76149090006E+02  0.47285091030E+03  0.10566000000E+00 0.  1.
         13    1    1    2    0    0  0.11072275488E+03  0.41989711447E+02 -0.97816708012E+02  0.15359291600E+03  0.10566000000E+00 0. -1.
          4    1    1    2  501    0  0.24829851063E+03 -0.34013903513E+03  0.51529388319E+03  0.66548816643E+03  0.00000000000E+00 0.  1.
</event>
<event>
 5    1  0.2540860E-005  0.2838701E+03  0.7818608E-02  0.1043339E+00
          4   -1    0    0  502    0 -0.00000000000E+00  0.00000000000E+00  0.40415303932E+03  0.40415303932E+03  0.00000000000E+00 0.  1.
         21   -1    0    0  501  502  0.00000000000E+00 -0.00000000000E+00 -0.78483507286E+03  0.78483507286E+03  0.00000000000E+00 0.  1.
        -13    1    1    2    0    0 -0.25838747080E+03 -0.90607988716E+02 -0.57495024754E+03  0.63682155350E+03  0.10566000000E+00 0.  1.
         13    1    1    2    0    0 -0.10137819083E+03 -0.54456835446E+02 -0.67268630111E+01  0.11527508991E+03  0.10566000000E+00 0. -1.
          4    1    1    2  501    0  0.35976566163E+03  0.14506482416E+03  0.20099507702E+03  0.43689146877E+03  0.00000000000E+00 0.  1.
</event>
<event>
 5    1  0.2540860E-005  0.1905500E+03  0.7818608E-02  0.1066815E+00
          4   -1    0    0  502    0 -0.00000000000E+00  0.00000000000E+00  0.84467738989E+03  0.84467738989E+03  0.00000000000E+00 0.  1.
         21   -1    0    0  501  502  0.00000000000E+00 -0.00000000000E+00 -0.12347603209E+03  0.12347603209E+03  0.00000000000E+00 0. -1.
        -13    1    1    2    0    0  0.95753072671E+01 -0.19218181625E+03  0.65317448451E+03  0.68092764328E+03  0.10566000000E+00 0.  1.
         13    1    1    2    0    0  0.58117139641E+01  0.18443289056E+03  0.12816563125E+03  0.22466799357E+03  0.10566000000E+00 0. -1.
          4    1    1    2  501    0 -0.15387021231E+02  0.77489256981E+01 -0.60138757951E+02  0.62557785125E+02  0.00000000000E+00 0.  1.
</event>
<event>
 5    1  0.2540860E-005  0.4247544E+03  0.7818608E-02  0.9664111E-01
         21   -1    0    0  501  502  0.00000000000E+00  0.00000000000E+00  0.24861581477E+03  0.24861581477E+03  0.00000000000E+00 0.  1.
         -4   -1    0    0    0  501 -0.00000000000E+00 -0.00000000000E+00 -0.24435355609E+04  0.24435355609E+04  0.00000000000E+00 0. -1.
        -13    1    1    2    0    0  0.30090855813E+03  0.29143543521E+03 -0.32957251168E+03  0.53300902889E+03  0.10566000000E+00 0.  1.
         13    1    1    2    0    0  0.13880742610E+03 -0.43304766333E+03 -0.15080823648E+04  0.15751540275E+04  0.10566000000E+00 0. -1.
         -4    1    1    2    0  502 -0.43971598424E+03  0.14161222812E+03 -0.35726486966E+03  0.58398831926E+03  0.00000000000E+00 0. -1.
</event>
<event>
 5    1  0.2540860E-005  0.4846578E+03  0.7818608E-02  0.9724890E-01
         21   -1    0    0  501  502  0.00000000000E+00  0.00000000000E+00  0.13181485917E+04  0.13181485917E+04  0.00000000000E+00 0. -1.
         -4   -1    0    0    0  501 -0.00000000000E+00 -0.00000000000E+00 -0.30443516228E+03  0.30443516228E+03  0.00000000000E+00 0. -1.
        -13    1    1    2    0    0 -0.21385552006E+03  0.79436951192E+02  0.11622005385E+03  0.25603031999E+03  0.10566000000E+00 0.  1.
         13    1    1    2    0    0 -0.29934849724E+03  0.27402814705E+03  0.39072764847E+03  0.56335517626E+03  0.10566000000E+00 0. -1.
         -4    1    1    2    0  502  0.51320401730E+03 -0.35346509824E+03  0.50676572707E+03  0.80319825770E+03  0.00000000000E+00 0. -1.
</event>
<event>
 5    1  0.2540860E-005  0.4818696E+03  0.7818608E-02  0.9866980E-01
         -4   -1    0    0    0  501 -0.00000000000E+00  0.00000000000E+00  0.15747421772E+04  0.15747421772E+04  0.00000000000E+00 0. -1.
         21   -1    0    0  501  502  0.00000000000E+00 -0.00000000000E+00 -0.81606847284E+03  0.81606847284E+03  0.00000000000E+00 0.  1.
        -13    1    1    2    0    0  0.87969976250E+03 -0.97096721481E+02  0.56363488911E+03  0.10492777253E+04  0.10566000000E+00 0.  1.
         13    1    1    2    0    0  0.12541717887E+03 -0.17096149800E+03 -0.13359459299E+03  0.25060891643E+03  0.10566000000E+00 0. -1.
         -4    1    1    2    0  502 -0.10051169414E+04  0.26805821948E+03  0.32863340824E+03  0.10909240083E+04  0.00000000000E+00 0. -1.
</event>
<event>
 5    1  0.2540860E-005  0.5444603E+02  0.7818608E-02  0.1274674E+00
         21   -1    0    0  501  502  0.00000000000E+00  0.00000000000E+00  0.21951302852E+02  0.21951302852E+02  0.00000000000E+00 0. -1.
          4   -1    0    0  502    0 -0.00000000000E+00 -0.00000000000E+00 -0.33134810640E+03  0.33134810640E+03  0.00000000000E+00 0.  1.
        -13    1    1    2    0    0 -0.52205165071E+02  0.19384062507E+02 -0.25409724422E+03  0.26012793357E+03  0.10566000000E+00 0.  1.
         13    1    1    2    0    0  0.42904557896E+02 -0.28656934107E+02 -0.60081260736E+02  0.79194633760E+02  0.10566000000E+00 0. -1.
          4    1    1    2  501    0  0.93006071742E+01  0.92728716009E+01  0.47817014133E+01  0.13976841916E+02  0.00000000000E+00 0.  1.
</event>
<event>
 5    1  0.2540860E-005  0.9601262E+02  0.7818608E-02  0.1171327E+00
         21   -1    0    0  501  502  0.00000000000E+00  0.00000000000E+00  0.30532762301E+03  0.30532762301E+03  0.00000000000E+00 0.  1.
          4   -1    0    0  502    0 -0.00000000000E+00 -0.00000000000E+00 -0.24883951964E+03  0.24883951964E+03  0.00000000000E+00 0.  1.
        -13    1    1    2    0    0 -0.92858188118E+02  0.52880038858E+02 -0.21776952853E+03  0.24257477265E+03  0.10566000000E+00 0.  1.
         13    1    1    2    0    0  0.44386938107E+02 -0.32168269584E+02  0.31595933020E+02  0.63271731365E+02  0.10566000000E+00 0. -1.
          4    1    1    2  501    0  0.48471250012E+02 -0.20711769273E+02  0.24266169888E+03  0.24832063863E+03  0.00000000000E+00 0.  1.
</event>
<event>
 5    1  0.4053681E-005  0.8640585E+03  0.7818608E-02  0.8914018E-01
         21   -1    0    0  501  502  0.00000000000E+00  0.00000000000E+00  0.54795508851E+03  0.54795508851E+03  0.00000000000E+00 0.  1.
         -4   -1    0    0    0  501 -0.00000000000E+00 -0.00000000000E+00 -0.20914424895E+04  0.20914424895E+04  0.00000000000E+00 0. -1.
        -13    1    1    2    0    0 -0.45937738647E+03 -0.69799650567E+03 -0.58278487342E+03  0.10187565582E+04  0.10566000000E+00 0.  1.
         13    1    1    2    0    0  0.60615721863E+03  0.65121153854E+03 -0.10987567676E+04  0.14137784434E+04  0.10566000000E+00 0. -1.
         -4    1    1    2    0  502 -0.14677983216E+03  0.46784967128E+02  0.13805424005E+03  0.20686257630E+03  0.00000000000E+00 0. -1.
</event>
<event>
 5    1  0.2540860E-005  0.3749751E+03  0.7818608E-02  0.9898723E-01
         21   -1    0    0  501  502  0.00000000000E+00  0.00000000000E+00  0.84191535128E+03  0.84191535128E+03  0.00000000000E+00 0. -1.
         -4   -1    0    0    0  501 -0.00000000000E+00 -0.00000000000E+00 -0.57396862474E+03  0.57396862474E+03  0.00000000000E+00 0. -1.
        -13    1    1    2    0    0 -0.26488469497E+03 -0.63958336573E+02 -0.13025897774E+03  0.30202977153E+03  0.10566000000E+00 0.  1.
         13    1    1    2    0    0 -0.11714841468E+03  0.21635493173E+03 -0.24704425989E+03  0.34866041509E+03  0.10566000000E+00 0. -1.
         -4    1    1    2    0  502  0.38203310964E+03 -0.15239659516E+03  0.64524996416E+03  0.76519378939E+03  0.00000000000E+00 0. -1.
</event>
<event>
 5    1  0.2540860E-005  0.2211062E+03  0.7818608E-02  0.1046557E+00
         -4   -1    0    0    0  501 -0.00000000000E+00  0.00000000000E+00  0.14189743339E+04  0.14189743339E+04  0.00000000000E+00 0. -1.
         21   -1    0    0  501  502  0.00000000000E+00 -0.00000000000E+00 -0.58518897136E+02  0.58518897136E+02  0.00000000000E+00 0. -1.
        -13    1    1    2    0    0 -0.16179048065E+03 -0.87211347281E+02  0.36176168779E+03  0.40577519471E+03  0.10566000000E+00 0.  1.
         13    1    1    2    0    0  0.25090042157E+03  0.49872692986E+02  0.89119290080E+03  0.92718018996E+03  0.10566000000E+00 0. -1.
         -4    1    1    2    0  502 -0.89109940922E+02  0.37338654294E+02  0.10750084818E+03  0.14453784638E+03  0.00000000000E+00 0. -1.
</event>
<event>
 5    1  0.2540860E-005  0.3770450E+03  0.7818608E-02  0.1007939E+00
         21   -1    0    0  501  502  0.00000000000E+00  0.00000000000E+00  0.22076611311E+03  0.22076611311E+03  0.00000000000E+00 0. -1.
         -4   -1    0    0    0  501 -0.00000000000E+00 -0.00000000000E+00 -0.14624131767E+04  0.14624131767E+04  0.00000000000E+00 0. -1.
        -13    1    1    2    0    0  0.83342346247E+02 -0.12237052078E+03 -0.22377995566E+03  0.26832437600E+03  0.10566000000E+00 0.  1.
         13    1    1    2    0    0  0.35704009803E+03 -0.36150091878E+02 -0.81465494155E+02  0.36799605793E+03  0.10566000000E+00 0. -1.
         -4    1    1    2    0  502 -0.44038244428E+03  0.15852061265E+03 -0.93640161373E+03  0.10468588558E+04  0.00000000000E+00 0. -1.
</event>
<event>
 5    1  0.2540860E-005  0.1123900E+03  0.7818608E-02  0.1145540E+00
         -4   -1    0    0    0  501 -0.00000000000E+00  0.00000000000E+00  0.24559157897E+03  0.24559157897E+03  0.00000000000E+00 0. -1.
         21   -1    0    0  501  502  0.00000000000E+00 -0.00000000000E+00 -0.11600432919E+03  0.11600432919E+03  0.00000000000E+00 0.  1.
        -13    1    1    2    0    0 -0.60352290683E+02 -0.10358147945E+03  0.16814841703E+03  0.20650768312E+03  0.10566000000E+00 0.  1.
         13    1    1    2    0    0  0.74186416499E+02  0.63329501319E+02  0.16934769849E+00  0.97541221916E+02  0.10566000000E+00 0. -1.
         -4    1    1    2    0  502 -0.13834125816E+02  0.40251978131E+02 -0.38730514941E+02  0.57547003121E+02  0.00000000000E+00 0. -1.
</event>
<event>
 5    1  0.2540860E-005  0.3240752E+03  0.7818608E-02  0.1013425E+00
          4   -1    0    0  502    0 -0.00000000000E+00  0.00000000000E+00  0.69259911578E+03  0.69259911578E+03  0.00000000000E+00 0.  1.
         21   -1    0    0  501  502  0.00000000000E+00 -0.00000000000E+00 -0.54197158700E+03  0.54197158700E+03  0.00000000000E+00 0.  1.
        -13    1    1    2    0    0  0.16863544546E+03  0.20090218545E+03  0.50569959395E+03  0.56967683126E+03  0.10566000000E+00 0.  1.
         13    1    1    2    0    0  0.15848871538E+03 -0.11450921717E+03 -0.34004682649E+02  0.19846249854E+03  0.10566000000E+00 0. -1.
          4    1    1    2  501    0 -0.32712416085E+03 -0.86392968287E+02 -0.32106738252E+03  0.46643137298E+03  0.00000000000E+00 0.  1.
</event>
<event>
 5    1  0.2540860E-005  0.5050262E+03  0.7818608E-02  0.9648795E-01
         -4   -1    0    0    0  501 -0.00000000000E+00  0.00000000000E+00  0.51071544233E+03  0.51071544233E+03  0.00000000000E+00 0. -1.
         21   -1    0    0  501  502  0.00000000000E+00 -0.00000000000E+00 -0.93663463506E+03  0.93663463506E+03  0.00000000000E+00 0. -1.
        -13    1    1    2    0    0 -0.19659865239E+03  0.17470295675E+03  0.96347318749E+02  0.28009814389E+03  0.10566000000E+00 0.  1.
         13    1    1    2    0    0  0.54461196122E+03  0.15074341620E+03 -0.32207985162E+03  0.65043155506E+03  0.10566000000E+00 0. -1.
         -4    1    1    2    0  502 -0.34801330883E+03 -0.32544637295E+03 -0.20018665985E+03  0.51682037844E+03  0.00000000000E+00 0. -1.
</event>
<event>
 5    1  0.2540860E-005  0.6537947E+03  0.7818608E-02  0.9717692E-01
          4   -1    0    0  502    0 -0.00000000000E+00  0.00000000000E+00  0.52913023870E+03  0.52913023870E+03  0.00000000000E+00 0.  1.
         21   -1    0    0  501  502  0.00000000000E+00 -0.00000000000E+00 -0.10044625361E+04  0.10044625361E+04  0.00000000000E+00 0.  1.
        -13    1    1    2    0    0 -0.86664871158E+02  0.60710737625E+03 -0.40179302082E+02  0.61457672725E+03  0.10566000000E+00 0.  1.
         13    1    1    2    0    0  0.52960737723E+02  0.79206653511E+02 -0.14415253521E+03  0.17279611764E+03  0.10566000000E+00 0. -1.
          4    1    1    2  501    0  0.33704133436E+02 -0.68631402976E+03 -0.29100046015E+03  0.74621992996E+03  0.00000000000E+00 0.  1.
</event>
<event>
 5    1  0.2540860E-005  0.3547558E+03  0.7818608E-02  0.9869668E-01
         21   -1    0    0  501  502  0.00000000000E+00  0.00000000000E+00  0.63045806667E+03  0.63045806667E+03  0.00000000000E+00 0.  1.
         -4   -1    0    0    0  501 -0.00000000000E+00 -0.00000000000E+00 -0.26004610552E+03  0.26004610552E+03  0.00000000000E+00 0. -1.
        -13    1    1    2    0    0  0.25309239766E+03  0.21218796647E+03  0.79287610212E+02  0.33965575391E+03  0.10566000000E+00 0.  1.
         13    1    1    2    0    0 -0.32115299999E+03 -0.23148630785E+03  0.23358869418E+03  0.45966166833E+03  0.10566000000E+00 0. -1.
         -4    1    1    2    0  502  0.68060602322E+02  0.19298341382E+02  0.57535656757E+02  0.91186749953E+02  0.00000000000E+00 0. -1.
</event>
<event>
 5    1  0.2540860E-005  0.2001415E+03  0.7818608E-02  0.1060039E+00
         21   -1    0    0  501  502  0.00000000000E+00  0.00000000000E+00  0.42694034196E+02  0.42694034196E+02  0.00000000000E+00 0.  1.
         -4   -1    0    0    0  501 -0.00000000000E+00 -0.00000000000E+00 -0.16298721836E+04  0.16298721836E+04  0.00000000000E+00 0. -1.
        -13    1    1    2    0    0 -0.19236185839E+03  0.31457575308E+02 -0.97241953955E+03  0.99176228788E+03  0.10566000000E+00 0.  1.
         13    1    1    2    0    0  0.20969742379E+03 -0.13386312164E+02 -0.62049984434E+03  0.65511241088E+03  0.10566000000E+00 0. -1.
         -4    1    1    2    0  502 -0.17335565402E+02 -0.18071263144E+02  0.57412344430E+01  0.25691519074E+02  0.00000000000E+00 0. -1.
</event>
<event>
 5    1  0.3193279E-005  0.9010363E+03  0.7818608E-02  0.8873583E-01
         21   -1    0    0  501  502  0.00000000000E+00  0.00000000000E+00  0.55029844800E+03  0.55029844800E+03  0.00000000000E+00 0. -1.
          4   -1    0    0  502    0 -0.00000000000E+00 -0.00000000000E+00 -0.27345978006E+04  0.27345978006E+04  0.00000000000E+00 0.  1.
        -13    1    1    2    0    0  0.41860513247E+03 -0.85951478593E+03 -0.20812812909E+04  0.22903553757E+04  0.10566000000E+00 0.  1.
         13    1    1    2    0    0 -0.41670872106E+03  0.60528696725E+03 -0.82607746843E+02  0.73948801339E+03  0.10566000000E+00 0. -1.
          4    1    1    2  501    0 -0.18964114057E+01  0.25422781868E+03 -0.20410314836E+02  0.25505285946E+03  0.00000000000E+00 0.  1.
</event>
<event>
 5    1  0.2540860E-005  0.3844636E+03  0.7818608E-02  0.9775019E-01
         21   -1    0    0  501  502  0.00000000000E+00  0.00000000000E+00  0.35585365306E+03  0.35585365306E+03  0.00000000000E+00 0.  1.
          4   -1    0    0  502    0 -0.00000000000E+00 -0.00000000000E+00 -0.16100533880E+04  0.16100533880E+04  0.00000000000E+00 0.  1.
        -13    1    1    2    0    0 -0.23342758529E+02  0.50778270763E+03 -0.75636838587E+03  0.91130747218E+03  0.10566000000E+00 0.  1.
         13    1    1    2    0    0 -0.46235937824E+02 -0.32511519820E+03 -0.70011505731E+03  0.77330379456E+03  0.10566000000E+00 0. -1.
          4    1    1    2  501    0  0.69578696352E+02 -0.18266750943E+03  0.20228370828E+03  0.28129577427E+03  0.00000000000E+00 0.  1.
</event>
<event>
 5    1  0.2540860E-005  0.4324352E+03  0.7818608E-02  0.1007508E+00
         -4   -1    0    0    0  501 -0.00000000000E+00  0.00000000000E+00  0.45240148701E+03  0.45240148701E+03  0.00000000000E+00 0. -1.
         21   -1    0    0  501  502  0.00000000000E+00 -0.00000000000E+00 -0.71093394687E+03  0.71093394687E+03  0.00000000000E+00 0. -1.
        -13    1    1    2    0    0  0.37378216958E+02 -0.92227198938E+02  0.15560170474E+02  0.10072297353E+03  0.10566000000E+00 0.  1.
         13    1    1    2    0    0  0.64941759038E+02 -0.35151636182E+03  0.19636991301E+03  0.40785087788E+03  0.10566000000E+00 0. -1.
         -4    1    1    2    0  502 -0.10231997600E+03  0.44374356075E+03 -0.47046254334E+03  0.65476158248E+03  0.00000000000E+00 0. -1.
</event>
<event>
 5    1  0.2540860E-005  0.5203988E+03  0.7818608E-02  0.9444430E-01
          4   -1    0    0  502    0 -0.00000000000E+00  0.00000000000E+00  0.43492418201E+04  0.43492418201E+04  0.00000000000E+00 0.  1.
         21   -1    0    0  501  502  0.00000000000E+00 -0.00000000000E+00 -0.20410020773E+03  0.20410020773E+03  0.00000000000E+00 0. -1.
        -13    1    1    2    0    0 -0.46670217623E+03 -0.30365068927E+03  0.24360772439E+04  0.24988971591E+04  0.10566000000E+00 0.  1.
         13    1    1    2    0    0  0.50065272407E+03 -0.22540082448E+03  0.53672284963E+03  0.76780864170E+03  0.10566000000E+00 0. -1.
          4    1    1    2  501    0 -0.33950547832E+02  0.52905151375E+03  0.11723415189E+04  0.12866362271E+04  0.00000000000E+00 0.  1.
</event>
<event>
 5    1  0.2540860E-005  0.2323528E+03  0.7818608E-02  0.1039967E+00
         21   -1    0    0  501  502  0.00000000000E+00  0.00000000000E+00  0.28324037870E+03  0.28324037870E+03  0.00000000000E+00 0.  1.
         -4   -1    0    0    0  501 -0.00000000000E+00 -0.00000000000E+00 -0.23592795708E+03  0.23592795708E+03  0.00000000000E+00 0. -1.
        -13    1    1    2    0    0  0.14082878038E+03  0.17591205177E+03  0.47746365942E+02  0.23034218451E+03  0.10566000000E+00 0.  1.
         13    1    1    2    0    0 -0.16863912267E+03 -0.17078093728E+03  0.36009536728E+02  0.24269730146E+03  0.10566000000E+00 0. -1.
         -4    1    1    2    0  502  0.27810342294E+02 -0.51311144852E+01 -0.36443481042E+02  0.46128849810E+02  0.00000000000E+00 0. -1.
</event>
<event>
 5    1  0.2540860E-005  0.1740725E+03  0.7818608E-02  0.1079527E+00
         -4   -1    0    0    0  501 -0.00000000000E+00  0.00000000000E+00  0.42436916462E+03  0.42436916462E+03  0.00000000000E+00 0. -1.
         21   -1    0    0  501  502  0.00000000000E+00 -0.00000000000E+00 -0.11309977899E+03  0.11309977899E+03  0.00000000000E+00 0.  1.
        -13    1    1    2    0    0 -0.18717610829E+03 -0.56858266838E+02  0.11414103674E+03  0.22648608226E+03  0.10566000000E+00 0.  1.
         13    1    1    2    0    0  0.15324061820E+03  0.57516116727E+02  0.21687976075E+03  0.27171240777E+03  0.10566000000E+00 0. -1.
         -4    1    1    2    0  502  0.33935490095E+02 -0.65784988992E+00 -0.19751411858E+02  0.39270453586E+02  0.00000000000E+00 0. -1.
</event>
<event>
 5    1  0.2540860E-005  0.4318795E+03  0.7818608E-02  0.9641251E-01
         21   -1    0    0  501  502  0.00000000000E+00  0.00000000000E+00  0.23367680295E+03  0.23367680295E+03  0.00000000000E+00 0. -1.
         -4   -1    0    0    0  501 -0.00000000000E+00 -0.00000000000E+00 -0.34849471287E+04  0.34849471287E+04  0.00000000000E+00 0. -1.
        -13    1    1    2    0    0  0.17655191450E+03  0.36813486061E+03 -0.20952911232E+04  0.21346987507E+04  0.10566000000E+00 0.  1.
         13    1    1    2    0    0  0.86199621541E+02 -0.67400276533E+03 -0.73651351197E+03  0.10020789724E+04  0.10566000000E+00 0. -1.
         -4    1    1    2    0  502 -0.26275153604E+03  0.30586790472E+03 -0.41946569050E+03  0.58184620849E+03  0.00000000000E+00 0. -1.
</event>
<event>
 5    1  0.2540860E-005  0.4800658E+03  0.7818608E-02  0.9841780E-01
         21   -1    0    0  501  502  0.00000000000E+00  0.00000000000E+00  0.87767760345E+03  0.87767760345E+03  0.00000000000E+00 0. -1.
         -4   -1    0    0    0  501 -0.00000000000E+00 -0.00000000000E+00 -0.53616401295E+03  0.53616401295E+03  0.00000000000E+00 0. -1.
        -13    1    1    2    0    0 -0.15686493316E+03  0.11560049425E+02 -0.21202274962E+03  0.26399602179E+03  0.10566000000E+00 0.  1.
         13    1    1    2    0    0 -0.28402514794E+03  0.33290738816E+03  0.32672334708E+03  0.54611882447E+03  0.10566000000E+00 0. -1.
         -4    1    1    2    0  502  0.44089008111E+03 -0.34446743758E+03  0.22681299304E+03  0.60372677014E+03  0.00000000000E+00 0. -1.
</event>
<event>
 5    1  0.2540860E-005  0.5261330E+03  0.7818608E-02  0.9422463E-01
         21   -1    0    0  501  502  0.00000000000E+00  0.00000000000E+00  0.40398518461E+03  0.40398518461E+03  0.00000000000E+00 0. -1.
          4   -1    0    0  502    0 -0.00000000000E+00 -0.00000000000E+00 -0.13009955868E+04  0.13009955868E+04  0.00000000000E+00 0.  1.
        -13    1    1    2    0    0 -0.70004911559E+02 -0.63615076035E+03 -0.77113997770E+03  0.10021204288E+04  0.10566000000E+00 0.  1.
         13    1    1    2    0    0  0.14029518820E+03  0.37467779469E+03 -0.15810968525E+03  0.43019167054E+03  0.10566000000E+00 0. -1.
          4    1    1    2  501    0 -0.70290276645E+02  0.26147296566E+03  0.32239260778E+02  0.27266867202E+03  0.00000000000E+00 0.  1.
</event>
<event>
 5    1  0.2540860E-005  0.4222006E+03  0.7818608E-02  0.9667034E-01
         -4   -1    0    0    0  501 -0.00000000000E+00  0.00000000000E+00  0.28041034761E+04  0.28041034761E+04  0.00000000000E+00 0. -1.
         21   -1    0    0  501  502  0.00000000000E+00 -0.00000000000E+00 -0.67521903642E+02  0.67521903642E+02  0.00000000000E+00 0.  1.
        -13    1    1    2    0    0 -0.41255934775E+03 -0.52289639975E+02  0.12751683856E+04  0.13412657621E+04  0.10566000000E+00 0.  1.
         13    1    1    2    0    0  0.42422643022E+03  0.57693842863E+02  0.14535448984E+04  0.15152852624E+04  0.10566000000E+00 0. -1.
         -4    1    1    2    0  502 -0.11667082476E+02 -0.54042028886E+01  0.78682884825E+01  0.15074355244E+02  0.00000000000E+00 0. -1.
</event>
<event>
 5    1  0.2540860E-005  0.2584166E+03  0.7818608E-02  0.1047728E+00
         -4   -1    0    0    0  501 -0.00000000000E+00  0.00000000000E+00  0.25737674080E+04  0.25737674080E+04  0.00000000000E+00 0. -1.
         21   -1    0    0  501  502  0.00000000000E+00 -0.00000000000E+00 -0.44684109869E+03  0.44684109869E+03  0.00000000000E+00 0. -1.
        -13    1    1    2    0    0 -0.41016649964E+03 -0.24081497941E+03  0.18226325082E+04  0.18836713309E+04  0.10566000000E+00 0.  1.
         13    1    1    2    0    0  0.12720785771E+03  0.19511299316E+02  0.63545675427E+03  0.64835779287E+03  0.10566000000E+00 0. -1.
         -4    1    1    2    0  502  0.28295864193E+03  0.22130368010E+03 -0.33116295317E+03  0.48857938292E+03  0.00000000000E+00 0. -1.
</event>
<event>
 5    1  0.2540860E-005  0.6207039E+02  0.7818608E-02  0.1249209E+00
         21   -1    0    0  501  502  0.00000000000E+00  0.00000000000E+00  0.51346420624E+03  0.51346420624E+03  0.00000000000E+00 0. -1.
         -4   -1    0    0    0  501 -0.00000000000E+00 -0.00000000000E+00 -0.16846882909E+03  0.16846882909E+03  0.00000000000E+00 0. -1.
        -13    1    1    2    0    0  0.25262063713E+02  0.46654340736E+02  0.18379401925E+03  0.19129833258E+03  0.10566000000E+00 0.  1.
         13    1    1    2    0    0 -0.53250217194E+02 -0.32866598852E+02 -0.15798522515E+03  0.16992687098E+03  0.10566000000E+00 0. -1.
         -4    1    1    2    0  502  0.27988153481E+02 -0.13787741884E+02  0.31918658305E+03  0.32070783177E+03  0.00000000000E+00 0. -1.
</event>
<event>
 5    1  0.2540860E-005  0.4751370E+03  0.7818608E-02  0.9718672E-01
          4   -1    0    0  502    0 -0.00000000000E+00  0.00000000000E+00  0.16449774602E+04  0.16449774602E+04  0.00000000000E+00 0.  1.
         21   -1    0    0  501  502  0.00000000000E+00 -0.00000000000E+00 -0.26304073701E+03  0.26304073701E+03  0.00000000000E+00 0.  1.
        -13    1    1    2    0    0 -0.40988606996E+03  0.25975625563E+03  0.23879731209E+03  0.54083645413E+03  0.10566000000E+00 0.  1.
         13    1    1    2    0    0 -0.86536451581E+02 -0.23177205662E+03  0.45927381564E+03  0.52166971599E+03  0.10566000000E+00 0. -1.
          4    1    1    2  501    0  0.49642252154E+03 -0.27984199013E+02  0.68386559545E+03  0.84551202708E+03  0.00000000000E+00 0.  1.
</event>
<event>
 5    1  0.2540860E-005  0.5157283E+03  0.7818608E-02  0.9534110E-01
         -4   -1    0    0    0  501 -0.00000000000E+00  0.00000000000E+00  0.22568109502E+04  0.22568109502E+04  0.00000000000E+00 0. -1.
         21   -1    0    0  501  502  0.00000000000E+00 -0.00000000000E+00 -0.38895483466E+03  0.38895483466E+03  0.00000000000E+00 0. -1.
        -13    1    1    2    0    0 -0.35135196054E+03  0.12118103132E+03  0.13803069268E+04  0.14294685257E+04  0.10566000000E+00 0.  1.
         13    1    1    2    0    0 -0.34400336554E+03 -0.22058907929E+03  0.22429801665E+03  0.46616249188E+03  0.10566000000E+00 0. -1.
         -4    1    1    2    0  502  0.69535532608E+03  0.99408047969E+02  0.26325117207E+03  0.75013476729E+03  0.00000000000E+00 0. -1.
</event>
<event>
 5    1  0.2540860E-005  0.5013059E+03  0.7818608E-02  0.9827745E-01
          4   -1    0    0  502    0 -0.00000000000E+00  0.00000000000E+00  0.72238908265E+03  0.72238908265E+03  0.00000000000E+00 0.  1.
         21   -1    0    0  501  502  0.00000000000E+00 -0.00000000000E+00 -0.51831025989E+03  0.51831025989E+03  0.00000000000E+00 0.  1.
        -13    1    1    2    0    0 -0.89691274903E+02 -0.45036300556E+03  0.33723138385E+02  0.46044394100E+03  0.10566000000E+00 0.  1.
         13    1    1    2    0    0  0.10075578343E+03 -0.10408552393E+03  0.17306179921E+03  0.22568987948E+03  0.10566000000E+00 0. -1.
          4    1    1    2  501    0 -0.11064508530E+02  0.55444852950E+03 -0.27061148368E+01  0.55456552207E+03  0.00000000000E+00 0.  1.
</event>
<event>
 5    1  0.2540860E-005  0.3435515E+03  0.7818608E-02  0.9907953E-01
         21   -1    0    0  501  502  0.00000000000E+00  0.00000000000E+00  0.71316944943E+03  0.71316944943E+03  0.00000000000E+00 0.  1.
         -4   -1    0    0    0  501 -0.00000000000E+00 -0.00000000000E+00 -0.20042713050E+03  0.20042713050E+03  0.00000000000E+00 0. -1.
        -13    1    1    2    0    0 -0.20342624653E+03 -0.27536533596E+03  0.78329793880E+02  0.35120346496E+03  0.10566000000E+00 0.  1.
         13    1    1    2    0    0  0.21338856089E+03  0.27281457598E+03  0.42647280567E+03  0.54940107019E+03  0.10566000000E+00 0. -1.
         -4    1    1    2    0  502 -0.99623143534E+01  0.25507599852E+01  0.79397193797E+01  0.12992044782E+02  0.00000000000E+00 0. -1.
</event>
<event>
 5    1  0.2540860E-005  0.5902227E+02  0.7818608E-02  0.1258870E+00
         21   -1    0    0  501  502  0.00000000000E+00  0.00000000000E+00  0.32416011744E+03  0.32416011744E+03  0.00000000000E+00 0. -1.
         -4   -1    0    0    0  501 -0.00000000000E+00 -0.00000000000E+00 -0.20465420241E+03  0.20465420241E+03  0.00000000000E+00 0. -1.
        -13    1    1    2    0    0 -0.24874234214E+02 -0.34439862660E+02  0.10513194070E+03  0.11339121566E+03  0.10566000000E+00 0.  1.
         13    1    1    2    0    0  0.34538782877E+02  0.48689574328E+02 -0.19572170966E+03  0.20462307047E+03  0.10566000000E+00 0. -1.
         -4    1    1    2    0  502 -0.96645486631E+01 -0.14249711667E+02  0.21009568399E+03  0.21080003372E+03  0.00000000000E+00 0. -1.
</event>
<event>
 5    1  0.2540860E-005  0.2613507E+03  0.7818608E-02  0.1086524E+00
         -4   -1    0    0    0  501 -0.00000000000E+00  0.00000000000E+00  0.13299255857E+04  0.13299255857E+04  0.00000000000E+00 0. -1.
         21   -1    0    0  501  502  0.00000000000E+00 -0.00000000000E+00 -0.10548256980E+03  0.10548256980E+03  0.00000000000E+00 0. -1.
        -13    1    1    2    0    0  0.11117116432E+02  0.40810356660E+02 -0.36643715970E+02  0.55962921409E+02  0.10566000000E+00 0.  1.
         13    1    1    2    0    0 -0.23415832794E+03 -0.15759489187E+03  0.86713821345E+03  0.91191828849E+03  0.10566000000E+00 0. -1.
         -4    1    1    2    0  502  0.22304121151E+03  0.11678453521E+03  0.39394851842E+03  0.46752694560E+03  0.00000000000E+00 0. -1.
</event>
<event>
 5    1  0.2540860E-005  0.4209570E+03  0.7818608E-02  0.9940083E-01
         21   -1    0    0  501  502  0.00000000000E+00  0.00000000000E+00  0.82063315159E+03  0.82063315159E+03  0.00000000000E+00 0.  1.
          4   -1    0    0  502    0 -0.00000000000E+00 -0.00000000000E+00 -0.44063075824E+03  0.44063075824E+03  0.00000000000E+00 0.  1.
        -13    1    1    2    0    0  0.40502893273E+03  0.11710912706E+03 -0.97394412498E+02  0.43272238992E+03  0.10566000000E+00 0.  1.
         13    1    1    2    0    0 -0.71552582498E+02  0.15178374056E+03 -0.23504816286E+02  0.16944191782E+03  0.10566000000E+00 0. -1.
          4    1    1    2  501    0 -0.33347635023E+03 -0.26889286762E+03  0.50090162213E+03  0.65909960209E+03  0.00000000000E+00 0.  1.
</event>
<event>
 5    1  0.2540860E-005  0.3931308E+03  0.7818608E-02  0.9749096E-01
          4   -1    0    0  502    0 -0.00000000000E+00  0.00000000000E+00  0.13966108851E+04  0.13966108851E+04  0.00000000000E+00 0.  1.
         21   -1    0    0  501  502  0.00000000000E+00 -0.00000000000E+00 -0.15636988538E+03  0.15636988538E+03  0.00000000000E+00 0. -1.
        -13    1    1    2    0    0 -0.78624429625E+02  0.43794106193E+03  0.42000365457E+03  0.61186375581E+03  0.10566000000E+00 0.  1.
         13    1    1    2    0    0  0.11144651527E+03 -0.35058677925E+03  0.64201774359E+03  0.73994473429E+03  0.10566000000E+00 0. -1.
          4    1    1    2  501    0 -0.32822085649E+02 -0.87354282688E+02  0.17821960156E+03  0.20117228037E+03  0.00000000000E+00 0.  1.
</event>
<event>
 5    1  0.2540860E-005  0.3592825E+03  0.7818608E-02  0.9854625E-01
         21   -1    0    0  501  502  0.00000000000E+00  0.00000000000E+00  0.43605598691E+03  0.43605598691E+03  0.00000000000E+00 0. -1.
         -4   -1    0    0    0  501 -0.00000000000E+00 -0.00000000000E+00 -0.17100379087E+04  0.17100379087E+04  0.00000000000E+00 0. -1.
        -13    1    1    2    0    0  0.35197151695E+03  0.68468796203E+02 -0.10914004059E+04  0.11487936203E+04  0.10566000000E+00 0.  1.
         13    1    1    2    0    0 -0.34562936762E+03 -0.15385225611E+03  0.31506796392E+03  0.49233932355E+03  0.10566000000E+00 0. -1.
         -4    1    1    2    0  502 -0.63421493320E+01  0.85383459906E+02 -0.49764947978E+03  0.50496095177E+03  0.00000000000E+00 0. -1.
</event>
<event>
 5    1  0.2540860E-005  0.9227191E+02  0.7818608E-02  0.1178016E+00
         21   -1    0    0  501  502  0.00000000000E+00  0.00000000000E+00  0.39553062710E+02  0.39553062710E+02  0.00000000000E+00 0. -1.
          4   -1    0    0  502    0 -0.00000000000E+00 -0.00000000000E+00 -0.45721103309E+03  0.45721103309E+03  0.00000000000E+00 0.  1.
        -13    1    1    2    0    0  0.90818536284E+02  0.24239289804E+02 -0.36092852746E+03  0.37296777716E+03  0.10566000000E+00 0.  1.
         13    1    1    2    0    0 -0.85620229753E+02 -0.31893948966E+01 -0.33434326569E+02  0.91972068259E+02  0.10566000000E+00 0. -1.
          4    1    1    2  501    0 -0.51983065312E+01 -0.21049894908E+02 -0.23295116354E+02  0.31824250382E+02  0.00000000000E+00 0.  1.
</event>
<event>
 5    1  0.2540860E-005  0.4766871E+03  0.7818608E-02  0.9725306E-01
         21   -1    0    0  501  502  0.00000000000E+00  0.00000000000E+00  0.12612823416E+04  0.12612823416E+04  0.00000000000E+00 0.  1.
          4   -1    0    0  502    0 -0.00000000000E+00 -0.00000000000E+00 -0.38512091517E+03  0.38512091517E+03  0.00000000000E+00 0.  1.
        -13    1    1    2    0    0  0.51255207316E+03 -0.19304115562E+03  0.88506220242E+03  0.10408216124E+04  0.10566000000E+00 0.  1.
         13    1    1    2    0    0 -0.16000366592E+03  0.17810712996E+03 -0.65466425378E+02  0.24821197970E+03  0.10566000000E+00 0. -1.
          4    1    1    2  501    0 -0.35254840723E+03  0.14934025660E+02  0.56565649394E+02  0.35736966471E+03  0.00000000000E+00 0.  1.
</event>
<event>
 5    1  0.2540860E-005  0.3112624E+03  0.7818608E-02  0.1003821E+00
         21   -1    0    0  501  502  0.00000000000E+00  0.00000000000E+00  0.70310652819E+03  0.70310652819E+03  0.00000000000E+00 0.  1.
          4   -1    0    0  502    0 -0.00000000000E+00 -0.00000000000E+00 -0.75202666989E+03  0.75202666989E+03  0.00000000000E+00 0.  1.
        -13    1    1    2    0    0 -0.12515142582E+03 -0.19441142835E+03 -0.54796587900E+03  0.59474809673E+03  0.10566000000E+00 0.  1.
         13    1    1    2    0    0  0.28568881415E+03 -0.93856598854E+02  0.52656012937E+02  0.30528646636E+03  0.10566000000E+00 0. -1.
          4    1    1    2  501    0 -0.16053738833E+03  0.28826802720E+03  0.44638972435E+03  0.55509863499E+03  0.00000000000E+00 0.  1.
</event>
<event>
 5    1  0.2540860E-005  0.4984594E+03  0.7818608E-02  0.9689181E-01
         21   -1    0    0  501  502  0.00000000000E+00  0.00000000000E+00  0.14540661881E+03  0.14540661881E+03  0.00000000000E+00 0. -1.
         -4   -1    0    0    0  501 -0.00000000000E+00 -0.00000000000E+00 -0.27528159869E+04  0.27528159869E+04  0.00000000000E+00 0. -1.
        -13    1    1    2    0    0  0.23718144717E+03 -0.10865823523E+02 -0.41884649488E+03  0.48146183903E+03  0.10566000000E+00 0.  1.
         13    1    1    2    0    0 -0.55586047052E+03  0.25054328180E+03 -0.11033550651E+04  0.12606130293E+04  0.10566000000E+00 0. -1.
         -4    1    1    2    0  502  0.31867902335E+03 -0.23967745827E+03 -0.10852078081E+04  0.11561477374E+04  0.00000000000E+00 0. -1.
</event>
<event>
 5    1  0.2540860E-005  0.4206170E+02  0.7818608E-02  0.1327978E+00
         21   -1    0    0  501  502  0.00000000000E+00  0.00000000000E+00  0.17064744877E+02  0.17064744877E+02  0.00000000000E+00 0. -1.
         -4   -1    0    0    0  501 -0.00000000000E+00 -0.00000000000E+00 -0.25901884529E+03  0.25901884529E+03  0.00000000000E+00 0. -1.
        -13    1    1    2    0    0 -0.38061934576E+02  0.45363144889E+01 -0.11828009892E+03  0.12433616520E+03  0.10566000000E+00 0.  1.
         13    1    1    2    0    0  0.47377275734E+02  0.27462593007E+00 -0.13076962743E+03  0.13908770002E+03  0.10566000000E+00 0. -1.
         -4    1    1    2    0  502 -0.93153411587E+01 -0.48109404190E+01  0.70956259254E+01  0.12659724953E+02  0.00000000000E+00 0. -1.
</event>
<event>
 5    1  0.2738504E-005  0.4578108E+03  0.7818608E-02  0.1035928E+00
         21   -1    0    0  501  502  0.00000000000E+00  0.00000000000E+00  0.95450833903E+03  0.95450833903E+03  0.00000000000E+00 0.  1.
          4   -1    0    0  502    0 -0.00000000000E+00 -0.00000000000E+00 -0.30999555356E+03  0.30999555356E+03  0.00000000000E+00 0.  1.
        -13    1    1    2    0    0  0.14921321591E+03 -0.43005520652E+03  0.12163933217E+03  0.47117746418E+03  0.10566000000E+00 0.  1.
         13    1    1    2    0    0 -0.31368213599E+02 -0.13990699441E+02 -0.48957450965E+02  0.59804244534E+02  0.10566000000E+00 0. -1.
          4    1    1    2  501    0 -0.11784500231E+03  0.44404590596E+03  0.57183090426E+03  0.73352218388E+03  0.00000000000E+00 0.  1.
</event>
<event>
 5    1  0.2540860E-005  0.4160493E+03  0.7818608E-02  0.9809834E-01
          4   -1    0    0  502    0 -0.00000000000E+00  0.00000000000E+00  0.12850590175E+04  0.12850590175E+04  0.00000000000E+00 0.  1.
         21   -1    0    0  501  502  0.00000000000E+00 -0.00000000000E+00 -0.74708234290E+03  0.74708234290E+03  0.00000000000E+00 0.  1.
        -13    1    1    2    0    0 -0.18276953734E+03 -0.36412555540E+03 -0.37864348354E+03  0.55620411961E+03  0.10566000000E+00 0.  1.
         13    1    1    2    0    0  0.23736129401E+03 -0.12727755246E+03  0.94309792823E+03  0.98080256558E+03  0.10566000000E+00 0. -1.
          4    1    1    2  501    0 -0.54591756667E+02  0.49140310786E+03 -0.26477770058E+02  0.49513467524E+03  0.00000000000E+00 0.  1.
</event>
<event>
 5    1  0.2540860E-005  0.5371894E+03  0.7818608E-02  0.9439448E-01
         -4   -1    0    0    0  501 -0.00000000000E+00  0.00000000000E+00  0.23916436654E+04  0.23916436654E+04  0.00000000000E+00 0. -1.
         21   -1    0    0  501  502  0.00000000000E+00 -0.00000000000E+00 -0.42883917662E+03  0.42883917662E+03  0.00000000000E+00 0. -1.
        -13    1    1    2    0    0  0.31396377372E+03 -0.48506875265E+03  0.14426431289E+04  0.15540541028E+04  0.10566000000E+00 0.  1.
         13    1    1    2    0    0  0.51808399342E+02 -0.22412617426E+03  0.39725973182E+03  0.45905550636E+03  0.10566000000E+00 0. -1.
         -4    1    1    2    0  502 -0.36577217307E+03  0.70919492691E+03  0.12290162810E+03  0.80737323286E+03  0.00000000000E+00 0. -1.
</event>
<event>
 5    1  0.2540860E-005  0.3812744E+03  0.7818608E-02  0.1022188E+00
         -4   -1    0    0    0  501 -0.00000000000E+00  0.00000000000E+00  0.20151409946E+04  0.20151409946E+04  0.00000000000E+00 0. -1.
         21   -1    0    0  501  502  0.00000000000E+00 -0.00000000000E+00 -0.16581824956E+03  0.16581824956E+03  0.00000000000E+00 0. -1.
        -13    1    1    2    0    0  0.77016398879E+02  0.48443018612E+02  0.25475738238E+03  0.27051725784E+03  0.10566000000E+00 0.  1.
         13    1    1    2    0    0 -0.94513391952E+02  0.36465606291E+03  0.14597602354E+03  0.40399979713E+03  0.10566000000E+00 0. -1.
         -4    1    1    2    0  502  0.17496993073E+02 -0.41309908152E+03  0.14485893391E+04  0.15064421892E+04  0.00000000000E+00 0. -1.
</event>
<event>
 5    1  0.2540860E-005  0.3346454E+03  0.7818608E-02  0.9990404E-01
          4   -1    0    0  502    0 -0.00000000000E+00  0.00000000000E+00  0.31826328003E+04  0.31826328003E+04  0.00000000000E+00 0.  1.
         21   -1    0    0  501  502  0.00000000000E+00 -0.00000000000E+00 -0.19422389167E+03  0.19422389167E+03  0.00000000000E+00 0.  1.
        -13    1    1    2    0    0 -0.26872186365E+03  0.98968924327E+02  0.53612353130E+02  0.29134272526E+03  0.10566000000E+00 0.  1.
         13    1    1    2    0    0 -0.29485574484E+03 -0.21338904043E+03  0.13992908828E+04  0.14458526130E+04  0.10566000000E+00 0. -1.
          4    1    1    2  501    0  0.56357760849E+03  0.11442011611E+03  0.15355056728E+04  0.16396613537E+04  0.00000000000E+00 0.  1.
</event>
<event>
 5    1  0.2540860E-005  0.7882768E+02  0.7818608E-02  0.1205302E+00
         21   -1    0    0  501  502  0.00000000000E+00  0.00000000000E+00  0.38109134098E+02  0.38109134098E+02  0.00000000000E+00 0.  1.
         -4   -1    0    0    0  501 -0.00000000000E+00 -0.00000000000E+00 -0.20518498873E+03  0.20518498873E+03  0.00000000000E+00 0. -1.
        -13    1    1    2    0    0  0.34049678729E+02 -0.64046660468E+02 -0.38416901252E+02  0.82080599441E+02  0.10566000000E+00 0.  1.
         13    1    1    2    0    0 -0.42071194317E+02  0.70855408988E+02 -0.12566603424E+03  0.15027454109E+03  0.10566000000E+00 0. -1.
         -4    1    1    2    0  502  0.80215155876E+01 -0.68087485206E+01 -0.29929191404E+01  0.10938982298E+02  0.00000000000E+00 0. -1.
</event>
<event>
 5    1  0.2540860E-005  0.1089627E+03  0.7818608E-02  0.1150522E+00
          4   -1    0    0  502    0 -0.00000000000E+00  0.00000000000E+00  0.38211267631E+03  0.38211267631E+03  0.00000000000E+00 0.  1.
         21   -1    0    0  501  502  0.00000000000E+00 -0.00000000000E+00 -0.25404217011E+03  0.25404217011E+03  0.00000000000E+00 0. -1.
        -13    1    1    2    0    0 -0.11628111487E+02 -0.10763676432E+03  0.34911785280E+03  0.36551904509E+03  0.10566000000E+00 0.  1.
         13    1    1    2    0    0  0.54751449090E+00  0.12322818122E+03 -0.13626128544E+03  0.18371889803E+03  0.10566000000E+00 0. -1.
          4    1    1    2  501    0  0.11080596996E+02 -0.15591416897E+02 -0.84786061171E+02  0.86916903301E+02  0.00000000000E+00 0.  1.
</event>
<event>
 5    1  0.2540860E-005  0.2605285E+03  0.7818608E-02  0.1035207E+00
         21   -1    0    0  501  502  0.00000000000E+00  0.00000000000E+00  0.10236612212E+04  0.10236612212E+04  0.00000000000E+00 0.  1.
          4   -1    0    0  502    0 -0.00000000000E+00 -0.00000000000E+00 -0.36441047898E+03  0.36441047898E+03  0.00000000000E+00 0.  1.
        -13    1    1    2    0    0 -0.22310928388E+03  0.98158263309E+02 -0.22974611207E+03  0.33495683959E+03  0.10566000000E+00 0.  1.
         13    1    1    2    0    0 -0.27791612651E+02 -0.18848563838E+03  0.89843442385E+02  0.21064440394E+03  0.10566000000E+00 0. -1.
          4    1    1    2  501    0  0.25090089654E+03  0.90327375068E+02  0.79915341187E+03  0.84247045662E+03  0.00000000000E+00 0.  1.
</event>
<event>
 5    1  0.2836690E-005  0.3551133E+03  0.7818608E-02  0.9869227E-01
         21   -1    0    0  501  502  0.00000000000E+00  0.00000000000E+00  0.32486633905E+03  0.32486633905E+03  0.00000000000E+00 0.  1.
         -4   -1    0    0    0  501 -0.00000000000E+00 -0.00000000000E+00 -0.27395874332E+04  0.27395874332E+04  0.00000000000E+00 0. -1.
        -13    1    1    2    0    0 -0.26454323974E+03 -0.62000717703E+03 -0.72005685742E+03  0.98634371004E+03  0.10566000000E+00 0.  1.
         13    1    1    2    0    0  0.13641603038E+03  0.28832960724E+03 -0.16927491907E+04  0.17225397324E+04  0.10566000000E+00 0. -1.
         -4    1    1    2    0  502  0.12812720935E+03  0.33167756979E+03 -0.19150460484E+01  0.35557032986E+03  0.00000000000E+00 0. -1.
</event>
<event>
 5    1  0.2540860E-005  0.2802906E+03  0.7818608E-02  0.1015790E+00
         21   -1    0    0  501  502  0.00000000000E+00  0.00000000000E+00  0.20933290256E+03  0.20933290256E+03  0.00000000000E+00 0. -1.
         -4   -1    0    0    0  501 -0.00000000000E+00 -0.00000000000E+00 -0.18177577739E+04  0.18177577739E+04  0.00000000000E+00 0. -1.
        -13    1    1    2    0    0  0.23675546165E+03  0.14870296895E+03 -0.29262399494E+03  0.40471537551E+03  0.10566000000E+00 0.  1.
         13    1    1    2    0    0 -0.23076546616E+03 -0.15948118658E+03 -0.14554234456E+04  0.14822092857E+04  0.10566000000E+00 0. -1.
         -4    1    1    2    0  502 -0.59899954869E+01  0.10778217630E+02  0.13962256920E+03  0.14016601532E+03  0.00000000000E+00 0. -1.
</event>
<event>
 5    1  0.2540860E-005  0.1636873E+03  0.7818608E-02  0.1088345E+00
          4   -1    0    0  502    0 -0.00000000000E+00  0.00000000000E+00  0.51397447049E+03  0.51397447049E+03  0.00000000000E+00 0.  1.
         21   -1    0    0  501  502  0.00000000000E+00 -0.00000000000E+00 -0.42645141042E+03  0.42645141042E+03  0.00000000000E+00 0.  1.
        -13    1    1    2    0    0 -0.14475804264E+03 -0.57690714151E+02  0.37990651979E+03  0.41062401824E+03  0.10566000000E+00 0.  1.
         13    1    1    2    0    0  0.22207326471E+03  0.37119728459E+02  0.15656243061E+01  0.22515965776E+03  0.10566000000E+00 0. -1.
          4    1    1    2  501    0 -0.77315222066E+02  0.20570985692E+02 -0.29394908403E+03  0.30464220492E+03  0.00000000000E+00 0.  1.
</event>
<event>
 5    1  0.2540860E-005  0.4954723E+03  0.7818608E-02  0.9625058E-01
          4   -1    0    0  502    0 -0.00000000000E+00  0.00000000000E+00  0.12174393735E+04  0.12174393735E+04  0.00000000000E+00 0.  1.
         21   -1    0    0  501  502  0.00000000000E+00 -0.00000000000E+00 -0.37327923009E+03  0.37327923009E+03  0.00000000000E+00 0.  1.
        -13    1    1    2    0    0  0.33208689991E+03 -0.40043150182E+03  0.38178436844E+03  0.64528010343E+03  0.10566000000E+00 0.  1.
         13    1    1    2    0    0 -0.28103506163E+03 -0.11287128897E+03  0.22676234693E+03  0.37834086071E+03  0.10566000000E+00 0. -1.
          4    1    1    2  501    0 -0.51051838282E+02  0.51330279078E+03  0.23561342807E+03  0.56709763948E+03  0.00000000000E+00 0.  1.
</event>
<event>
 5    1  0.2540860E-005  0.2855682E+03  0.7818608E-02  0.1013447E+00
          4   -1    0    0  502    0 -0.00000000000E+00  0.00000000000E+00  0.20875416554E+04  0.20875416554E+04  0.00000000000E+00 0.  1.
         21   -1    0    0  501  502  0.00000000000E+00 -0.00000000000E+00 -0.19873887963E+03  0.19873887963E+03  0.00000000000E+00 0.  1.
        -13    1    1    2    0    0  0.41052832692E+02  0.41879184373E+03  0.13988537382E+03  0.44344094581E+03  0.10566000000E+00 0.  1.
         13    1    1    2    0    0 -0.28829921847E+02 -0.24670929987E+03  0.32774207615E+03  0.41123171409E+03  0.10566000000E+00 0. -1.
          4    1    1    2  501    0 -0.12222910845E+02 -0.17208254386E+03  0.14211753258E+04  0.14316078751E+04  0.00000000000E+00 0.  1.
</event>
<event>
 5    1  0.2540860E-005  0.2026830E+02  0.7818608E-02  0.1517116E+00
         21   -1    0    0  501  502  0.00000000000E+00  0.00000000000E+00  0.52849932354E+02  0.52849932354E+02  0.00000000000E+00 0. -1.
         -4   -1    0    0    0  501 -0.00000000000E+00 -0.00000000000E+00 -0.11030950151E+03  0.11030950151E+03  0.00000000000E+00 0. -1.
        -13    1    1    2    0    0  0.15313512812E+02 -0.80898602886E+01  0.53954626748E+00  0.17327775054E+02  0.10566000000E+00 0.  1.
         13    1    1    2    0    0 -0.33943645865E+02  0.14962942232E+02 -0.96020578888E+02  0.10293698786E+03  0.10566000000E+00 0. -1.
         -4    1    1    2    0  502  0.18630133054E+02 -0.68730819435E+01  0.38021463459E+02  0.42894670958E+02  0.00000000000E+00 0. -1.
</event>
<event>
 5    1  0.2540860E-005  0.3243220E+03  0.7818608E-02  0.9977428E-01
         21   -1    0    0  501  502  0.00000000000E+00  0.00000000000E+00  0.27169830338E+03  0.27169830338E+03  0.00000000000E+00 0. -1.
         -4   -1    0    0    0  501 -0.00000000000E+00 -0.00000000000E+00 -0.16675491645E+04  0.16675491645E+04  0.00000000000E+00 0. -1.
        -13    1    1    2    0    0  0.15945647069E+02  0.27869460317E+03 -0.48595956122E+03  0.56042988125E+03  0.10566000000E+00 0.  1.
         13    1    1    2    0    0 -0.99194606721E+02 -0.34915667201E+03 -0.11007184277E+04  0.11590215786E+04  0.10566000000E+00 0. -1.
         -4    1    1    2    0  502  0.83248959653E+02  0.70462068841E+02  0.19082712777E+03  0.21979600797E+03  0.00000000000E+00 0. -1.
</event>
<event>
 5    1  0.2540860E-005  0.1494567E+03  0.7818608E-02  0.1101649E+00
         -4   -1    0    0    0  501 -0.00000000000E+00  0.00000000000E+00  0.40754904818E+03  0.40754904818E+03  0.00000000000E+00 0. -1.
         21   -1    0    0  501  502  0.00000000000E+00 -0.00000000000E+00 -0.28571530881E+03  0.28571530881E+03  0.00000000000E+00 0.  1.
        -13    1    1    2    0    0 -0.11674291835E+03 -0.71992786511E+02 -0.18671211685E+03  0.23167497931E+03  0.10566000000E+00 0.  1.
         13    1    1    2    0    0  0.13010334421E+03  0.75303340490E+02  0.36960109170E+03  0.39900181881E+03  0.10566000000E+00 0. -1.
         -4    1    1    2    0  502 -0.13360425860E+02 -0.33105539793E+01 -0.61055235477E+02  0.62587558875E+02  0.00000000000E+00 0. -1.
</event>
<event>
 5    1  0.2540860E-005  0.4316692E+03  0.7818608E-02  0.9785507E-01
          4   -1    0    0  502    0 -0.00000000000E+00  0.00000000000E+00  0.10041702974E+04  0.10041702974E+04  0.00000000000E+00 0.  1.
         21   -1    0    0  501  502  0.00000000000E+00 -0.00000000000E+00 -0.47209369142E+03  0.47209369142E+03  0.00000000000E+00 0.  1.
        -13    1    1    2    0    0 -0.19823008743E+03 -0.34402291629E+03  0.41793293155E+03  0.57646758880E+03  0.10566000000E+00 0.  1.
         13    1    1    2    0    0  0.23583088382E+03 -0.11421418302E+03  0.30489303711E+03  0.40202097035E+03  0.10566000000E+00 0. -1.
          4    1    1    2  501    0 -0.37600796390E+02  0.45823709931E+03 -0.19074936264E+03  0.49777542971E+03  0.00000000000E+00 0.  1.
</event>
<event>
 5    1  0.2540860E-005  0.5802285E+03  0.7818608E-02  0.9317590E-01
         21   -1    0    0  501  502  0.00000000000E+00  0.00000000000E+00  0.97848967542E+03  0.97848967542E+03  0.00000000000E+00 0.  1.
         -4   -1    0    0    0  501 -0.00000000000E+00 -0.00000000000E+00 -0.62625857693E+03  0.62625857693E+03  0.00000000000E+00 0. -1.
        -13    1    1    2    0    0  0.55949739323E+02  0.52435191263E+03  0.10350178249E+03  0.53738992524E+03  0.10566000000E+00 0.  1.
         13    1    1    2    0    0  0.43120855905E+02 -0.62299989448E+03 -0.15218466433E+03  0.64276625608E+03  0.10566000000E+00 0. -1.
         -4    1    1    2    0  502 -0.99070595228E+02  0.98647981846E+02  0.40091398033E+03  0.42459207104E+03  0.00000000000E+00 0. -1.
</event>
<event>
 5    1  0.2540860E-005  0.4834546E+03  0.7818608E-02  0.9514992E-01
          4   -1    0    0  502    0 -0.00000000000E+00  0.00000000000E+00  0.14842410740E+04  0.14842410740E+04  0.00000000000E+00 0.  1.
         21   -1    0    0  501  502  0.00000000000E+00 -0.00000000000E+00 -0.21385244431E+03  0.21385244431E+03  0.00000000000E+00 0. -1.
        -13    1    1    2    0    0 -0.38258941988E+03  0.25991979905E+03  0.72090160819E+03  0.85652326646E+03  0.10566000000E+00 0.  1.
         13    1    1    2    0    0  0.39281501093E+03 -0.33480999060E+03  0.56408653059E+03  0.76458811643E+03  0.10566000000E+00 0. -1.
          4    1    1    2  501    0 -0.10225591056E+02  0.74890191557E+02 -0.14599509112E+02  0.76982135397E+02  0.00000000000E+00 0.  1.
</event>
<event>
 5    1  0.2540860E-005  0.5281453E+03  0.7818608E-02  0.9418329E-01
          4   -1    0    0  502    0 -0.00000000000E+00  0.00000000000E+00  0.20349209495E+04  0.20349209495E+04  0.00000000000E+00 0.  1.
         21   -1    0    0  501  502  0.00000000000E+00 -0.00000000000E+00 -0.44714236105E+03  0.44714236105E+03  0.00000000000E+00 0.  1.
        -13    1    1    2    0    0 -0.49863655047E+03  0.54882330186E+03  0.36630498230E+03  0.82705790447E+03  0.10566000000E+00 0.  1.
         13    1    1    2    0    0  0.19893741100E+03 -0.44870085923E+03  0.12448924635E+04  0.13381576183E+04  0.10566000000E+00 0. -1.
          4    1    1    2  501    0  0.29969913947E+03 -0.10012244263E+03 -0.23418857376E+02  0.31684778774E+03  0.00000000000E+00 0.  1.
</event>
<event>
 5    1  0.2540860E-005  0.4813398E+03  0.7818608E-02  0.9519836E-01
         21   -1    0    0  501  502  0.00000000000E+00  0.00000000000E+00  0.60896468729E+03  0.60896468729E+03  0.00000000000E+00 0. -1.
         -4   -1    0    0    0  501 -0.00000000000E+00 -0.00000000000E+00 -0.12727658669E+04  0.12727658669E+04  0.00000000000E+00 0. -1.
        -13    1    1    2    0    0  0.20744400785E+03 -0.44259795205E+03 -0.72600157342E+03  0.87521669278E+03  0.10566000000E+00 0.  1.
         13    1    1    2    0    0 -0.19461182879E+03  0.42745489748E+03 -0.35506251569E+03  0.58877912199E+03  0.10566000000E+00 0. -1.
         -4    1    1    2    0  502 -0.12832179062E+02  0.15143054568E+02  0.41726290947E+03  0.41773473945E+03  0.00000000000E+00 0. -1.
</event>
<event>
 5    1  0.2540860E-005  0.2976947E+03  0.7818608E-02  0.1065185E+00
          4   -1    0    0  502    0 -0.00000000000E+00  0.00000000000E+00  0.14527231257E+04  0.14527231257E+04  0.00000000000E+00 0.  1.
         21   -1    0    0  501  502  0.00000000000E+00 -0.00000000000E+00 -0.10324254976E+03  0.10324254976E+03  0.00000000000E+00 0.  1.
        -13    1    1    2    0    0 -0.28175078518E+03 -0.75240627124E+02  0.82104946376E+03  0.87130183635E+03  0.10566000000E+00 0.  1.
         13    1    1    2    0    0 -0.18113056810E+02  0.49145754102E+02  0.30586645580E+03  0.31031868767E+03  0.10566000000E+00 0. -1.
          4    1    1    2  501    0  0.29986384199E+03  0.26094873022E+02  0.22256465636E+03  0.37434515143E+03  0.00000000000E+00 0.  1.
</event>
<event>
 5    1  0.2540860E-005  0.9901198E+03  0.7818608E-02  0.8783930E-01
          4   -1    0    0  502    0 -0.00000000000E+00  0.00000000000E+00  0.24873930264E+04  0.24873930264E+04  0.00000000000E+00 0.  1.
         21   -1    0    0  501  502  0.00000000000E+00 -0.00000000000E+00 -0.57674778143E+03  0.57674778143E+03  0.00000000000E+00 0. -1.
        -13    1    1    2    0    0  0.93111099934E+03 -0.49221875703E+03  0.13402300139E+04  0.17045420204E+04  0.10566000000E+00 0.  1.
         13    1    1    2    0    0 -0.85294385650E+03  0.23246051679E+03  0.21025760957E+03  0.90871303928E+03  0.10566000000E+00 0. -1.
          4    1    1    2  501    0 -0.78167142838E+02  0.25975824024E+03  0.36015762149E+03  0.45088574818E+03  0.00000000000E+00 0.  1.
</event>
<event>
 5    1  0.2540860E-005  0.3668868E+03  0.7818608E-02  0.9999780E-01
         -4   -1    0    0    0  501 -0.00000000000E+00  0.00000000000E+00  0.32586914131E+04  0.32586914131E+04  0.00000000000E+00 0. -1.
         21   -1    0    0  501  502  0.00000000000E+00 -0.00000000000E+00 -0.11598748351E+03  0.11598748351E+03  0.00000000000E+00 0. -1.
        -13    1    1    2    0    0  0.16447659804E+03  0.12760256925E+03  0.59482905666E+03  0.63020360582E+03  0.10566000000E+00 0.  1.
         13    1    1    2    0    0 -0.50487840591E+03 -0.10275112747E+03  0.21905944116E+04  0.22503697221E+04  0.10566000000E+00 0. -1.
         -4    1    1    2    0  502  0.34040180787E+03 -0.24851441778E+02  0.35728046141E+03  0.49410556875E+03  0.00000000000E+00 0. -1.
</event>
<event>
 5    1  0.2540860E-005  0.3014178E+03  0.7818608E-02  0.1016097E+00
         21   -1    0    0  501  502  0.00000000000E+00  0.00000000000E+00  0.32258554546E+03  0.32258554546E+03  0.00000000000E+00 0.  1.
          4   -1    0    0  502    0 -0.00000000000E+00 -0.00000000000E+00 -0.12674591237E+04  0.12674591237E+04  0.00000000000E+00 0.  1.
        -13    1    1    2    0    0  0.26870374447E+03 -0.26431916624E+03 -0.96070078791E+03  0.10319943503E+04  0.10566000000E+00 0.  1.
         13    1    1    2    0    0 -0.22087005119E+03 -0.32157137688E+02 -0.88543882391E+02  0.24012016011E+03  0.10566000000E+00 0. -1.
          4    1    1    2  501    0 -0.47833693278E+02  0.29647630393E+03  0.10437109205E+03  0.31793015878E+03  0.00000000000E+00 0.  1.
</event>
<event>
 5    1  0.2540860E-005  0.4433229E+03  0.7818608E-02  0.9807547E-01
         21   -1    0    0  501  502  0.00000000000E+00  0.00000000000E+00  0.19649969220E+03  0.19649969220E+03  0.00000000000E+00 0.  1.
          4   -1    0    0  502    0 -0.00000000000E+00 -0.00000000000E+00 -0.27562322907E+04  0.27562322907E+04  0.00000000000E+00 0.  1.
        -13    1    1    2    0    0  0.20729964429E+03 -0.45001090865E+03 -0.21003777701E+03  0.53814388351E+03  0.10566000000E+00 0.  1.
         13    1    1    2    0    0 -0.17440894200E+03  0.14113675857E+03 -0.13245395287E+04  0.13434072495E+04  0.10566000000E+00 0. -1.
          4    1    1    2  501    0 -0.32890702288E+02  0.30887415009E+03 -0.10251552928E+04  0.10711808499E+04  0.00000000000E+00 0.  1.
</event>
<event>
 5    1  0.2540860E-005  0.2429759E+03  0.7818608E-02  0.1050627E+00
         21   -1    0    0  501  502  0.00000000000E+00  0.00000000000E+00  0.18111655070E+03  0.18111655070E+03  0.00000000000E+00 0. -1.
         -4   -1    0    0    0  501 -0.00000000000E+00 -0.00000000000E+00 -0.18188767009E+04  0.18188767009E+04  0.00000000000E+00 0. -1.
        -13    1    1    2    0    0  0.63307937250E+02  0.13330216271E+03 -0.30396313379E+03  0.33789193446E+03  0.10566000000E+00 0.  1.
         13    1    1    2    0    0 -0.15963073683E+03 -0.34576965961E+03 -0.13736267677E+04  0.14254434881E+04  0.10566000000E+00 0. -1.
         -4    1    1    2    0  502  0.96322799580E+02  0.21246749690E+03  0.39829751290E+02  0.23665782904E+03  0.00000000000E+00 0. -1.
</event>
<event>
 5    1  0.2540860E-005  0.4438559E+03  0.7818608E-02  0.9610325E-01
         21   -1    0    0  501  502  0.00000000000E+00  0.00000000000E+00  0.24135907473E+03  0.24135907473E+03  0.00000000000E+00 0.  1.
          4   -1    0    0  502    0 -0.00000000000E+00 -0.00000000000E+00 -0.38431655820E+04  0.38431655820E+04  0.00000000000E+00 0.  1.
        -13    1    1    2    0    0 -0.20574447660E+03 -0.65806544020E+03 -0.49374159044E+03  0.84803401024E+03  0.10566000000E+00 0.  1.
         13    1    1    2    0    0 -0.52773151599E+02  0.42109939906E+03 -0.24896336024E+04  0.25255465140E+04  0.10566000000E+00 0. -1.
          4    1    1    2  501    0  0.25851762820E+03  0.23696604113E+03 -0.61843131452E+03  0.71094413249E+03  0.00000000000E+00 0.  1.
</event>
<event>
 5    1  0.2540860E-005  0.4556877E+03  0.7818608E-02  0.9580772E-01
         -4   -1    0    0    0  501 -0.00000000000E+00  0.00000000000E+00  0.23432300605E+04  0.23432300605E+04  0.00000000000E+00 0. -1.
         21   -1    0    0  501  502  0.00000000000E+00 -0.00000000000E+00 -0.13678726754E+03  0.13678726754E+03  0.00000000000E+00 0.  1.
        -13    1    1    2    0    0 -0.18416093837E+03  0.42114812996E+03  0.16742659028E+04  0.17362163814E+04  0.10566000000E+00 0.  1.
         13    1    1    2    0    0  0.17702388678E+03 -0.40903334412E+03  0.55814952593E+03  0.71426650317E+03  0.10566000000E+00 0. -1.
         -4    1    1    2    0  502  0.71370515985E+01 -0.12114785839E+02 -0.25972635779E+02  0.29534443464E+02  0.00000000000E+00 0. -1.
</event>
<event>
 5    1  0.2540860E-005  0.4694850E+03  0.7818608E-02  0.9562997E-01
         21   -1    0    0  501  502  0.00000000000E+00  0.00000000000E+00  0.30295355646E+03  0.30295355646E+03  0.00000000000E+00 0. -1.
         -4   -1    0    0    0  501 -0.00000000000E+00 -0.00000000000E+00 -0.27094075196E+04  0.27094075196E+04  0.00000000000E+00 0. -1.
        -13    1    1    2    0    0 -0.43637157495E+03  0.82207374795E+02 -0.15344689137E+04  0.15974270131E+04  0.10566000000E+00 0.  1.
         13    1    1    2    0    0 -0.16323832399E+03 -0.99662433637E+02 -0.78600505051E+03  0.80893961560E+03  0.10566000000E+00 0. -1.
         -4    1    1    2    0  502  0.59960989894E+03  0.17455058842E+02 -0.85979998890E+02  0.60599444733E+03  0.00000000000E+00 0. -1.
</event>
<event>
 5    1  0.2540860E-005  0.2951039E+03  0.7818608E-02  0.1009347E+00
         21   -1    0    0  501  502  0.00000000000E+00  0.00000000000E+00  0.20404811016E+03  0.20404811016E+03  0.00000000000E+00 0.  1.
         -4   -1    0    0    0  501 -0.00000000000E+00 -0.00000000000E+00 -0.59418607836E+03  0.59418607836E+03  0.00000000000E+00 0. -1.
        -13    1    1    2    0    0  0.15015932476E+03  0.24914964356E+03 -0.21104331297E+03  0.35939206838E+03  0.10566000000E+00 0.  1.
         13    1    1    2    0    0 -0.13151088775E+03 -0.26946616634E+03 -0.23204114529E+03  0.37914407904E+03  0.10566000000E+00 0. -1.
         -4    1    1    2    0  502 -0.18648437010E+02  0.20316522782E+02  0.52946490062E+02  0.59698041096E+02  0.00000000000E+00 0. -1.
</event>
<event>
 5    1  0.2540860E-005  0.3361031E+03  0.7818608E-02  0.9934274E-01
         21   -1    0    0  501  502  0.00000000000E+00  0.00000000000E+00  0.79877917542E+03  0.79877917542E+03  0.00000000000E+00 0.  1.
         -4   -1    0    0    0  501 -0.00000000000E+00 -0.00000000000E+00 -0.21971890314E+03  0.21971890314E+03  0.00000000000E+00 0. -1.
        -13    1    1    2    0    0 -0.31611110099E+03 -0.12787168366E+03  0.34644377907E+02  0.34275011267E+03  0.10566000000E+00 0.  1.
         13    1    1    2    0    0  0.29547602717E+03  0.13728711433E+03  0.34307094889E+03  0.47312949763E+03  0.10566000000E+00 0. -1.
         -4    1    1    2    0  502  0.20635073819E+02 -0.94154306684E+01  0.20134494548E+03  0.20261846826E+03  0.00000000000E+00 0. -1.
</event>
<event>
 5    1  0.2540860E-005  0.5710415E+03  0.7818608E-02  0.9417186E-01
         -4   -1    0    0    0  501 -0.00000000000E+00  0.00000000000E+00  0.26087227506E+04  0.26087227506E+04  0.00000000000E+00 0. -1.
         21   -1    0    0  501  502  0.00000000000E+00 -0.00000000000E+00 -0.34669181186E+03  0.34669181186E+03  0.00000000000E+00 0.  1.
        -13    1    1    2    0    0  0.66570816183E+03  0.24546730145E+02  0.10944594345E+04  0.12812538248E+04  0.10566000000E+00 0.  1.
         13    1    1    2    0    0  0.81983791659E+02 -0.11401888468E+03  0.84223144429E+03  0.85385915997E+03  0.10566000000E+00 0. -1.
         -4    1    1    2    0  502 -0.74769195349E+03  0.89472154534E+02  0.32534005999E+03  0.82030157770E+03  0.00000000000E+00 0. -1.
</event>
<event>
 5    1  0.2540860E-005  0.2304156E+03  0.7818608E-02  0.1041073E+00
          4   -1    0    0  502    0 -0.00000000000E+00  0.00000000000E+00  0.12737990931E+03  0.12737990931E+03  0.00000000000E+00 0.  1.
         21   -1    0    0  501  502  0.00000000000E+00 -0.00000000000E+00 -0.73532907950E+03  0.73532907950E+03  0.00000000000E+00 0.  1.
        -13    1    1    2    0    0 -0.55022645026E+01 -0.23099689513E+03 -0.57241466982E+02  0.23804713226E+03  0.10566000000E+00 0.  1.
         13    1    1    2    0    0 -0.26404646282E+02  0.22885810610E+03 -0.33483201995E+03  0.40643047477E+03  0.10566000000E+00 0. -1.
          4    1    1    2  501    0  0.31906910785E+02  0.21387890269E+01 -0.21587568325E+03  0.21823138178E+03  0.00000000000E+00 0.  1.
</event>
<event>
 5    1  0.2540860E-005  0.5079032E+03  0.7818608E-02  0.9470221E-01
         21   -1    0    0  501  502  0.00000000000E+00  0.00000000000E+00  0.37211411487E+03  0.37211411487E+03  0.00000000000E+00 0.  1.
         -4   -1    0    0    0  501 -0.00000000000E+00 -0.00000000000E+00 -0.20372009054E+04  0.20372009054E+04  0.00000000000E+00 0. -1.
        -13    1    1    2    0    0 -0.51931523219E+02 -0.51410265021E+03 -0.93630090988E+03  0.10694193860E+04  0.10566000000E+00 0.  1.
         13    1    1    2    0    0 -0.32692968123E+03 -0.10047363041E+03 -0.45170506212E+03  0.56658224574E+03  0.10566000000E+00 0. -1.
         -4    1    1    2    0  502  0.37886120445E+03  0.61457628062E+03 -0.27708081853E+03  0.77331338857E+03  0.00000000000E+00 0. -1.
</event>
<event>
 5    1  0.2540860E-005  0.1948076E+03  0.7818608E-02  0.1063755E+00
         21   -1    0    0  501  502  0.00000000000E+00  0.00000000000E+00  0.32121967693E+02  0.32121967693E+02  0.00000000000E+00 0.  1.
         -4   -1    0    0    0  501 -0.00000000000E+00 -0.00000000000E+00 -0.16348776130E+04  0.16348776130E+04  0.00000000000E+00 0. -1.
        -13    1    1    2    0    0 -0.18828969875E+03 -0.81141927121E+02 -0.10362667268E+04  0.10563549419E+04  0.10566000000E+00 0.  1.
         13    1    1    2    0    0  0.14876358022E+03  0.10231432963E+03 -0.48683574338E+03  0.51923778468E+03  0.10566000000E+00 0. -1.
         -4    1    1    2    0  502  0.39526118533E+02 -0.21172402505E+02 -0.79653175124E+02  0.91406854127E+02  0.00000000000E+00 0. -1.
</event>
<event>
 5    1  0.2540860E-005  0.1872653E+03  0.7818608E-02  0.1069602E+00
          4   -1    0    0  502    0 -0.00000000000E+00  0.00000000000E+00  0.11143949232E+04  0.11143949232E+04  0.00000000000E+00 0.  1.
         21   -1    0    0  501  502  0.00000000000E+00 -0.00000000000E+00 -0.35774120515E+03  0.35774120515E+03  0.00000000000E+00 0.  1.
        -13    1    1    2    0    0 -0.16815580690E+03  0.50505857717E+02  0.69160049504E+03  0.71353939832E+03  0.10566000000E+00 0.  1.
         13    1    1    2    0    0  0.13019829495E+03  0.13596683722E+03  0.36077567377E+03  0.40693694202E+03  0.10566000000E+00 0. -1.
          4    1    1    2  501    0  0.37957511952E+02 -0.18647269493E+03 -0.29572245072E+03  0.35165978805E+03  0.00000000000E+00 0.  1.
</event>
<event>
 5    1  0.2540860E-005  0.2374247E+03  0.7818608E-02  0.1037124E+00
         21   -1    0    0  501  502  0.00000000000E+00  0.00000000000E+00  0.54374009147E+02  0.54374009147E+02  0.00000000000E+00 0.  1.
         -4   -1    0    0    0  501 -0.00000000000E+00 -0.00000000000E+00 -0.22514334433E+04  0.22514334433E+04  0.00000000000E+00 0. -1.
        -13    1    1    2    0    0 -0.84611152381E+02 -0.21805720876E+03 -0.13508747253E+04  0.13709742988E+04  0.10566000000E+00 0.  1.
         13    1    1    2    0    0  0.69501992750E+02  0.23368627019E+03 -0.86945402756E+03  0.90298954428E+03  0.10566000000E+00 0. -1.
         -4    1    1    2    0  502  0.15109159631E+02 -0.15629061428E+02  0.23269318685E+02  0.31843609374E+02  0.00000000000E+00 0. -1.
</event>
<event>
 5    1  0.2540860E-005  0.8603585E+03  0.7818608E-02  0.8918180E-01
         21   -1    0    0  501  502  0.00000000000E+00  0.00000000000E+00  0.74992995991E+03  0.74992995991E+03  0.00000000000E+00 0. -1.
          4   -1    0    0  502    0 -0.00000000000E+00 -0.00000000000E+00 -0.14230828565E+04  0.14230828565E+04  0.00000000000E+00 0.  1.
        -13    1    1    2    0    0 -0.44201302958E+03  0.86695574615E+03 -0.13334141495E+03  0.98222590488E+03  0.10566000000E+00 0.  1.
         13    1    1    2    0    0  0.46516806192E+03 -0.63791826265E+03 -0.26611385554E+03  0.83314922488E+03  0.10566000000E+00 0. -1.
          4    1    1    2  501    0 -0.23155032338E+02 -0.22903748351E+03 -0.27369762610E+03  0.35763768664E+03  0.00000000000E+00 0.  1.
</event>
<event>
 5    1  0.2540860E-005  0.4926526E+03  0.7818608E-02  0.9494223E-01
          4   -1    0    0  502    0 -0.00000000000E+00  0.00000000000E+00  0.10835417017E+04  0.10835417017E+04  0.00000000000E+00 0.  1.
         21   -1    0    0  501  502  0.00000000000E+00 -0.00000000000E+00 -0.69201175388E+03  0.69201175388E+03  0.00000000000E+00 0.  1.
        -13    1    1    2    0    0  0.34051669424E+03  0.48321300730E+03  0.24731651653E+03  0.64079005922E+03  0.10566000000E+00 0.  1.
         13    1    1    2    0    0 -0.27730875318E+02 -0.47105461282E+03  0.48180182932E+03  0.67438450724E+03  0.10566000000E+00 0. -1.
          4    1    1    2  501    0 -0.31278581892E+03 -0.12158394479E+02 -0.33758839802E+03  0.46037888913E+03  0.00000000000E+00 0.  1.
</event>
<event>
 5    1  0.5824648E-005  0.3311447E+03  0.7818608E-02  0.1029939E+00
         -4   -1    0    0    0  501 -0.00000000000E+00  0.00000000000E+00  0.20210307633E+03  0.20210307633E+03  0.00000000000E+00 0. -1.
         21   -1    0    0  501  502  0.00000000000E+00 -0.00000000000E+00 -0.19080259077E+04  0.19080259077E+04  0.00000000000E+00 0. -1.
        -13    1    1    2    0    0  0.44102555313E+02  0.99780306837E+02  0.21482429843E+02  0.11118745871E+03  0.10566000000E+00 0.  1.
         13    1    1    2    0    0  0.20210491594E+03  0.14017536904E+03 -0.86197678833E+01  0.24610941204E+03  0.10566000000E+00 0. -1.
         -4    1    1    2    0  502 -0.24620747125E+03 -0.23995567588E+03 -0.17187854933E+04  0.17528321133E+04  0.00000000000E+00 0. -1.
</event>
<event>
 5    1  0.2540860E-005  0.1767281E+02  0.7818608E-02  0.1545066E+00
         -4   -1    0    0    0  501 -0.00000000000E+00  0.00000000000E+00  0.75563341869E+01  0.75563341869E+01  0.00000000000E+00 0. -1.
         21   -1    0    0  501  502  0.00000000000E+00 -0.00000000000E+00 -0.25358894335E+03  0.25358894335E+03  0.00000000000E+00 0. -1.
        -13    1    1    2    0    0  0.13643859615E+02  0.52996445237E+01 -0.79231606993E+02  0.80572326813E+02  0.10566000000E+00 0.  1.
         13    1    1    2    0    0 -0.10410637378E+02 -0.15327841986E+02 -0.60718144288E+01  0.19498774450E+02  0.10566000000E+00 0. -1.
         -4    1    1    2    0  502 -0.32332222369E+01  0.10028197463E+02 -0.16072918774E+03  0.16107417627E+03  0.00000000000E+00 0. -1.
</event>
<event>
 5    1  0.2540860E-005  0.4933472E+03  0.7818608E-02  0.9492674E-01
         21   -1    0    0  501  502  0.00000000000E+00  0.00000000000E+00  0.60469692017E+03  0.60469692017E+03  0.00000000000E+00 0. -1.
         -4   -1    0    0    0  501 -0.00000000000E+00 -0.00000000000E+00 -0.97633944970E+03  0.97633944970E+03  0.00000000000E+00 0. -1.
        -13    1    1    2    0    0 -0.32976966694E+03  0.30671548029E+03 -0.14636324456E+03  0.47354474932E+03  0.10566000000E+00 0.  1.
         13    1    1    2    0    0  0.60974959709E+03 -0.21944699882E+02 -0.33132254617E+03  0.69429876981E+03  0.10566000000E+00 0. -1.
         -4    1    1    2    0  502 -0.27997993015E+03 -0.28477078041E+03  0.10604326120E+03  0.41319285074E+03  0.00000000000E+00 0. -1.
</event>
<event>
 5    1  0.2540860E-005  0.4893925E+03  0.7818608E-02  0.9501529E-01
         21   -1    0    0  501  502  0.00000000000E+00  0.00000000000E+00  0.24338638433E+03  0.24338638433E+03  0.00000000000E+00 0. -1.
         -4   -1    0    0    0  501 -0.00000000000E+00 -0.00000000000E+00 -0.19240939571E+04  0.19240939571E+04  0.00000000000E+00 0. -1.
        -13    1    1    2    0    0  0.29231924808E+03  0.40139928407E+03 -0.11656871026E+04  0.12670431565E+04  0.10566000000E+00 0.  1.
         13    1    1    2    0    0 -0.28596329843E+03 -0.38300804413E+03 -0.62608096676E+03  0.78768493576E+03  0.10566000000E+00 0. -1.
         -4    1    1    2    0  502 -0.63559496526E+01 -0.18391239940E+02  0.11106049657E+03  0.11275224921E+03  0.00000000000E+00 0. -1.
</event>
<event>
 5    1  0.2540860E-005  0.3946472E+03  0.7818608E-02  0.9937109E-01
         21   -1    0    0  501  502  0.00000000000E+00  0.00000000000E+00  0.25624225971E+03  0.25624225971E+03  0.00000000000E+00 0. -1.
         -4   -1    0    0    0  501 -0.00000000000E+00 -0.00000000000E+00 -0.20915522529E+04  0.20915522529E+04  0.00000000000E+00 0. -1.
        -13    1    1    2    0    0 -0.49566495940E-01 -0.20567121769E+03 -0.10243216775E+04  0.10447657931E+04  0.10566000000E+00 0.  1.
         13    1    1    2    0    0 -0.38647772761E+02 -0.35294527944E+03 -0.50500210847E+02  0.35862836346E+03  0.10566000000E+00 0. -1.
         -4    1    1    2    0  502  0.38697339257E+02  0.55861649713E+03 -0.76048810479E+03  0.94440035602E+03  0.00000000000E+00 0. -1.
</event>
<event>
 5    1  0.2540860E-005  0.3778690E+03  0.7818608E-02  0.1000548E+00
          4   -1    0    0  502    0 -0.00000000000E+00  0.00000000000E+00  0.11425920947E+04  0.11425920947E+04  0.00000000000E+00 0.  1.
         21   -1    0    0  501  502  0.00000000000E+00 -0.00000000000E+00 -0.36844430518E+03  0.36844430518E+03  0.00000000000E+00 0.  1.
        -13    1    1    2    0    0  0.29375518748E+03  0.18288514998E+03 -0.10230063271E+03  0.36083863273E+03  0.10566000000E+00 0.  1.
         13    1    1    2    0    0  0.12690700518E+03  0.13736898251E+03  0.38657870202E+03  0.42944001833E+03  0.10566000000E+00 0. -1.
          4    1    1    2  501    0 -0.42066219266E+03 -0.32025413249E+03  0.48986972020E+03  0.72075774882E+03  0.00000000000E+00 0.  1.
</event>
<event>
 5    1  0.2540860E-005  0.2326962E+03  0.7818608E-02  0.1039772E+00
         21   -1    0    0  501  502  0.00000000000E+00  0.00000000000E+00  0.26431466202E+03  0.26431466202E+03  0.00000000000E+00 0. -1.
          4   -1    0    0  502    0 -0.00000000000E+00 -0.00000000000E+00 -0.32330482758E+03  0.32330482758E+03  0.00000000000E+00 0.  1.
        -13    1    1    2    0    0 -0.22661655912E+03  0.37444227814E+02 -0.13949122920E+03  0.26872839309E+03  0.10566000000E+00 0.  1.
         13    1    1    2    0    0  0.23788679355E+03 -0.20632557179E+02  0.30083697062E+01  0.23879884928E+03  0.10566000000E+00 0. -1.
          4    1    1    2  501    0 -0.11270234436E+02 -0.16811670635E+02  0.77492693937E+02  0.80092247236E+02  0.00000000000E+00 0.  1.
</event>
<event>
 5    1  0.2540860E-005  0.2300746E+03  0.7818608E-02  0.1041269E+00
         21   -1    0    0  501  502  0.00000000000E+00  0.00000000000E+00  0.81517442285E+03  0.81517442285E+03  0.00000000000E+00 0.  1.
         -4   -1    0    0    0  501 -0.00000000000E+00 -0.00000000000E+00 -0.12588895723E+03  0.12588895723E+03  0.00000000000E+00 0. -1.
        -13    1    1    2    0    0  0.28077951627E+02  0.23409613448E+03  0.59722589753E+03  0.64208111278E+03  0.10566000000E+00 0.  1.
         13    1    1    2    0    0 -0.34446611427E+02 -0.22631920871E+03  0.23995341432E+02  0.23017980112E+03  0.10566000000E+00 0. -1.
         -4    1    1    2    0  502  0.63686597998E+01 -0.77769257746E+01  0.68064226657E+02  0.68802466181E+02  0.00000000000E+00 0. -1.
</event>
<event>
 5    1  0.3507690E-005  0.4972523E+03  0.7818608E-02  0.1012398E+00
         21   -1    0    0  501  502  0.00000000000E+00  0.00000000000E+00  0.22969821777E+03  0.22969821777E+03  0.00000000000E+00 0.  1.
          4   -1    0    0  502    0 -0.00000000000E+00 -0.00000000000E+00 -0.14127735845E+04  0.14127735845E+04  0.00000000000E+00 0.  1.
        -13    1    1    2    0    0 -0.48379864454E+03 -0.69328831425E+02 -0.38103095772E+03  0.61971946656E+03  0.10566000000E+00 0.  1.
         13    1    1    2    0    0 -0.24795885485E+02  0.50135898977E+02 -0.30941577940E+03  0.31443056469E+03  0.10566000000E+00 0. -1.
          4    1    1    2  501    0  0.50859453002E+03  0.19192932449E+02 -0.49262862964E+03  0.70832177107E+03  0.00000000000E+00 0.  1.
</event>
<event>
 5    1  0.2540860E-005  0.2222018E+03  0.7818608E-02  0.1054330E+00
         21   -1    0    0  501  502  0.00000000000E+00  0.00000000000E+00  0.18014925028E+03  0.18014925028E+03  0.00000000000E+00 0.  1.
          4   -1    0    0  502    0 -0.00000000000E+00 -0.00000000000E+00 -0.23140719885E+04  0.23140719885E+04  0.00000000000E+00 0.  1.
        -13    1    1    2    0    0 -0.10562818511E+03 -0.16868528929E+03  0.71860612956E+02  0.21160340066E+03  0.10566000000E+00 0.  1.
         13    1    1    2    0    0 -0.15919138215E+03  0.19520022796E+03 -0.54184230884E+03  0.59752667218E+03  0.10566000000E+00 0. -1.
          4    1    1    2  501    0  0.26481956726E+03 -0.26514938667E+02 -0.16639410423E+04  0.16850911659E+04  0.00000000000E+00 0.  1.
</event>
<event>
 5    1  0.2540860E-005  0.7522240E+02  0.7818608E-02  0.1213656E+00
         21   -1    0    0  501  502  0.00000000000E+00  0.00000000000E+00  0.31393220183E+03  0.31393220183E+03  0.00000000000E+00 0. -1.
          4   -1    0    0  502    0 -0.00000000000E+00 -0.00000000000E+00 -0.22064160082E+02  0.22064160082E+02  0.00000000000E+00 0.  1.
        -13    1    1    2    0    0  0.47148977323E+02 -0.65845554149E+02  0.16781899682E+03  0.18633810647E+03  0.10566000000E+00 0.  1.
         13    1    1    2    0    0 -0.36395081249E+02  0.61348268069E+02  0.11278173055E+03  0.13344640064E+03  0.10566000000E+00 0. -1.
          4    1    1    2  501    0 -0.10753896073E+02  0.44972860803E+01  0.11267314371E+02  0.16211854798E+02  0.00000000000E+00 0.  1.
</event>
<event>
 5    1  0.2540860E-005  0.4430965E+03  0.7818608E-02  0.9994026E-01
         -4   -1    0    0    0  501 -0.00000000000E+00  0.00000000000E+00  0.18080604842E+04  0.18080604842E+04  0.00000000000E+00 0. -1.
         21   -1    0    0  501  502  0.00000000000E+00 -0.00000000000E+00 -0.21471832458E+03  0.21471832458E+03  0.00000000000E+00 0. -1.
        -13    1    1    2    0    0  0.11192283568E+03 -0.44445655032E+02  0.52376976085E+03  0.53743549468E+03  0.10566000000E+00 0.  1.
         13    1    1    2    0    0 -0.14840852430E+03 -0.40504112309E+03  0.90984512055E+03  0.10069267878E+04  0.10566000000E+00 0. -1.
         -4    1    1    2    0  502  0.36485688619E+02  0.44948677812E+03  0.15972727819E+03  0.47841652624E+03  0.00000000000E+00 0. -1.
</event>
<event>
 5    1  0.2540860E-005  0.4862780E+03  0.7818608E-02  0.9610315E-01
         21   -1    0    0  501  502  0.00000000000E+00  0.00000000000E+00  0.41232473198E+03  0.41232473198E+03  0.00000000000E+00 0. -1.
         -4   -1    0    0    0  501 -0.00000000000E+00 -0.00000000000E+00 -0.14080392384E+04  0.14080392384E+04  0.00000000000E+00 0. -1.
        -13    1    1    2    0    0  0.21269917800E+03  0.26209551466E+03 -0.64339917112E+03  0.72656555361E+03  0.10566000000E+00 0.  1.
         13    1    1    2    0    0  0.16877976897E+03  0.24636612728E+03 -0.34740985587E+03  0.45812279818E+03  0.10566000000E+00 0. -1.
         -4    1    1    2    0  502 -0.38147894697E+03 -0.50846164195E+03 -0.49054794005E+01  0.63567561857E+03  0.00000000000E+00 0. -1.
</event>
<event>
 5    1  0.2540860E-005  0.3543022E+03  0.7818608E-02  0.9971617E-01
          4   -1    0    0  502    0 -0.00000000000E+00  0.00000000000E+00  0.55654061962E+03  0.55654061962E+03  0.00000000000E+00 0.  1.
         21   -1    0    0  501  502  0.00000000000E+00 -0.00000000000E+00 -0.12341134492E+04  0.12341134492E+04  0.00000000000E+00 0.  1.
        -13    1    1    2    0    0  0.30808880395E+03  0.18558950895E+03 -0.96195522653E+03  0.10269956407E+04  0.10566000000E+00 0.  1.
         13    1    1    2    0    0  0.84080875326E+02 -0.23922405516E+03  0.26587431628E+03  0.36740564147E+03  0.10566000000E+00 0. -1.
          4    1    1    2  501    0 -0.39216967927E+03  0.53634546204E+02  0.18508080686E+02  0.39625278666E+03  0.00000000000E+00 0.  1.
</event>
<event>
 5    1  0.2540860E-005  0.5266320E+03  0.7818608E-02  0.9606437E-01
         -4   -1    0    0    0  501 -0.00000000000E+00  0.00000000000E+00  0.12379761305E+04  0.12379761305E+04  0.00000000000E+00 0. -1.
         21   -1    0    0  501  502  0.00000000000E+00 -0.00000000000E+00 -0.46242408724E+03  0.46242408724E+03  0.00000000000E+00 0. -1.
        -13    1    1    2    0    0 -0.13603898730E+03 -0.23256041204E+03  0.47975247323E+03  0.55023031364E+03  0.10566000000E+00 0.  1.
         13    1    1    2    0    0  0.26053539594E+03 -0.39284935828E+03  0.88388776428E+02  0.47960598183E+03  0.10566000000E+00 0. -1.
         -4    1    1    2    0  502 -0.12449640864E+03  0.62540977033E+03  0.20741079364E+03  0.67056392231E+03  0.00000000000E+00 0. -1.
</event>
<event>
 5    1  0.2540860E-005  0.2051271E+03  0.7818608E-02  0.1056677E+00
         21   -1    0    0  501  502  0.00000000000E+00  0.00000000000E+00  0.12416197191E+03  0.12416197191E+03  0.00000000000E+00 0.  1.
          4   -1    0    0  502    0 -0.00000000000E+00 -0.00000000000E+00 -0.10091846997E+04  0.10091846997E+04  0.00000000000E+00 0.  1.
        -13    1    1    2    0    0 -0.10482675694E+03  0.24772280200E+03 -0.31307921596E+03  0.41276366390E+03  0.10566000000E+00 0.  1.
         13    1    1    2    0    0  0.10513196665E+03 -0.15548019403E+03 -0.59633145895E+03  0.62517040976E+03  0.10566000000E+00 0. -1.
          4    1    1    2  501    0 -0.30520970815E+00 -0.92242607974E+02  0.24387947143E+02  0.95412597935E+02  0.00000000000E+00 0.  1.
</event>
<event>
 5    1  0.2540860E-005  0.2524301E+03  0.7818608E-02  0.1029141E+00
         21   -1    0    0  501  502  0.00000000000E+00  0.00000000000E+00  0.18089883973E+03  0.18089883973E+03  0.00000000000E+00 0.  1.
         -4   -1    0    0    0  501 -0.00000000000E+00 -0.00000000000E+00 -0.53404454741E+03  0.53404454741E+03  0.00000000000E+00 0. -1.
        -13    1    1    2    0    0 -0.12642043685E+03  0.24661728506E+03 -0.26057605247E+03  0.38039729550E+03  0.10566000000E+00 0.  1.
         13    1    1    2    0    0  0.16134319312E+03 -0.15648356640E+03 -0.61823484992E+02  0.23311131886E+03  0.10566000000E+00 0. -1.
         -4    1    1    2    0  502 -0.34922756277E+02 -0.90133718663E+02 -0.30746170218E+02  0.10143477278E+03  0.00000000000E+00 0. -1.
</event>
<event>
 5    1  0.2540860E-005  0.1357070E+03  0.7818608E-02  0.1116131E+00
          4   -1    0    0  502    0 -0.00000000000E+00  0.00000000000E+00  0.84119777219E+02  0.84119777219E+02  0.00000000000E+00 0.  1.
         21   -1    0    0  501  502  0.00000000000E+00 -0.00000000000E+00 -0.44186993328E+03  0.44186993328E+03  0.00000000000E+00 0. -1.
        -13    1    1    2    0    0  0.43682818913E+02 -0.12523276370E+03 -0.55525971959E+01  0.13274892192E+03  0.10566000000E+00 0.  1.
         13    1    1    2    0    0 -0.35963107534E+02  0.14680751910E+03 -0.31775609491E+03  0.35187318707E+03  0.10566000000E+00 0. -1.
          4    1    1    2  501    0 -0.77197113783E+01 -0.21574755408E+02 -0.34441463963E+02  0.41367601508E+02  0.00000000000E+00 0.  1.
</event>
<event>
 5    1  0.2540860E-005  0.8512251E+02  0.7818608E-02  0.1191835E+00
          4   -1    0    0  502    0 -0.00000000000E+00  0.00000000000E+00  0.45730550125E+03  0.45730550125E+03  0.00000000000E+00 0.  1.
         21   -1    0    0  501  502  0.00000000000E+00 -0.00000000000E+00 -0.66806175899E+02  0.66806175899E+02  0.00000000000E+00 0.  1.
        -13    1    1    2    0    0  0.83705104386E+02  0.16080303751E+02  0.38386029635E+03  0.39320968826E+03  0.10566000000E+00 0.  1.
         13    1    1    2    0    0 -0.85066564895E+02 -0.43101421321E+01  0.41018541191E+02  0.94537980060E+02  0.10566000000E+00 0. -1.
          4    1    1    2  501    0  0.13614605096E+01 -0.11770161619E+02 -0.34379512190E+02  0.36364008823E+02  0.00000000000E+00 0.  1.
</event>
<event>
 5    1  0.2540860E-005  0.2384572E+03  0.7818608E-02  0.1036554E+00
         21   -1    0    0  501  502  0.00000000000E+00  0.00000000000E+00  0.19894659626E+03  0.19894659626E+03  0.00000000000E+00 0.  1.
         -4   -1    0    0    0  501 -0.00000000000E+00 -0.00000000000E+00 -0.84270951975E+03  0.84270951975E+03  0.00000000000E+00 0. -1.
        -13    1    1    2    0    0  0.14194824713E+03 -0.27019704129E+03 -0.26898562462E+02  0.30639727448E+03  0.10566000000E+00 0.  1.
         13    1    1    2    0    0 -0.10140519404E+03  0.20496602636E+03 -0.61746726422E+03  0.65845267019E+03  0.10566000000E+00 0. -1.
         -4    1    1    2    0  502 -0.40543053095E+02  0.65231014929E+02  0.60290318932E+00  0.76806171335E+02  0.00000000000E+00 0. -1.
</event>
<event>
 5    1  0.3440463E-005  0.3390987E+03  0.7818608E-02  0.1003242E+00
         21   -1    0    0  501  502  0.00000000000E+00  0.00000000000E+00  0.29825629067E+03  0.29825629067E+03  0.00000000000E+00 0.  1.
          4   -1    0    0  502    0 -0.00000000000E+00 -0.00000000000E+00 -0.18065984641E+04  0.18065984641E+04  0.00000000000E+00 0.  1.
        -13    1    1    2    0    0 -0.21296219712E+03 -0.35092570005E+02 -0.78749796807E+03  0.81653992355E+03  0.10566000000E+00 0.  1.
         13    1    1    2    0    0 -0.32630896282E+02 -0.23473642770E+03 -0.86434618704E+03  0.89624790549E+03  0.10566000000E+00 0. -1.
          4    1    1    2  501    0  0.24559309340E+03  0.26982899770E+03  0.14350198166E+03  0.39206692575E+03  0.00000000000E+00 0.  1.
</event>
<event>
 5    1  0.2540860E-005  0.3815527E+03  0.7818608E-02  0.1014032E+00
          4   -1    0    0  502    0 -0.00000000000E+00  0.00000000000E+00  0.98910790935E+03  0.98910790935E+03  0.00000000000E+00 0.  1.
         21   -1    0    0  501  502  0.00000000000E+00 -0.00000000000E+00 -0.41902478635E+03  0.41902478635E+03  0.00000000000E+00 0.  1.
        -13    1    1    2    0    0  0.32128496829E+03 -0.21092994344E+03 -0.22715287888E+03  0.44644586843E+03  0.10566000000E+00 0.  1.
         13    1    1    2    0    0  0.48007086352E+02  0.10725519876E+03  0.36671309946E+03  0.38508033769E+03  0.10566000000E+00 0. -1.
          4    1    1    2  501    0 -0.36929205464E+03  0.10367474468E+03  0.43052290243E+03  0.57660648958E+03  0.00000000000E+00 0.  1.
</event>
<event>
 5    1  0.2540860E-005  0.4072541E+03  0.7818608E-02  0.9708327E-01
          4   -1    0    0  502    0 -0.00000000000E+00  0.00000000000E+00  0.14694931300E+04  0.14694931300E+04  0.00000000000E+00 0.  1.
         21   -1    0    0  501  502  0.00000000000E+00 -0.00000000000E+00 -0.19429826205E+03  0.19429826205E+03  0.00000000000E+00 0.  1.
        -13    1    1    2    0    0 -0.45106351596E+03  0.10260026180E+03  0.86230887904E+03  0.97855082811E+03  0.10566000000E+00 0.  1.
         13    1    1    2    0    0  0.33752684201E+03 -0.92139542805E+02  0.44567290899E+03  0.56660252153E+03  0.10566000000E+00 0. -1.
          4    1    1    2  501    0  0.11353667395E+03 -0.10460718999E+02 -0.32786920107E+02  0.11863804239E+03  0.00000000000E+00 0.  1.
</event>
<event>
 5    1  0.2540860E-005  0.3640424E+03  0.7818608E-02  0.9882622E-01
          4   -1    0    0  502    0 -0.00000000000E+00  0.00000000000E+00  0.82778707618E+03  0.82778707618E+03  0.00000000000E+00 0.  1.
         21   -1    0    0  501  502  0.00000000000E+00 -0.00000000000E+00 -0.65387520274E+03  0.65387520274E+03  0.00000000000E+00 0.  1.
        -13    1    1    2    0    0 -0.59864288444E+03 -0.19724676875E+03  0.16505684426E+03  0.65155457474E+03  0.10566000000E+00 0.  1.
         13    1    1    2    0    0  0.29727187424E+03  0.10206240027E+03  0.27446287016E+03  0.41727350625E+03  0.10566000000E+00 0. -1.
          4    1    1    2  501    0  0.30137101020E+03  0.95184368484E+02 -0.26560784098E+03  0.41283419793E+03  0.00000000000E+00 0.  1.
</event>
<event>
 5    1  0.2540860E-005  0.4553757E+03  0.7818608E-02  0.9728885E-01
         -4   -1    0    0    0  501 -0.00000000000E+00  0.00000000000E+00  0.17596208822E+04  0.17596208822E+04  0.00000000000E+00 0. -1.
         21   -1    0    0  501  502  0.00000000000E+00 -0.00000000000E+00 -0.24236485690E+03  0.24236485690E+03  0.00000000000E+00 0. -1.
        -13    1    1    2    0    0  0.19793608337E+03  0.18546919107E+03  0.30927455712E+03  0.41137364620E+03  0.10566000000E+00 0.  1.
         13    1    1    2    0    0 -0.46703963549E+03 -0.25559204072E+03  0.24094855671E+03  0.58438816769E+03  0.10566000000E+00 0. -1.
         -4    1    1    2    0  502  0.26910355211E+03  0.70122849653E+02  0.96703291145E+03  0.10062239252E+04  0.00000000000E+00 0. -1.
</event>
<event>
 5    1  0.2540860E-005  0.2882820E+03  0.7818608E-02  0.1012263E+00
         -4   -1    0    0    0  501 -0.00000000000E+00  0.00000000000E+00  0.21636378060E+03  0.21636378060E+03  0.00000000000E+00 0. -1.
         21   -1    0    0  501  502  0.00000000000E+00 -0.00000000000E+00 -0.77814944929E+03  0.77814944929E+03  0.00000000000E+00 0.  1.
        -13    1    1    2    0    0 -0.67482680710E+02 -0.25276166307E+03 -0.65133944508E+02  0.26960120995E+03  0.10566000000E+00 0.  1.
         13    1    1    2    0    0 -0.43124014730E+02  0.35931045757E+03 -0.27168790196E+03  0.45252404666E+03  0.10566000000E+00 0. -1.
         -4    1    1    2    0  502  0.11060669544E+03 -0.10654879449E+03 -0.22496382221E+03  0.27238797328E+03  0.00000000000E+00 0. -1.
</event>
<event>
 5    1  0.2540860E-005  0.3360389E+03  0.7818608E-02  0.9998894E-01
         21   -1    0    0  501  502  0.00000000000E+00  0.00000000000E+00  0.36664504059E+03  0.36664504059E+03  0.00000000000E+00 0. -1.
         -4   -1    0    0    0  501 -0.00000000000E+00 -0.00000000000E+00 -0.29250105486E+04  0.29250105486E+04  0.00000000000E+00 0. -1.
        -13    1    1    2    0    0 -0.24520095487E+03  0.11706355789E+03 -0.13672631485E+04  0.13939999689E+04  0.10566000000E+00 0.  1.
         13    1    1    2    0    0  0.14887810653E+03 -0.43619628914E+03 -0.14202338422E+04  0.14931497148E+04  0.10566000000E+00 0. -1.
         -4    1    1    2    0  502  0.96322848340E+02  0.31913273125E+03  0.22913148263E+03  0.40450590552E+03  0.00000000000E+00 0. -1.
</event>
<event>
 5    1  0.2540860E-005  0.1043424E+03  0.7818608E-02  0.1157564E+00
          4   -1    0    0  502    0 -0.00000000000E+00  0.00000000000E+00  0.26594245072E+03  0.26594245072E+03  0.00000000000E+00 0.  1.
         21   -1    0    0  501  502  0.00000000000E+00 -0.00000000000E+00 -0.17082930322E+03  0.17082930322E+03  0.00000000000E+00 0.  1.
        -13    1    1    2    0    0 -0.48460937390E+02 -0.91429108671E+02  0.17834454006E+03  0.20619051991E+03  0.10566000000E+00 0.  1.
         13    1    1    2    0    0  0.61398586488E+02  0.88071297781E+02  0.33980214174E+02  0.11260997307E+03  0.10566000000E+00 0. -1.
          4    1    1    2  501    0 -0.12937649099E+02  0.33578108896E+01 -0.11721160674E+03  0.11797126096E+03  0.00000000000E+00 0.  1.
</event>
<event>
 5    1  0.2540860E-005  0.1241238E+03  0.7818608E-02  0.1129858E+00
         21   -1    0    0  501  502  0.00000000000E+00  0.00000000000E+00  0.39225593246E+03  0.39225593246E+03  0.00000000000E+00 0. -1.
         -4   -1    0    0    0  501 -0.00000000000E+00 -0.00000000000E+00 -0.33574686607E+03  0.33574686607E+03  0.00000000000E+00 0. -1.
        -13    1    1    2    0    0  0.12704279823E+03  0.26019371265E+02  0.99150210948E+02  0.16324109703E+03  0.10566000000E+00 0.  1.
         13    1    1    2    0    0 -0.12371727058E+03 -0.33372068590E+01 -0.29054187400E+03  0.31580324840E+03  0.10566000000E+00 0. -1.
         -4    1    1    2    0  502 -0.33255276503E+01 -0.22682164406E+02  0.24790072943E+03  0.24895845310E+03  0.00000000000E+00 0. -1.
</event>
<event>
 5    1  0.2540860E-005  0.4841542E+03  0.7818608E-02  0.9857275E-01
         21   -1    0    0  501  502  0.00000000000E+00  0.00000000000E+00  0.55611545912E+03  0.55611545912E+03  0.00000000000E+00 0. -1.
         -4   -1    0    0    0  501 -0.00000000000E+00 -0.00000000000E+00 -0.80258168551E+03  0.80258168551E+03  0.00000000000E+00 0. -1.
        -13    1    1    2    0    0 -0.13771669994E+03  0.46996645849E+02 -0.34223608978E+03  0.37188724968E+03  0.10566000000E+00 0.  1.
         13    1    1    2    0    0  0.12672733933E+03  0.45595903249E+03 -0.72326637412E+01  0.47329777142E+03  0.10566000000E+00 0. -1.
         -4    1    1    2    0  502  0.10989360602E+02 -0.50295567834E+03  0.10300252712E+03  0.51351212353E+03  0.00000000000E+00 0. -1.
</event>
<event>
 5    1  0.2540860E-005  0.4522178E+03  0.7818608E-02  0.9809268E-01
         21   -1    0    0  501  502  0.00000000000E+00  0.00000000000E+00  0.31727483595E+03  0.31727483595E+03  0.00000000000E+00 0.  1.
          4   -1    0    0  502    0 -0.00000000000E+00 -0.00000000000E+00 -0.17250530562E+04  0.17250530562E+04  0.00000000000E+00 0.  1.
        -13    1    1    2    0    0 -0.40110959089E+03 -0.16566983336E+03 -0.51232402055E+02  0.43698989437E+03  0.10566000000E+00 0.  1.
         13    1    1    2    0    0 -0.12554824453E+03  0.16851803116E+03 -0.84644122187E+03  0.87213728379E+03  0.10566000000E+00 0. -1.
          4    1    1    2  501    0  0.52665783542E+03 -0.28481977913E+01 -0.51010459636E+03  0.73320071404E+03  0.00000000000E+00 0.  1.
</event>
<event>
 5    1  0.2540860E-005  0.1182664E+03  0.7818608E-02  0.1137437E+00
          4   -1    0    0  502    0 -0.00000000000E+00  0.00000000000E+00  0.13805066803E+03  0.13805066803E+03  0.00000000000E+00 0.  1.
         21   -1    0    0  501  502  0.00000000000E+00 -0.00000000000E+00 -0.26967046100E+03  0.26967046100E+03  0.00000000000E+00 0. -1.
        -13    1    1    2    0    0 -0.11640995062E+03  0.21107022490E+02  0.68044246850E+02  0.13648008534E+03  0.10566000000E+00 0.  1.
         13    1    1    2    0    0  0.12095481209E+03  0.10807406000E+02 -0.75574921427E+02  0.14303302593E+03  0.10566000000E+00 0. -1.
          4    1    1    2  501    0 -0.45448614732E+01 -0.31914428491E+02 -0.12408911840E+03  0.12820801776E+03  0.00000000000E+00 0.  1.
</event>
<event>
 5    1  0.2540860E-005  0.4720340E+03  0.7818608E-02  0.9541468E-01
          4   -1    0    0  502    0 -0.00000000000E+00  0.00000000000E+00  0.14206858454E+04  0.14206858454E+04  0.00000000000E+00 0.  1.
         21   -1    0    0  501  502  0.00000000000E+00 -0.00000000000E+00 -0.24751753344E+03  0.24751753344E+03  0.00000000000E+00 0.  1.
        -13    1    1    2    0    0 -0.18561464977E+03 -0.42180535691E+03  0.64091976503E+03  0.78939895725E+03  0.10566000000E+00 0.  1.
         13    1    1    2    0    0  0.16981500474E+03  0.45438337909E+03  0.61805002062E+03  0.78567628841E+03  0.10566000000E+00 0. -1.
          4    1    1    2  501    0  0.15799645031E+02 -0.32578022178E+02 -0.85801473662E+02  0.93128133208E+02  0.00000000000E+00 0.  1.
</event>
<event>
 5    1  0.2540860E-005  0.1116589E+03  0.7818608E-02  0.1148161E+00
         21   -1    0    0  501  502  0.00000000000E+00  0.00000000000E+00  0.35763695280E+03  0.35763695280E+03  0.00000000000E+00 0.  1.
          4   -1    0    0  502    0 -0.00000000000E+00 -0.00000000000E+00 -0.54233370335E+03  0.54233370335E+03  0.00000000000E+00 0.  1.
        -13    1    1    2    0    0 -0.62143480142E+02  0.11221428243E+03 -0.19010558879E+03  0.22933382515E+03  0.10566000000E+00 0.  1.
         13    1    1    2    0    0 -0.49675175243E+02 -0.95182136006E+02 -0.31397045072E+03  0.33182030851E+03  0.10566000000E+00 0. -1.
          4    1    1    2  501    0  0.11181865539E+03 -0.17032146426E+02  0.31937928895E+03  0.33881652249E+03  0.00000000000E+00 0.  1.
</event>
<event>
 5    1  0.2540860E-005  0.1011999E+03  0.7818608E-02  0.1162585E+00
         21   -1    0    0  501  502  0.00000000000E+00  0.00000000000E+00  0.11474814758E+03  0.11474814758E+03  0.00000000000E+00 0. -1.
          4   -1    0    0  502    0 -0.00000000000E+00 -0.00000000000E+00 -0.26746607881E+03  0.26746607881E+03  0.00000000000E+00 0.  1.
        -13    1    1    2    0    0 -0.43445184248E+02 -0.91887840698E+02 -0.20745670495E+03  0.23101765061E+03  0.10566000000E+00 0.  1.
         13    1    1    2    0    0  0.74588060125E+02  0.72471476302E+02  0.44310856897E+02  0.11304404802E+03  0.10566000000E+00 0. -1.
          4    1    1    2  501    0 -0.31142875877E+02  0.19416364396E+02  0.10427916819E+02  0.38152527747E+02  0.00000000000E+00 0.  1.
</event>
<event>
 5    1  0.2540860E-005  0.4522967E+03  0.7818608E-02  0.1005584E+00
         21   -1    0    0  501  502  0.00000000000E+00  0.00000000000E+00  0.20952135946E+03  0.20952135946E+03  0.00000000000E+00 0.  1.
          4   -1    0    0  502    0 -0.00000000000E+00 -0.00000000000E+00 -0.16873940406E+04  0.16873940406E+04  0.00000000000E+00 0.  1.
        -13    1    1    2    0    0  0.28746019757E+03 -0.35122374561E+03 -0.24019872845E+03  0.51350455205E+03  0.10566000000E+00 0.  1.
         13    1    1    2    0    0  0.66406330978E+02  0.64473162295E+02 -0.55552417089E+03  0.56318176911E+03  0.10566000000E+00 0. -1.
          4    1    1    2  501    0 -0.35386652854E+03  0.28675058332E+03 -0.68214978178E+03  0.82022907888E+03  0.00000000000E+00 0.  1.
</event>
<event>
 5    1  0.2540860E-005  0.4652924E+03  0.7818608E-02  0.9965729E-01
         21   -1    0    0  501  502  0.00000000000E+00  0.00000000000E+00  0.17542232186E+03  0.17542232186E+03  0.00000000000E+00 0. -1.
         -4   -1    0    0    0  501 -0.00000000000E+00 -0.00000000000E+00 -0.19440561228E+04  0.19440561228E+04  0.00000000000E+00 0. -1.
        -13    1    1    2    0    0  0.11318642443E+03  0.14802021715E+02 -0.40537741954E+03  0.42114264799E+03  0.10566000000E+00 0.  1.
         13    1    1    2    0    0  0.36297017131E+03 -0.24558481886E+03 -0.37263828718E+03  0.57525520663E+03  0.10566000000E+00 0. -1.
         -4    1    1    2    0  502 -0.47615659574E+03  0.23078279715E+03 -0.99061809426E+03  0.11230805901E+04  0.00000000000E+00 0. -1.
</event>
<event>
 5    1  0.2540860E-005  0.1218457E+03  0.7818608E-02  0.1132750E+00
          4   -1    0    0  502    0 -0.00000000000E+00  0.00000000000E+00  0.45185554737E+03  0.45185554737E+03  0.00000000000E+00 0.  1.
         21   -1    0    0  501  502  0.00000000000E+00 -0.00000000000E+00 -0.82411661854E+02  0.82411661854E+02  0.00000000000E+00 0.  1.
        -13    1    1    2    0    0  0.47132949314E+01 -0.12859718704E+03  0.15738762794E+03  0.20329861843E+03  0.10566000000E+00 0.  1.
         13    1    1    2    0    0 -0.38384749847E+01  0.11795480085E+03  0.25804724291E+03  0.28375422406E+03  0.10566000000E+00 0. -1.
          4    1    1    2  501    0 -0.87481994668E+00  0.10642386192E+02 -0.45990985336E+02  0.47214366732E+02  0.00000000000E+00 0.  1.
</event>
<event>
 5    1  0.2540860E-005  0.5420633E+02  0.7818608E-02  0.1275550E+00
         21   -1    0    0  501  502  0.00000000000E+00  0.00000000000E+00  0.31964611583E+02  0.31964611583E+02  0.00000000000E+00 0.  1.
         -4   -1    0    0    0  501 -0.00000000000E+00 -0.00000000000E+00 -0.40268218510E+03  0.40268218510E+03  0.00000000000E+00 0. -1.
        -13    1    1    2    0    0  0.52319799038E+02 -0.38955631652E+02 -0.49353938531E+02  0.81796852148E+02  0.10566000000E+00 0.  1.
         13    1    1    2    0    0 -0.54344279558E+02 -0.15839826948E+01 -0.30379385574E+03  0.30862036173E+03  0.10566000000E+00 0. -1.
         -4    1    1    2    0  502  0.20244805199E+01  0.40539614347E+02 -0.17569779245E+02  0.44229582810E+02  0.00000000000E+00 0. -1.
</event>
<event>
 5    1  0.2540860E-005  0.4971431E+03  0.7818608E-02  0.9795748E-01
         21   -1    0    0  501  502  0.00000000000E+00  0.00000000000E+00  0.13267334644E+03  0.13267334644E+03  0.00000000000E+00 0.  1.
          4   -1    0    0  502    0 -0.00000000000E+00 -0.00000000000E+00 -0.27312577256E+04  0.27312577256E+04  0.00000000000E+00 0.  1.
        -13    1    1    2    0    0  0.16156720929E+03  0.36747632991E+03 -0.13930604022E+04  0.14497448436E+04  0.10566000000E+00 0.  1.
         13    1    1    2    0    0  0.15484882901E+01  0.16562801057E+03 -0.41516885505E+03  0.44699018454E+03  0.10566000000E+00 0. -1.
          4    1    1    2  501    0 -0.16311569758E+03 -0.53310434048E+03 -0.79035512190E+03  0.96719604391E+03  0.00000000000E+00 0.  1.
</event>
<event>
 5    1  0.2540860E-005  0.4284551E+03  0.7818608E-02  0.9956135E-01
          4   -1    0    0  502    0 -0.00000000000E+00  0.00000000000E+00  0.43132688146E+03  0.43132688146E+03  0.00000000000E+00 0.  1.
         21   -1    0    0  501  502  0.00000000000E+00 -0.00000000000E+00 -0.10645607597E+04  0.10645607597E+04  0.00000000000E+00 0.  1.
        -13    1    1    2    0    0 -0.40004803986E+03  0.23281851749E+03 -0.83828890293E+03  0.95758612783E+03  0.10566000000E+00 0.  1.
         13    1    1    2    0    0  0.10369990046E+03 -0.10963028853E+03  0.14982789914E+03  0.21265201632E+03  0.10566000000E+00 0. -1.
          4    1    1    2  501    0  0.29634813940E+03 -0.12318822895E+03  0.55227125588E+02  0.32564949697E+03  0.00000000000E+00 0.  1.
</event>
<event>
 5    1  0.2540860E-005  0.8574209E+02  0.7818608E-02  0.1190579E+00
         21   -1    0    0  501  502  0.00000000000E+00  0.00000000000E+00  0.74417826343E+03  0.74417826343E+03  0.00000000000E+00 0. -1.
          4   -1    0    0  502    0 -0.00000000000E+00 -0.00000000000E+00 -0.56837823334E+02  0.56837823334E+02  0.00000000000E+00 0.  1.
        -13    1    1    2    0    0  0.37583644268E+02 -0.76602190624E+02 -0.18266366137E+02  0.87258794518E+02  0.10566000000E+00 0.  1.
         13    1    1    2    0    0 -0.47165524232E+02  0.79704795029E+02  0.54322042581E+03  0.55105887454E+03  0.10566000000E+00 0. -1.
          4    1    1    2  501    0  0.95818799646E+01 -0.31026044049E+01  0.16238638043E+03  0.16269841771E+03  0.00000000000E+00 0.  1.
</event>
<event>
 5    1  0.2540860E-005  0.1551223E+03  0.7818608E-02  0.1096167E+00
          4   -1    0    0  502    0 -0.00000000000E+00  0.00000000000E+00  0.75628928074E+03  0.75628928074E+03  0.00000000000E+00 0.  1.
         21   -1    0    0  501  502  0.00000000000E+00 -0.00000000000E+00 -0.58059716898E+02  0.58059716898E+02  0.00000000000E+00 0. -1.
        -13    1    1    2    0    0 -0.12012589901E+03  0.90299482681E+02  0.51413165857E+03  0.53564503330E+03  0.10566000000E+00 0.  1.
         13    1    1    2    0    0  0.14639630424E+03 -0.87943695755E+02  0.18568628713E+03  0.25228035974E+03  0.10566000000E+00 0. -1.
          4    1    1    2  501    0 -0.26270405236E+02 -0.23557869257E+01 -0.15883818556E+01  0.26423604604E+02  0.00000000000E+00 0.  1.
</event>
<event>
 5    1  0.2540860E-005  0.4265690E+03  0.7818608E-02  0.9760215E-01
         21   -1    0    0  501  502  0.00000000000E+00  0.00000000000E+00  0.30965013973E+03  0.30965013973E+03  0.00000000000E+00 0.  1.
          4   -1    0    0  502    0 -0.00000000000E+00 -0.00000000000E+00 -0.17056040446E+04  0.17056040446E+04  0.00000000000E+00 0.  1.
        -13    1    1    2    0    0  0.48446989291E+03 -0.90060772104E+02 -0.64794095317E+03  0.81403286774E+03  0.10566000000E+00 0.  1.
         13    1    1    2    0    0 -0.99635897540E+02  0.27891031504E+03 -0.71187349602E+03  0.77102669306E+03  0.10566000000E+00 0. -1.
          4    1    1    2  501    0 -0.38483399537E+03 -0.18884954294E+03 -0.36139455694E+02  0.43019462353E+03  0.00000000000E+00 0.  1.
</event>
<event>
 5    1  0.2540860E-005  0.2745309E+03  0.7818608E-02  0.1036260E+00
         21   -1    0    0  501  502  0.00000000000E+00  0.00000000000E+00  0.18698613588E+04  0.18698613588E+04  0.00000000000E+00 0. -1.
         -4   -1    0    0    0  501 -0.00000000000E+00 -0.00000000000E+00 -0.22053945065E+03  0.22053945065E+03  0.00000000000E+00 0. -1.
        -13    1    1    2    0    0 -0.89218415058E+02 -0.13000610637E+03 -0.19185087698E+02  0.15883825746E+03  0.10566000000E+00 0.  1.
         13    1    1    2    0    0 -0.16599681600E+03  0.23773656336E+03  0.55848815555E+02  0.29528413070E+03  0.10566000000E+00 0. -1.
         -4    1    1    2    0  502  0.25521523106E+03 -0.10773045698E+03  0.16126581803E+04  0.16362784213E+04  0.00000000000E+00 0. -1.
</event>
<event>
 5    1  0.2540860E-005  0.2169555E+03  0.7818608E-02  0.1049095E+00
         21   -1    0    0  501  502  0.00000000000E+00  0.00000000000E+00  0.16103547626E+04  0.16103547626E+04  0.00000000000E+00 0. -1.
         -4   -1    0    0    0  501 -0.00000000000E+00 -0.00000000000E+00 -0.73721573478E+02  0.73721573478E+02  0.00000000000E+00 0. -1.
        -13    1    1    2    0    0  0.98459193648E+01 -0.15561680704E+03  0.76192014778E+03  0.77771193608E+03  0.10566000000E+00 0.  1.
         13    1    1    2    0    0  0.68201195839E+02  0.22769177602E+03  0.16958803878E+03  0.29198469487E+03  0.10566000000E+00 0. -1.
         -4    1    1    2    0  502 -0.78047115204E+02 -0.72074968972E+02  0.60512500261E+03  0.61437970518E+03  0.00000000000E+00 0. -1.
</event>
<event>
 5    1  0.2540860E-005  0.3123509E+03  0.7818608E-02  0.1005413E+00
         21   -1    0    0  501  502  0.00000000000E+00  0.00000000000E+00  0.35526567042E+03  0.35526567042E+03  0.00000000000E+00 0. -1.
         -4   -1    0    0    0  501 -0.00000000000E+00 -0.00000000000E+00 -0.18797846341E+04  0.18797846341E+04  0.00000000000E+00 0. -1.
        -13    1    1    2    0    0  0.26823190532E+03  0.88940223707E+02 -0.10296877762E+04  0.10677619801E+04  0.10566000000E+00 0.  1.
         13    1    1    2    0    0 -0.30177555713E+03  0.22659455861E+03 -0.69589743617E+03  0.79163554348E+03  0.10566000000E+00 0. -1.
         -4    1    1    2    0  502  0.33543651813E+02 -0.31553478232E+03  0.20106624875E+03  0.37565278093E+03  0.00000000000E+00 0. -1.
</event>
<event>
 5    1  0.2540860E-005  0.4844919E+03  0.7818608E-02  0.1001829E+00
         21   -1    0    0  501  502  0.00000000000E+00  0.00000000000E+00  0.33805252195E+03  0.33805252195E+03  0.00000000000E+00 0.  1.
          4   -1    0    0  502    0 -0.00000000000E+00 -0.00000000000E+00 -0.96210327845E+03  0.96210327845E+03  0.00000000000E+00 0.  1.
        -13    1    1    2    0    0 -0.29889379154E+03  0.44039449230E+03 -0.32009990331E+03  0.62108676264E+03  0.10566000000E+00 0.  1.
         13    1    1    2    0    0  0.15620136377E+02 -0.83639083432E+02 -0.19194725705E+03  0.20996010476E+03  0.10566000000E+00 0. -1.
          4    1    1    2  501    0  0.28327365517E+03 -0.35675540886E+03 -0.11200359614E+03  0.46910893299E+03  0.00000000000E+00 0.  1.
</event>
<event>
 5    1  0.2540860E-005  0.4034407E+03  0.7818608E-02  0.9883184E-01
         21   -1    0    0  501  502  0.00000000000E+00  0.00000000000E+00  0.48971230992E+03  0.48971230992E+03  0.00000000000E+00 0. -1.
          4   -1    0    0  502    0 -0.00000000000E+00 -0.00000000000E+00 -0.91303519131E+03  0.91303519131E+03  0.00000000000E+00 0.  1.
        -13    1    1    2    0    0 -0.21716982622E+03 -0.89083783498E+02 -0.64360640576E+03  0.68507508392E+03  0.10566000000E+00 0.  1.
         13    1    1    2    0    0 -0.22855234753E+03  0.29803392640E+02  0.10620810748E+03  0.25378059625E+03  0.10566000000E+00 0. -1.
          4    1    1    2  501    0  0.44572217374E+03  0.59280390859E+02  0.11407541689E+03  0.46389182106E+03  0.00000000000E+00 0.  1.
</event>
<event>
 5    1  0.2540860E-005  0.2442392E+03  0.7818608E-02  0.1034114E+00
         21   -1    0    0  501  502  0.00000000000E+00  0.00000000000E+00  0.18172432772E+03  0.18172432772E+03  0.00000000000E+00 0. -1.
         -4   -1    0    0    0  501 -0.00000000000E+00 -0.00000000000E+00 -0.21641322765E+04  0.21641322765E+04  0.00000000000E+00 0. -1.
        -13    1    1    2    0    0  0.23843562776E+03 -0.17950458659E+02 -0.42903628125E+03  0.49116790341E+03  0.10566000000E+00 0.  1.
         13    1    1    2    0    0  0.79787141453E+02  0.22598132647E+03  0.15745613247E+02  0.24016969700E+03  0.10566000000E+00 0. -1.
         -4    1    1    2    0  502 -0.31822276921E+03 -0.20803086781E+03 -0.15691172807E+04  0.16145190038E+04  0.00000000000E+00 0. -1.
</event>
<event>
 5    1  0.2540860E-005  0.3550554E+03  0.7818608E-02  0.1058974E+00
         -4   -1    0    0    0  501 -0.00000000000E+00  0.00000000000E+00  0.52233946411E+03  0.52233946411E+03  0.00000000000E+00 0. -1.
         21   -1    0    0  501  502  0.00000000000E+00 -0.00000000000E+00 -0.72395557074E+03  0.72395557074E+03  0.00000000000E+00 0. -1.
        -13    1    1    2    0    0 -0.81733905972E+01 -0.36065493228E+02  0.17692767636E+03  0.18075103857E+03  0.10566000000E+00 0.  1.
         13    1    1    2    0    0 -0.34406979237E+03 -0.77289840512E+02 -0.55345416219E+03  0.65625396173E+03  0.10566000000E+00 0. -1.
         -4    1    1    2    0  502  0.35224318297E+03  0.11335533374E+03  0.17491037921E+03  0.40929003456E+03  0.00000000000E+00 0. -1.
</event>
<event>
 5    1  0.2540860E-005  0.2781300E+03  0.7818608E-02  0.1016765E+00
         21   -1    0    0  501  502  0.00000000000E+00  0.00000000000E+00  0.16713120492E+03  0.16713120492E+03  0.00000000000E+00 0.  1.
          4   -1    0    0  502    0 -0.00000000000E+00 -0.00000000000E+00 -0.27436174889E+04  0.27436174889E+04  0.00000000000E+00 0.  1.
        -13    1    1    2    0    0 -0.76350819846E+02 -0.26380635300E+03  0.59620887957E+01  0.27469764695E+03  0.10566000000E+00 0.  1.
         13    1    1    2    0    0 -0.91159375193E+02  0.27068695581E+03 -0.87604403900E+03  0.92143075115E+03  0.10566000000E+00 0. -1.
          4    1    1    2  501    0  0.16751019504E+03 -0.68806028089E+01 -0.17064043337E+04  0.17146202957E+04  0.00000000000E+00 0.  1.
</event>
<event>
 5    1  0.2540860E-005  0.4472067E+03  0.7818608E-02  0.1047403E+00
         -4   -1    0    0    0  501 -0.00000000000E+00  0.00000000000E+00  0.13051742576E+04  0.13051742576E+04  0.00000000000E+00 0. -1.
         21   -1    0    0  501  502  0.00000000000E+00 -0.00000000000E+00 -0.21027982241E+03  0.21027982241E+03  0.00000000000E+00 0. -1.
        -13    1    1    2    0    0 -0.20894109694E+02  0.15564377132E+02  0.11866042440E+03  0.12148712334E+03  0.10566000000E+00 0.  1.
         13    1    1    2    0    0  0.34628113351E+03  0.28565368577E+03  0.18209347077E+03  0.48442408577E+03  0.10566000000E+00 0. -1.
         -4    1    1    2    0  502 -0.32538702381E+03 -0.30121806290E+03  0.79414053999E+03  0.90954287086E+03  0.00000000000E+00 0. -1.
</event>
<event>
 5    1  0.2540860E-005  0.2123847E+03  0.7818608E-02  0.1051962E+00
         21   -1    0    0  501  502  0.00000000000E+00  0.00000000000E+00  0.96281894098E+02  0.96281894098E+02  0.00000000000E+00 0.  1.
          4   -1    0    0  502    0 -0.00000000000E+00 -0.00000000000E+00 -0.10230901233E+04  0.10230901233E+04  0.00000000000E+00 0.  1.
        -13    1    1    2    0    0  0.54823987067E+02  0.23028741797E+03 -0.75240950401E+03  0.78876995209E+03  0.10566000000E+00 0.  1.
         13    1    1    2    0    0 -0.66548890250E+02 -0.15681297976E+03 -0.18936046898E+03  0.25470858602E+03  0.10566000000E+00 0. -1.
          4    1    1    2  501    0  0.11724903183E+02 -0.73474438210E+02  0.14961743772E+02  0.75893479309E+02  0.00000000000E+00 0.  1.
</event>
<event>
 5    1  0.2540860E-005  0.4210867E+03  0.7818608E-02  0.9670048E-01
          4   -1    0    0  502    0 -0.00000000000E+00  0.00000000000E+00  0.12733693572E+04  0.12733693572E+04  0.00000000000E+00 0.  1.
         21   -1    0    0  501  502  0.00000000000E+00 -0.00000000000E+00 -0.37275778703E+03  0.37275778703E+03  0.00000000000E+00 0.  1.
        -13    1    1    2    0    0 -0.34212013514E+02 -0.48661016013E+03  0.94934942397E+03  0.10673444850E+04  0.10566000000E+00 0.  1.
         13    1    1    2    0    0 -0.34594692242E+02  0.30280764649E+03  0.11240435500E+03  0.32484459929E+03  0.10566000000E+00 0. -1.
          4    1    1    2  501    0  0.68806705756E+02  0.18380251364E+03 -0.16114220883E+03  0.25393805986E+03  0.00000000000E+00 0.  1.
</event>
<event>
 5    1  0.2540860E-005  0.3398147E+03  0.7818608E-02  0.1031341E+00
         -4   -1    0    0    0  501 -0.00000000000E+00  0.00000000000E+00  0.16631525923E+04  0.16631525923E+04  0.00000000000E+00 0. -1.
         21   -1    0    0  501  502  0.00000000000E+00 -0.00000000000E+00 -0.17919198295E+03  0.17919198295E+03  0.00000000000E+00 0. -1.
        -13    1    1    2    0    0 -0.73295694321E+02  0.63045061979E+02  0.38405416613E+03  0.39603604929E+03  0.10566000000E+00 0.  1.
         13    1    1    2    0    0  0.37442797951E+02 -0.39209084556E+03  0.10371451536E+04  0.11094175387E+04  0.10566000000E+00 0. -1.
         -4    1    1    2    0  502  0.35852896370E+02  0.32904578358E+03  0.62761289665E+02  0.33689098734E+03  0.00000000000E+00 0. -1.
</event>
<event>
 5    1  0.2540860E-005  0.8676371E+03  0.7818608E-02  0.8920842E-01
         -4   -1    0    0    0  501 -0.00000000000E+00  0.00000000000E+00  0.19664448875E+04  0.19664448875E+04  0.00000000000E+00 0. -1.
         21   -1    0    0  501  502  0.00000000000E+00 -0.00000000000E+00 -0.97980251783E+03  0.97980251783E+03  0.00000000000E+00 0. -1.
        -13    1    1    2    0    0  0.47595839917E+03  0.67964664914E+03  0.42941827939E+03  0.93426764648E+03  0.10566000000E+00 0.  1.
         13    1    1    2    0    0 -0.31537276361E+02  0.45804474780E+03  0.64012464888E+03  0.78775577945E+03  0.10566000000E+00 0. -1.
         -4    1    1    2    0  502 -0.44442112281E+03 -0.11376913969E+04 -0.82900558611E+02  0.12242239794E+04  0.00000000000E+00 0. -1.
</event>
<event>
 5    1  0.2540860E-005  0.1978995E+03  0.7818608E-02  0.1061585E+00
         -4   -1    0    0    0  501 -0.00000000000E+00  0.00000000000E+00  0.37536935962E+03  0.37536935962E+03  0.00000000000E+00 0. -1.
         21   -1    0    0  501  502  0.00000000000E+00 -0.00000000000E+00 -0.11305309892E+04  0.11305309892E+04  0.00000000000E+00 0. -1.
        -13    1    1    2    0    0  0.74199394813E+02  0.16576246665E+03 -0.61716257929E+03  0.64332915834E+03  0.10566000000E+00 0.  1.
         13    1    1    2    0    0 -0.75038633959E+02 -0.18388619113E+03  0.33487956118E+03  0.38934465392E+03  0.10566000000E+00 0. -1.
         -4    1    1    2    0  502  0.83923914571E+00  0.18123724480E+02 -0.47287861147E+03  0.47322653655E+03  0.00000000000E+00 0. -1.
</event>
<event>
 5    1  0.2540860E-005  0.4442692E+03  0.7818608E-02  0.9949687E-01
         21   -1    0    0  501  502  0.00000000000E+00  0.00000000000E+00  0.16636219169E+03  0.16636219169E+03  0.00000000000E+00 0. -1.
         -4   -1    0    0    0  501 -0.00000000000E+00 -0.00000000000E+00 -0.21252815673E+04  0.21252815673E+04  0.00000000000E+00 0. -1.
        -13    1    1    2    0    0 -0.15306720898E+02  0.13742692119E+03 -0.32444711852E+03  0.35268455913E+03  0.10566000000E+00 0.  1.
         13    1    1    2    0    0  0.30189283891E+03  0.29578214196E+03 -0.33430577613E+03  0.53887542606E+03  0.10566000000E+00 0. -1.
         -4    1    1    2    0  502 -0.28658611802E+03 -0.43320906314E+03 -0.13001664809E+04  0.14000837738E+04  0.00000000000E+00 0. -1.
</event>
<event>
 5    1  0.2540860E-005  0.5553460E+02  0.7818608E-02  0.1270760E+00
         21   -1    0    0  501  502  0.00000000000E+00  0.00000000000E+00  0.94706496988E+02  0.94706496988E+02  0.00000000000E+00 0.  1.
         -4   -1    0    0    0  501 -0.00000000000E+00 -0.00000000000E+00 -0.75116655525E+02  0.75116655525E+02  0.00000000000E+00 0. -1.
        -13    1    1    2    0    0 -0.33320272068E+02  0.35327885538E+02  0.19364328379E+02  0.52280860789E+02  0.10566000000E+00 0.  1.
         13    1    1    2    0    0  0.28011655271E+02 -0.51971879236E+02 -0.41593918395E+02  0.72220456062E+02  0.10566000000E+00 0. -1.
         -4    1    1    2    0  502  0.53086167973E+01  0.16643993698E+02  0.41819431479E+02  0.45321835662E+02  0.00000000000E+00 0. -1.
</event>
<event>
 5    1  0.2540860E-005  0.3049749E+03  0.7818608E-02  0.1005273E+00
         -4   -1    0    0    0  501 -0.00000000000E+00  0.00000000000E+00  0.23810285257E+03  0.23810285257E+03  0.00000000000E+00 0. -1.
         21   -1    0    0  501  502  0.00000000000E+00 -0.00000000000E+00 -0.86386289480E+03  0.86386289480E+03  0.00000000000E+00 0.  1.
        -13    1    1    2    0    0  0.14902595151E+03 -0.26523094207E+03  0.79945086124E+02  0.31455908000E+03  0.10566000000E+00 0.  1.
         13    1    1    2    0    0 -0.12962420708E+03  0.28118738165E+03 -0.56315762538E+03  0.64266266489E+03  0.10566000000E+00 0. -1.
         -4    1    1    2    0  502 -0.19401744424E+02 -0.15956439577E+02 -0.14254750297E+03  0.14474400248E+03  0.00000000000E+00 0. -1.
</event>
<event>
 5    1  0.2540860E-005  0.1255283E+03  0.7818608E-02  0.1128109E+00
          4   -1    0    0  502    0 -0.00000000000E+00  0.00000000000E+00  0.24349334501E+03  0.24349334501E+03  0.00000000000E+00 0.  1.
         21   -1    0    0  501  502  0.00000000000E+00 -0.00000000000E+00 -0.10113423571E+04  0.10113423571E+04  0.00000000000E+00 0.  1.
        -13    1    1    2    0    0 -0.10934727201E+03 -0.59881992224E+02  0.20823669233E+03  0.24270395564E+03  0.10566000000E+00 0.  1.
         13    1    1    2    0    0  0.11898529386E+03  0.71981989562E+02 -0.25154702741E+03  0.28742794774E+03  0.10566000000E+00 0. -1.
          4    1    1    2  501    0 -0.96380218591E+01 -0.12099997338E+02 -0.72453867700E+03  0.72470379871E+03  0.00000000000E+00 0.  1.
</event>
<event>
 5    1  0.2540860E-005  0.3820227E+02  0.7818608E-02  0.1349013E+00
         -4   -1    0    0    0  501 -0.00000000000E+00  0.00000000000E+00  0.87416022804E+02  0.87416022804E+02  0.00000000000E+00 0. -1.
         21   -1    0    0  501  502  0.00000000000E+00 -0.00000000000E+00 -0.43979404088E+02  0.43979404088E+02  0.00000000000E+00 0.  1.
        -13    1    1    2    0    0  0.17549220798E+02  0.25802820746E+02 -0.27964232207E+02  0.41901911126E+02  0.10566000000E+00 0.  1.
         13    1    1    2    0    0 -0.27717620204E+02 -0.27903932645E+02  0.68022374241E+02  0.78574490060E+02  0.10566000000E+00 0. -1.
         -4    1    1    2    0  502  0.10168399406E+02  0.21011118995E+01  0.33784766821E+01  0.10919025707E+02  0.00000000000E+00 0. -1.
</event>
<event>
 5    1  0.2540860E-005  0.4809936E+03  0.7818608E-02  0.9676037E-01
         -4   -1    0    0    0  501 -0.00000000000E+00  0.00000000000E+00  0.70166369327E+03  0.70166369327E+03  0.00000000000E+00 0. -1.
         21   -1    0    0  501  502  0.00000000000E+00 -0.00000000000E+00 -0.73102588283E+03  0.73102588283E+03  0.00000000000E+00 0. -1.
        -13    1    1    2    0    0 -0.10870914318E+03 -0.25441634275E+03  0.21851176039E+03  0.35255177473E+03  0.10566000000E+00 0.  1.
         13    1    1    2    0    0 -0.38494406533E+03 -0.14376784260E+03 -0.15485539361E+03  0.43912564271E+03  0.10566000000E+00 0. -1.
         -4    1    1    2    0  502  0.49365320851E+03  0.39818418535E+03 -0.93018556333E+02  0.64101215866E+03  0.00000000000E+00 0. -1.
</event>
<event>
 5    1  0.2540860E-005  0.4907743E+03  0.7818608E-02  0.9727365E-01
         21   -1    0    0  501  502  0.00000000000E+00  0.00000000000E+00  0.92283748287E+03  0.92283748287E+03  0.00000000000E+00 0.  1.
          4   -1    0    0  502    0 -0.00000000000E+00 -0.00000000000E+00 -0.57867444433E+03  0.57867444433E+03  0.00000000000E+00 0.  1.
        -13    1    1    2    0    0  0.81673399228E+02 -0.60003058825E+03  0.38016362162E+03  0.71500464429E+03  0.10566000000E+00 0.  1.
         13    1    1    2    0    0 -0.10320097592E+03  0.19183447444E+03 -0.24464812660E+03  0.32757231877E+03  0.10566000000E+00 0. -1.
          4    1    1    2  501    0  0.21527576688E+02  0.40819611381E+03  0.20864754352E+03  0.45893496414E+03  0.00000000000E+00 0.  1.
</event>
<event>
 5    1  0.2540860E-005  0.3765880E+03  0.7818608E-02  0.1007847E+00
         21   -1    0    0  501  502  0.00000000000E+00  0.00000000000E+00  0.19645019136E+04  0.19645019136E+04  0.00000000000E+00 0. -1.
         -4   -1    0    0    0  501 -0.00000000000E+00 -0.00000000000E+00 -0.24424159449E+03  0.24424159449E+03  0.00000000000E+00 0. -1.
        -13    1    1    2    0    0  0.98544613164E+02 -0.11180858630E+03 -0.57976507553E+02  0.15991712650E+03  0.10566000000E+00 0.  1.
         13    1    1    2    0    0 -0.31813779079E+03 -0.20675747317E+03  0.15581758490E+04  0.16037058004E+04  0.10566000000E+00 0. -1.
         -4    1    1    2    0  502  0.21959317763E+03  0.31856605947E+03  0.22006097766E+03  0.44512058119E+03  0.00000000000E+00 0. -1.
</event>
<event>
 5    1  0.2540860E-005  0.8488969E+02  0.7818608E-02  0.1192310E+00
          4   -1    0    0  502    0 -0.00000000000E+00  0.00000000000E+00  0.11894491303E+03  0.11894491303E+03  0.00000000000E+00 0.  1.
         21   -1    0    0  501  502  0.00000000000E+00 -0.00000000000E+00 -0.11751305010E+03  0.11751305010E+03  0.00000000000E+00 0. -1.
        -13    1    1    2    0    0 -0.72384036542E+02 -0.50190820139E+02  0.45886017038E+02  0.99318200225E+02  0.10566000000E+00 0.  1.
         13    1    1    2    0    0  0.54038698110E+02  0.61433099206E+02  0.62527951142E+01  0.82056780233E+02  0.10566000000E+00 0. -1.
          4    1    1    2  501    0  0.18345338432E+02 -0.11242279067E+02 -0.50706949218E+02  0.55082982670E+02  0.00000000000E+00 0.  1.
</event>
<event>
 5    1  0.2540860E-005  0.4472211E+02  0.7818608E-02  0.1314910E+00
         -4   -1    0    0    0  501 -0.00000000000E+00  0.00000000000E+00  0.21895404451E+03  0.21895404451E+03  0.00000000000E+00 0. -1.
         21   -1    0    0  501  502  0.00000000000E+00 -0.00000000000E+00 -0.17936122741E+03  0.17936122741E+03  0.00000000000E+00 0.  1.
        -13    1    1    2    0    0 -0.22613988388E+02  0.32638648969E+02 -0.12750307350E+03  0.13354294737E+03  0.10566000000E+00 0.  1.
         13    1    1    2    0    0  0.40370296342E+02 -0.19661122395E+02  0.21096927278E+03  0.21569507593E+03  0.10566000000E+00 0. -1.
         -4    1    1    2    0  502 -0.17756307954E+02 -0.12977526574E+02 -0.43873382175E+02  0.49077248615E+02  0.00000000000E+00 0. -1.
</event>
<event>
 5    1  0.2540860E-005  0.6556463E+03  0.7818608E-02  0.9220874E-01
         -4   -1    0    0    0  501 -0.00000000000E+00  0.00000000000E+00  0.75007497338E+03  0.75007497338E+03  0.00000000000E+00 0. -1.
         21   -1    0    0  501  502  0.00000000000E+00 -0.00000000000E+00 -0.15012363504E+04  0.15012363504E+04  0.00000000000E+00 0. -1.
        -13    1    1    2    0    0  0.13341146765E+03 -0.69288031627E+03  0.16270558752E+03  0.72412351968E+03  0.10566000000E+00 0.  1.
         13    1    1    2    0    0  0.37525354932E+03  0.27919987842E+03 -0.69155915692E+03  0.83487836064E+03  0.10566000000E+00 0. -1.
         -4    1    1    2    0  502 -0.50866501697E+03  0.41368043785E+03 -0.22230780760E+03  0.69230944343E+03  0.00000000000E+00 0. -1.
</event>
<event>
 5    1  0.2540860E-005  0.7681809E+03  0.7818608E-02  0.9029536E-01
         21   -1    0    0  501  502  0.00000000000E+00  0.00000000000E+00  0.10259526235E+04  0.10259526235E+04  0.00000000000E+00 0. -1.
          4   -1    0    0  502    0 -0.00000000000E+00 -0.00000000000E+00 -0.89596433972E+03  0.89596433972E+03  0.00000000000E+00 0.  1.
        -13    1    1    2    0    0  0.68145585887E+03  0.49529617309E+03 -0.37524311473E+03  0.92222979402E+03  0.10566000000E+00 0.  1.
         13    1    1    2    0    0 -0.54562724781E+03 -0.29639855399E+03  0.38353674848E+03  0.72983672487E+03  0.10566000000E+00 0. -1.
          4    1    1    2  501    0 -0.13582861105E+03 -0.19889761910E+03  0.12169465001E+03  0.26985044433E+03  0.00000000000E+00 0.  1.
</event>
<event>
 5    1  0.2540860E-005  0.5016465E+03  0.7818608E-02  0.1006518E+00
          4   -1    0    0  502    0 -0.00000000000E+00  0.00000000000E+00  0.25692275782E+04  0.25692275782E+04  0.00000000000E+00 0.  1.
         21   -1    0    0  501  502  0.00000000000E+00 -0.00000000000E+00 -0.12018292601E+03  0.12018292601E+03  0.00000000000E+00 0.  1.
        -13    1    1    2    0    0  0.45284055007E+03  0.12726718003E+03  0.12523459674E+04  0.13377712555E+04  0.10566000000E+00 0.  1.
         13    1    1    2    0    0  0.65198483588E+02 -0.90175379448E+01  0.35831615519E+02  0.74940470291E+02  0.10566000000E+00 0. -1.
          4    1    1    2  501    0 -0.51803903365E+03 -0.11824964209E+03  0.11608670693E+04  0.12766987784E+04  0.00000000000E+00 0.  1.
</event>
<event>
 5    1  0.2540860E-005  0.7341659E+02  0.7818608E-02  0.1218038E+00
         21   -1    0    0  501  502  0.00000000000E+00  0.00000000000E+00  0.37076439120E+02  0.37076439120E+02  0.00000000000E+00 0. -1.
         -4   -1    0    0    0  501 -0.00000000000E+00 -0.00000000000E+00 -0.43684418800E+03  0.43684418800E+03  0.00000000000E+00 0. -1.
        -13    1    1    2    0    0  0.24590066351E+02 -0.52253095793E+02 -0.12594821923E+03  0.13855692864E+03  0.10566000000E+00 0.  1.
         13    1    1    2    0    0 -0.15429673564E+01  0.10105020726E+03 -0.26101840030E+03  0.27990023508E+03  0.10566000000E+00 0. -1.
         -4    1    1    2    0  502 -0.23047098995E+02 -0.48797111472E+02 -0.12801129351E+02  0.55463463403E+02  0.00000000000E+00 0. -1.
</event>
<event>
 5    1  0.2540860E-005  0.3125825E+03  0.7818608E-02  0.1029306E+00
         -4   -1    0    0    0  501 -0.00000000000E+00  0.00000000000E+00  0.39800223652E+03  0.39800223652E+03  0.00000000000E+00 0. -1.
         21   -1    0    0  501  502  0.00000000000E+00 -0.00000000000E+00 -0.59409418435E+03  0.59409418435E+03  0.00000000000E+00 0. -1.
        -13    1    1    2    0    0  0.12651170430E+03 -0.38588286917E+02 -0.51350834697E+02  0.14188441282E+03  0.10566000000E+00 0.  1.
         13    1    1    2    0    0 -0.35599739487E+03 -0.15394532937E+03  0.16303055544E+03  0.42072827664E+03  0.10566000000E+00 0. -1.
         -4    1    1    2    0  502  0.22948569057E+03  0.19253361629E+03 -0.30777166857E+03  0.42948373142E+03  0.00000000000E+00 0. -1.
</event>
<event>
 5    1  0.2540860E-005  0.1001708E+03  0.7818608E-02  0.1164273E+00
         21   -1    0    0  501  502  0.00000000000E+00  0.00000000000E+00  0.99977761170E+02  0.99977761170E+02  0.00000000000E+00 0. -1.
          4   -1    0    0  502    0 -0.00000000000E+00 -0.00000000000E+00 -0.17818424369E+03  0.17818424369E+03  0.00000000000E+00 0.  1.
        -13    1    1    2    0    0  0.98244077415E+02 -0.35082673520E+02 -0.11812999031E+03  0.15759885311E+03  0.10566000000E+00 0.  1.
         13    1    1    2    0    0 -0.77538269575E+02  0.44085787723E+02  0.22352300487E+02  0.91953120822E+02  0.10566000000E+00 0. -1.
          4    1    1    2  501    0 -0.20705807841E+02 -0.90031142028E+01  0.17571207299E+02  0.28610030927E+02  0.00000000000E+00 0.  1.
</event>
<event>
 5    1  0.2540860E-005  0.4989055E+03  0.7818608E-02  0.9709919E-01
         21   -1    0    0  501  502  0.00000000000E+00  0.00000000000E+00  0.25508263713E+03  0.25508263713E+03  0.00000000000E+00 0.  1.
          4   -1    0    0  502    0 -0.00000000000E+00 -0.00000000000E+00 -0.16831143116E+04  0.16831143116E+04  0.00000000000E+00 0.  1.
        -13    1    1    2    0    0 -0.35826615734E+03 -0.17688629241E+03 -0.51766657128E+03  0.65392819952E+03  0.10566000000E+00 0.  1.
         13    1    1    2    0    0 -0.21809465664E+03  0.31049603660E+02 -0.54153831728E+03  0.58463075303E+03  0.10566000000E+00 0. -1.
          4    1    1    2  501    0  0.57636081398E+03  0.14583668875E+03 -0.36882678590E+03  0.69963799616E+03  0.00000000000E+00 0.  1.
</event>
<event>
 5    1  0.2540860E-005  0.1273904E+04  0.7818608E-02  0.8552896E-01
         -4   -1    0    0    0  501 -0.00000000000E+00  0.00000000000E+00  0.31936956306E+04  0.31936956306E+04  0.00000000000E+00 0. -1.
         21   -1    0    0  501  502  0.00000000000E+00 -0.00000000000E+00 -0.69193181885E+03  0.69193181885E+03  0.00000000000E+00 0.  1.
        -13    1    1    2    0    0 -0.49480147643E+03 -0.11492736557E+04  0.16496252169E+04  0.20704883009E+04  0.10566000000E+00 0.  1.
         13    1    1    2    0    0  0.27644592017E+03  0.13032169579E+04  0.75213218351E+03  0.15298691509E+04  0.10566000000E+00 0. -1.
         -4    1    1    2    0  502  0.21835555626E+03 -0.15394330226E+03  0.10000641135E+03  0.28526999767E+03  0.00000000000E+00 0. -1.
</event>
<event>
 5    1  0.2540860E-005  0.8965099E+02  0.7818608E-02  0.1252710E+00
          4   -1    0    0  502    0 -0.00000000000E+00  0.00000000000E+00  0.59354263386E+03  0.59354263386E+03  0.00000000000E+00 0.  1.
         21   -1    0    0  501  502  0.00000000000E+00 -0.00000000000E+00 -0.45990089142E+03  0.45990089142E+03  0.00000000000E+00 0.  1.
        -13    1    1    2    0    0 -0.95912315802E+02  0.36726330040E+02  0.51783475900E+03  0.52792124833E+03  0.10566000000E+00 0.  1.
         13    1    1    2    0    0  0.17795409459E+02  0.70558824858E+01  0.64860642131E+02  0.67626741288E+02  0.10566000000E+00 0. -1.
          4    1    1    2  501    0  0.78116906343E+02 -0.43782212525E+02 -0.44905365870E+03  0.45789553566E+03  0.00000000000E+00 0.  1.
</event>
<event>
 5    1  0.2540860E-005  0.9673957E+03  0.7818608E-02  0.8805843E-01
         21   -1    0    0  501  502  0.00000000000E+00  0.00000000000E+00  0.11367518063E+04  0.11367518063E+04  0.00000000000E+00 0.  1.
         -4   -1    0    0    0  501 -0.00000000000E+00 -0.00000000000E+00 -0.12747818704E+04  0.12747818704E+04  0.00000000000E+00 0. -1.
        -13    1    1    2    0    0 -0.66664590887E+03 -0.66086223967E+03 -0.52459677818E+03  0.10753406244E+04  0.10566000000E+00 0.  1.
         13    1    1    2    0    0  0.63817861741E+03  0.81398872937E+03  0.13889509270E+03  0.10436194025E+04  0.10566000000E+00 0. -1.
         -4    1    1    2    0  502  0.28467291463E+02 -0.15312648971E+03  0.24767162142E+03  0.29257364986E+03  0.00000000000E+00 0. -1.
</event>
<event>
 5    1  0.2540860E-005  0.4762300E+03  0.7818608E-02  0.9886053E-01
         -4   -1    0    0    0  501 -0.00000000000E+00  0.00000000000E+00  0.11267635252E+04  0.11267635252E+04  0.00000000000E+00 0. -1.
         21   -1    0    0  501  502  0.00000000000E+00 -0.00000000000E+00 -0.40366145121E+03  0.40366145121E+03  0.00000000000E+00 0. -1.
        -13    1    1    2    0    0 -0.78690613324E+02 -0.11432472610E+03  0.50213528111E+03  0.52096276961E+03  0.10566000000E+00 0.  1.
         13    1    1    2    0    0 -0.89167004110E+02 -0.38669057692E+03  0.26819886015E+03  0.47896868023E+03  0.10566000000E+00 0. -1.
         -4    1    1    2    0  502  0.16785761743E+03  0.50101530301E+03 -0.47232067231E+02  0.53049352659E+03  0.00000000000E+00 0. -1.
</event>
<event>
 5    1  0.2540860E-005  0.6917340E+03  0.7818608E-02  0.9135056E-01
         21   -1    0    0  501  502  0.00000000000E+00  0.00000000000E+00  0.11340859869E+04  0.11340859869E+04  0.00000000000E+00 0.  1.
          4   -1    0    0  502    0 -0.00000000000E+00 -0.00000000000E+00 -0.10717590768E+04  0.10717590768E+04  0.00000000000E+00 0.  1.
        -13    1    1    2    0    0  0.14363118479E+03  0.73363001177E+03  0.37126923372E+03  0.83467584515E+03  0.10566000000E+00 0.  1.
         13    1    1    2    0    0  0.30497601735E+03 -0.64026581265E+03 -0.50720245881E+03  0.87189737205E+03  0.10566000000E+00 0. -1.
          4    1    1    2  501    0 -0.44860720214E+03 -0.93364199122E+02  0.19826013516E+03  0.49927184648E+03  0.00000000000E+00 0.  1.
</event>
<event>
 5    1  0.2540860E-005  0.7444234E+02  0.7818608E-02  0.1236009E+00
         -4   -1    0    0    0  501 -0.00000000000E+00  0.00000000000E+00  0.14624666649E+03  0.14624666649E+03  0.00000000000E+00 0. -1.
         21   -1    0    0  501  502  0.00000000000E+00 -0.00000000000E+00 -0.90853125624E+02  0.90853125624E+02  0.00000000000E+00 0. -1.
        -13    1    1    2    0    0  0.39809736902E+02 -0.26134652090E+02 -0.28325937870E+02  0.55409431618E+02  0.10566000000E+00 0.  1.
         13    1    1    2    0    0  0.47851851150E+02  0.31631353047E+02  0.73544506069E+02  0.93269221564E+02  0.10566000000E+00 0. -1.
         -4    1    1    2    0  502 -0.87661588052E+02 -0.54967009566E+01  0.10174972666E+02  0.88421138931E+02  0.00000000000E+00 0. -1.
</event>
<event>
 5    1  0.2540860E-005  0.4946726E+03  0.7818608E-02  0.9818472E-01
         21   -1    0    0  501  502  0.00000000000E+00  0.00000000000E+00  0.50901700682E+03  0.50901700682E+03  0.00000000000E+00 0.  1.
          4   -1    0    0  502    0 -0.00000000000E+00 -0.00000000000E+00 -0.70655973861E+03  0.70655973861E+03  0.00000000000E+00 0.  1.
        -13    1    1    2    0    0 -0.10120540224E+03  0.53935838415E+03  0.43785407586E+02  0.55051537043E+03  0.10566000000E+00 0.  1.
         13    1    1    2    0    0 -0.78021429603E+02 -0.13462132106E+03 -0.14364940391E+03  0.21176733924E+03  0.10566000000E+00 0. -1.
          4    1    1    2  501    0  0.17922683184E+03 -0.40473706309E+03 -0.97678735465E+02  0.45329403576E+03  0.00000000000E+00 0.  1.
</event>
<event>
 5    1  0.2540860E-005  0.5550495E+03  0.7818608E-02  0.9364842E-01
         21   -1    0    0  501  502  0.00000000000E+00  0.00000000000E+00  0.14660580748E+03  0.14660580748E+03  0.00000000000E+00 0. -1.
          4   -1    0    0  502    0 -0.00000000000E+00 -0.00000000000E+00 -0.32797949007E+04  0.32797949007E+04  0.00000000000E+00 0.  1.
        -13    1    1    2    0    0 -0.23823543145E+03  0.49394352967E+03 -0.21564357203E+04  0.22250733378E+04  0.10566000000E+00 0.  1.
         13    1    1    2    0    0  0.24600154329E+03 -0.51366068380E+03 -0.10113905934E+04  0.11607217587E+04  0.10566000000E+00 0. -1.
          4    1    1    2  501    0 -0.77661118447E+01  0.19717154138E+02  0.34637220539E+02  0.40605611769E+02  0.00000000000E+00 0.  1.
</event>
<event>
 5    1  0.2540860E-005  0.1614322E+03  0.7818608E-02  0.1090354E+00
         -4   -1    0    0    0  501 -0.00000000000E+00  0.00000000000E+00  0.10060462910E+04  0.10060462910E+04  0.00000000000E+00 0. -1.
         21   -1    0    0  501  502  0.00000000000E+00 -0.00000000000E+00 -0.10389883715E+03  0.10389883715E+03  0.00000000000E+00 0. -1.
        -13    1    1    2    0    0 -0.56084888940E+02  0.15647824319E+03  0.90819345721E+02  0.18941784520E+03  0.10566000000E+00 0.  1.
         13    1    1    2    0    0  0.62100731607E+02 -0.14825554453E+03  0.85791328015E+03  0.87284100200E+03  0.10566000000E+00 0. -1.
         -4    1    1    2    0  502 -0.60158426663E+01 -0.82226986563E+01 -0.46585172038E+02  0.47686280941E+02  0.00000000000E+00 0. -1.
</event>
<event>
 5    1  0.2540860E-005  0.1558482E+02  0.7818608E-02  0.1582577E+00
         -4   -1    0    0    0  501 -0.00000000000E+00  0.00000000000E+00  0.35544318894E+02  0.35544318894E+02  0.00000000000E+00 0. -1.
         21   -1    0    0  501  502  0.00000000000E+00 -0.00000000000E+00 -0.18915654506E+02  0.18915654506E+02  0.00000000000E+00 0.  1.
        -13    1    1    2    0    0 -0.52310310034E+01  0.22491093611E+02  0.72232415303E+00  0.23102941229E+02  0.10566000000E+00 0.  1.
         13    1    1    2    0    0  0.91314333971E+01 -0.10488698650E+02  0.11311211334E+02  0.17926252847E+02  0.10566000000E+00 0. -1.
         -4    1    1    2    0  502 -0.39004023937E+01 -0.12002394962E+02  0.45951289011E+01  0.13430779325E+02  0.00000000000E+00 0. -1.
</event>
<event>
 5    1  0.2540860E-005  0.1247311E+03  0.7818608E-02  0.1129099E+00
         21   -1    0    0  501  502  0.00000000000E+00  0.00000000000E+00  0.10778211496E+03  0.10778211496E+03  0.00000000000E+00 0. -1.
         -4   -1    0    0    0  501 -0.00000000000E+00 -0.00000000000E+00 -0.27661709050E+03  0.27661709050E+03  0.00000000000E+00 0. -1.
        -13    1    1    2    0    0 -0.12616171667E+03  0.14421811525E+02 -0.55628412598E+02  0.13863368585E+03  0.10566000000E+00 0.  1.
         13    1    1    2    0    0  0.12122414288E+03 -0.24798222564E+02 -0.15733733575E+03  0.20016316605E+03  0.10566000000E+00 0. -1.
         -4    1    1    2    0  502  0.49375737901E+01  0.10376411039E+02  0.44130772813E+02  0.45602353559E+02  0.00000000000E+00 0. -1.
</event>
<event>
 5    1  0.2540860E-005  0.2239282E+03  0.7818608E-02  0.1044864E+00
         21   -1    0    0  501  502  0.00000000000E+00  0.00000000000E+00  0.68887611971E+02  0.68887611971E+02  0.00000000000E+00 0. -1.
         -4   -1    0    0    0  501 -0.00000000000E+00 -0.00000000000E+00 -0.11819647904E+04  0.11819647904E+04  0.00000000000E+00 0. -1.
        -13    1    1    2    0    0 -0.17364728306E+03 -0.82564898020E+02 -0.29140470879E+03  0.34912326873E+03  0.10566000000E+00 0.  1.
         13    1    1    2    0    0  0.23188385325E+03  0.77352322530E+02 -0.80445969463E+03  0.84077875488E+03  0.10566000000E+00 0. -1.
         -4    1    1    2    0  502 -0.58236570186E+02  0.52125754898E+01 -0.17212775028E+02  0.60950378789E+02  0.00000000000E+00 0. -1.
</event>
<event>
 5    1  0.2540860E-005  0.4680229E+03  0.7818608E-02  0.9550955E-01
         21   -1    0    0  501  502  0.00000000000E+00  0.00000000000E+00  0.29613448577E+03  0.29613448577E+03  0.00000000000E+00 0.  1.
         -4   -1    0    0    0  501 -0.00000000000E+00 -0.00000000000E+00 -0.21570828361E+04  0.21570828361E+04  0.00000000000E+00 0. -1.
        -13    1    1    2    0    0  0.29335463902E+02 -0.46590823155E+03 -0.10140071858E+04  0.11163071413E+04  0.10566000000E+00 0.  1.
         13    1    1    2    0    0 -0.44104298511E+02  0.46723458880E+03 -0.10412023277E+04  0.11420839061E+04  0.10566000000E+00 0. -1.
         -4    1    1    2    0  502  0.14768834609E+02 -0.13263572531E+01  0.19426116320E+03  0.19482627448E+03  0.00000000000E+00 0. -1.
</event>
<event>
 5    1  0.2540860E-005  0.2397868E+03  0.7818608E-02  0.1035825E+00
         21   -1    0    0  501  502  0.00000000000E+00  0.00000000000E+00  0.21769400954E+03  0.21769400954E+03  0.00000000000E+00 0.  1.
         -4   -1    0    0    0  501 -0.00000000000E+00 -0.00000000000E+00 -0.64184991745E+03  0.64184991745E+03  0.00000000000E+00 0. -1.
        -13    1    1    2    0    0  0.93414478108E+02  0.21871491171E+03 -0.21066037390E+03  0.31771100330E+03  0.10566000000E+00 0.  1.
         13    1    1    2    0    0 -0.56075356941E+02 -0.23613539012E+03 -0.33491720877E+03  0.41361082676E+03  0.10566000000E+00 0. -1.
         -4    1    1    2    0  502 -0.37339121167E+02  0.17420478405E+02  0.12142167476E+03  0.12822209692E+03  0.00000000000E+00 0. -1.
</event>
<event>
 5    1  0.2540860E-005  0.3654063E+03  0.7818608E-02  0.9834643E-01
         -4   -1    0    0    0  501 -0.00000000000E+00  0.00000000000E+00  0.26930053634E+04  0.26930053634E+04  0.00000000000E+00 0. -1.
         21   -1    0    0  501  502  0.00000000000E+00 -0.00000000000E+00 -0.16814213779E+03  0.16814213779E+03  0.00000000000E+00 0. -1.
        -13    1    1    2    0    0 -0.25281738759E+03  0.29855107728E+03  0.92984921472E+03  0.10087957923E+04  0.10566000000E+00 0.  1.
         13    1    1    2    0    0  0.41951380123E+03  0.23622923012E+02  0.13518528519E+04  0.14156468543E+04  0.10566000000E+00 0. -1.
         -4    1    1    2    0  502 -0.16669641364E+03 -0.32217400029E+03  0.24316115905E+03  0.43670485463E+03  0.00000000000E+00 0. -1.
</event>
<event>
 5    1  0.2540860E-005  0.2090616E+03  0.7818608E-02  0.1054095E+00
         21   -1    0    0  501  502  0.00000000000E+00  0.00000000000E+00  0.18465335875E+03  0.18465335875E+03  0.00000000000E+00 0.  1.
          4   -1    0    0  502    0 -0.00000000000E+00 -0.00000000000E+00 -0.20105081403E+04  0.20105081403E+04  0.00000000000E+00 0.  1.
        -13    1    1    2    0    0  0.19089067837E+03 -0.17712835933E+03  0.49493916713E+02  0.26507237828E+03  0.10566000000E+00 0.  1.
         13    1    1    2    0    0 -0.18403710561E+03  0.84209685592E+02 -0.36897380170E+03  0.42083560317E+03  0.10566000000E+00 0. -1.
          4    1    1    2  501    0 -0.68535727645E+01  0.92918673740E+02 -0.15063748966E+04  0.15092535176E+04  0.00000000000E+00 0.  1.
</event>
<event>
 5    1  0.2540860E-005  0.4807179E+03  0.7818608E-02  0.9521266E-01
          4   -1    0    0  502    0 -0.00000000000E+00  0.00000000000E+00  0.28827427338E+04  0.28827427338E+04  0.00000000000E+00 0.  1.
         21   -1    0    0  501  502  0.00000000000E+00 -0.00000000000E+00 -0.39988643582E+03  0.39988643582E+03  0.00000000000E+00 0.  1.
        -13    1    1    2    0    0  0.53729601223E+02  0.65850729081E+03  0.13731254569E+03  0.67481365462E+03  0.10566000000E+00 0.  1.
         13    1    1    2    0    0  0.26382019813E+03 -0.39534844020E+03  0.20397564911E+04  0.20943992075E+04  0.10566000000E+00 0. -1.
          4    1    1    2  501    0 -0.31754979935E+03 -0.26315885060E+03  0.30578726118E+03  0.51341630751E+03  0.00000000000E+00 0.  1.
</event>
<event>
 5    1  0.2540860E-005  0.3132227E+03  0.7818608E-02  0.1027290E+00
         21   -1    0    0  501  502  0.00000000000E+00  0.00000000000E+00  0.41415183099E+03  0.41415183099E+03  0.00000000000E+00 0. -1.
         -4   -1    0    0    0  501 -0.00000000000E+00 -0.00000000000E+00 -0.85688584996E+03  0.85688584996E+03  0.00000000000E+00 0. -1.
        -13    1    1    2    0    0  0.15369621315E+02 -0.13909125963E+03 -0.13862869506E+03  0.19697850142E+03  0.10566000000E+00 0.  1.
         13    1    1    2    0    0  0.27789402905E+03  0.23869011667E+03 -0.56212007922E+03  0.67095235137E+03  0.10566000000E+00 0. -1.
         -4    1    1    2    0  502 -0.29326365037E+03 -0.99598857035E+02  0.25801475530E+03  0.40310682815E+03  0.00000000000E+00 0. -1.
</event>
<event>
 5    1  0.2540860E-005  0.4661598E+03  0.7818608E-02  0.9761604E-01
         21   -1    0    0  501  502  0.00000000000E+00  0.00000000000E+00  0.16258631397E+03  0.16258631397E+03  0.00000000000E+00 0. -1.
         -4   -1    0    0    0  501 -0.00000000000E+00 -0.00000000000E+00 -0.25344146501E+04  0.25344146501E+04  0.00000000000E+00 0. -1.
        -13    1    1    2    0    0  0.78161588016E+02  0.21190066764E+03 -0.24028645213E+03  0.32977070371E+03  0.10566000000E+00 0.  1.
         13    1    1    2    0    0 -0.27327805098E+03 -0.46071899737E+03 -0.60404476112E+03  0.80734934959E+03  0.10566000000E+00 0. -1.
         -4    1    1    2    0  502  0.19511646296E+03  0.24881832973E+03 -0.15274971229E+04  0.15598809108E+04  0.00000000000E+00 0. -1.
</event>
<event>
 5    1  0.2540860E-005  0.4879260E+03  0.7818608E-02  0.9962798E-01
         -4   -1    0    0    0  501 -0.00000000000E+00  0.00000000000E+00  0.25271341992E+04  0.25271341992E+04  0.00000000000E+00 0. -1.
         21   -1    0    0  501  502  0.00000000000E+00 -0.00000000000E+00 -0.12150587095E+03  0.12150587095E+03  0.00000000000E+00 0. -1.
        -13    1    1    2    0    0  0.99170985636E+02  0.12478754273E+02  0.37970695026E+03  0.39264230915E+03  0.10566000000E+00 0.  1.
         13    1    1    2    0    0 -0.41994861243E+03 -0.33349659162E+03  0.11762503134E+04  0.12927264307E+04  0.10566000000E+00 0. -1.
         -4    1    1    2    0  502  0.32077762680E+03  0.32101783735E+03  0.84967106458E+03  0.96327133028E+03  0.00000000000E+00 0. -1.
</event>
<event>
 5    1  0.2540860E-005  0.3421018E+03  0.7818608E-02  0.1015727E+00
         -4   -1    0    0    0  501 -0.00000000000E+00  0.00000000000E+00  0.11987124347E+04  0.11987124347E+04  0.00000000000E+00 0. -1.
         21   -1    0    0  501  502  0.00000000000E+00 -0.00000000000E+00 -0.28577194764E+03  0.28577194764E+03  0.00000000000E+00 0. -1.
        -13    1    1    2    0    0  0.11929515364E+03  0.98123053342E+02  0.36111301172E+03  0.39276212353E+03  0.10566000000E+00 0.  1.
         13    1    1    2    0    0 -0.31138893073E+03 -0.35124177006E+03  0.60895716417E+03  0.76887104652E+03  0.10566000000E+00 0. -1.
         -4    1    1    2    0  502  0.19209377709E+03  0.25311871672E+03 -0.57129688812E+02  0.32285121232E+03  0.00000000000E+00 0. -1.
</event>
<event>
 5    1  0.2540860E-005  0.2874188E+03  0.7818608E-02  0.1024739E+00
         21   -1    0    0  501  502  0.00000000000E+00  0.00000000000E+00  0.72511095663E+03  0.72511095663E+03  0.00000000000E+00 0. -1.
         -4   -1    0    0    0  501 -0.00000000000E+00 -0.00000000000E+00 -0.76370860678E+03  0.76370860678E+03  0.00000000000E+00 0. -1.
        -13    1    1    2    0    0 -0.23497025243E+03 -0.25666289950E+03 -0.22929612344E+03  0.41672963285E+03  0.10566000000E+00 0.  1.
         13    1    1    2    0    0 -0.48304849357E+01 -0.22111397990E+03  0.43219215386E+03  0.48549438175E+03  0.10566000000E+00 0. -1.
         -4    1    1    2    0  502  0.23980073736E+03  0.47777687940E+03 -0.24149368057E+03  0.58659554881E+03  0.00000000000E+00 0. -1.
</event>
<event>
 5    1  0.2540860E-005  0.2806046E+03  0.7818608E-02  0.1015649E+00
         -4   -1    0    0    0  501 -0.00000000000E+00  0.00000000000E+00  0.11271081024E+04  0.11271081024E+04  0.00000000000E+00 0. -1.
         21   -1    0    0  501  502  0.00000000000E+00 -0.00000000000E+00 -0.38061533582E+03  0.38061533582E+03  0.00000000000E+00 0. -1.
        -13    1    1    2    0    0  0.57168119456E+02  0.23656438334E+03  0.45176439475E+03  0.51314908251E+03  0.10566000000E+00 0.  1.
         13    1    1    2    0    0  0.84031206346E+02 -0.36018828591E+03  0.55909908394E+03  0.67036455886E+03  0.10566000000E+00 0. -1.
         -4    1    1    2    0  502 -0.14119932580E+03  0.12362390257E+03 -0.26437071216E+03  0.32420979680E+03  0.00000000000E+00 0. -1.
</event>
<event>
 5    1  0.2540860E-005  0.1369779E+03  0.7818608E-02  0.1114716E+00
         -4   -1    0    0    0  501 -0.00000000000E+00  0.00000000000E+00  0.85650423313E+03  0.85650423313E+03  0.00000000000E+00 0. -1.
         21   -1    0    0  501  502  0.00000000000E+00 -0.00000000000E+00 -0.32635071318E+02  0.32635071318E+02  0.00000000000E+00 0.  1.
        -13    1    1    2    0    0 -0.55447145355E+02  0.12664763916E+03  0.61166372727E+03  0.62709372255E+03  0.10566000000E+00 0.  1.
         13    1    1    2    0    0  0.36559582673E+02 -0.12913651801E+03  0.17847995995E+03  0.22331133119E+03  0.10566000000E+00 0. -1.
         -4    1    1    2    0  502  0.18887562682E+02  0.24888788464E+01  0.33725474594E+02  0.38734250716E+02  0.00000000000E+00 0. -1.
</event>
<event>
 5    1  0.2540860E-005  0.4709783E+03  0.7818608E-02  0.9711591E-01
         -4   -1    0    0    0  501 -0.00000000000E+00  0.00000000000E+00  0.18753990909E+04  0.18753990909E+04  0.00000000000E+00 0. -1.
         21   -1    0    0  501  502  0.00000000000E+00 -0.00000000000E+00 -0.22630560925E+03  0.22630560925E+03  0.00000000000E+00 0. -1.
        -13    1    1    2    0    0 -0.25984527622E+03  0.15949316189E+02  0.37274410559E+03  0.45465605427E+03  0.10566000000E+00 0.  1.
         13    1    1    2    0    0  0.55276588348E+03 -0.47418801829E+02  0.30732381388E+03  0.63422914033E+03  0.10566000000E+00 0. -1.
         -4    1    1    2    0  502 -0.29292060725E+03  0.31469485640E+02  0.96902556219E+03  0.10128195056E+04  0.00000000000E+00 0. -1.
</event>
<event>
 5    1  0.2540860E-005  0.7388373E+02  0.7818608E-02  0.1238271E+00
         21   -1    0    0  501  502  0.00000000000E+00  0.00000000000E+00  0.34685085772E+02  0.34685085772E+02  0.00000000000E+00 0. -1.
         -4   -1    0    0    0  501 -0.00000000000E+00 -0.00000000000E+00 -0.45706037135E+03  0.45706037135E+03  0.00000000000E+00 0. -1.
        -13    1    1    2    0    0 -0.53621408061E+01  0.46095602832E+02 -0.24082580991E+03  0.24525627216E+03  0.10566000000E+00 0.  1.
         13    1    1    2    0    0 -0.50514972706E+02 -0.82108928838E+02 -0.13257366598E+03  0.16391896394E+03  0.10566000000E+00 0. -1.
         -4    1    1    2    0  502  0.55877113512E+02  0.36013326006E+02 -0.48975809683E+02  0.82570221016E+02  0.00000000000E+00 0. -1.
</event>
<event>
 5    1  0.2540860E-005  0.2870022E+02  0.7818608E-02  0.1415659E+00
         -4   -1    0    0    0  501 -0.00000000000E+00  0.00000000000E+00  0.44259629575E+02  0.44259629575E+02  0.00000000000E+00 0. -1.
         21   -1    0    0  501  502  0.00000000000E+00 -0.00000000000E+00 -0.46672051355E+02  0.46672051355E+02  0.00000000000E+00 0.  1.
        -13    1    1    2    0    0  0.34449144786E+02  0.70616601317E+01  0.14495536778E+02  0.38036066711E+02  0.10566000000E+00 0.  1.
         13    1    1    2    0    0 -0.23937637558E+02  0.52065877600E+01  0.56582346995E+01  0.25142510453E+02  0.10566000000E+00 0. -1.
         -4    1    1    2    0  502 -0.10511507229E+02 -0.12268247892E+02 -0.22566193257E+02  0.27753103767E+02  0.00000000000E+00 0. -1.
</event>
<event>
 5    1  0.2540860E-005  0.1563465E+03  0.7818608E-02  0.1095016E+00
         21   -1    0    0  501  502  0.00000000000E+00  0.00000000000E+00  0.24994056554E+02  0.24994056554E+02  0.00000000000E+00 0. -1.
          4   -1    0    0  502    0 -0.00000000000E+00 -0.00000000000E+00 -0.15081911630E+04  0.15081911630E+04  0.00000000000E+00 0.  1.
        -13    1    1    2    0    0 -0.11924115240E+03  0.10387298993E+03 -0.79559118973E+03  0.81115559716E+03  0.10566000000E+00 0.  1.
         13    1    1    2    0    0  0.10029787182E+03 -0.11854823365E+03 -0.67905988569E+03  0.69658860621E+03  0.10566000000E+00 0. -1.
          4    1    1    2  501    0  0.18943280582E+02  0.14675243726E+02 -0.85460310176E+01  0.25441016170E+02  0.00000000000E+00 0.  1.
</event>
<event>
 5    1  0.2540860E-005  0.7093714E+03  0.7818608E-02  0.9109493E-01
         21   -1    0    0  501  502  0.00000000000E+00  0.00000000000E+00  0.15823667546E+04  0.15823667546E+04  0.00000000000E+00 0. -1.
         -4   -1    0    0    0  501 -0.00000000000E+00 -0.00000000000E+00 -0.66902485229E+03  0.66902485229E+03  0.00000000000E+00 0. -1.
        -13    1    1    2    0    0  0.21618159046E+02 -0.71758515660E+03 -0.60255414835E+00  0.71791098056E+03  0.10566000000E+00 0.  1.
         13    1    1    2    0    0 -0.13823035973E+03  0.69128125786E+03  0.10143748278E+03  0.71222677842E+03  0.10566000000E+00 0. -1.
         -4    1    1    2    0  502  0.11661220068E+03  0.26303898737E+02  0.81250697368E+03  0.82125384791E+03  0.00000000000E+00 0. -1.
</event>
<event>
 5    1  0.2540860E-005  0.1618975E+03  0.7818608E-02  0.1089936E+00
          4   -1    0    0  502    0 -0.00000000000E+00  0.00000000000E+00  0.64291703957E+03  0.64291703957E+03  0.00000000000E+00 0.  1.
         21   -1    0    0  501  502  0.00000000000E+00 -0.00000000000E+00 -0.10971917107E+03  0.10971917107E+03  0.00000000000E+00 0.  1.
        -13    1    1    2    0    0  0.65515949232E+02 -0.15022539487E+03  0.54198995361E+03  0.56622710095E+03  0.10566000000E+00 0.  1.
         13    1    1    2    0    0 -0.56752270071E+02  0.14013757705E+03  0.22053786369E+02  0.15279313242E+03  0.10566000000E+00 0. -1.
          4    1    1    2  501    0 -0.87636791613E+01  0.10087817821E+02 -0.30845871476E+02  0.33615977271E+02  0.00000000000E+00 0.  1.
</event>
<event>
 5    1  0.2540860E-005  0.4808246E+03  0.7818608E-02  0.9692838E-01
         -4   -1    0    0    0  501 -0.00000000000E+00  0.00000000000E+00  0.54535787038E+03  0.54535787038E+03  0.00000000000E+00 0. -1.
         21   -1    0    0  501  502  0.00000000000E+00 -0.00000000000E+00 -0.77776975758E+03  0.77776975758E+03  0.00000000000E+00 0. -1.
        -13    1    1    2    0    0  0.20730245481E+03  0.15885846841E+03 -0.13095650053E+02  0.26149919306E+03  0.10566000000E+00 0.  1.
         13    1    1    2    0    0  0.10616544444E+03  0.38976454645E+03 -0.12434565136E+03  0.42266932162E+03  0.10566000000E+00 0. -1.
         -4    1    1    2    0  502 -0.31346789925E+03 -0.54862301485E+03 -0.94970585789E+02  0.63895911329E+03  0.00000000000E+00 0. -1.
</event>
<event>
 5    1  0.2540860E-005  0.4311460E+03  0.7818608E-02  0.9643180E-01
          4   -1    0    0  502    0 -0.00000000000E+00  0.00000000000E+00  0.17595779478E+04  0.17595779478E+04  0.00000000000E+00 0.  1.
         21   -1    0    0  501  502  0.00000000000E+00 -0.00000000000E+00 -0.50128932673E+03  0.50128932673E+03  0.00000000000E+00 0.  1.
        -13    1    1    2    0    0  0.99559086225E+02  0.42627516025E+03  0.88445184847E+03  0.98685237362E+03  0.10566000000E+00 0.  1.
         13    1    1    2    0    0 -0.14033421781E+03 -0.40151156959E+03  0.76749845234E+03  0.87747314415E+03  0.10566000000E+00 0. -1.
          4    1    1    2  501    0  0.40775131585E+02 -0.24763590661E+02 -0.39366167973E+03  0.39654175677E+03  0.00000000000E+00 0.  1.
</event>
<event>
 5    1  0.2540860E-005  0.4651630E+03  0.7818608E-02  0.9632291E-01
         21   -1    0    0  501  502  0.00000000000E+00  0.00000000000E+00  0.54279211785E+03  0.54279211785E+03  0.00000000000E+00 0. -1.
          4   -1    0    0  502    0 -0.00000000000E+00 -0.00000000000E+00 -0.94704023718E+03  0.94704023718E+03  0.00000000000E+00 0.  1.
        -13    1    1    2    0    0 -0.39836624016E+03 -0.40526276429E+03 -0.17660428036E+03  0.59508205520E+03  0.10566000000E+00 0.  1.
         13    1    1    2    0    0 -0.49592298694E+02  0.35329093219E+03 -0.26178133099E+03  0.44249672911E+03  0.10566000000E+00 0. -1.
          4    1    1    2  501    0  0.44795853885E+03  0.51971832102E+02  0.34137492022E+02  0.45225357072E+03  0.00000000000E+00 0.  1.
</event>
<event>
 5    1  0.2540860E-005  0.5039854E+03  0.7818608E-02  0.1004041E+00
         21   -1    0    0  501  502  0.00000000000E+00  0.00000000000E+00  0.14078389897E+04  0.14078389897E+04  0.00000000000E+00 0. -1.
         -4   -1    0    0    0  501 -0.00000000000E+00 -0.00000000000E+00 -0.27232527868E+03  0.27232527868E+03  0.00000000000E+00 0. -1.
        -13    1    1    2    0    0 -0.69387482047E+02 -0.11510205214E+02 -0.74926220285E+02  0.10276700414E+03  0.10566000000E+00 0.  1.
         13    1    1    2    0    0  0.33671951108E+03 -0.39861283134E+03  0.61412415089E+03  0.80586642958E+03  0.10566000000E+00 0. -1.
         -4    1    1    2    0  502 -0.26733202903E+03  0.41012303656E+03  0.59631578038E+03  0.77153083463E+03  0.00000000000E+00 0. -1.
</event>
<event>
 5    1  0.2540860E-005  0.3164416E+03  0.7818608E-02  0.1000740E+00
         21   -1    0    0  501  502  0.00000000000E+00  0.00000000000E+00  0.41668435927E+03  0.41668435927E+03  0.00000000000E+00 0.  1.
          4   -1    0    0  502    0 -0.00000000000E+00 -0.00000000000E+00 -0.16176439082E+04  0.16176439082E+04  0.00000000000E+00 0.  1.
        -13    1    1    2    0    0  0.35077222305E+03 -0.80952955624E+02 -0.70907913011E+03  0.79522811658E+03  0.10566000000E+00 0.  1.
         13    1    1    2    0    0 -0.29557211038E+03 -0.34234627305E+02 -0.82783392170E+03  0.87968397463E+03  0.10566000000E+00 0. -1.
          4    1    1    2  501    0 -0.55200112668E+02  0.11518758293E+03  0.33595350284E+03  0.35941617628E+03  0.00000000000E+00 0.  1.
</event>
<event>
 5    1  0.2540860E-005  0.4235898E+03  0.7818608E-02  0.9663288E-01
         -4   -1    0    0    0  501 -0.00000000000E+00  0.00000000000E+00  0.87464540602E+03  0.87464540602E+03  0.00000000000E+00 0. -1.
         21   -1    0    0  501  502  0.00000000000E+00 -0.00000000000E+00 -0.96722141741E+03  0.96722141741E+03  0.00000000000E+00 0. -1.
        -13    1    1    2    0    0  0.76667672768E+02 -0.44895654806E+03  0.44003221213E+03  0.63329951284E+03  0.10566000000E+00 0.  1.
         13    1    1    2    0    0  0.16820235061E+03  0.38530702211E+03  0.17628021501E+03  0.45588184588E+03  0.10566000000E+00 0. -1.
         -4    1    1    2    0  502 -0.24487002338E+03  0.63649525952E+02 -0.70888843853E+03  0.75268546471E+03  0.00000000000E+00 0. -1.
</event>
<event>
 5    1  0.2540860E-005  0.3338029E+03  0.7818608E-02  0.1010185E+00
          4   -1    0    0  502    0 -0.00000000000E+00  0.00000000000E+00  0.11003768013E+04  0.11003768013E+04  0.00000000000E+00 0.  1.
         21   -1    0    0  501  502  0.00000000000E+00 -0.00000000000E+00 -0.37714507271E+03  0.37714507271E+03  0.00000000000E+00 0.  1.
        -13    1    1    2    0    0  0.16450951083E+03  0.39210274144E+03  0.57987974247E+03  0.71907472900E+03  0.10566000000E+00 0.  1.
         13    1    1    2    0    0  0.83264358156E+02 -0.18017482224E+03  0.32827237277E+03  0.38361267158E+03  0.10566000000E+00 0. -1.
          4    1    1    2  501    0 -0.24777386899E+03 -0.21192791920E+03 -0.18492038664E+03  0.37483447344E+03  0.00000000000E+00 0.  1.
</event>
<event>
 5    1  0.2540860E-005  0.2072902E+02  0.7818608E-02  0.1499961E+00
         21   -1    0    0  501  502  0.00000000000E+00  0.00000000000E+00  0.36620089128E+02  0.36620089128E+02  0.00000000000E+00 0. -1.
         -4   -1    0    0    0  501 -0.00000000000E+00 -0.00000000000E+00 -0.42382576116E+02  0.42382576116E+02  0.00000000000E+00 0. -1.
        -13    1    1    2    0    0  0.72239289048E+01  0.11626487964E+02  0.25664549319E+01  0.13926888602E+02  0.10566000000E+00 0.  1.
         13    1    1    2    0    0 -0.90846080468E+01 -0.22645584362E+02 -0.31207374536E+02  0.39613936738E+02  0.10566000000E+00 0. -1.
         -4    1    1    2    0  502  0.18606791420E+01  0.11019096398E+02  0.22878432616E+02  0.25461839903E+02  0.00000000000E+00 0. -1.
</event>
<event>
 5    1  0.2540860E-005  0.4639719E+03  0.7818608E-02  0.9598737E-01
         21   -1    0    0  501  502  0.00000000000E+00  0.00000000000E+00  0.35943888209E+03  0.35943888209E+03  0.00000000000E+00 0. -1.
         -4   -1    0    0    0  501 -0.00000000000E+00 -0.00000000000E+00 -0.26351679575E+04  0.26351679575E+04  0.00000000000E+00 0. -1.
        -13    1    1    2    0    0 -0.13876060679E+03 -0.47686947452E+03 -0.16358057173E+04  0.17095377614E+04  0.10566000000E+00 0.  1.
         13    1    1    2    0    0  0.40247970797E+03 -0.10949042564E+03 -0.64162875167E+02  0.42201297889E+03  0.10566000000E+00 0. -1.
         -4    1    1    2    0  502 -0.26371910118E+03  0.58635990016E+03 -0.57576048296E+03  0.86305609932E+03  0.00000000000E+00 0. -1.
</event>
<event>
 5    1  0.2540860E-005  0.4235083E+03  0.7818608E-02  0.9911827E-01
          4   -1    0    0  502    0 -0.00000000000E+00  0.00000000000E+00  0.75534251340E+03  0.75534251340E+03  0.00000000000E+00 0.  1.
         21   -1    0    0  501  502  0.00000000000E+00 -0.00000000000E+00 -0.59009793924E+03  0.59009793924E+03  0.00000000000E+00 0.  1.
        -13    1    1    2    0    0 -0.26677531422E+03  0.21970587904E+03  0.27663567309E+03  0.44268165577E+03  0.10566000000E+00 0.  1.
         13    1    1    2    0    0  0.45895694907E+02  0.17512117338E+03  0.26042154064E+03  0.31716435829E+03  0.10566000000E+00 0. -1.
          4    1    1    2  501    0  0.22087961932E+03 -0.39482705242E+03 -0.37181263957E+03  0.58559443858E+03  0.00000000000E+00 0.  1.
</event>
<event>
 5    1  0.2540860E-005  0.8342489E+02  0.7818608E-02  0.1200766E+00
          4   -1    0    0  502    0 -0.00000000000E+00  0.00000000000E+00  0.59849190606E+03  0.59849190606E+03  0.00000000000E+00 0.  1.
         21   -1    0    0  501  502  0.00000000000E+00 -0.00000000000E+00 -0.16046671711E+03  0.16046671711E+03  0.00000000000E+00 0. -1.
        -13    1    1    2    0    0 -0.63937322155E+01 -0.13644824453E+03  0.54333080635E+03  0.56023868087E+03  0.10566000000E+00 0.  1.
         13    1    1    2    0    0 -0.34614959311E+02  0.65061890959E+02 -0.12652808686E+02  0.74775328785E+02  0.10566000000E+00 0. -1.
          4    1    1    2  501    0  0.41008691527E+02  0.71386353575E+02 -0.92652808715E+02  0.12394461352E+03  0.00000000000E+00 0.  1.
</event>
<event>
 5    1  0.2540860E-005  0.1259998E+03  0.7818608E-02  0.1213415E+00
         -4   -1    0    0    0  501 -0.00000000000E+00  0.00000000000E+00  0.40869500901E+03  0.40869500901E+03  0.00000000000E+00 0. -1.
         21   -1    0    0  501  502  0.00000000000E+00 -0.00000000000E+00 -0.15327459596E+03  0.15327459596E+03  0.00000000000E+00 0.  1.
        -13    1    1    2    0    0  0.16086782149E+02  0.38671281471E+00 -0.49204107864E+02  0.51768615023E+02  0.10566000000E+00 0.  1.
         13    1    1    2    0    0 -0.26723161739E+02  0.12504790657E+03  0.35291887051E+03  0.37537027937E+03  0.10566000000E+00 0. -1.
         -4    1    1    2    0  502  0.10636379590E+02 -0.12543461939E+03 -0.48294349588E+02  0.13483071057E+03  0.00000000000E+00 0. -1.
</event>
<event>
 5    1  0.2540860E-005  0.1666079E+03  0.7818608E-02  0.1085796E+00
          4   -1    0    0  502    0 -0.00000000000E+00  0.00000000000E+00  0.48837824220E+03  0.48837824220E+03  0.00000000000E+00 0.  1.
         21   -1    0    0  501  502  0.00000000000E+00 -0.00000000000E+00 -0.41829573357E+03  0.41829573357E+03  0.00000000000E+00 0. -1.
        -13    1    1    2    0    0  0.17129274958E+03 -0.19123588089E+02  0.44674318373E+03  0.47883859604E+03  0.10566000000E+00 0.  1.
         13    1    1    2    0    0 -0.11179480596E+03 -0.21940277136E+02 -0.14065895272E+03  0.18100941010E+03  0.10566000000E+00 0. -1.
          4    1    1    2  501    0 -0.59497943623E+02  0.41063865224E+02 -0.23600172237E+03  0.24682596963E+03  0.00000000000E+00 0.  1.
</event>
<event>
 5    1  0.2540860E-005  0.2431610E+03  0.7818608E-02  0.1048851E+00
         21   -1    0    0  501  502  0.00000000000E+00  0.00000000000E+00  0.28232682762E+03  0.28232682762E+03  0.00000000000E+00 0. -1.
         -4   -1    0    0    0  501 -0.00000000000E+00 -0.00000000000E+00 -0.12647733446E+04  0.12647733446E+04  0.00000000000E+00 0. -1.
        -13    1    1    2    0    0 -0.11961489156E+03 -0.98931016577E+02 -0.23412840175E+03  0.28091135255E+03  0.10566000000E+00 0.  1.
         13    1    1    2    0    0  0.33380800033E+03 -0.73122951325E+01 -0.91547150895E+03  0.97445848840E+03  0.10566000000E+00 0. -1.
         -4    1    1    2    0  502 -0.21419310877E+03  0.10624331171E+03  0.16715339375E+03  0.29173033125E+03  0.00000000000E+00 0. -1.
</event>
<event>
 5    1  0.2540860E-005  0.4617700E+03  0.7818608E-02  0.9891978E-01
         -4   -1    0    0    0  501 -0.00000000000E+00  0.00000000000E+00  0.65163544957E+03  0.65163544957E+03  0.00000000000E+00 0. -1.
         21   -1    0    0  501  502  0.00000000000E+00 -0.00000000000E+00 -0.60090941535E+03  0.60090941535E+03  0.00000000000E+00 0. -1.
        -13    1    1    2    0    0  0.11338719563E+03  0.97043786400E+02  0.19223778021E+03  0.24337117314E+03  0.10566000000E+00 0.  1.
         13    1    1    2    0    0 -0.48979326379E+03  0.14087260310E+03  0.73094676004E+02  0.51486442330E+03  0.10566000000E+00 0. -1.
         -4    1    1    2    0  502  0.37640606816E+03 -0.23791638950E+03 -0.21460642201E+03  0.49430926848E+03  0.00000000000E+00 0. -1.
</event>
<event>
 5    1  0.2540860E-005  0.8813344E+02  0.7818608E-02  0.1189283E+00
          4   -1    0    0  502    0 -0.00000000000E+00  0.00000000000E+00  0.96744053288E+03  0.96744053288E+03  0.00000000000E+00 0.  1.
         21   -1    0    0  501  502  0.00000000000E+00 -0.00000000000E+00 -0.37190383855E+03  0.37190383855E+03  0.00000000000E+00 0.  1.
        -13    1    1    2    0    0  0.39407163820E+02  0.11278847523E+03  0.68444326943E+03  0.69479260570E+03  0.10566000000E+00 0.  1.
         13    1    1    2    0    0 -0.74771709677E+02 -0.32058586566E+02  0.26636451468E+03  0.27851144929E+03  0.10566000000E+00 0. -1.
          4    1    1    2  501    0  0.35364545857E+02 -0.80729888663E+02 -0.35527108978E+03  0.36604031644E+03  0.00000000000E+00 0.  1.
</event>
<event>
 5    1  0.2540860E-005  0.1309346E+03  0.7818608E-02  0.1121600E+00
         -4   -1    0    0    0  501 -0.00000000000E+00  0.00000000000E+00  0.51161841126E+02  0.51161841126E+02  0.00000000000E+00 0. -1.
         21   -1    0    0  501  502  0.00000000000E+00 -0.00000000000E+00 -0.51928457317E+03  0.51928457317E+03  0.00000000000E+00 0. -1.
        -13    1    1    2    0    0 -0.12557659033E+03 -0.17311068916E+02 -0.15921501172E+03  0.20351556271E+03  0.10566000000E+00 0.  1.
         13    1    1    2    0    0  0.12869817007E+03  0.43417971772E+02 -0.13661971299E+03  0.19264811547E+03  0.10566000000E+00 0. -1.
         -4    1    1    2    0  502 -0.31215797404E+01 -0.26106902857E+02 -0.17228800734E+03  0.17428273612E+03  0.00000000000E+00 0. -1.
</event>
<event>
 5    1  0.2540860E-005  0.2886251E+03  0.7818608E-02  0.1093221E+00
          4   -1    0    0  502    0 -0.00000000000E+00  0.00000000000E+00  0.99756396563E+03  0.99756396563E+03  0.00000000000E+00 0.  1.
         21   -1    0    0  501  502  0.00000000000E+00 -0.00000000000E+00 -0.30667005257E+03  0.30667005257E+03  0.00000000000E+00 0.  1.
        -13    1    1    2    0    0 -0.25956444385E+03 -0.12444825276E+03 -0.20342063151E+03  0.35247841439E+03  0.10566000000E+00 0.  1.
         13    1    1    2    0    0 -0.19172747650E+02  0.17713912109E+02  0.53327488146E+02  0.59373471270E+02  0.10566000000E+00 0. -1.
          4    1    1    2  501    0  0.27873719150E+03  0.10673434065E+03  0.84098705643E+03  0.89238213254E+03  0.00000000000E+00 0.  1.
</event>
<event>
 5    1  0.2540860E-005  0.3728921E+03  0.7818608E-02  0.9810774E-01
          4   -1    0    0  502    0 -0.00000000000E+00  0.00000000000E+00  0.90462050692E+03  0.90462050692E+03  0.00000000000E+00 0.  1.
         21   -1    0    0  501  502  0.00000000000E+00 -0.00000000000E+00 -0.13870286648E+04  0.13870286648E+04  0.00000000000E+00 0.  1.
        -13    1    1    2    0    0  0.26574402859E+03 -0.52376189209E+03 -0.10515289297E+04  0.12044332731E+04  0.10566000000E+00 0.  1.
         13    1    1    2    0    0 -0.31619000931E+03  0.18699363007E+03  0.64136093452E+03  0.73911203425E+03  0.10566000000E+00 0. -1.
          4    1    1    2  501    0  0.50445980716E+02  0.33676826203E+03 -0.72240162774E+02  0.34810386438E+03  0.00000000000E+00 0.  1.
</event>
<event>
 5    1  0.2540860E-005  0.5258049E+03  0.7818608E-02  0.9423138E-01
         21   -1    0    0  501  502  0.00000000000E+00  0.00000000000E+00  0.32268974889E+03  0.32268974889E+03  0.00000000000E+00 0. -1.
         -4   -1    0    0    0  501 -0.00000000000E+00 -0.00000000000E+00 -0.19125687826E+04  0.19125687826E+04  0.00000000000E+00 0. -1.
        -13    1    1    2    0    0  0.22520793324E+03 -0.39446758338E+03 -0.59406954150E+03  0.74782479154E+03  0.10566000000E+00 0.  1.
         13    1    1    2    0    0 -0.46226796298E+03  0.40885006244E+03 -0.10729118125E+04  0.12377357600E+04  0.10566000000E+00 0. -1.
         -4    1    1    2    0  502  0.23706002974E+03 -0.14382479058E+02  0.77102320245E+02  0.24969797995E+03  0.00000000000E+00 0. -1.
</event>
<event>
 5    1  0.2540860E-005  0.4854950E+03  0.7818608E-02  0.9590836E-01
         21   -1    0    0  501  502  0.00000000000E+00  0.00000000000E+00  0.19543880403E+04  0.19543880403E+04  0.00000000000E+00 0.  1.
          4   -1    0    0  502    0 -0.00000000000E+00 -0.00000000000E+00 -0.27782892552E+03  0.27782892552E+03  0.00000000000E+00 0.  1.
        -13    1    1    2    0    0  0.22582366507E+03  0.39136417356E+03  0.66924254179E+03  0.80749478943E+03  0.10566000000E+00 0.  1.
         13    1    1    2    0    0  0.32574904049E+03 -0.16133277833E+03  0.18414776485E+03  0.40749369714E+03  0.10566000000E+00 0. -1.
          4    1    1    2  501    0 -0.55157270556E+03 -0.23003139523E+03  0.82316880813E+03  0.10172284792E+04  0.00000000000E+00 0.  1.
</event>
<event>
 5    1  0.2540860E-005  0.1870523E+03  0.7818608E-02  0.1069394E+00
         21   -1    0    0  501  502  0.00000000000E+00  0.00000000000E+00  0.55779369700E+02  0.55779369700E+02  0.00000000000E+00 0.  1.
         -4   -1    0    0    0  501 -0.00000000000E+00 -0.00000000000E+00 -0.11580572926E+04  0.11580572926E+04  0.00000000000E+00 0. -1.
        -13    1    1    2    0    0  0.11061872757E+03  0.19555006991E+03 -0.43603908528E+03  0.49051649084E+03  0.10566000000E+00 0.  1.
         13    1    1    2    0    0 -0.78833163725E+02 -0.15235244760E+03 -0.64189722047E+03  0.66442304957E+03  0.10566000000E+00 0. -1.
         -4    1    1    2    0  502 -0.31785563847E+02 -0.43197622313E+02 -0.24341617172E+02  0.58897121908E+02  0.00000000000E+00 0. -1.
</event>
<event>
 5    1  0.2540860E-005  0.4871400E+02  0.7818608E-02  0.1297115E+00
         -4   -1    0    0    0  501 -0.00000000000E+00  0.00000000000E+00  0.24798352930E+03  0.24798352930E+03  0.00000000000E+00 0. -1.
         21   -1    0    0  501  502  0.00000000000E+00 -0.00000000000E+00 -0.70978335894E+02  0.70978335894E+02  0.00000000000E+00 0.  1.
        -13    1    1    2    0    0 -0.44923693556E+02 -0.11876863842E+02 -0.39931595407E+02  0.61267786097E+02  0.10566000000E+00 0.  1.
         13    1    1    2    0    0  0.48863554413E+02 -0.26696989744E+01  0.23157221128E+03  0.23668644753E+03  0.10566000000E+00 0. -1.
         -4    1    1    2    0  502 -0.39398608568E+01  0.14546562816E+02 -0.14635422467E+02  0.21007631569E+02  0.00000000000E+00 0. -1.
</event>
<event>
 5    1  0.2540860E-005  0.8009591E+02  0.7818608E-02  0.1202480E+00
         21   -1    0    0  501  502  0.00000000000E+00  0.00000000000E+00  0.11536702121E+03  0.11536702121E+03  0.00000000000E+00 0. -1.
          4   -1    0    0  502    0 -0.00000000000E+00 -0.00000000000E+00 -0.12864353249E+03  0.12864353249E+03  0.00000000000E+00 0.  1.
        -13    1    1    2    0    0 -0.78573100963E+02 -0.71477928902E+01 -0.73612921570E+02  0.10790596149E+03  0.10566000000E+00 0.  1.
         13    1    1    2    0    0  0.84654277078E+02 -0.14208037051E+02  0.17136603518E+02  0.87532218575E+02  0.10566000000E+00 0. -1.
          4    1    1    2  501    0 -0.60811761151E+01  0.21355829941E+02  0.43199806777E+02  0.48572373640E+02  0.00000000000E+00 0.  1.
</event>
<event>
 5    1  0.2540860E-005  0.2249275E+03  0.7818608E-02  0.1044272E+00
         21   -1    0    0  501  502  0.00000000000E+00  0.00000000000E+00  0.21252994434E+03  0.21252994434E+03  0.00000000000E+00 0. -1.
         -4   -1    0    0    0  501 -0.00000000000E+00 -0.00000000000E+00 -0.95969031812E+03  0.95969031812E+03  0.00000000000E+00 0. -1.
        -13    1    1    2    0    0 -0.17684412924E+03 -0.16551234674E+03 -0.18195461583E+03  0.30294500550E+03  0.10566000000E+00 0.  1.
         13    1    1    2    0    0  0.15871348869E+03  0.15249309573E+03 -0.69941142395E+03  0.73322606803E+03  0.10566000000E+00 0. -1.
         -4    1    1    2    0  502  0.18130640551E+02  0.13019251011E+02  0.13420566600E+03  0.13604918893E+03  0.00000000000E+00 0. -1.
</event>
<event>
 5    1  0.2540860E-005  0.2882578E+03  0.7818608E-02  0.1012273E+00
         -4   -1    0    0    0  501 -0.00000000000E+00  0.00000000000E+00  0.10723397078E+04  0.10723397078E+04  0.00000000000E+00 0. -1.
         21   -1    0    0  501  502  0.00000000000E+00 -0.00000000000E+00 -0.38137932910E+03  0.38137932910E+03  0.00000000000E+00 0. -1.
        -13    1    1    2    0    0 -0.84796384502E+02  0.26993003161E+03  0.80253656722E+03  0.85095099840E+03  0.10566000000E+00 0.  1.
         13    1    1    2    0    0 -0.81978695449E+02 -0.36012243920E+03  0.23327868009E+02  0.37007145028E+03  0.10566000000E+00 0. -1.
         -4    1    1    2    0  502  0.16677507995E+03  0.90192407592E+02 -0.13490405655E+03  0.23269658819E+03  0.00000000000E+00 0. -1.
</event>
<event>
 5    1  0.2540860E-005  0.3751783E+03  0.7818608E-02  0.9898100E-01
          4   -1    0    0  502    0 -0.00000000000E+00  0.00000000000E+00  0.27576497319E+04  0.27576497319E+04  0.00000000000E+00 0.  1.
         21   -1    0    0  501  502  0.00000000000E+00 -0.00000000000E+00 -0.17681219391E+03  0.17681219391E+03  0.00000000000E+00 0.  1.
        -13    1    1    2    0    0  0.21927001177E+03 -0.10477310334E+03  0.13741400933E+04  0.13954632738E+04  0.10566000000E+00 0.  1.
         13    1    1    2    0    0 -0.44295220026E+02 -0.26899949622E+03  0.10700970617E+04  0.11042782839E+04  0.10566000000E+00 0. -1.
          4    1    1    2  501    0 -0.17497479174E+03  0.37377259955E+03  0.13660038300E+03  0.43472036823E+03  0.00000000000E+00 0.  1.
</event>
<event>
 5    1  0.2540860E-005  0.4856145E+03  0.7818608E-02  0.9933076E-01
          4   -1    0    0  502    0 -0.00000000000E+00  0.00000000000E+00  0.17470183860E+04  0.17470183860E+04  0.00000000000E+00 0.  1.
         21   -1    0    0  501  502  0.00000000000E+00 -0.00000000000E+00 -0.23179769703E+03  0.23179769703E+03  0.00000000000E+00 0.  1.
        -13    1    1    2    0    0 -0.41388776157E+03 -0.31804679363E+03  0.59108321733E+03  0.78856592818E+03  0.10566000000E+00 0.  1.
         13    1    1    2    0    0  0.10671647941E+03 -0.33588595375E+02  0.62679926585E+03  0.63670552970E+03  0.10566000000E+00 0. -1.
          4    1    1    2  501    0  0.30717128216E+03  0.35163538900E+03  0.29733820575E+03  0.55354462510E+03  0.00000000000E+00 0.  1.
</event>
<event>
 5    1  0.2540860E-005  0.6804223E+03  0.7818608E-02  0.9151872E-01
         -4   -1    0    0    0  501 -0.00000000000E+00  0.00000000000E+00  0.89057423753E+03  0.89057423753E+03  0.00000000000E+00 0. -1.
         21   -1    0    0  501  502  0.00000000000E+00 -0.00000000000E+00 -0.62552559255E+03  0.62552559255E+03  0.00000000000E+00 0.  1.
        -13    1    1    2    0    0  0.69926104952E+03  0.73444914683E+02  0.23958839779E+03  0.74280736560E+03  0.10566000000E+00 0.  1.
         13    1    1    2    0    0 -0.65193005661E+03 -0.71224787297E+02  0.12078627752E+03  0.66683963967E+03  0.10566000000E+00 0. -1.
         -4    1    1    2    0  502 -0.47330992911E+02 -0.22201273863E+01 -0.95326030319E+02  0.10645282482E+03  0.00000000000E+00 0. -1.
</event>
<event>
 5    1  0.2540860E-005  0.9065027E+02  0.7818608E-02  0.1181026E+00
         21   -1    0    0  501  502  0.00000000000E+00  0.00000000000E+00  0.60165585717E+02  0.60165585717E+02  0.00000000000E+00 0.  1.
         -4   -1    0    0    0  501 -0.00000000000E+00 -0.00000000000E+00 -0.31841407173E+03  0.31841407173E+03  0.00000000000E+00 0. -1.
        -13    1    1    2    0    0  0.53496220073E+02 -0.87914493658E+02 -0.24568863583E+02  0.10580379945E+03  0.10566000000E+00 0.  1.
         13    1    1    2    0    0 -0.39486328178E+02  0.79008229110E+02 -0.23943370972E+03  0.25520576580E+03  0.10566000000E+00 0. -1.
         -4    1    1    2    0  502 -0.14009891895E+02  0.89062645484E+01  0.57540872946E+01  0.17570092194E+02  0.00000000000E+00 0. -1.
</event>
<event>
 5    1  0.2540860E-005  0.2831187E+03  0.7818608E-02  0.1070851E+00
         21   -1    0    0  501  502  0.00000000000E+00  0.00000000000E+00  0.17952313712E+04  0.17952313712E+04  0.00000000000E+00 0.  1.
          4   -1    0    0  502    0 -0.00000000000E+00 -0.00000000000E+00 -0.17539243542E+03  0.17539243542E+03  0.00000000000E+00 0.  1.
        -13    1    1    2    0    0 -0.17515098361E+03  0.17685408180E+03 -0.18902723764E+02  0.24962483338E+03  0.10566000000E+00 0.  1.
         13    1    1    2    0    0  0.24318953369E+01  0.51682882978E+02 -0.54615844079E+01  0.52027632813E+02  0.10566000000E+00 0. -1.
          4    1    1    2  501    0  0.17271908828E+03 -0.22853696478E+03  0.16442032439E+04  0.16689713404E+04  0.00000000000E+00 0.  1.
</event>
<event>
 5    1  0.2540860E-005  0.7522017E+02  0.7818608E-02  0.1219755E+00
         -4   -1    0    0    0  501 -0.00000000000E+00  0.00000000000E+00  0.11222394365E+03  0.11222394365E+03  0.00000000000E+00 0. -1.
         21   -1    0    0  501  502  0.00000000000E+00 -0.00000000000E+00 -0.12293344582E+03  0.12293344582E+03  0.00000000000E+00 0.  1.
        -13    1    1    2    0    0 -0.38281052138E+02  0.53424495561E+02  0.85411684730E+01  0.66276529795E+02  0.10566000000E+00 0.  1.
         13    1    1    2    0    0 -0.38976399397E+02 -0.74692431493E+02  0.70469592651E+01  0.84544602614E+02  0.10566000000E+00 0. -1.
         -4    1    1    2    0  502  0.77257451535E+02  0.21267935932E+02 -0.26297629905E+02  0.84336257061E+02  0.00000000000E+00 0. -1.
</event>
<event>
 5    1  0.2540860E-005  0.1377439E+03  0.7818608E-02  0.1113871E+00
         21   -1    0    0  501  502  0.00000000000E+00  0.00000000000E+00  0.44604227286E+03  0.44604227286E+03  0.00000000000E+00 0. -1.
         -4   -1    0    0    0  501 -0.00000000000E+00 -0.00000000000E+00 -0.13246992787E+03  0.13246992787E+03  0.00000000000E+00 0. -1.
        -13    1    1    2    0    0 -0.24577654682E+01 -0.13983031293E+03  0.27682176994E+03  0.31014329028E+03  0.10566000000E+00 0.  1.
         13    1    1    2    0    0 -0.64865735985E+02  0.12381654608E+03 -0.57750752895E+02  0.15123908692E+03  0.10566000000E+00 0. -1.
         -4    1    1    2    0  502  0.67323501454E+02  0.16013766856E+02  0.94501327948E+02  0.11712982353E+03  0.00000000000E+00 0. -1.
</event>
<event>
 5    1  0.2540860E-005  0.6089809E+03  0.7818608E-02  0.9266634E-01
         21   -1    0    0  501  502  0.00000000000E+00  0.00000000000E+00  0.33864888939E+03  0.33864888939E+03  0.00000000000E+00 0. -1.
         -4   -1    0    0    0  501 -0.00000000000E+00 -0.00000000000E+00 -0.24485112831E+04  0.24485112831E+04  0.00000000000E+00 0. -1.
        -13    1    1    2    0    0 -0.93321253844E+02 -0.53833164160E+03 -0.12648036878E+04  0.13777656523E+04  0.10566000000E+00 0.  1.
         13    1    1    2    0    0  0.20784513989E+03  0.74462678601E+03 -0.87946005139E+03  0.11709477554E+04  0.10566000000E+00 0. -1.
         -4    1    1    2    0  502 -0.11452388605E+03 -0.20629514441E+03  0.34401345508E+02  0.23844676483E+03  0.00000000000E+00 0. -1.
</event>
<event>
 5    1  0.2540860E-005  0.2792312E+03  0.7818608E-02  0.1016266E+00
          4   -1    0    0  502    0 -0.00000000000E+00  0.00000000000E+00  0.96502737649E+03  0.96502737649E+03  0.00000000000E+00 0.  1.
         21   -1    0    0  501  502  0.00000000000E+00 -0.00000000000E+00 -0.10912582932E+03  0.10912582932E+03  0.00000000000E+00 0. -1.
        -13    1    1    2    0    0  0.25483918700E+03 -0.10570080172E+03  0.62186349798E+03  0.68031602362E+03  0.10566000000E+00 0.  1.
         13    1    1    2    0    0 -0.26734366019E+03  0.10394097826E+03  0.24491308194E+03  0.37717209397E+03  0.10566000000E+00 0. -1.
          4    1    1    2  501    0  0.12504473183E+02  0.17598234568E+01 -0.10875032741E+02  0.16665088218E+02  0.00000000000E+00 0.  1.
</event>
<event>
 5    1  0.2540860E-005  0.6642491E+02  0.7818608E-02  0.1286062E+00
         21   -1    0    0  501  502  0.00000000000E+00  0.00000000000E+00  0.55126347510E+03  0.55126347510E+03  0.00000000000E+00 0.  1.
          4   -1    0    0  502    0 -0.00000000000E+00 -0.00000000000E+00 -0.15770674312E+02  0.15770674312E+02  0.00000000000E+00 0.  1.
        -13    1    1    2    0    0 -0.59501668804E+02 -0.56654630455E+02  0.25026914410E+03  0.26341004422E+03  0.10566000000E+00 0.  1.
         13    1    1    2    0    0  0.19978656599E+02  0.13074165116E+02  0.17737038829E+02  0.29743809834E+02  0.10566000000E+00 0. -1.
          4    1    1    2  501    0  0.39523012205E+02  0.43580465338E+02  0.26748661785E+03  0.27388029535E+03  0.00000000000E+00 0.  1.
</event>
<event>
 5    1  0.2540860E-005  0.4525623E+03  0.7818608E-02  0.1009712E+00
          4   -1    0    0  502    0 -0.00000000000E+00  0.00000000000E+00  0.35439243764E+04  0.35439243764E+04  0.00000000000E+00 0.  1.
         21   -1    0    0  501  502  0.00000000000E+00 -0.00000000000E+00 -0.84543451405E+02  0.84543451405E+02  0.00000000000E+00 0.  1.
        -13    1    1    2    0    0 -0.24465902849E+03  0.38504546969E+03  0.83804907306E+03  0.95417205679E+03  0.10566000000E+00 0.  1.
         13    1    1    2    0    0  0.75052028260E+02  0.30106381968E+02  0.37043193752E+03  0.37915568396E+03  0.10566000000E+00 0. -1.
          4    1    1    2  501    0  0.16960700023E+03 -0.41515185165E+03  0.22508999144E+04  0.22951400870E+04  0.00000000000E+00 0.  1.
</event>
<event>
 5    1  0.2540860E-005  0.3142309E+03  0.7818608E-02  0.1001598E+00
          4   -1    0    0  502    0 -0.00000000000E+00  0.00000000000E+00  0.62988608463E+03  0.62988608463E+03  0.00000000000E+00 0.  1.
         21   -1    0    0  501  502  0.00000000000E+00 -0.00000000000E+00 -0.80221181581E+03  0.80221181581E+03  0.00000000000E+00 0.  1.
        -13    1    1    2    0    0  0.29552507006E+02 -0.32376915970E+03  0.34766030255E+03  0.47599108875E+03  0.10566000000E+00 0.  1.
         13    1    1    2    0    0  0.24079791468E+03  0.27687610896E+03  0.13848978318E+01  0.36694133664E+03  0.10566000000E+00 0. -1.
          4    1    1    2  501    0 -0.27035042169E+03  0.46893050740E+02 -0.52137093156E+03  0.58916547505E+03  0.00000000000E+00 0.  1.
</event>
<event>
 5    1  0.2540860E-005  0.4548077E+03  0.7818608E-02  0.9582937E-01
         21   -1    0    0  501  502  0.00000000000E+00  0.00000000000E+00  0.32311344152E+03  0.32311344152E+03  0.00000000000E+00 0.  1.
          4   -1    0    0  502    0 -0.00000000000E+00 -0.00000000000E+00 -0.17601574516E+04  0.17601574516E+04  0.00000000000E+00 0.  1.
        -13    1    1    2    0    0  0.33945244296E+03 -0.29720258521E+03 -0.10210388976E+04  0.11162785402E+04  0.10566000000E+00 0.  1.
         13    1    1    2    0    0 -0.34371296730E+03  0.30673236831E+03 -0.61462058785E+03  0.76810274562E+03  0.10566000000E+00 0. -1.
          4    1    1    2  501    0  0.42605243408E+01 -0.95297830988E+01  0.19861547538E+03  0.19888960731E+03  0.00000000000E+00 0.  1.
</event>
<event>
 5    1  0.2540860E-005  0.3353212E+03  0.7818608E-02  0.9937079E-01
         21   -1    0    0  501  502  0.00000000000E+00  0.00000000000E+00  0.98743023241E+02  0.98743023241E+02  0.00000000000E+00 0. -1.
          4   -1    0    0  502    0 -0.00000000000E+00 -0.00000000000E+00 -0.13936530613E+04  0.13936530613E+04  0.00000000000E+00 0.  1.
        -13    1    1    2    0    0 -0.21835025520E+02  0.33768935707E+03 -0.61293397695E+03  0.70014208664E+03  0.10566000000E+00 0.  1.
         13    1    1    2    0    0  0.50859979022E+02 -0.32933054866E+03 -0.68514344525E+03  0.76188378345E+03  0.10566000000E+00 0. -1.
          4    1    1    2  501    0 -0.29024953501E+02 -0.83588084090E+01  0.31673841433E+01  0.30370214456E+02  0.00000000000E+00 0.  1.
</event>
<event>
 5    1  0.2540860E-005  0.1954192E+03  0.7818608E-02  0.1063322E+00
          4   -1    0    0  502    0 -0.00000000000E+00  0.00000000000E+00  0.88547412980E+02  0.88547412980E+02  0.00000000000E+00 0.  1.
         21   -1    0    0  501  502  0.00000000000E+00 -0.00000000000E+00 -0.65352123552E+03  0.65352123552E+03  0.00000000000E+00 0. -1.
        -13    1    1    2    0    0  0.14044828458E+03  0.13297735110E+03 -0.27581575260E+03  0.33687243446E+03  0.10566000000E+00 0.  1.
         13    1    1    2    0    0 -0.11482758136E+03 -0.16117391783E+03 -0.11920295936E+03  0.23102329301E+03  0.10566000000E+00 0. -1.
          4    1    1    2  501    0 -0.25620703226E+02  0.28196566734E+02 -0.16995511057E+03  0.17417292103E+03  0.00000000000E+00 0.  1.
</event>
<event>
 5    1  0.2540860E-005  0.4902723E+03  0.7818608E-02  0.9511197E-01
          4   -1    0    0  502    0 -0.00000000000E+00  0.00000000000E+00  0.25129377662E+04  0.25129377662E+04  0.00000000000E+00 0.  1.
         21   -1    0    0  501  502  0.00000000000E+00 -0.00000000000E+00 -0.36857800674E+03  0.36857800674E+03  0.00000000000E+00 0.  1.
        -13    1    1    2    0    0  0.97077793591E+02 -0.19566273913E+03  0.50803026721E+03  0.55299436621E+03  0.10566000000E+00 0.  1.
         13    1    1    2    0    0  0.30071315218E+03 -0.36118809649E+03  0.15724768306E+04  0.16412095037E+04  0.10566000000E+00 0. -1.
          4    1    1    2  501    0 -0.39779094577E+03  0.55685083562E+03  0.63852661611E+02  0.68731190305E+03  0.00000000000E+00 0.  1.
</event>
<event>
 5    1  0.2540860E-005  0.6931855E+03  0.7818608E-02  0.9132922E-01
         21   -1    0    0  501  502  0.00000000000E+00  0.00000000000E+00  0.29190997053E+03  0.29190997053E+03  0.00000000000E+00 0.  1.
         -4   -1    0    0    0  501 -0.00000000000E+00 -0.00000000000E+00 -0.17923055851E+04  0.17923055851E+04  0.00000000000E+00 0. -1.
        -13    1    1    2    0    0  0.68159061365E+03  0.88481962009E+02 -0.91115743739E+03  0.11413162178E+04  0.10566000000E+00 0.  1.
         13    1    1    2    0    0 -0.69270685024E+03 -0.11217994329E+03 -0.58986557101E+03  0.91671616277E+03  0.10566000000E+00 0. -1.
         -4    1    1    2    0  502  0.11116236590E+02  0.23697981284E+02  0.62739381015E+00  0.26183175053E+02  0.00000000000E+00 0. -1.
</event>
<event>
 5    1  0.2540860E-005  0.4782125E+03  0.7818608E-02  0.9573351E-01
         -4   -1    0    0    0  501 -0.00000000000E+00  0.00000000000E+00  0.14302049559E+04  0.14302049559E+04  0.00000000000E+00 0. -1.
         21   -1    0    0  501  502  0.00000000000E+00 -0.00000000000E+00 -0.66602248703E+03  0.66602248703E+03  0.00000000000E+00 0. -1.
        -13    1    1    2    0    0  0.34976340030E+03 -0.20394399308E+03  0.93405966242E+03  0.10180348975E+04  0.10566000000E+00 0.  1.
         13    1    1    2    0    0  0.21350583274E+02  0.54110601290E+03  0.20372598688E+02  0.54191015727E+03  0.10566000000E+00 0. -1.
         -4    1    1    2    0  502 -0.37111398358E+03 -0.33716201983E+03 -0.19024979219E+03  0.53628238816E+03  0.00000000000E+00 0. -1.
</event>
<event>
 5    1  0.2540860E-005  0.4753857E+03  0.7818608E-02  0.1051041E+00
         21   -1    0    0  501  502  0.00000000000E+00  0.00000000000E+00  0.41808989533E+03  0.41808989533E+03  0.00000000000E+00 0.  1.
          4   -1    0    0  502    0 -0.00000000000E+00 -0.00000000000E+00 -0.63295528066E+03  0.63295528066E+03  0.00000000000E+00 0.  1.
        -13    1    1    2    0    0 -0.17829579434E+03 -0.43399852356E+03  0.61492916605E+02  0.47320766973E+03  0.10566000000E+00 0.  1.
         13    1    1    2    0    0 -0.12102656355E+01 -0.19425386727E+02 -0.14854077061E+02  0.24483977654E+02  0.10566000000E+00 0. -1.
          4    1    1    2  501    0  0.17950605997E+03  0.45342391029E+03 -0.26150422488E+03  0.55335352861E+03  0.00000000000E+00 0.  1.
</event>
<event>
 5    1  0.2540860E-005  0.1120197E+03  0.7818608E-02  0.1185237E+00
         21   -1    0    0  501  502  0.00000000000E+00  0.00000000000E+00  0.33884318995E+03  0.33884318995E+03  0.00000000000E+00 0.  1.
          4   -1    0    0  502    0 -0.00000000000E+00 -0.00000000000E+00 -0.11173615427E+03  0.11173615427E+03  0.00000000000E+00 0.  1.
        -13    1    1    2    0    0  0.45537206155E+02  0.13435269812E+03  0.13061268653E+03  0.19283145408E+03  0.10566000000E+00 0.  1.
         13    1    1    2    0    0 -0.12484797447E+02 -0.41698794254E+02 -0.59260351324E+02  0.73528633964E+02  0.10566000000E+00 0. -1.
          4    1    1    2  501    0 -0.33052408708E+02 -0.92653903869E+02  0.15575470048E+03  0.18421925617E+03  0.00000000000E+00 0.  1.
</event>
<event>
 5    1  0.2540860E-005  0.9933090E+02  0.7818608E-02  0.1194252E+00
         21   -1    0    0  501  502  0.00000000000E+00  0.00000000000E+00  0.25927394694E+03  0.25927394694E+03  0.00000000000E+00 0. -1.
         -4   -1    0    0    0  501 -0.00000000000E+00 -0.00000000000E+00 -0.65153189428E+02  0.65153189428E+02  0.00000000000E+00 0. -1.
        -13    1    1    2    0    0 -0.39374843474E+02 -0.31891683262E+02  0.16896342206E+02  0.53413063045E+02  0.10566000000E+00 0.  1.
         13    1    1    2    0    0  0.20500398323E+02  0.11547467654E+03  0.12110056157E+03  0.16858239656E+03  0.10566000000E+00 0. -1.
         -4    1    1    2    0  502  0.18874445151E+02 -0.83582993281E+02  0.56123853732E+02  0.10243167676E+03  0.00000000000E+00 0. -1.
</event>
<event>
 5    1  0.2540860E-005  0.5292288E+03  0.7818608E-02  0.9450565E-01
          4   -1    0    0  502    0 -0.00000000000E+00  0.00000000000E+00  0.10520817171E+04  0.10520817171E+04  0.00000000000E+00 0.  1.
         21   -1    0    0  501  502  0.00000000000E+00 -0.00000000000E+00 -0.80350708335E+03  0.80350708335E+03  0.00000000000E+00 0.  1.
        -13    1    1    2    0    0  0.18468957902E+03 -0.33693692221E+03  0.40219004713E+02  0.38633445310E+03  0.10566000000E+00 0.  1.
         13    1    1    2    0    0 -0.41852463341E+03 -0.37792288334E+03  0.40208148287E+03  0.69257353729E+03  0.10566000000E+00 0. -1.
          4    1    1    2  501    0  0.23383505440E+03  0.71485980555E+03 -0.19372585384E+03  0.77668081005E+03  0.00000000000E+00 0.  1.
</event>
<event>
 5    1  0.2540860E-005  0.3476209E+03  0.7818608E-02  0.1032677E+00
         -4   -1    0    0    0  501 -0.00000000000E+00  0.00000000000E+00  0.55192104142E+03  0.55192104142E+03  0.00000000000E+00 0. -1.
         21   -1    0    0  501  502  0.00000000000E+00 -0.00000000000E+00 -0.54191294023E+03  0.54191294023E+03  0.00000000000E+00 0. -1.
        -13    1    1    2    0    0  0.86171063807E+02 -0.93166613598E+01  0.78963616682E+01  0.87032270499E+02  0.10566000000E+00 0.  1.
         13    1    1    2    0    0 -0.40679888005E+03  0.10891226239E+03  0.33189123829E+03  0.53618934615E+03  0.10566000000E+00 0. -1.
         -4    1    1    2    0  502  0.32062781624E+03 -0.99595601028E+02 -0.32977949876E+03  0.47061236501E+03  0.00000000000E+00 0. -1.
</event>
<event>
 5    1  0.2540860E-005  0.4654016E+03  0.7818608E-02  0.1025142E+00
         21   -1    0    0  501  502  0.00000000000E+00  0.00000000000E+00  0.14019592726E+03  0.14019592726E+03  0.00000000000E+00 0. -1.
         -4   -1    0    0    0  501 -0.00000000000E+00 -0.00000000000E+00 -0.20520593909E+04  0.20520593909E+04  0.00000000000E+00 0. -1.
        -13    1    1    2    0    0 -0.45281392917E+02  0.54585578666E+01 -0.13381029037E+03  0.14136974702E+03  0.10566000000E+00 0.  1.
         13    1    1    2    0    0  0.19361084695E+03  0.42745974695E+03 -0.46607596924E+03  0.66138779516E+03  0.10566000000E+00 0. -1.
         -4    1    1    2    0  502 -0.14832945403E+03 -0.43291830482E+03 -0.13119772040E+04  0.13894977760E+04  0.00000000000E+00 0. -1.
</event>
<event>
 5    1  0.2540860E-005  0.2879479E+03  0.7818608E-02  0.1012408E+00
         21   -1    0    0  501  502  0.00000000000E+00  0.00000000000E+00  0.28968762999E+03  0.28968762999E+03  0.00000000000E+00 0. -1.
          4   -1    0    0  502    0 -0.00000000000E+00 -0.00000000000E+00 -0.54144851612E+03  0.54144851612E+03  0.00000000000E+00 0.  1.
        -13    1    1    2    0    0 -0.28423368051E+03 -0.23999373433E+02 -0.32062760725E+03  0.42914662850E+03  0.10566000000E+00 0.  1.
         13    1    1    2    0    0  0.29009767608E+03  0.58996222915E+02 -0.29419256123E+02  0.29749406680E+03  0.10566000000E+00 0. -1.
          4    1    1    2  501    0 -0.58639955744E+01 -0.34996849482E+02  0.98285977233E+02  0.10449545080E+03  0.00000000000E+00 0.  1.
</event>
<event>
 5    1  0.2540860E-005  0.4706967E+03  0.7818608E-02  0.9902087E-01
         21   -1    0    0  501  502  0.00000000000E+00  0.00000000000E+00  0.33363867228E+03  0.33363867228E+03  0.00000000000E+00 0. -1.
         -4   -1    0    0    0  501 -0.00000000000E+00 -0.00000000000E+00 -0.11409748272E+04  0.11409748272E+04  0.00000000000E+00 0. -1.
        -13    1    1    2    0    0 -0.11718393265E+03  0.69464113922E+02 -0.29930878135E+03  0.32885117447E+03  0.10566000000E+00 0.  1.
         13    1    1    2    0    0 -0.88097225380E+02  0.43243800134E+03 -0.66127851840E+02  0.44624729699E+03  0.10566000000E+00 0. -1.
         -4    1    1    2    0  502  0.20528115803E+03 -0.50190211526E+03 -0.44189952177E+03  0.69951502806E+03  0.00000000000E+00 0. -1.
</event>
<event>
 5    1  0.2540860E-005  0.4804288E+03  0.7818608E-02  0.9675119E-01
         21   -1    0    0  501  502  0.00000000000E+00  0.00000000000E+00  0.15169243856E+03  0.15169243856E+03  0.00000000000E+00 0. -1.
         -4   -1    0    0    0  501 -0.00000000000E+00 -0.00000000000E+00 -0.45889815662E+04  0.45889815662E+04  0.00000000000E+00 0. -1.
        -13    1    1    2    0    0  0.27501693418E+03  0.44148994935E+02 -0.14255466210E+04  0.14525035724E+04  0.10566000000E+00 0.  1.
         13    1    1    2    0    0 -0.34178148889E+02 -0.47584472251E+03 -0.26040996760E+04  0.26474386639E+04  0.10566000000E+00 0. -1.
         -4    1    1    2    0  502 -0.24083878529E+03  0.43169572757E+03 -0.40764283062E+03  0.64073176842E+03  0.00000000000E+00 0. -1.
</event>
<event>
 5    1  0.2540860E-005  0.4189151E+03  0.7818608E-02  0.9725900E-01
          4   -1    0    0  502    0 -0.00000000000E+00  0.00000000000E+00  0.14409811106E+04  0.14409811106E+04  0.00000000000E+00 0.  1.
         21   -1    0    0  501  502  0.00000000000E+00 -0.00000000000E+00 -0.34498029792E+03  0.34498029792E+03  0.00000000000E+00 0.  1.
        -13    1    1    2    0    0  0.79371136665E+02  0.38771451222E+03  0.68206340339E+02  0.40158988577E+03  0.10566000000E+00 0.  1.
         13    1    1    2    0    0 -0.33194134462E+03  0.11725285103E+03  0.49989584560E+03  0.61141569734E+03  0.10566000000E+00 0. -1.
          4    1    1    2  501    0  0.25257020796E+03 -0.50496736325E+03  0.52789862670E+03  0.77295582537E+03  0.00000000000E+00 0.  1.
</event>
<event>
 5    1  0.2540860E-005  0.3754912E+03  0.7818608E-02  0.9802625E-01
         21   -1    0    0  501  502  0.00000000000E+00  0.00000000000E+00  0.26904813734E+03  0.26904813734E+03  0.00000000000E+00 0.  1.
          4   -1    0    0  502    0 -0.00000000000E+00 -0.00000000000E+00 -0.18894836465E+04  0.18894836465E+04  0.00000000000E+00 0.  1.
        -13    1    1    2    0    0  0.14984431297E+03 -0.36639347665E+03 -0.13247239827E+04  0.13826030303E+04  0.10566000000E+00 0.  1.
         13    1    1    2    0    0  0.58049348701E+02  0.36052746009E+03 -0.40138844035E+03  0.54264396023E+03  0.10566000000E+00 0. -1.
          4    1    1    2  501    0 -0.20789366167E+03  0.58660165596E+01  0.10567691382E+03  0.23328479339E+03  0.00000000000E+00 0.  1.
</event>
<event>
 5    1  0.2540860E-005  0.4503584E+03  0.7818608E-02  0.9955677E-01
         21   -1    0    0  501  502  0.00000000000E+00  0.00000000000E+00  0.14248057896E+03  0.14248057896E+03  0.00000000000E+00 0. -1.
         -4   -1    0    0    0  501 -0.00000000000E+00 -0.00000000000E+00 -0.25250674531E+04  0.25250674531E+04  0.00000000000E+00 0. -1.
        -13    1    1    2    0    0 -0.12489022323E+03  0.36583335495E+02 -0.59916081191E+03  0.61313097947E+03  0.10566000000E+00 0.  1.
         13    1    1    2    0    0 -0.22387989259E+03 -0.34873742967E+03 -0.13652496018E+04  0.14267608376E+04  0.10566000000E+00 0. -1.
         -4    1    1    2    0  502  0.34877011582E+03  0.31215409418E+03 -0.41817646037E+03  0.62765621499E+03  0.00000000000E+00 0. -1.
</event>
<event>
 5    1  0.2540860E-005  0.3799318E+03  0.7818608E-02  0.9788861E-01
         21   -1    0    0  501  502  0.00000000000E+00  0.00000000000E+00  0.11579001022E+04  0.11579001022E+04  0.00000000000E+00 0. -1.
          4   -1    0    0  502    0 -0.00000000000E+00 -0.00000000000E+00 -0.16919123952E+03  0.16919123952E+03  0.00000000000E+00 0.  1.
        -13    1    1    2    0    0  0.38069714728E+03 -0.47750647242E+02  0.49815843975E+03  0.62878635840E+03  0.10566000000E+00 0.  1.
         13    1    1    2    0    0 -0.37585465985E+03  0.37229670677E+02  0.24001970813E+03  0.44750669846E+03  0.10566000000E+00 0. -1.
          4    1    1    2  501    0 -0.48424874291E+01  0.10520976565E+02  0.25053071478E+03  0.25079828484E+03  0.00000000000E+00 0.  1.
</event>
<event>
 5    1  0.2540860E-005  0.4292814E+03  0.7818608E-02  0.9691228E-01
          4   -1    0    0  502    0 -0.00000000000E+00  0.00000000000E+00  0.34437936747E+04  0.34437936747E+04  0.00000000000E+00 0.  1.
         21   -1    0    0  501  502  0.00000000000E+00 -0.00000000000E+00 -0.14962022530E+03  0.14962022530E+03  0.00000000000E+00 0.  1.
        -13    1    1    2    0    0  0.51422100009E+03 -0.33157463801E+03  0.18193779211E+04  0.19195054072E+04  0.10566000000E+00 0.  1.
         13    1    1    2    0    0 -0.36738507657E+03 -0.35124865005E+02  0.93353848837E+03  0.10038424533E+04  0.10566000000E+00 0. -1.
          4    1    1    2  501    0 -0.14683592351E+03  0.36669950302E+03  0.54125703999E+03  0.67006603949E+03  0.00000000000E+00 0.  1.
</event>
<event>
 5    1  0.2540860E-005  0.4958431E+03  0.7818608E-02  0.9732829E-01
         21   -1    0    0  501  502  0.00000000000E+00  0.00000000000E+00  0.76212089326E+03  0.76212089326E+03  0.00000000000E+00 0. -1.
          4   -1    0    0  502    0 -0.00000000000E+00 -0.00000000000E+00 -0.51346806723E+03  0.51346806723E+03  0.00000000000E+00 0.  1.
        -13    1    1    2    0    0 -0.89757113066E+02 -0.40068259490E+03 -0.54514199724E+01  0.41064901114E+03  0.10566000000E+00 0.  1.
         13    1    1    2    0    0 -0.17764625999E+03 -0.10676826435E+03 -0.53519953548E+02  0.21406086179E+03  0.10566000000E+00 0. -1.
          4    1    1    2  501    0  0.26740337306E+03  0.50745085925E+03  0.30762419956E+03  0.65087908756E+03  0.00000000000E+00 0.  1.
</event>
<event>
 5    1  0.2540860E-005  0.3319766E+03  0.7818608E-02  0.1001509E+00
         21   -1    0    0  501  502  0.00000000000E+00  0.00000000000E+00  0.43945967562E+03  0.43945967562E+03  0.00000000000E+00 0. -1.
         -4   -1    0    0    0  501 -0.00000000000E+00 -0.00000000000E+00 -0.14787682957E+04  0.14787682957E+04  0.00000000000E+00 0. -1.
        -13    1    1    2    0    0  0.16676153597E+03 -0.20885299873E+03 -0.87107769649E+03  0.91115605109E+03  0.10566000000E+00 0.  1.
         13    1    1    2    0    0 -0.39664615182E+03 -0.35056447939E+02 -0.42683523397E+03  0.58373405967E+03  0.10566000000E+00 0. -1.
         -4    1    1    2    0  502  0.22988461585E+03  0.24390944667E+03  0.25860431042E+03  0.42333786051E+03  0.00000000000E+00 0. -1.
</event>
<event>
 5    1  0.2540860E-005  0.3617957E+03  0.7818608E-02  0.9846374E-01
          4   -1    0    0  502    0 -0.00000000000E+00  0.00000000000E+00  0.44757800340E+04  0.44757800340E+04  0.00000000000E+00 0.  1.
         21   -1    0    0  501  502  0.00000000000E+00 -0.00000000000E+00 -0.18544713805E+03  0.18544713805E+03  0.00000000000E+00 0. -1.
        -13    1    1    2    0    0 -0.24975248397E+03 -0.12960247035E+03  0.15409207501E+04  0.15664002914E+04  0.10566000000E+00 0.  1.
         13    1    1    2    0    0  0.39565091443E+03  0.33930612829E+03  0.27881431733E+04  0.28364433118E+04  0.10566000000E+00 0. -1.
          4    1    1    2  501    0 -0.14589843046E+03 -0.20970365795E+03 -0.38731027509E+02  0.25838356887E+03  0.00000000000E+00 0.  1.
</event>
<event>
 5    1  0.2540860E-005  0.2270185E+03  0.7818608E-02  0.1043042E+00
          4   -1    0    0  502    0 -0.00000000000E+00  0.00000000000E+00  0.24338627145E+04  0.24338627145E+04  0.00000000000E+00 0.  1.
         21   -1    0    0  501  502  0.00000000000E+00 -0.00000000000E+00 -0.32212832841E+02  0.32212832841E+02  0.00000000000E+00 0. -1.
        -13    1    1    2    0    0 -0.20869739013E+03 -0.95331172126E+02  0.13407248128E+04  0.13602153020E+04  0.10566000000E+00 0.  1.
         13    1    1    2    0    0  0.19822422141E+03  0.10503674821E+03  0.10670110125E+04  0.10903385128E+04  0.10566000000E+00 0. -1.
          4    1    1    2  501    0  0.10473168716E+02 -0.97055760829E+01 -0.60859436858E+01  0.15521732526E+02  0.00000000000E+00 0.  1.
</event>
<event>
 5    1  0.2540860E-005  0.4850351E+02  0.7818608E-02  0.1330766E+00
          4   -1    0    0  502    0 -0.00000000000E+00  0.00000000000E+00  0.46439181057E+02  0.46439181057E+02  0.00000000000E+00 0.  1.
         21   -1    0    0  501  502  0.00000000000E+00 -0.00000000000E+00 -0.30547105686E+03  0.30547105686E+03  0.00000000000E+00 0.  1.
        -13    1    1    2    0    0 -0.11306764349E+02 -0.44314197847E+02  0.29032376746E+02  0.54170851151E+02  0.10566000000E+00 0.  1.
         13    1    1    2    0    0  0.25909061695E+02 -0.26792268510E+01 -0.10353020954E+03  0.10675660723E+03  0.10566000000E+00 0. -1.
          4    1    1    2  501    0 -0.14602297345E+02  0.46993424698E+02 -0.18453404300E+03  0.19098277954E+03  0.00000000000E+00 0.  1.
</event>
<event>
 5    1  0.2540860E-005  0.4865343E+03  0.7818608E-02  0.1037067E+00
         -4   -1    0    0    0  501 -0.00000000000E+00  0.00000000000E+00  0.56989374154E+03  0.56989374154E+03  0.00000000000E+00 0. -1.
         21   -1    0    0  501  502  0.00000000000E+00 -0.00000000000E+00 -0.47957435182E+03  0.47957435182E+03  0.00000000000E+00 0. -1.
        -13    1    1    2    0    0  0.27411850099E+02  0.35300967684E+01 -0.13630491441E+02  0.30816757941E+02  0.10566000000E+00 0.  1.
         13    1    1    2    0    0 -0.45406468521E+03 -0.21705618393E+03  0.18206523992E+03  0.53519705538E+03  0.10566000000E+00 0. -1.
         -4    1    1    2    0  502  0.42665283511E+03  0.21352608717E+03 -0.78115358748E+02  0.48345428003E+03  0.00000000000E+00 0. -1.
</event>
<event>
 5    1  0.2788864E-005  0.3351294E+03  0.7818608E-02  0.1008689E+00
          4   -1    0    0  502    0 -0.00000000000E+00  0.00000000000E+00  0.14565831391E+04  0.14565831391E+04  0.00000000000E+00 0.  1.
         21   -1    0    0  501  502  0.00000000000E+00 -0.00000000000E+00 -0.26482920861E+03  0.26482920861E+03  0.00000000000E+00 0.  1.
        -13    1    1    2    0    0 -0.15900520901E+03 -0.73357605865E+01  0.94771537187E+03  0.96098954580E+03  0.10566000000E+00 0.  1.
         13    1    1    2    0    0 -0.19572243755E+03 -0.63649478156E+02  0.32969405546E+03  0.38866014717E+03  0.10566000000E+00 0. -1.
          4    1    1    2  501    0  0.35472764656E+03  0.70985238743E+02 -0.85655496813E+02  0.37176265478E+03  0.00000000000E+00 0.  1.
</event>
<event>
 5    1  0.2540860E-005  0.3521198E+03  0.7818608E-02  0.9966405E-01
         21   -1    0    0  501  502  0.00000000000E+00  0.00000000000E+00  0.22978996271E+03  0.22978996271E+03  0.00000000000E+00 0.  1.
          4   -1    0    0  502    0 -0.00000000000E+00 -0.00000000000E+00 -0.18239686352E+04  0.18239686352E+04  0.00000000000E+00 0.  1.
        -13    1    1    2    0    0  0.28953078261E+03 -0.17146817527E+03 -0.61321404330E+02  0.34203762220E+03  0.10566000000E+00 0.  1.
         13    1    1    2    0    0 -0.46863326536E+02 -0.25858131809E+03 -0.44036446443E+03  0.51281706498E+03  0.10566000000E+00 0. -1.
          4    1    1    2  501    0 -0.24266745607E+03  0.43004949336E+03 -0.10924928037E+04  0.11989039107E+04  0.00000000000E+00 0.  1.
</event>
<event>
 5    1  0.2540860E-005  0.4980391E+03  0.7818608E-02  0.9810126E-01
         -4   -1    0    0    0  501 -0.00000000000E+00  0.00000000000E+00  0.95576868900E+03  0.95576868900E+03  0.00000000000E+00 0. -1.
         21   -1    0    0  501  502  0.00000000000E+00 -0.00000000000E+00 -0.41222284375E+03  0.41222284375E+03  0.00000000000E+00 0. -1.
        -13    1    1    2    0    0 -0.14333423733E+03 -0.63710280564E+02  0.28437093420E+03  0.32476228664E+03  0.10566000000E+00 0.  1.
         13    1    1    2    0    0  0.26593035803E+03  0.48629053814E+03  0.51392687075E+02  0.55663153186E+03  0.10566000000E+00 0. -1.
         -4    1    1    2    0  502 -0.12259612070E+03 -0.42258025758E+03  0.20778222397E+03  0.48659771424E+03  0.00000000000E+00 0. -1.
</event>
<event>
 5    1  0.2540860E-005  0.3675920E+03  0.7818608E-02  0.9827612E-01
          4   -1    0    0  502    0 -0.00000000000E+00  0.00000000000E+00  0.21895214276E+04  0.21895214276E+04  0.00000000000E+00 0.  1.
         21   -1    0    0  501  502  0.00000000000E+00 -0.00000000000E+00 -0.10935140313E+03  0.10935140313E+03  0.00000000000E+00 0.  1.
        -13    1    1    2    0    0  0.38012328164E+03 -0.14959587873E+03  0.52400526988E+03  0.66442017595E+03  0.10566000000E+00 0.  1.
         13    1    1    2    0    0 -0.32010153126E+03  0.15562777990E+03  0.15260908869E+04  0.15670476708E+04  0.10566000000E+00 0. -1.
          4    1    1    2  501    0 -0.60021750383E+02 -0.60319011669E+01  0.30073867669E+02  0.67404983994E+02  0.00000000000E+00 0.  1.
</event>
<event>
 5    1  0.2540860E-005  0.5592462E+03  0.7818608E-02  0.9356785E-01
         -4   -1    0    0    0  501 -0.00000000000E+00  0.00000000000E+00  0.14165926758E+04  0.14165926758E+04  0.00000000000E+00 0. -1.
         21   -1    0    0  501  502  0.00000000000E+00 -0.00000000000E+00 -0.11470781283E+04  0.11470781283E+04  0.00000000000E+00 0. -1.
        -13    1    1    2    0    0  0.46609407069E+03  0.15240748154E+03  0.18169520716E+03  0.52295782108E+03  0.10566000000E+00 0.  1.
         13    1    1    2    0    0 -0.57216442037E+03 -0.15539501548E+03  0.97829772946E+03  0.11439345232E+04  0.10566000000E+00 0. -1.
         -4    1    1    2    0  502  0.10607034968E+03  0.29875339449E+01 -0.89047838918E+03  0.89677845984E+03  0.00000000000E+00 0. -1.
</event>
<event>
 5    1  0.2540860E-005  0.4139844E+03  0.7818608E-02  0.1003902E+00
         21   -1    0    0  501  502  0.00000000000E+00  0.00000000000E+00  0.78019538436E+03  0.78019538436E+03  0.00000000000E+00 0.  1.
          4   -1    0    0  502    0 -0.00000000000E+00 -0.00000000000E+00 -0.58256451872E+03  0.58256451872E+03  0.00000000000E+00 0.  1.
        -13    1    1    2    0    0  0.35530734682E+03  0.15560146889E+03 -0.48722774907E+02  0.39093355930E+03  0.10566000000E+00 0.  1.
         13    1    1    2    0    0 -0.31312748351E+02  0.12357412963E+03 -0.27165491516E+03  0.30007908594E+03  0.10566000000E+00 0. -1.
          4    1    1    2  501    0 -0.32399459847E+03 -0.27917559851E+03  0.51800855570E+03  0.67174725785E+03  0.00000000000E+00 0.  1.
</event>
<event>
 5    1  0.2540860E-005  0.1339974E+03  0.7818608E-02  0.1118062E+00
          4   -1    0    0  502    0 -0.00000000000E+00  0.00000000000E+00  0.11281933413E+03  0.11281933413E+03  0.00000000000E+00 0.  1.
         21   -1    0    0  501  502  0.00000000000E+00 -0.00000000000E+00 -0.45080031290E+03  0.45080031290E+03  0.00000000000E+00 0. -1.
        -13    1    1    2    0    0 -0.12912072871E+03  0.22795312893E+02  0.28232192759E+02  0.13412254376E+03  0.10566000000E+00 0.  1.
         13    1    1    2    0    0  0.14178071465E+03 -0.18234163980E+02 -0.13098658235E+03  0.19388592445E+03  0.10566000000E+00 0. -1.
          4    1    1    2  501    0 -0.12659985939E+02 -0.45611489132E+01 -0.23522658918E+03  0.23561117882E+03  0.00000000000E+00 0.  1.
</event>
<event>
 5    1  0.2540860E-005  0.6261897E+02  0.7818608E-02  0.1247536E+00
         21   -1    0    0  501  502  0.00000000000E+00  0.00000000000E+00  0.46865008869E+02  0.46865008869E+02  0.00000000000E+00 0.  1.
          4   -1    0    0  502    0 -0.00000000000E+00 -0.00000000000E+00 -0.33474106892E+03  0.33474106892E+03  0.00000000000E+00 0.  1.
        -13    1    1    2    0    0 -0.10498825846E+02 -0.56724114005E+02 -0.13568756592E+03  0.14744143639E+03  0.10566000000E+00 0.  1.
         13    1    1    2    0    0  0.24322632055E+02  0.63764172041E+02 -0.18537121089E+03  0.19753469836E+03  0.10566000000E+00 0. -1.
          4    1    1    2  501    0 -0.13823806209E+02 -0.70400580361E+01  0.33182716763E+02  0.36629943039E+02  0.00000000000E+00 0.  1.
</event>
<event>
 5    1  0.2540860E-005  0.3032544E+03  0.7818608E-02  0.1013770E+00
         21   -1    0    0  501  502  0.00000000000E+00  0.00000000000E+00  0.20079577707E+03  0.20079577707E+03  0.00000000000E+00 0. -1.
         -4   -1    0    0    0  501 -0.00000000000E+00 -0.00000000000E+00 -0.24364939295E+04  0.24364939295E+04  0.00000000000E+00 0. -1.
        -13    1    1    2    0    0 -0.15114046610E+03 -0.30873743070E+03 -0.56408593460E+03  0.66057186920E+03  0.10566000000E+00 0.  1.
         13    1    1    2    0    0 -0.24795539467E+03  0.88151867287E+02 -0.20682786383E+02  0.26397048750E+03  0.10566000000E+00 0. -1.
         -4    1    1    2    0  502  0.39909586077E+03  0.22058556341E+03 -0.16509294315E+04  0.17127473499E+04  0.00000000000E+00 0. -1.
</event>
<event>
 5    1  0.2540860E-005  0.3820138E+03  0.7818608E-02  0.9844974E-01
          4   -1    0    0  502    0 -0.00000000000E+00  0.00000000000E+00  0.11377512196E+04  0.11377512196E+04  0.00000000000E+00 0.  1.
         21   -1    0    0  501  502  0.00000000000E+00 -0.00000000000E+00 -0.32049195847E+03  0.32049195847E+03  0.00000000000E+00 0. -1.
        -13    1    1    2    0    0 -0.24881176657E+03 -0.32943805614E+03  0.77679033966E+02  0.42008424334E+03  0.10566000000E+00 0.  1.
         13    1    1    2    0    0 -0.13901427737E+03  0.27573586301E+03  0.18724742770E+03  0.36113272603E+03  0.10566000000E+00 0. -1.
          4    1    1    2  501    0  0.38782604394E+03  0.53702193129E+02  0.55233279948E+03  0.67702620871E+03  0.00000000000E+00 0.  1.
</event>
<event>
 5    1  0.2540860E-005  0.4008267E+03  0.7818608E-02  0.1011609E+00
         -4   -1    0    0    0  501 -0.00000000000E+00  0.00000000000E+00  0.10765732439E+04  0.10765732439E+04  0.00000000000E+00 0. -1.
         21   -1    0    0  501  502  0.00000000000E+00 -0.00000000000E+00 -0.38222879357E+03  0.38222879357E+03  0.00000000000E+00 0. -1.
        -13    1    1    2    0    0  0.32330874023E+02 -0.10463728949E+03  0.60630321822E+02  0.12518104830E+03  0.10566000000E+00 0.  1.
         13    1    1    2    0    0  0.37230488056E+03  0.11224319496E+03  0.80512392714E+03  0.89411073594E+03  0.10566000000E+00 0. -1.
         -4    1    1    2    0  502 -0.40463575459E+03 -0.76059054712E+01 -0.17140979858E+03  0.43951025328E+03  0.00000000000E+00 0. -1.
</event>
<event>
 5    1  0.2540860E-005  0.1735740E+03  0.7818608E-02  0.1079935E+00
         21   -1    0    0  501  502  0.00000000000E+00  0.00000000000E+00  0.13043818983E+03  0.13043818983E+03  0.00000000000E+00 0. -1.
          4   -1    0    0  502    0 -0.00000000000E+00 -0.00000000000E+00 -0.46576807469E+03  0.46576807469E+03  0.00000000000E+00 0.  1.
        -13    1    1    2    0    0  0.33121488569E+02 -0.20228502803E+03 -0.26381834031E+03  0.33409039707E+03  0.10566000000E+00 0.  1.
         13    1    1    2    0    0  0.26779010800E+02  0.14187487579E+03 -0.96246857264E+02  0.17351963721E+03  0.10566000000E+00 0. -1.
          4    1    1    2  501    0 -0.59900499370E+02  0.60410152237E+02  0.24735312710E+02  0.88596230241E+02  0.00000000000E+00 0.  1.
</event>
<event>
 5    1  0.2540860E-005  0.5147711E+02  0.7818608E-02  0.1335655E+00
         -4   -1    0    0    0  501 -0.00000000000E+00  0.00000000000E+00  0.15220032296E+02  0.15220032296E+02  0.00000000000E+00 0. -1.
         21   -1    0    0  501  502  0.00000000000E+00 -0.00000000000E+00 -0.39027860977E+03  0.39027860977E+03  0.00000000000E+00 0. -1.
        -13    1    1    2    0    0  0.94192237202E+01 -0.17540909288E+02 -0.46743320362E+01  0.20451548062E+02  0.10566000000E+00 0.  1.
         13    1    1    2    0    0  0.41771398822E+02  0.30773539994E+02 -0.16490773237E+03  0.17287692698E+03  0.10566000000E+00 0. -1.
         -4    1    1    2    0  502 -0.51190622543E+02 -0.13232630706E+02 -0.20547651307E+03  0.21217016703E+03  0.00000000000E+00 0. -1.
</event>
<event>
 5    1  0.2540860E-005  0.4675885E+03  0.7818608E-02  0.9629210E-01
          4   -1    0    0  502    0 -0.00000000000E+00  0.00000000000E+00  0.27213920441E+03  0.27213920441E+03  0.00000000000E+00 0.  1.
         21   -1    0    0  501  502  0.00000000000E+00 -0.00000000000E+00 -0.20909513362E+04  0.20909513362E+04  0.00000000000E+00 0.  1.
        -13    1    1    2    0    0  0.54491881550E+03 -0.63077474740E+02 -0.60043858167E+03  0.81329071360E+03  0.10566000000E+00 0.  1.
         13    1    1    2    0    0 -0.15244949788E+03  0.32068471267E+03 -0.15505095515E+03  0.38745366716E+03  0.10566000000E+00 0. -1.
          4    1    1    2  501    0 -0.39246931762E+03 -0.25760723793E+03 -0.10633225950E+04  0.11623461598E+04  0.00000000000E+00 0.  1.
</event>
<event>
 5    1  0.2540860E-005  0.2086213E+03  0.7818608E-02  0.1054381E+00
          4   -1    0    0  502    0 -0.00000000000E+00  0.00000000000E+00  0.26107161891E+03  0.26107161891E+03  0.00000000000E+00 0.  1.
         21   -1    0    0  501  502  0.00000000000E+00 -0.00000000000E+00 -0.56424038207E+03  0.56424038207E+03  0.00000000000E+00 0. -1.
        -13    1    1    2    0    0 -0.12528937715E+03 -0.16457592699E+03  0.12471929195E+03  0.24153173026E+03  0.10566000000E+00 0.  1.
         13    1    1    2    0    0  0.12090257517E+03  0.17566330089E+03 -0.68191873830E+02  0.22388651318E+03  0.10566000000E+00 0. -1.
          4    1    1    2  501    0  0.43868019815E+01 -0.11087373893E+02 -0.35969618128E+03  0.35989375754E+03  0.00000000000E+00 0.  1.
</event>
<event>
 5    1  0.2540860E-005  0.1313448E+03  0.7818608E-02  0.1121120E+00
         21   -1    0    0  501  502  0.00000000000E+00  0.00000000000E+00  0.33532859767E+03  0.33532859767E+03  0.00000000000E+00 0.  1.
          4   -1    0    0  502    0 -0.00000000000E+00 -0.00000000000E+00 -0.58803020828E+03  0.58803020828E+03  0.00000000000E+00 0.  1.
        -13    1    1    2    0    0  0.13788161553E+02 -0.16404534422E+03 -0.47312962826E+03  0.50095173885E+03  0.10566000000E+00 0.  1.
         13    1    1    2    0    0 -0.27123731379E+02  0.81942087453E+02 -0.75707079882E+02  0.11481191405E+03  0.10566000000E+00 0. -1.
          4    1    1    2  501    0  0.13335569826E+02  0.82103256767E+02  0.29613509753E+03  0.30759515305E+03  0.00000000000E+00 0.  1.
</event>
<event>
 5    1  0.2540860E-005  0.3971967E+03  0.7818608E-02  0.9737177E-01
         -4   -1    0    0    0  501 -0.00000000000E+00  0.00000000000E+00  0.59629431557E+03  0.59629431557E+03  0.00000000000E+00 0. -1.
         21   -1    0    0  501  502  0.00000000000E+00 -0.00000000000E+00 -0.55130962546E+03  0.55130962546E+03  0.00000000000E+00 0.  1.
        -13    1    1    2    0    0 -0.31393665920E+03 -0.19367673879E+03  0.11560868666E+03  0.38656472257E+03  0.10566000000E+00 0.  1.
         13    1    1    2    0    0  0.37740134366E+03  0.19630744875E+03  0.20922561170E+03  0.47407146759E+03  0.10566000000E+00 0. -1.
         -4    1    1    2    0  502 -0.63464684458E+02 -0.26307099544E+01 -0.27984960825E+03  0.28696775088E+03  0.00000000000E+00 0. -1.
</event>
<event>
 5    1  0.2540860E-005  0.1182590E+03  0.7818608E-02  0.1137447E+00
         21   -1    0    0  501  502  0.00000000000E+00  0.00000000000E+00  0.44766484730E+02  0.44766484730E+02  0.00000000000E+00 0. -1.
          4   -1    0    0  502    0 -0.00000000000E+00 -0.00000000000E+00 -0.81581179549E+03  0.81581179549E+03  0.00000000000E+00 0.  1.
        -13    1    1    2    0    0 -0.98382791681E+02  0.74513886328E+02 -0.57125504990E+03  0.58443462949E+03  0.10566000000E+00 0.  1.
         13    1    1    2    0    0  0.10378006365E+03 -0.38844994049E+02 -0.21103314877E+03  0.23835737081E+03  0.10566000000E+00 0. -1.
          4    1    1    2  501    0 -0.53972719687E+01 -0.35668892279E+02  0.11242887914E+02  0.37786279914E+02  0.00000000000E+00 0.  1.
</event>
<event>
 5    1  0.2540860E-005  0.4370497E+03  0.7818608E-02  0.9699641E-01
          4   -1    0    0  502    0 -0.00000000000E+00  0.00000000000E+00  0.92012226252E+03  0.92012226252E+03  0.00000000000E+00 0.  1.
         21   -1    0    0  501  502  0.00000000000E+00 -0.00000000000E+00 -0.52468520274E+03  0.52468520274E+03  0.00000000000E+00 0.  1.
        -13    1    1    2    0    0  0.18251345290E+02  0.66051229072E+03  0.24921420073E+03  0.70619921184E+03  0.10566000000E+00 0.  1.
         13    1    1    2    0    0  0.11083996336E+03 -0.32102562243E+03  0.15939742011E+03  0.37516729127E+03  0.10566000000E+00 0. -1.
          4    1    1    2  501    0 -0.12909130865E+03 -0.33948666829E+03 -0.13174561055E+02  0.36344096216E+03  0.00000000000E+00 0.  1.
</event>
<event>
 5    1  0.2540860E-005  0.4434607E+03  0.7818608E-02  0.9941566E-01
         -4   -1    0    0    0  501 -0.00000000000E+00  0.00000000000E+00  0.14069774061E+04  0.14069774061E+04  0.00000000000E+00 0. -1.
         21   -1    0    0  501  502  0.00000000000E+00 -0.00000000000E+00 -0.24002906125E+03  0.24002906125E+03  0.00000000000E+00 0. -1.
        -13    1    1    2    0    0  0.12480907714E+03  0.69443737796E+02  0.16373972369E+03  0.21727965099E+03  0.10566000000E+00 0.  1.
         13    1    1    2    0    0 -0.23432297333E+02  0.42517565744E+03  0.17633096142E+03  0.46088613709E+03  0.10566000000E+00 0. -1.
         -4    1    1    2    0  502 -0.10137677981E+03 -0.49461939524E+03  0.82687765972E+03  0.96884067925E+03  0.00000000000E+00 0. -1.
</event>
<event>
 5    1  0.2540860E-005  0.4899487E+03  0.7818608E-02  0.9682755E-01
          4   -1    0    0  502    0 -0.00000000000E+00  0.00000000000E+00  0.44775617005E+03  0.44775617005E+03  0.00000000000E+00 0.  1.
         21   -1    0    0  501  502  0.00000000000E+00 -0.00000000000E+00 -0.92413894853E+03  0.92413894853E+03  0.00000000000E+00 0.  1.
        -13    1    1    2    0    0 -0.39520813086E+03  0.44372035274E+03 -0.25045399554E+03  0.64482899530E+03  0.10566000000E+00 0.  1.
         13    1    1    2    0    0  0.24711942991E+03 -0.65660501814E+02 -0.19174244574E+03  0.31960051752E+03  0.10566000000E+00 0. -1.
          4    1    1    2  501    0  0.14808870096E+03 -0.37805985093E+03 -0.34186337201E+02  0.40746560577E+03  0.00000000000E+00 0.  1.
</event>
<event>
 5    1  0.2540860E-005  0.4889703E+03  0.7818608E-02  0.9709395E-01
         21   -1    0    0  501  502  0.00000000000E+00  0.00000000000E+00  0.76500224391E+03  0.76500224391E+03  0.00000000000E+00 0.  1.
          4   -1    0    0  502    0 -0.00000000000E+00 -0.00000000000E+00 -0.84716878119E+03  0.84716878119E+03  0.00000000000E+00 0.  1.
        -13    1    1    2    0    0  0.35468927349E+03 -0.15619501990E+03  0.35325284989E+02  0.38916481328E+03  0.10566000000E+00 0.  1.
         13    1    1    2    0    0  0.22764606484E+03  0.55961862171E+02 -0.47689031712E+03  0.53139330687E+03  0.10566000000E+00 0. -1.
          4    1    1    2  501    0 -0.58233533834E+03  0.10023315773E+03  0.35939849485E+03  0.69161290494E+03  0.00000000000E+00 0.  1.
</event>
<event>
 5    1  0.2540860E-005  0.2796534E+03  0.7818608E-02  0.1025335E+00
          4   -1    0    0  502    0 -0.00000000000E+00  0.00000000000E+00  0.16608268498E+04  0.16608268498E+04  0.00000000000E+00 0.  1.
         21   -1    0    0  501  502  0.00000000000E+00 -0.00000000000E+00 -0.33800496450E+03  0.33800496450E+03  0.00000000000E+00 0.  1.
        -13    1    1    2    0    0  0.70539254375E+02  0.29672847344E+03  0.66053077849E+03  0.72754690148E+03  0.10566000000E+00 0.  1.
         13    1    1    2    0    0  0.16138519333E+03 -0.13273955812E+03  0.88563238546E+03  0.90995038560E+03  0.10566000000E+00 0. -1.
          4    1    1    2  501    0 -0.23192444770E+03 -0.16398891532E+03 -0.22334127866E+03  0.36133452720E+03  0.00000000000E+00 0.  1.
</event>
<event>
 5    1  0.2540860E-005  0.2456961E+03  0.7818608E-02  0.1032647E+00
         21   -1    0    0  501  502  0.00000000000E+00  0.00000000000E+00  0.48450679413E+03  0.48450679413E+03  0.00000000000E+00 0.  1.
          4   -1    0    0  502    0 -0.00000000000E+00 -0.00000000000E+00 -0.10508624369E+04  0.10508624369E+04  0.00000000000E+00 0.  1.
        -13    1    1    2    0    0 -0.13750475583E+03 -0.25023457476E+03 -0.52200603077E+03  0.59499177104E+03  0.10566000000E+00 0.  1.
         13    1    1    2    0    0  0.13203022495E+03  0.17570460834E+03 -0.46437335814E+03  0.51375744920E+03  0.10566000000E+00 0. -1.
          4    1    1    2  501    0  0.54745308792E+01  0.74529966422E+02  0.42002374609E+03  0.42662001085E+03  0.00000000000E+00 0.  1.
</event>
<event>
 5    1  0.2540860E-005  0.3862178E+03  0.7818608E-02  0.9975620E-01
         -4   -1    0    0    0  501 -0.00000000000E+00  0.00000000000E+00  0.61122738933E+03  0.61122738933E+03  0.00000000000E+00 0. -1.
         21   -1    0    0  501  502  0.00000000000E+00 -0.00000000000E+00 -0.69798646276E+03  0.69798646276E+03  0.00000000000E+00 0. -1.
        -13    1    1    2    0    0  0.10270448267E+03 -0.16363340341E+03  0.30123851628E+03  0.35786695338E+03  0.10566000000E+00 0.  1.
         13    1    1    2    0    0 -0.21839300955E+03 -0.24220492270E+03  0.64672993204E+02  0.33247757581E+03  0.10566000000E+00 0. -1.
         -4    1    1    2    0  502  0.11568852688E+03  0.40583832611E+03 -0.45267058291E+03  0.61886932290E+03  0.00000000000E+00 0. -1.
</event>
<event>
 5    1  0.2540860E-005  0.5016602E+03  0.7818608E-02  0.9664493E-01
          4   -1    0    0  502    0 -0.00000000000E+00  0.00000000000E+00  0.74347611635E+03  0.74347611635E+03  0.00000000000E+00 0.  1.
         21   -1    0    0  501  502  0.00000000000E+00 -0.00000000000E+00 -0.60266577412E+03  0.60266577412E+03  0.00000000000E+00 0.  1.
        -13    1    1    2    0    0  0.56552469561E+03 -0.21035815397E+03 -0.15367954686E+03  0.62264448008E+03  0.10566000000E+00 0.  1.
         13    1    1    2    0    0 -0.16860060685E+03  0.18988173415E+03  0.17528297297E+03  0.30855367341E+03  0.10566000000E+00 0. -1.
          4    1    1    2  501    0 -0.39692408876E+03  0.20476419819E+02  0.11920691613E+03  0.41494373698E+03  0.00000000000E+00 0.  1.
</event>
<event>
 5    1  0.2540860E-005  0.1122920E+03  0.7818608E-02  0.1145679E+00
         21   -1    0    0  501  502  0.00000000000E+00  0.00000000000E+00  0.45320759008E+02  0.45320759008E+02  0.00000000000E+00 0.  1.
         -4   -1    0    0    0  501 -0.00000000000E+00 -0.00000000000E+00 -0.66097681138E+03  0.66097681138E+03  0.00000000000E+00 0. -1.
        -13    1    1    2    0    0 -0.82091659820E+01 -0.95413203622E+02 -0.76548794442E+02  0.12260015875E+03  0.10566000000E+00 0.  1.
         13    1    1    2    0    0  0.83357712378E+00  0.11677496509E+03 -0.54732966633E+03  0.55964887397E+03  0.10566000000E+00 0. -1.
         -4    1    1    2    0  502  0.73755888582E+01 -0.21361761471E+02  0.82224083996E+01  0.24048537669E+02  0.00000000000E+00 0. -1.
</event>
<event>
 5    1  0.2540860E-005  0.3107226E+03  0.7818608E-02  0.1045304E+00
         21   -1    0    0  501  502  0.00000000000E+00  0.00000000000E+00  0.68992017020E+03  0.68992017020E+03  0.00000000000E+00 0.  1.
          4   -1    0    0  502    0 -0.00000000000E+00 -0.00000000000E+00 -0.35358391821E+03  0.35358391821E+03  0.00000000000E+00 0.  1.
        -13    1    1    2    0    0 -0.23004456763E+03 -0.21037428311E+03 -0.14436780527E+03  0.34354026905E+03  0.10566000000E+00 0.  1.
         13    1    1    2    0    0 -0.47610501848E+02  0.67639398116E+02 -0.40741465611E+02  0.92204805991E+02  0.10566000000E+00 0. -1.
          4    1    1    2  501    0  0.27765506948E+03  0.14273488500E+03  0.52144552288E+03  0.60775901337E+03  0.00000000000E+00 0.  1.
</event>
<event>
 5    1  0.2540860E-005  0.1066803E+03  0.7818608E-02  0.1153952E+00
         21   -1    0    0  501  502  0.00000000000E+00  0.00000000000E+00  0.52712944553E+03  0.52712944553E+03  0.00000000000E+00 0.  1.
          4   -1    0    0  502    0 -0.00000000000E+00 -0.00000000000E+00 -0.53853358791E+02  0.53853358791E+02  0.00000000000E+00 0.  1.
        -13    1    1    2    0    0 -0.98158604698E+01  0.12083706458E+03  0.70938962344E+02  0.14046456790E+03  0.10566000000E+00 0.  1.
         13    1    1    2    0    0  0.19662144688E+02 -0.89240567220E+02  0.96520730972E+02  0.13291629487E+03  0.10566000000E+00 0. -1.
          4    1    1    2  501    0 -0.98462842183E+01 -0.31596497358E+02  0.30581639342E+03  0.30760194155E+03  0.00000000000E+00 0.  1.
</event>
<event>
 5    1  0.2540860E-005  0.4294567E+03  0.7818608E-02  0.1008965E+00
         -4   -1    0    0    0  501 -0.00000000000E+00  0.00000000000E+00  0.10886219753E+04  0.10886219753E+04  0.00000000000E+00 0. -1.
         21   -1    0    0  501  502  0.00000000000E+00 -0.00000000000E+00 -0.57525680913E+03  0.57525680913E+03  0.00000000000E+00 0. -1.
        -13    1    1    2    0    0  0.18801553830E+03 -0.45570255775E+03  0.34888306497E+03  0.60393217167E+03  0.10566000000E+00 0.  1.
         13    1    1    2    0    0  0.26916695468E+02  0.83899909048E+02  0.50452869964E+03  0.51216493745E+03  0.10566000000E+00 0. -1.
         -4    1    1    2    0  502 -0.21493223377E+03  0.37180264870E+03 -0.34004659845E+03  0.54778167532E+03  0.00000000000E+00 0. -1.
</event>
<event>
 5    1  0.2540860E-005  0.3733254E+03  0.7818608E-02  0.9809411E-01
         21   -1    0    0  501  502  0.00000000000E+00  0.00000000000E+00  0.75761304426E+03  0.75761304426E+03  0.00000000000E+00 0. -1.
          4   -1    0    0  502    0 -0.00000000000E+00 -0.00000000000E+00 -0.24708243150E+03  0.24708243150E+03  0.00000000000E+00 0.  1.
        -13    1    1    2    0    0 -0.24200418271E+03  0.28458344659E+03  0.91478523618E+02  0.38460641436E+03  0.10566000000E+00 0.  1.
         13    1    1    2    0    0  0.22799973182E+03 -0.29548062945E+03  0.24796465573E+03  0.44808387802E+03  0.10566000000E+00 0. -1.
          4    1    1    2  501    0  0.14004450888E+02  0.10897182860E+02  0.17108743341E+03  0.17200518338E+03  0.00000000000E+00 0.  1.
</event>
<event>
 5    1  0.2540860E-005  0.5013525E+03  0.7818608E-02  0.9594965E-01
         21   -1    0    0  501  502  0.00000000000E+00  0.00000000000E+00  0.14798985461E+03  0.14798985461E+03  0.00000000000E+00 0.  1.
          4   -1    0    0  502    0 -0.00000000000E+00 -0.00000000000E+00 -0.33346773833E+04  0.33346773833E+04  0.00000000000E+00 0.  1.
        -13    1    1    2    0    0 -0.20982118279E+03 -0.57884677266E+03 -0.10520507993E+04  0.12189747374E+04  0.10566000000E+00 0.  1.
         13    1    1    2    0    0  0.28190525487E+03  0.16228200207E+03 -0.10640752613E+04  0.11126824317E+04  0.10566000000E+00 0. -1.
          4    1    1    2  501    0 -0.72084072077E+02  0.41656477060E+03 -0.10705614681E+04  0.11510100688E+04  0.00000000000E+00 0.  1.
</event>
<event>
 5    1  0.2540860E-005  0.5307746E+03  0.7818608E-02  0.9652698E-01
          4   -1    0    0  502    0 -0.00000000000E+00  0.00000000000E+00  0.23479205960E+04  0.23479205960E+04  0.00000000000E+00 0.  1.
         21   -1    0    0  501  502  0.00000000000E+00 -0.00000000000E+00 -0.19601646231E+03  0.19601646231E+03  0.00000000000E+00 0.  1.
        -13    1    1    2    0    0 -0.44888941151E+03  0.40383441312E+03  0.11806002108E+04  0.13260470602E+04  0.10566000000E+00 0.  1.
         13    1    1    2    0    0  0.22052683458E+03  0.36122813121E+02  0.19370549203E+03  0.29573429156E+03  0.10566000000E+00 0. -1.
          4    1    1    2  501    0  0.22836257693E+03 -0.43995722624E+03  0.77759843091E+03  0.92215570660E+03  0.00000000000E+00 0.  1.
</event>
<event>
 5    1  0.2540860E-005  0.2680449E+02  0.7818608E-02  0.1432566E+00
         -4   -1    0    0    0  501 -0.00000000000E+00  0.00000000000E+00  0.41793461982E+02  0.41793461982E+02  0.00000000000E+00 0. -1.
         21   -1    0    0  501  502  0.00000000000E+00 -0.00000000000E+00 -0.80196458517E+02  0.80196458517E+02  0.00000000000E+00 0.  1.
        -13    1    1    2    0    0  0.32510415387E+02  0.14362179385E+02 -0.53838797264E+02  0.64512220240E+02  0.10566000000E+00 0.  1.
         13    1    1    2    0    0 -0.26149578700E+02 -0.17768959219E+01  0.28169966847E+02  0.38477474210E+02  0.10566000000E+00 0. -1.
         -4    1    1    2    0  502 -0.63608366865E+01 -0.12585283463E+02 -0.12734166118E+02  0.19000226050E+02  0.00000000000E+00 0. -1.
</event>
<event>
 5    1  0.2540860E-005  0.4632967E+03  0.7818608E-02  0.9812031E-01
          4   -1    0    0  502    0 -0.00000000000E+00  0.00000000000E+00  0.14913925231E+04  0.14913925231E+04  0.00000000000E+00 0.  1.
         21   -1    0    0  501  502  0.00000000000E+00 -0.00000000000E+00 -0.25718649111E+03  0.25718649111E+03  0.00000000000E+00 0.  1.
        -13    1    1    2    0    0 -0.17468296696E+03  0.36231536431E+03  0.34604258834E+03  0.53059593503E+03  0.10566000000E+00 0.  1.
         13    1    1    2    0    0 -0.12237939973E+03  0.15000853379E+03  0.65598084736E+02  0.20440743033E+03  0.10566000000E+00 0. -1.
          4    1    1    2  501    0  0.29706236669E+03 -0.51232389810E+03  0.82256535891E+03  0.10135756489E+04  0.00000000000E+00 0.  1.
</event>
<event>
 5    1  0.2540860E-005  0.4105365E+03  0.7818608E-02  0.9922036E-01
         21   -1    0    0  501  502  0.00000000000E+00  0.00000000000E+00  0.85610911658E+03  0.85610911658E+03  0.00000000000E+00 0. -1.
         -4   -1    0    0    0  501 -0.00000000000E+00 -0.00000000000E+00 -0.52122017905E+03  0.52122017905E+03  0.00000000000E+00 0. -1.
        -13    1    1    2    0    0  0.82329973033E+02 -0.17355604930E+03  0.30249386298E+03  0.35833291087E+03  0.10566000000E+00 0.  1.
         13    1    1    2    0    0  0.16051516394E+03  0.47959825510E+03 -0.22248507177E+03  0.55252078918E+03  0.10566000000E+00 0. -1.
         -4    1    1    2    0  502 -0.24284513697E+03 -0.30604220580E+03  0.25488014632E+03  0.46647559558E+03  0.00000000000E+00 0. -1.
</event>
<event>
 5    1  0.2540860E-005  0.4846714E+03  0.7818608E-02  0.9656794E-01
         21   -1    0    0  501  502  0.00000000000E+00  0.00000000000E+00  0.27430079279E+03  0.27430079279E+03  0.00000000000E+00 0. -1.
         -4   -1    0    0    0  501 -0.00000000000E+00 -0.00000000000E+00 -0.23427109479E+04  0.23427109479E+04  0.00000000000E+00 0. -1.
        -13    1    1    2    0    0 -0.26116865279E+03 -0.12443503431E+03 -0.12714634913E+04  0.13039603383E+04  0.10566000000E+00 0.  1.
         13    1    1    2    0    0  0.55477503114E+03  0.20613201257E+03 -0.16969178161E+03  0.61567934324E+03  0.10566000000E+00 0. -1.
         -4    1    1    2    0  502 -0.29360637835E+03 -0.81696978262E+02 -0.62725488221E+03  0.69737205917E+03  0.00000000000E+00 0. -1.
</event>
<event>
 5    1  0.2540860E-005  0.4658632E+03  0.7818608E-02  0.9824434E-01
         21   -1    0    0  501  502  0.00000000000E+00  0.00000000000E+00  0.15069015933E+04  0.15069015933E+04  0.00000000000E+00 0.  1.
          4   -1    0    0  502    0 -0.00000000000E+00 -0.00000000000E+00 -0.30778378841E+03  0.30778378841E+03  0.00000000000E+00 0.  1.
        -13    1    1    2    0    0  0.45406891277E+03 -0.30458911808E+03  0.40139364335E+03  0.67828458370E+03  0.10566000000E+00 0.  1.
         13    1    1    2    0    0 -0.17827711854E+03 -0.39252836999E+02 -0.42633398817E+02  0.18745968651E+03  0.10566000000E+00 0. -1.
          4    1    1    2  501    0 -0.27579179423E+03  0.34384195508E+03  0.84035756035E+03  0.94894111149E+03  0.00000000000E+00 0.  1.
</event>
<event>
 5    1  0.2540860E-005  0.6696887E+02  0.7818608E-02  0.1234913E+00
          4   -1    0    0  502    0 -0.00000000000E+00  0.00000000000E+00  0.32473120338E+03  0.32473120338E+03  0.00000000000E+00 0.  1.
         21   -1    0    0  501  502  0.00000000000E+00 -0.00000000000E+00 -0.44494604537E+02  0.44494604537E+02  0.00000000000E+00 0. -1.
        -13    1    1    2    0    0  0.55119198472E+02  0.35007481165E+02  0.25761996330E+03  0.26576626278E+03  0.10566000000E+00 0.  1.
         13    1    1    2    0    0 -0.74620286974E+02 -0.32130858550E+02  0.18007874346E+02  0.83215827832E+02  0.10566000000E+00 0. -1.
          4    1    1    2  501    0  0.19501088502E+02 -0.28766226146E+01  0.46087611952E+01  0.20243717302E+02  0.00000000000E+00 0.  1.
</event>
<event>
 5    1  0.2540860E-005  0.2902741E+03  0.7818608E-02  0.1011403E+00
         21   -1    0    0  501  502  0.00000000000E+00  0.00000000000E+00  0.29308725032E+03  0.29308725032E+03  0.00000000000E+00 0.  1.
          4   -1    0    0  502    0 -0.00000000000E+00 -0.00000000000E+00 -0.11798310411E+04  0.11798310411E+04  0.00000000000E+00 0.  1.
        -13    1    1    2    0    0  0.37362292009E+03  0.20927869703E+03 -0.65391940695E+03  0.78166633636E+03  0.10566000000E+00 0.  1.
         13    1    1    2    0    0 -0.21760592098E+03 -0.58865904420E+02 -0.37108380643E+03  0.43418974436E+03  0.10566000000E+00 0. -1.
          4    1    1    2  501    0 -0.15601699912E+03 -0.15041279261E+03  0.13825942266E+03  0.25706221065E+03  0.00000000000E+00 0.  1.
</event>
<event>
 5    1  0.2540860E-005  0.3057384E+03  0.7818608E-02  0.1004965E+00
         21   -1    0    0  501  502  0.00000000000E+00  0.00000000000E+00  0.33526893272E+03  0.33526893272E+03  0.00000000000E+00 0. -1.
         -4   -1    0    0    0  501 -0.00000000000E+00 -0.00000000000E+00 -0.57920126129E+03  0.57920126129E+03  0.00000000000E+00 0. -1.
        -13    1    1    2    0    0  0.28911733370E+03  0.13617000575E+02 -0.28059377207E+03  0.40312173277E+03  0.10566000000E+00 0.  1.
         13    1    1    2    0    0 -0.36902947667E+03 -0.65434078386E+02  0.11061234192E+03  0.39076780140E+03  0.10566000000E+00 0. -1.
         -4    1    1    2    0  502  0.79912142972E+02  0.51817077811E+02 -0.73950898424E+02  0.12058065983E+03  0.00000000000E+00 0. -1.
</event>
<event>
 5    1  0.2540860E-005  0.6917337E+02  0.7818608E-02  0.1312213E+00
         -4   -1    0    0    0  501 -0.00000000000E+00  0.00000000000E+00  0.35792559253E+03  0.35792559253E+03  0.00000000000E+00 0. -1.
         21   -1    0    0  501  502  0.00000000000E+00 -0.00000000000E+00 -0.56700224645E+02  0.56700224645E+02  0.00000000000E+00 0. -1.
        -13    1    1    2    0    0  0.12604025907E+02 -0.17157729495E+01  0.75010122033E+01  0.14767589309E+02  0.10566000000E+00 0.  1.
         13    1    1    2    0    0 -0.74104348320E+02  0.31483241706E+02  0.31747244482E+03  0.32752314931E+03  0.10566000000E+00 0. -1.
         -4    1    1    2    0  502  0.61500322413E+02 -0.29767468757E+02 -0.23748089135E+02  0.72335078562E+02  0.00000000000E+00 0. -1.
</event>
<event>
 5    1  0.2540860E-005  0.2158647E+03  0.7818608E-02  0.1064259E+00
         21   -1    0    0  501  502  0.00000000000E+00  0.00000000000E+00  0.23397437458E+03  0.23397437458E+03  0.00000000000E+00 0.  1.
          4   -1    0    0  502    0 -0.00000000000E+00 -0.00000000000E+00 -0.87347556109E+03  0.87347556109E+03  0.00000000000E+00 0.  1.
        -13    1    1    2    0    0  0.14012215784E+03  0.21513127389E+03 -0.22227494380E+03  0.33959070354E+03  0.10566000000E+00 0.  1.
         13    1    1    2    0    0 -0.14109925964E+03 -0.11750100793E+01 -0.51401206184E+03  0.53302794730E+03  0.10566000000E+00 0. -1.
          4    1    1    2  501    0  0.97710180055E+00 -0.21395626381E+03  0.96785819131E+02  0.23483128483E+03  0.00000000000E+00 0.  1.
</event>
<event>
 5    1  0.2540860E-005  0.3637597E+03  0.7818608E-02  0.1012298E+00
         -4   -1    0    0    0  501 -0.00000000000E+00  0.00000000000E+00  0.21308094508E+04  0.21308094508E+04  0.00000000000E+00 0. -1.
         21   -1    0    0  501  502  0.00000000000E+00 -0.00000000000E+00 -0.13086145861E+03  0.13086145861E+03  0.00000000000E+00 0. -1.
        -13    1    1    2    0    0 -0.59893189081E+02  0.13021747583E+03  0.73840238656E+03  0.75218473844E+03  0.10566000000E+00 0.  1.
         13    1    1    2    0    0 -0.30731140294E+03  0.13044238031E+03  0.30479091341E+03  0.45205422797E+03  0.10566000000E+00 0. -1.
         -4    1    1    2    0  502  0.36720459202E+03 -0.26065985615E+03  0.95675469222E+03  0.10574319430E+04  0.00000000000E+00 0. -1.
</event>
<event>
 5    1  0.2540860E-005  0.1945319E+03  0.7818608E-02  0.1063950E+00
         -4   -1    0    0    0  501 -0.00000000000E+00  0.00000000000E+00  0.15689126188E+04  0.15689126188E+04  0.00000000000E+00 0. -1.
         21   -1    0    0  501  502  0.00000000000E+00 -0.00000000000E+00 -0.33068363102E+03  0.33068363102E+03  0.00000000000E+00 0. -1.
        -13    1    1    2    0    0 -0.22193350843E+03  0.17268340339E+02  0.72562496105E+03  0.75900215613E+03  0.10566000000E+00 0.  1.
         13    1    1    2    0    0  0.17481759933E+03 -0.38022942197E+02  0.81471542719E+03  0.83412719392E+03  0.10566000000E+00 0. -1.
         -4    1    1    2    0  502  0.47115909109E+02  0.20754601858E+02 -0.30211140045E+03  0.30646689980E+03  0.00000000000E+00 0. -1.
</event>
<event>
 5    1  0.2540860E-005  0.4015981E+03  0.7818608E-02  0.1000886E+00
          4   -1    0    0  502    0 -0.00000000000E+00  0.00000000000E+00  0.83857901026E+03  0.83857901026E+03  0.00000000000E+00 0.  1.
         21   -1    0    0  501  502  0.00000000000E+00 -0.00000000000E+00 -0.53483225285E+03  0.53483225285E+03  0.00000000000E+00 0.  1.
        -13    1    1    2    0    0  0.85475685864E+02  0.37263100280E+03  0.26315824489E+03  0.46412523109E+03  0.10566000000E+00 0.  1.
         13    1    1    2    0    0 -0.14992694623E+03  0.35496906609E+02  0.35702397742E+03  0.38884990832E+03  0.10566000000E+00 0. -1.
          4    1    1    2  501    0  0.64451260365E+02 -0.40812790941E+03 -0.31643546490E+03  0.52043612370E+03  0.00000000000E+00 0.  1.
</event>
<event>
 5    1  0.2540860E-005  0.3358609E+03  0.7818608E-02  0.1002715E+00
         21   -1    0    0  501  502  0.00000000000E+00  0.00000000000E+00  0.22517014459E+03  0.22517014459E+03  0.00000000000E+00 0.  1.
          4   -1    0    0  502    0 -0.00000000000E+00 -0.00000000000E+00 -0.19586901781E+04  0.19586901781E+04  0.00000000000E+00 0.  1.
        -13    1    1    2    0    0 -0.27076761284E+03 -0.18391640670E+03 -0.14112264268E+02  0.32762709287E+03  0.10566000000E+00 0.  1.
         13    1    1    2    0    0  0.93621640239E+02 -0.22979760865E+03 -0.66561210411E+03  0.71036007543E+03  0.10566000000E+00 0. -1.
          4    1    1    2  501    0  0.17714597260E+03  0.41371401535E+03 -0.10537956652E+04  0.11458731544E+04  0.00000000000E+00 0.  1.
</event>
<event>
 5    1  0.2664257E-005  0.6342368E+03  0.7818608E-02  0.9593646E-01
         21   -1    0    0  501  502  0.00000000000E+00  0.00000000000E+00  0.78061387349E+03  0.78061387349E+03  0.00000000000E+00 0.  1.
          4   -1    0    0  502    0 -0.00000000000E+00 -0.00000000000E+00 -0.17945842519E+04  0.17945842519E+04  0.00000000000E+00 0.  1.
        -13    1    1    2    0    0  0.11049220747E+03 -0.47817802980E+02 -0.42849125616E+03  0.44508407966E+03  0.10566000000E+00 0.  1.
         13    1    1    2    0    0 -0.73506645584E+03  0.15810541123E+03 -0.10868949162E+04  0.13216128728E+04  0.10566000000E+00 0. -1.
          4    1    1    2  501    0  0.62457424837E+03 -0.11028760825E+03  0.50141579393E+03  0.80850117295E+03  0.00000000000E+00 0.  1.
</event>
<event>
 5    1  0.2540860E-005  0.1387626E+03  0.7818608E-02  0.1112756E+00
          4   -1    0    0  502    0 -0.00000000000E+00  0.00000000000E+00  0.14821320689E+03  0.14821320689E+03  0.00000000000E+00 0.  1.
         21   -1    0    0  501  502  0.00000000000E+00 -0.00000000000E+00 -0.17232044492E+03  0.17232044492E+03  0.00000000000E+00 0. -1.
        -13    1    1    2    0    0 -0.99518236983E+02 -0.91949109459E+02  0.48039755629E+02  0.14375794763E+03  0.10566000000E+00 0.  1.
         13    1    1    2    0    0  0.10695979494E+03  0.99220773887E+02 -0.53447148964E+02  0.15537621633E+03  0.10566000000E+00 0. -1.
          4    1    1    2  501    0 -0.74415579561E+01 -0.72716644285E+01 -0.18699844703E+02  0.21399487851E+02  0.00000000000E+00 0.  1.
</event>
<event>
 5    1  0.2540860E-005  0.4833353E+03  0.7818608E-02  0.9644204E-01
         -4   -1    0    0    0  501 -0.00000000000E+00  0.00000000000E+00  0.19244253233E+04  0.19244253233E+04  0.00000000000E+00 0. -1.
         21   -1    0    0  501  502  0.00000000000E+00 -0.00000000000E+00 -0.41050694241E+03  0.41050694241E+03  0.00000000000E+00 0. -1.
        -13    1    1    2    0    0 -0.11532789161E+03 -0.28226727389E+03  0.12046328432E+04  0.12426244946E+04  0.10566000000E+00 0.  1.
         13    1    1    2    0    0  0.33681544182E+02  0.58711892116E+03 -0.77429099438E+02  0.59315963332E+03  0.10566000000E+00 0. -1.
         -4    1    1    2    0  502  0.81646347429E+02 -0.30485164727E+03  0.38671463712E+03  0.49914813778E+03  0.00000000000E+00 0. -1.
</event>
<event>
 5    1  0.2540860E-005  0.1031104E+03  0.7818608E-02  0.1159510E+00
          4   -1    0    0  502    0 -0.00000000000E+00  0.00000000000E+00  0.34861350286E+03  0.34861350286E+03  0.00000000000E+00 0.  1.
         21   -1    0    0  501  502  0.00000000000E+00 -0.00000000000E+00 -0.18236756008E+03  0.18236756008E+03  0.00000000000E+00 0.  1.
        -13    1    1    2    0    0 -0.29842405747E+02 -0.86342428804E+02  0.27365808981E+02  0.95364998074E+02  0.10566000000E+00 0.  1.
         13    1    1    2    0    0  0.23570877390E+02  0.10403431198E+03  0.27668663931E+03  0.29653706660E+03  0.10566000000E+00 0. -1.
          4    1    1    2  501    0  0.62715283573E+01 -0.17691883176E+02 -0.13780650551E+03  0.13907899827E+03  0.00000000000E+00 0.  1.
</event>
