<event>
 8    1  0.7631533E-006  0.1042792E+04  0.7818608E-02  0.8751598E-01
         21   -1    0    0  501  502  0.00000000000E+00  0.00000000000E+00  0.26062851277E+04  0.26062851277E+04  0.00000000000E+00 0.  1.
         21   -1    0    0  502  503 -0.00000000000E+00 -0.00000000000E+00 -0.41064564723E+03  0.41064564723E+03  0.00000000000E+00 0.  1.
    9000010    2    1    2  501    0  0.17011708809E+03 -0.22257092474E+03  0.14021487646E+04  0.17065713485E+04  0.93160451327E+03 0.  0.
   -9000010    2    1    2    0  503 -0.17011708809E+03  0.22257092474E+03  0.79349071588E+03  0.13103594265E+04  0.10044583964E+04 0.  0.
        -13    1    3    3    0    0  0.15463599750E+03 -0.51960256168E+03  0.12704517357E+04  0.13812844521E+04  0.10566000000E+00 0.  1.
          4    1    3    3  501    0  0.15481090596E+02  0.29703163694E+03  0.13169702892E+03  0.32528689634E+03  0.00000000000E+00 0.  1.
         13    1    4    4    0    0 -0.56360893192E+03  0.88650921442E+02  0.66302355502E+03  0.87470809971E+03  0.10566000000E+00 0. -1.
         -4    1    4    4    0  503  0.39349184383E+03  0.13392000330E+03  0.13046716086E+03  0.43565132676E+03  0.00000000000E+00 0. -1.
<mgrwt>
<rscale>  2 0.10248385E+04</rscale>
<asrwt>0</asrwt>
<pdfrwt beam="1">  1       21 0.40096693E+00 0.10427916E+04</pdfrwt>
<pdfrwt beam="2">  1       21 0.63176255E-01 0.10427916E+04</pdfrwt>
<totfact> 0.63731680E+00</totfact>
</mgrwt>
</event>
<event>
 8    1  0.7631533E-006  0.1024231E+04  0.7818608E-02  0.8753753E-01
         21   -1    0    0  503  502  0.00000000000E+00  0.00000000000E+00  0.99860456505E+03  0.99860456505E+03  0.00000000000E+00 0. -1.
         21   -1    0    0  501  503 -0.00000000000E+00 -0.00000000000E+00 -0.13332325723E+04  0.13332325723E+04  0.00000000000E+00 0. -1.
    9000010    2    1    2  501    0  0.22944703882E+03 -0.37135203584E+02 -0.71141083325E+03  0.12470584494E+04  0.99750911554E+03 0.  0.
   -9000010    2    1    2    0  502 -0.22944703882E+03  0.37135203584E+02  0.37678282599E+03  0.10847786880E+04  0.99033051905E+03 0.  0.
        -13    1    3    3    0    0 -0.23827084707E+03 -0.20817114914E+03  0.66577161165E+02  0.32332762556E+03  0.10566000000E+00 0.  1.
          4    1    3    3  501    0  0.46771788589E+03  0.17103594556E+03 -0.77798799442E+03  0.92373082384E+03  0.00000000000E+00 0.  1.
         13    1    4    4    0    0 -0.35420672043E+03 -0.63915937852E+02 -0.24969310061E+03  0.43805742039E+03  0.10566000000E+00 0. -1.
         -4    1    4    4    0  502  0.12475968161E+03  0.10105114144E+03  0.62647592660E+03  0.64672126758E+03  0.00000000000E+00 0. -1.
<mgrwt>
<rscale>  2 0.10224791E+04</rscale>
<asrwt>0</asrwt>
<pdfrwt beam="1">  1       21 0.15363147E+00 0.10242311E+04</pdfrwt>
<pdfrwt beam="2">  1       21 0.20511270E+00 0.10242311E+04</pdfrwt>
<totfact> 0.15381085E+01</totfact>
</mgrwt>
</event>
<event>
 8    1  0.7631533E-006  0.1081161E+04  0.7818608E-02  0.8712622E-01
         21   -1    0    0  503  502  0.00000000000E+00  0.00000000000E+00  0.73533084088E+03  0.73533084088E+03  0.00000000000E+00 0. -1.
         21   -1    0    0  501  503 -0.00000000000E+00 -0.00000000000E+00 -0.18162177848E+04  0.18162177848E+04  0.00000000000E+00 0. -1.
    9000010    2    1    2  501    0 -0.22307473198E+02  0.30681446033E+03 -0.10465933675E+04  0.14698437708E+04  0.98511435746E+03 0.  0.
   -9000010    2    1    2    0  502  0.22307473198E+02 -0.30681446033E+03 -0.34293576466E+02  0.10817048549E+04  0.10364731580E+04 0.  0.
        -13    1    3    3    0    0 -0.16207092504E+03  0.54954652149E+03 -0.10426748332E+04  0.11897223134E+04  0.10566000000E+00 0.  1.
          4    1    3    3  501    0  0.13976345185E+03 -0.24273206116E+03 -0.39185342756E+01  0.28012145740E+03  0.00000000000E+00 0.  1.
         13    1    4    4    0    0 -0.41964759317E+03  0.12228684021E+03 -0.13512135112E+03  0.45751061674E+03  0.10566000000E+00 0. -1.
         -4    1    4    4    0  502  0.44195506636E+03 -0.42910130055E+03  0.10082777466E+03  0.62419423817E+03  0.00000000000E+00 0. -1.
<mgrwt>
<rscale>  2 0.10686629E+04</rscale>
<asrwt>0</asrwt>
<pdfrwt beam="1">  1       21 0.11312782E+00 0.10811611E+04</pdfrwt>
<pdfrwt beam="2">  1       21 0.27941812E+00 0.10811611E+04</pdfrwt>
<totfact> 0.10505913E+01</totfact>
</mgrwt>
</event>
<event>
 8    1  0.7631533E-006  0.1081359E+04  0.7818608E-02  0.8719414E-01
         21   -1    0    0  501  502  0.00000000000E+00  0.00000000000E+00  0.89396125390E+03  0.89396125390E+03  0.00000000000E+00 0. -1.
         21   -1    0    0  502  503 -0.00000000000E+00 -0.00000000000E+00 -0.12332715864E+04  0.12332715864E+04  0.00000000000E+00 0. -1.
    9000010    2    1    2  501    0 -0.13674422291E+03 -0.53999891852E+02 -0.29805806998E+03  0.10450873664E+04  0.99083501121E+03 0.  0.
   -9000010    2    1    2    0  503  0.13674422291E+03  0.53999891852E+02 -0.41252262543E+02  0.10821454739E+04  0.10713179298E+04 0.  0.
        -13    1    3    3    0    0  0.42755500095E+03 -0.31105353676E+02 -0.19519512151E+03  0.47103287411E+03  0.10566000000E+00 0.  1.
          4    1    3    3  501    0 -0.56429922385E+03 -0.22894538176E+02 -0.10286294847E+03  0.57405449226E+03  0.00000000000E+00 0.  1.
         13    1    4    4    0    0  0.31045099511E+03 -0.44247334116E+03 -0.11026488447E+03  0.55165282009E+03  0.10566000000E+00 0. -1.
         -4    1    4    4    0  503 -0.17370677220E+03  0.49647323302E+03  0.69012621931E+02  0.53049265386E+03  0.00000000000E+00 0. -1.
<mgrwt>
<rscale>  2 0.10608647E+04</rscale>
<asrwt>0</asrwt>
<pdfrwt beam="1">  1       21 0.13753250E+00 0.10813589E+04</pdfrwt>
<pdfrwt beam="2">  1       21 0.18973409E+00 0.10813589E+04</pdfrwt>
<totfact> 0.28056960E+01</totfact>
</mgrwt>
</event>
<event>
 8    1  0.7631533E-006  0.1100732E+04  0.7818608E-02  0.8687720E-01
         21   -1    0    0  503  502  0.00000000000E+00  0.00000000000E+00  0.39127622940E+03  0.39127622940E+03  0.00000000000E+00 0.  1.
         21   -1    0    0  501  503 -0.00000000000E+00 -0.00000000000E+00 -0.35196243855E+04  0.35196243855E+04  0.00000000000E+00 0.  1.
    9000010    2    1    2  501    0  0.34985178684E+02 -0.40403570622E+03 -0.86808714173E+03  0.14018506476E+04  0.10232991439E+04 0.  0.
   -9000010    2    1    2    0  502 -0.34985178684E+02  0.40403570622E+03 -0.22602610143E+04  0.25090499672E+04  0.10109812415E+04 0.  0.
        -13    1    3    3    0    0  0.34353221399E+02  0.12022891008E+03 -0.86863164332E+03  0.87758536769E+03  0.10566000000E+00 0.  1.
          4    1    3    3  501    0  0.63195728505E+00 -0.52426461629E+03  0.54450158418E+00  0.52426527994E+03  0.00000000000E+00 0.  1.
         13    1    4    4    0    0 -0.51653482734E+02 -0.31612055841E+03 -0.10783727850E+04  0.11249391825E+04  0.10566000000E+00 0. -1.
         -4    1    4    4    0  502  0.16668304049E+02  0.72015626462E+03 -0.11818882294E+04  0.13841107848E+04  0.00000000000E+00 0. -1.
<mgrwt>
<rscale>  2 0.10978599E+04</rscale>
<asrwt>0</asrwt>
<pdfrwt beam="1">  1       21 0.60196343E-01 0.11007316E+04</pdfrwt>
<pdfrwt beam="2">  1       21 0.54148068E+00 0.11007316E+04</pdfrwt>
<totfact> 0.73628521E-01</totfact>
</mgrwt>
</event>
<event>
 8    1  0.7631533E-006  0.1003324E+04  0.7818608E-02  0.8775810E-01
         21   -1    0    0  501  502  0.00000000000E+00  0.00000000000E+00  0.71716255001E+03  0.71716255001E+03  0.00000000000E+00 0. -1.
         21   -1    0    0  502  503 -0.00000000000E+00 -0.00000000000E+00 -0.16789344738E+04  0.16789344738E+04  0.00000000000E+00 0. -1.
    9000010    2    1    2  501    0  0.10640332865E+03  0.92353593673E+02  0.29862958223E+02  0.98542419919E+03  0.97484265472E+03 0.  0.
   -9000010    2    1    2    0  503 -0.10640332865E+03 -0.92353593673E+02 -0.99163488204E+03  0.14106728246E+04  0.99338171128E+03 0.  0.
        -13    1    3    3    0    0  0.26616608637E+03 -0.39188185780E+03  0.40022724138E+02  0.47541308944E+03  0.10566000000E+00 0.  1.
          4    1    3    3  501    0 -0.15976275772E+03  0.48423545147E+03 -0.10159765915E+02  0.51001110974E+03  0.00000000000E+00 0.  1.
         13    1    4    4    0    0 -0.15951216021E+03  0.81281327706E+02  0.16283912616E+03  0.24200697440E+03  0.10566000000E+00 0. -1.
         -4    1    4    4    0  503  0.53108831562E+02 -0.17363492138E+03 -0.11544740082E+04  0.11686658502E+04  0.00000000000E+00 0. -1.
<mgrwt>
<rscale>  2 0.99870373E+03</rscale>
<asrwt>0</asrwt>
<pdfrwt beam="1">  1       21 0.11033270E+00 0.10033235E+04</pdfrwt>
<pdfrwt beam="2">  1       21 0.25829761E+00 0.10033235E+04</pdfrwt>
<totfact> 0.16230367E+01</totfact>
</mgrwt>
</event>
<event>
 8    1  0.7631533E-006  0.1018708E+04  0.7818608E-02  0.8761740E-01
         21   -1    0    0  503  502  0.00000000000E+00  0.00000000000E+00  0.20364559681E+04  0.20364559681E+04  0.00000000000E+00 0.  1.
         21   -1    0    0  501  503 -0.00000000000E+00 -0.00000000000E+00 -0.50260974168E+03  0.50260974168E+03  0.00000000000E+00 0.  1.
    9000010    2    1    2  501    0  0.17335639490E+02 -0.82362896334E+01  0.86794072637E+03  0.13383147723E+04  0.10185268599E+04 0.  0.
   -9000010    2    1    2    0  502 -0.17335639490E+02  0.82362896334E+01  0.66590550006E+03  0.12007509375E+04  0.99900166066E+03 0.  0.
        -13    1    3    3    0    0  0.10540604345E+03 -0.26868704056E+03 -0.12018959870E+03  0.31264790190E+03  0.10566000000E+00 0.  1.
          4    1    3    3  501    0 -0.88070403962E+02  0.26045075093E+03  0.98813032508E+03  0.10256668704E+04  0.00000000000E+00 0.  1.
         13    1    4    4    0    0  0.37550756021E+03  0.39569496032E+02  0.71004222778E+03  0.80419627529E+03  0.10566000000E+00 0. -1.
         -4    1    4    4    0  502 -0.39284319971E+03 -0.31333206398E+02 -0.44136727722E+02  0.39655466220E+03  0.00000000000E+00 0. -1.
<mgrwt>
<rscale>  2 0.10137918E+04</rscale>
<asrwt>0</asrwt>
<pdfrwt beam="1">  1       21 0.31330091E+00 0.10187077E+04</pdfrwt>
<pdfrwt beam="2">  1       21 0.77324577E-01 0.10187077E+04</pdfrwt>
<totfact> 0.16338373E+01</totfact>
</mgrwt>
</event>
<event>
 8    1  0.7631533E-006  0.1019507E+04  0.7818608E-02  0.8756554E-01
         21   -1    0    0  501  502  0.00000000000E+00  0.00000000000E+00  0.20240172670E+04  0.20240172670E+04  0.00000000000E+00 0. -1.
         21   -1    0    0  502  503 -0.00000000000E+00 -0.00000000000E+00 -0.58593099435E+03  0.58593099435E+03  0.00000000000E+00 0. -1.
    9000010    2    1    2  501    0  0.14785257338E+03  0.91488001599E+02  0.11782034471E+04  0.15578390645E+04  0.10042254479E+04 0.  0.
   -9000010    2    1    2    0  503 -0.14785257338E+03 -0.91488001599E+02  0.25988282555E+03  0.10521091968E+04  0.10045716705E+04 0.  0.
        -13    1    3    3    0    0  0.52451008689E+03 -0.10218700891E+03  0.91372009597E+03  0.10585071757E+04  0.10566000000E+00 0.  1.
          4    1    3    3  501    0 -0.37665751351E+03  0.19367501051E+03  0.26448335112E+03  0.49933188883E+03  0.00000000000E+00 0.  1.
         13    1    4    4    0    0 -0.57917064509E+03 -0.28767335374E+01  0.14890174340E+03  0.59801225078E+03  0.10566000000E+00 0. -1.
         -4    1    4    4    0  503  0.43131807171E+03 -0.88611268062E+02  0.11098108215E+03  0.45409694604E+03  0.00000000000E+00 0. -1.
<mgrwt>
<rscale>  2 0.10194218E+04</rscale>
<asrwt>0</asrwt>
<pdfrwt beam="1">  1       21 0.31138727E+00 0.10195071E+04</pdfrwt>
<pdfrwt beam="2">  1       21 0.90143231E-01 0.10195071E+04</pdfrwt>
<totfact> 0.11492645E+01</totfact>
</mgrwt>
</event>
<event>
 8    1  0.7631533E-006  0.1136886E+04  0.7818608E-02  0.8664528E-01
         21   -1    0    0  503  502  0.00000000000E+00  0.00000000000E+00  0.12318303714E+04  0.12318303714E+04  0.00000000000E+00 0.  1.
         21   -1    0    0  501  503 -0.00000000000E+00 -0.00000000000E+00 -0.12099782676E+04  0.12099782676E+04  0.00000000000E+00 0.  1.
    9000010    2    1    2  501    0 -0.21775915998E+03  0.42580709573E+03 -0.48579861811E+03  0.11967306989E+04  0.98358188979E+03 0.  0.
   -9000010    2    1    2    0  502  0.21775915998E+03 -0.42580709573E+03  0.50765072190E+03  0.12450779400E+04  0.10313966679E+04 0.  0.
        -13    1    3    3    0    0 -0.10645812925E+03 -0.30773674656E+03 -0.27286014450E+03  0.42483868478E+03  0.10566000000E+00 0.  1.
          4    1    3    3  501    0 -0.11130103073E+03  0.73354384228E+03 -0.21293847361E+03  0.77189201417E+03  0.00000000000E+00 0.  1.
         13    1    4    4    0    0  0.53653086930E+03 -0.43227829953E+03  0.59946481193E+03  0.91328416928E+03  0.10566000000E+00 0. -1.
         -4    1    4    4    0  502 -0.31877170932E+03  0.64712038009E+01 -0.91814090022E+02  0.33179377069E+03  0.00000000000E+00 0. -1.
<mgrwt>
<rscale>  2 0.11259304E+04</rscale>
<asrwt>0</asrwt>
<pdfrwt beam="1">  1       21 0.18951237E+00 0.11368860E+04</pdfrwt>
<pdfrwt beam="2">  1       21 0.18615050E+00 0.11368860E+04</pdfrwt>
<totfact> 0.10595273E+01</totfact>
</mgrwt>
</event>
<event>
 8    1  0.7631533E-006  0.1034560E+04  0.7818608E-02  0.8752873E-01
         21   -1    0    0  501  502  0.00000000000E+00  0.00000000000E+00  0.18436261222E+04  0.18436261222E+04  0.00000000000E+00 0.  1.
         21   -1    0    0  502  503 -0.00000000000E+00 -0.00000000000E+00 -0.59357625494E+03  0.59357625494E+03  0.00000000000E+00 0.  1.
    9000010    2    1    2  501    0  0.20007062142E+03 -0.17621074566E+03  0.91787965035E+03  0.13506245129E+04  0.95425627688E+03 0.  0.
   -9000010    2    1    2    0  503 -0.20007062142E+03  0.17621074566E+03  0.33217021690E+03  0.10865778642E+04  0.99961788776E+03 0.  0.
        -13    1    3    3    0    0  0.57638324150E+03 -0.18118958313E+02  0.46363749712E+03  0.73993626593E+03  0.10566000000E+00 0.  1.
          4    1    3    3  501    0 -0.37631262008E+03 -0.15809178735E+03  0.45424215323E+03  0.61068824700E+03  0.00000000000E+00 0.  1.
         13    1    4    4    0    0  0.29112357586E+03  0.14392602493E+03  0.47374364766E+03  0.57436982158E+03  0.10566000000E+00 0. -1.
         -4    1    4    4    0  503 -0.49119419728E+03  0.32284720728E+02 -0.14157343076E+03  0.51220804263E+03  0.00000000000E+00 0. -1.
<mgrwt>
<rscale>  2 0.10234419E+04</rscale>
<asrwt>0</asrwt>
<pdfrwt beam="1">  1       21 0.28363479E+00 0.10345600E+04</pdfrwt>
<pdfrwt beam="2">  1       21 0.91319425E-01 0.10345600E+04</pdfrwt>
<totfact> 0.17413305E+01</totfact>
</mgrwt>
</event>
<event>
 8    1  0.7631533E-006  0.1020835E+04  0.7818608E-02  0.8763031E-01
         21   -1    0    0  501  502  0.00000000000E+00  0.00000000000E+00  0.53811836562E+03  0.53811836562E+03  0.00000000000E+00 0.  1.
         21   -1    0    0  502  503 -0.00000000000E+00 -0.00000000000E+00 -0.19119757099E+04  0.19119757099E+04  0.00000000000E+00 0.  1.
    9000010    2    1    2  501    0  0.14744956936E+03 -0.15475572289E+03 -0.87109061149E+03  0.13419775355E+04  0.99820546137E+03 0.  0.
   -9000010    2    1    2    0  503 -0.14744956936E+03  0.15475572289E+03 -0.50276673282E+03  0.11081165400E+04  0.96408359047E+03 0.  0.
        -13    1    3    3    0    0  0.56700449798E+03 -0.14601236129E+03 -0.62084094407E+03  0.85337986816E+03  0.10566000000E+00 0.  1.
          4    1    3    3  501    0 -0.41955492861E+03 -0.87433615913E+01 -0.25024966741E+03  0.48859766735E+03  0.00000000000E+00 0.  1.
         13    1    4    4    0    0 -0.45813467008E+03  0.28232421913E+03 -0.54938945962E+03  0.76904039565E+03  0.10566000000E+00 0. -1.
         -4    1    4    4    0  503  0.31068510071E+03 -0.12756849624E+03  0.46622726799E+02  0.33907614439E+03  0.00000000000E+00 0. -1.
<mgrwt>
<rscale>  2 0.10123964E+04</rscale>
<asrwt>0</asrwt>
<pdfrwt beam="1">  1       21 0.82787441E-01 0.10208354E+04</pdfrwt>
<pdfrwt beam="2">  1       21 0.29415011E+00 0.10208354E+04</pdfrwt>
<totfact> 0.18872312E+01</totfact>
</mgrwt>
</event>
<event>
 8    1  0.7631533E-006  0.1162907E+04  0.7818608E-02  0.8663201E-01
         21   -1    0    0  503  502  0.00000000000E+00  0.00000000000E+00  0.17287476590E+04  0.17287476590E+04  0.00000000000E+00 0. -1.
         21   -1    0    0  501  503 -0.00000000000E+00 -0.00000000000E+00 -0.71331684462E+03  0.71331684462E+03  0.00000000000E+00 0. -1.
    9000010    2    1    2  501    0 -0.14660858658E+03 -0.16973824199E+03  0.33790101269E+03  0.12110040286E+04  0.11410734045E+04 0.  0.
   -9000010    2    1    2    0  502  0.14660858658E+03  0.16973824199E+03  0.67752980171E+03  0.12310604750E+04  0.10030743305E+04 0.  0.
        -13    1    3    3    0    0 -0.34378292485E+03  0.34658437860E+03 -0.10905945250E+03  0.50020136570E+03  0.10566000000E+00 0.  1.
          4    1    3    3  501    0  0.19717433827E+03 -0.51632262059E+03  0.44696046518E+03  0.71080266294E+03  0.00000000000E+00 0.  1.
         13    1    4    4    0    0  0.14003410066E+03  0.58349440131E+03  0.29984288482E+03  0.67080625553E+03  0.10566000000E+00 0. -1.
         -4    1    4    4    0  502  0.65744859195E+01 -0.41375615932E+03  0.37768691688E+03  0.56025421947E+03  0.00000000000E+00 0. -1.
<mgrwt>
<rscale>  2 0.11275626E+04</rscale>
<asrwt>0</asrwt>
<pdfrwt beam="1">  1       21 0.26596118E+00 0.11629074E+04</pdfrwt>
<pdfrwt beam="2">  1       21 0.10974105E+00 0.11629074E+04</pdfrwt>
<totfact> 0.14003116E+01</totfact>
</mgrwt>
</event>
<event>
 8    1  0.7631533E-006  0.1062924E+04  0.7818608E-02  0.8719939E-01
         21   -1    0    0  501  502  0.00000000000E+00  0.00000000000E+00  0.13651722279E+04  0.13651722279E+04  0.00000000000E+00 0.  1.
         21   -1    0    0  502  503 -0.00000000000E+00 -0.00000000000E+00 -0.11295164745E+04  0.11295164745E+04  0.00000000000E+00 0.  1.
    9000010    2    1    2  501    0 -0.34120992509E+03  0.14798564404E+03  0.77101610499E+03  0.13045553588E+04  0.98441601283E+03 0.  0.
   -9000010    2    1    2    0  503  0.34120992509E+03 -0.14798564404E+03 -0.53536035162E+03  0.11901333435E+04  0.99573224583E+03 0.  0.
        -13    1    3    3    0    0 -0.26245836715E+03  0.33613357342E+03 -0.76127351220E+02  0.43320383012E+03  0.10566000000E+00 0.  1.
          4    1    3    3  501    0 -0.78751557937E+02 -0.18814792938E+03  0.84714345621E+03  0.87135152872E+03  0.00000000000E+00 0.  1.
         13    1    4    4    0    0 -0.58435221463E+02  0.20220651048E+03 -0.61756237160E+03  0.65244573871E+03  0.10566000000E+00 0. -1.
         -4    1    4    4    0  503  0.39964514655E+03 -0.35019215452E+03  0.82202019973E+02  0.53768760478E+03  0.00000000000E+00 0. -1.
<mgrwt>
<rscale>  2 0.10602653E+04</rscale>
<asrwt>0</asrwt>
<pdfrwt beam="1">  1       21 0.21002650E+00 0.10629236E+04</pdfrwt>
<pdfrwt beam="2">  1       21 0.17377176E+00 0.10629236E+04</pdfrwt>
<totfact> 0.94011847E+00</totfact>
</mgrwt>
</event>
<event>
 8    1  0.7631533E-006  0.1077084E+04  0.7818608E-02  0.8705536E-01
         21   -1    0    0  501  502  0.00000000000E+00  0.00000000000E+00  0.13877498490E+04  0.13877498490E+04  0.00000000000E+00 0.  1.
         21   -1    0    0  502  503 -0.00000000000E+00 -0.00000000000E+00 -0.93338427483E+03  0.93338427483E+03  0.00000000000E+00 0.  1.
    9000010    2    1    2  501    0 -0.14035970658E+03  0.36437084684E+03  0.60345510870E+03  0.12346127923E+04  0.10038145832E+04 0.  0.
   -9000010    2    1    2    0  503  0.14035970658E+03 -0.36437084684E+03 -0.14908953456E+03  0.10865213315E+04  0.10029127346E+04 0.  0.
        -13    1    3    3    0    0  0.41746212276E+03  0.46334982505E+02  0.34064568802E+03  0.54079668127E+03  0.10566000000E+00 0.  1.
          4    1    3    3  501    0 -0.55782182934E+03  0.31803586433E+03  0.26280942068E+03  0.69381611101E+03  0.00000000000E+00 0.  1.
         13    1    4    4    0    0 -0.79475916372E+02 -0.56002108523E+03 -0.40568542275E+03  0.69607521905E+03  0.10566000000E+00 0. -1.
         -4    1    4    4    0  503  0.21983562295E+03  0.19565023839E+03  0.25659588819E+03  0.39044611247E+03  0.00000000000E+00 0. -1.
<mgrwt>
<rscale>  2 0.10768742E+04</rscale>
<asrwt>0</asrwt>
<pdfrwt beam="1">  1       21 0.21349998E+00 0.10770843E+04</pdfrwt>
<pdfrwt beam="2">  1       21 0.14359758E+00 0.10770843E+04</pdfrwt>
<totfact> 0.16117954E+01</totfact>
</mgrwt>
</event>
<event>
 8    1  0.7631533E-006  0.1192723E+04  0.7818608E-02  0.8614178E-01
         21   -1    0    0  501  502  0.00000000000E+00  0.00000000000E+00  0.82392537400E+03  0.82392537400E+03  0.00000000000E+00 0. -1.
         21   -1    0    0  502  503 -0.00000000000E+00 -0.00000000000E+00 -0.21558893217E+04  0.21558893217E+04  0.00000000000E+00 0. -1.
    9000010    2    1    2  501    0  0.18866829540E+03  0.61665321301E+03  0.13631470235E+02  0.11817001368E+04  0.99013760941E+03 0.  0.
   -9000010    2    1    2    0  503 -0.18866829540E+03 -0.61665321301E+03 -0.13455954179E+04  0.17981145589E+04  0.10033603676E+04 0.  0.
        -13    1    3    3    0    0  0.47532551531E+03  0.55026336811E+03 -0.26746566332E+03  0.77476577881E+03  0.10566000000E+00 0.  1.
          4    1    3    3  501    0 -0.28665721991E+03  0.66389844895E+02  0.28109713356E+03  0.40693435801E+03  0.00000000000E+00 0.  1.
         13    1    4    4    0    0 -0.18735499352E+03 -0.82637556994E+03 -0.13434821981E+04  0.15883774438E+04  0.10566000000E+00 0. -1.
         -4    1    4    4    0  503 -0.13133018819E+01  0.20972235693E+03 -0.21132198517E+01  0.20973711511E+03  0.00000000000E+00 0. -1.
<mgrwt>
<rscale>  2 0.11899381E+04</rscale>
<asrwt>0</asrwt>
<pdfrwt beam="1">  1       21 0.12675775E+00 0.11927233E+04</pdfrwt>
<pdfrwt beam="2">  1       21 0.33167527E+00 0.11927233E+04</pdfrwt>
<totfact> 0.31862986E+00</totfact>
</mgrwt>
</event>
<event>
 8    1  0.7631533E-006  0.1024210E+04  0.7818608E-02  0.8754223E-01
         21   -1    0    0  503  502  0.00000000000E+00  0.00000000000E+00  0.13015708342E+04  0.13015708342E+04  0.00000000000E+00 0.  1.
         21   -1    0    0  501  503 -0.00000000000E+00 -0.00000000000E+00 -0.87696907802E+03  0.87696907802E+03  0.00000000000E+00 0.  1.
    9000010    2    1    2  501    0 -0.12916440134E+03 -0.24386280389E+03 -0.11179432035E+03  0.10302936465E+04  0.98633387763E+03 0.  0.
   -9000010    2    1    2    0  502  0.12916440134E+03  0.24386280389E+03  0.53639607658E+03  0.11482462658E+04  0.97703440384E+03 0.  0.
        -13    1    3    3    0    0  0.27393100869E+03 -0.23496385316E+03 -0.39692594096E+03  0.53646660995E+03  0.10566000000E+00 0.  1.
          4    1    3    3  501    0 -0.40309541004E+03 -0.88989507270E+01  0.28513162061E+03  0.49382703651E+03  0.00000000000E+00 0.  1.
         13    1    4    4    0    0  0.44160372479E+03  0.15056931579E+03 -0.58128551441E+02  0.47017433816E+03  0.10566000000E+00 0. -1.
         -4    1    4    4    0  502 -0.31243932344E+03  0.93293488099E+02  0.59452462802E+03  0.67807192766E+03  0.00000000000E+00 0. -1.
<mgrwt>
<rscale>  2 0.10219649E+04</rscale>
<asrwt>0</asrwt>
<pdfrwt beam="1">  1       21 0.20024167E+00 0.10242104E+04</pdfrwt>
<pdfrwt beam="2">  1       21 0.13491832E+00 0.10242104E+04</pdfrwt>
<totfact> 0.24845148E+01</totfact>
</mgrwt>
</event>
<event>
 8    1  0.7631533E-006  0.1238599E+04  0.7818608E-02  0.8597514E-01
         21   -1    0    0  503  502  0.00000000000E+00  0.00000000000E+00  0.76846369303E+03  0.76846369303E+03  0.00000000000E+00 0. -1.
         21   -1    0    0  501  503 -0.00000000000E+00 -0.00000000000E+00 -0.20233560589E+04  0.20233560589E+04  0.00000000000E+00 0. -1.
    9000010    2    1    2  501    0 -0.51351112657E+02  0.54119498645E+03 -0.10783965416E+04  0.16422750256E+04  0.11129237210E+04 0.  0.
   -9000010    2    1    2    0  502  0.51351112657E+02 -0.54119498645E+03 -0.17649582434E+03  0.11495447263E+04  0.99738325216E+03 0.  0.
        -13    1    3    3    0    0  0.21557539981E+03 -0.18992868266E+03 -0.73953253220E+03  0.79338139306E+03  0.10566000000E+00 0.  1.
          4    1    3    3  501    0 -0.26692651247E+03  0.73112366912E+03 -0.33886400937E+03  0.84889363259E+03  0.00000000000E+00 0.  1.
         13    1    4    4    0    0 -0.19232661121E+03  0.23162012401E+03  0.56660892512E+02  0.30634600557E+03  0.10566000000E+00 0. -1.
         -4    1    4    4    0  502  0.24367772387E+03 -0.77281511047E+03 -0.23315671685E+03  0.84319872076E+03  0.00000000000E+00 0. -1.
<mgrwt>
<rscale>  2 0.12120891E+04</rscale>
<asrwt>0</asrwt>
<pdfrwt beam="1">  1       21 0.11822518E+00 0.12385993E+04</pdfrwt>
<pdfrwt beam="2">  1       21 0.31128555E+00 0.12385993E+04</pdfrwt>
<totfact> 0.53480796E+00</totfact>
</mgrwt>
</event>
<event>
 8    1  0.7631533E-006  0.1067763E+04  0.7818608E-02  0.8717519E-01
         21   -1    0    0  503  502  0.00000000000E+00  0.00000000000E+00  0.93024263886E+03  0.93024263886E+03  0.00000000000E+00 0. -1.
         21   -1    0    0  501  503 -0.00000000000E+00 -0.00000000000E+00 -0.19689473342E+04  0.19689473342E+04  0.00000000000E+00 0. -1.
    9000010    2    1    2  501    0  0.25910810712E+03 -0.25391896460E+03  0.38126064861E+03  0.11337888426E+04  0.10042437979E+04 0.  0.
   -9000010    2    1    2    0  502 -0.25910810712E+03  0.25391896460E+03 -0.14199653439E+04  0.17654011305E+04  0.98423966679E+03 0.  0.
        -13    1    3    3    0    0 -0.25310347219E+03 -0.45243535955E+03  0.18298517424E+03  0.54976604785E+03  0.10566000000E+00 0.  1.
          4    1    3    3  501    0  0.51221157931E+03  0.19851639496E+03  0.19827547437E+03  0.58402279474E+03  0.00000000000E+00 0.  1.
         13    1    4    4    0    0  0.18039104656E+03 -0.26484828050E+03 -0.22843618207E+03  0.39353353326E+03  0.10566000000E+00 0. -1.
         -4    1    4    4    0  502 -0.43949915368E+03  0.51876724509E+03 -0.11915291619E+04  0.13718675972E+04  0.00000000000E+00 0. -1.
<mgrwt>
<rscale>  2 0.10630335E+04</rscale>
<asrwt>0</asrwt>
<pdfrwt beam="1">  1       21 0.14311425E+00 0.10677628E+04</pdfrwt>
<pdfrwt beam="2">  1       21 0.30291497E+00 0.10677628E+04</pdfrwt>
<totfact> 0.36575136E+00</totfact>
</mgrwt>
</event>
<event>
 8    1  0.7631533E-006  0.1017754E+04  0.7818608E-02  0.8759158E-01
         21   -1    0    0  501  502  0.00000000000E+00  0.00000000000E+00  0.82697084360E+03  0.82697084360E+03  0.00000000000E+00 0. -1.
         21   -1    0    0  502  503 -0.00000000000E+00 -0.00000000000E+00 -0.12871351695E+04  0.12871351695E+04  0.00000000000E+00 0. -1.
    9000010    2    1    2  501    0 -0.16384898677E+03  0.74588951260E+02 -0.43566637352E+02  0.10186859830E+04  0.10017050853E+04 0.  0.
   -9000010    2    1    2    0  503  0.16384898677E+03 -0.74588951260E+02 -0.41659768855E+03  0.10954200301E+04  0.99698616147E+03 0.  0.
        -13    1    3    3    0    0  0.98693724591E+02 -0.39548494350E+03 -0.20543828032E+03  0.45645776365E+03  0.10566000000E+00 0.  1.
          4    1    3    3  501    0 -0.26254271136E+03  0.47007389476E+03  0.16187164297E+03  0.56222821934E+03  0.00000000000E+00 0.  1.
         13    1    4    4    0    0 -0.41573044806E+03 -0.95761142449E+02 -0.23832849774E+03  0.48867421237E+03  0.10566000000E+00 0. -1.
         -4    1    4    4    0  503  0.57957943482E+03  0.21172191189E+02 -0.17826919081E+03  0.60674581774E+03  0.00000000000E+00 0. -1.
<mgrwt>
<rscale>  2 0.10165909E+04</rscale>
<asrwt>0</asrwt>
<pdfrwt beam="1">  1       21 0.12722628E+00 0.10177539E+04</pdfrwt>
<pdfrwt beam="2">  1       21 0.19802080E+00 0.10177539E+04</pdfrwt>
<totfact> 0.30693944E+01</totfact>
</mgrwt>
</event>
<event>
 8    1  0.7631533E-006  0.1157995E+04  0.7818608E-02  0.8641802E-01
         21   -1    0    0  501  502  0.00000000000E+00  0.00000000000E+00  0.15525418942E+04  0.15525418942E+04  0.00000000000E+00 0. -1.
         21   -1    0    0  502  503 -0.00000000000E+00 -0.00000000000E+00 -0.20063828467E+04  0.20063828467E+04  0.00000000000E+00 0. -1.
    9000010    2    1    2  501    0 -0.41807265586E+03  0.36243998837E+03  0.11217744864E+04  0.16122439762E+04  0.10172537292E+04 0.  0.
   -9000010    2    1    2    0  503  0.41807265586E+03 -0.36243998837E+03 -0.15756154389E+04  0.19466807647E+04  0.10004271575E+04 0.  0.
        -13    1    3    3    0    0 -0.68474621973E+03  0.10733310693E+03  0.39657173114E+03  0.79854050016E+03  0.10566000000E+00 0.  1.
          4    1    3    3  501    0  0.26667356387E+03  0.25510688144E+03  0.72520275527E+03  0.81370347602E+03  0.00000000000E+00 0.  1.
         13    1    4    4    0    0  0.67769607620E+02  0.18753869083E+03 -0.11519192686E+04  0.11690515356E+04  0.10566000000E+00 0. -1.
         -4    1    4    4    0  503  0.35030304824E+03 -0.54997867920E+03 -0.42369617028E+03  0.77762922906E+03  0.00000000000E+00 0. -1.
<mgrwt>
<rscale>  2 0.11542890E+04</rscale>
<asrwt>0</asrwt>
<pdfrwt beam="1">  1       21 0.23885260E+00 0.11579951E+04</pdfrwt>
<pdfrwt beam="2">  1       21 0.30867428E+00 0.11579951E+04</pdfrwt>
<totfact> 0.55114593E-01</totfact>
</mgrwt>
</event>
<event>
 8    1  0.7631533E-006  0.1046031E+04  0.7818608E-02  0.8739571E-01
         21   -1    0    0  501  502  0.00000000000E+00  0.00000000000E+00  0.87099365138E+03  0.87099365138E+03  0.00000000000E+00 0. -1.
         21   -1    0    0  502  503 -0.00000000000E+00 -0.00000000000E+00 -0.13504909202E+04  0.13504909202E+04  0.00000000000E+00 0. -1.
    9000010    2    1    2  501    0 -0.75059816593E+02  0.17694308099E+03  0.10354855893E+03  0.10511438712E+04  0.10282209412E+04 0.  0.
   -9000010    2    1    2    0  503  0.75059816593E+02 -0.17694308099E+03 -0.58304582770E+03  0.11703407003E+04  0.99639956223E+03 0.  0.
        -13    1    3    3    0    0 -0.47197536768E+03  0.18667967942E+03 -0.20593346065E+03  0.54773958391E+03  0.10566000000E+00 0.  1.
          4    1    3    3  501    0  0.39691555108E+03 -0.97365984254E+01  0.30948201958E+03  0.50340428731E+03  0.00000000000E+00 0.  1.
         13    1    4    4    0    0  0.17013583771E+03  0.36547829433E+03 -0.44928629161E+03  0.60363794604E+03  0.10566000000E+00 0. -1.
         -4    1    4    4    0  503 -0.95076021121E+02 -0.54242137533E+03 -0.13375953609E+03  0.56670275427E+03  0.00000000000E+00 0. -1.
<mgrwt>
<rscale>  2 0.10381263E+04</rscale>
<asrwt>0</asrwt>
<pdfrwt beam="1">  1       21 0.13399902E+00 0.10460311E+04</pdfrwt>
<pdfrwt beam="2">  1       21 0.20776783E+00 0.10460311E+04</pdfrwt>
<totfact> 0.22057315E+01</totfact>
</mgrwt>
</event>
<event>
 8    1  0.7631533E-006  0.1034789E+04  0.7818608E-02  0.8744745E-01
         21   -1    0    0  503  502  0.00000000000E+00  0.00000000000E+00  0.91295395898E+03  0.91295395898E+03  0.00000000000E+00 0.  1.
         21   -1    0    0  501  503 -0.00000000000E+00 -0.00000000000E+00 -0.11735782022E+04  0.11735782022E+04  0.00000000000E+00 0.  1.
    9000010    2    1    2  501    0 -0.19846754782E+03  0.10612226198E+03 -0.23313543754E+03  0.10513782987E+04  0.10001964271E+04 0.  0.
   -9000010    2    1    2    0  502  0.19846754782E+03 -0.10612226198E+03 -0.27488805628E+02  0.10351538624E+04  0.10100181100E+04 0.  0.
        -13    1    3    3    0    0 -0.37451593615E+02 -0.39844210140E+03  0.11642410509E+03  0.41678929142E+03  0.10566000000E+00 0.  1.
          4    1    3    3  501    0 -0.16101595421E+03  0.50456436338E+03 -0.34955954263E+03  0.63458900727E+03  0.00000000000E+00 0.  1.
         13    1    4    4    0    0  0.14053959782E+02 -0.16616163672E+03 -0.49856709687E+03  0.52571509827E+03  0.10566000000E+00 0. -1.
         -4    1    4    4    0  502  0.18441358804E+03  0.60039374741E+02  0.47107829124E+03  0.50943876418E+03  0.00000000000E+00 0. -1.
<mgrwt>
<rscale>  2 0.10323844E+04</rscale>
<asrwt>0</asrwt>
<pdfrwt beam="1">  1       21 0.14045445E+00 0.10347888E+04</pdfrwt>
<pdfrwt beam="2">  1       21 0.18055049E+00 0.10347888E+04</pdfrwt>
<totfact> 0.31577233E+01</totfact>
</mgrwt>
</event>
<event>
 8    1  0.7631533E-006  0.1217024E+04  0.7818608E-02  0.8598618E-01
         21   -1    0    0  503  502  0.00000000000E+00  0.00000000000E+00  0.28077235549E+04  0.28077235549E+04  0.00000000000E+00 0.  1.
         21   -1    0    0  501  503 -0.00000000000E+00 -0.00000000000E+00 -0.10642699439E+04  0.10642699439E+04  0.00000000000E+00 0.  1.
    9000010    2    1    2  501    0  0.65931642312E+03  0.88754905743E+02 -0.51262697609E+03  0.13205805032E+04  0.10191029731E+04 0.  0.
   -9000010    2    1    2    0  502 -0.65931642312E+03 -0.88754905743E+02  0.22560805871E+04  0.25514129955E+04  0.98855099985E+03 0.  0.
        -13    1    3    3    0    0  0.28994334679E+03 -0.41435464576E+03 -0.47736984809E+03  0.69544151432E+03  0.10566000000E+00 0.  1.
          4    1    3    3  501    0  0.36937307633E+03  0.50310955150E+03 -0.35257127995E+02  0.62513898887E+03  0.00000000000E+00 0.  1.
         13    1    4    4    0    0 -0.29213483007E+03 -0.50431918491E+03  0.15338452523E+04  0.16408418170E+04  0.10566000000E+00 0. -1.
         -4    1    4    4    0  502 -0.36718159305E+03  0.41556427917E+03  0.72223533477E+03  0.91057117854E+03  0.00000000000E+00 0. -1.
<mgrwt>
<rscale>  2 0.12106064E+04</rscale>
<asrwt>0</asrwt>
<pdfrwt beam="1">  1       21 0.43195747E+00 0.12170236E+04</pdfrwt>
<pdfrwt beam="2">  1       21 0.16373384E+00 0.12170236E+04</pdfrwt>
<totfact> 0.29111728E-01</totfact>
</mgrwt>
</event>
<event>
 8    1  0.7631533E-006  0.1212663E+04  0.7818608E-02  0.8597163E-01
         21   -1    0    0  503  502  0.00000000000E+00  0.00000000000E+00  0.15071554755E+04  0.15071554755E+04  0.00000000000E+00 0. -1.
         21   -1    0    0  501  503 -0.00000000000E+00 -0.00000000000E+00 -0.10278011301E+04  0.10278011301E+04  0.00000000000E+00 0. -1.
    9000010    2    1    2  501    0 -0.52123679259E+03 -0.43958794035E+03 -0.46514111499E+02  0.12135545481E+04  0.10028089187E+04 0.  0.
   -9000010    2    1    2    0  502  0.52123679259E+03  0.43958794035E+03  0.52586845692E+03  0.13214020575E+04  0.10023175207E+04 0.  0.
        -13    1    3    3    0    0  0.23618902530E+03 -0.10854016662E+03 -0.25173212536E+03  0.36184982734E+03  0.10566000000E+00 0.  1.
          4    1    3    3  501    0 -0.75742581790E+03 -0.33104777372E+03  0.20521801386E+03  0.85170472073E+03  0.00000000000E+00 0.  1.
         13    1    4    4    0    0  0.39768409460E+03  0.59520900437E+03 -0.44689795445E+02  0.71723328629E+03  0.10566000000E+00 0. -1.
         -4    1    4    4    0  502  0.12355269800E+03 -0.15562106402E+03  0.57055825236E+03  0.60416877120E+03  0.00000000000E+00 0. -1.
<mgrwt>
<rscale>  2 0.12125612E+04</rscale>
<asrwt>0</asrwt>
<pdfrwt beam="1">  1       21 0.23187007E+00 0.12126628E+04</pdfrwt>
<pdfrwt beam="2">  1       21 0.15812325E+00 0.12126628E+04</pdfrwt>
<totfact> 0.84564350E+00</totfact>
</mgrwt>
</event>
<event>
 8    1  0.7631533E-006  0.1018996E+04  0.7818608E-02  0.8762043E-01
         21   -1    0    0  503  502  0.00000000000E+00  0.00000000000E+00  0.87520094986E+03  0.87520094986E+03  0.00000000000E+00 0.  1.
         21   -1    0    0  501  503 -0.00000000000E+00 -0.00000000000E+00 -0.17182869799E+04  0.17182869799E+04  0.00000000000E+00 0.  1.
    9000010    2    1    2  501    0 -0.10329556669E+03  0.12979046414E+03 -0.11631054697E+04  0.15463396715E+04  0.10054036539E+04 0.  0.
   -9000010    2    1    2    0  502  0.10329556669E+03 -0.12979046414E+03  0.32001943971E+03  0.10471482582E+04  0.98315385073E+03 0.  0.
        -13    1    3    3    0    0 -0.22053134907E+03  0.52492274678E+03 -0.46271840673E+03  0.73367997185E+03  0.10566000000E+00 0.  1.
          4    1    3    3  501    0  0.11723578239E+03 -0.39513228264E+03 -0.70038706300E+03  0.81265969968E+03  0.00000000000E+00 0.  1.
         13    1    4    4    0    0 -0.21938504340E+02 -0.18985568087E+02  0.66402311956E+03  0.66465665140E+03  0.10566000000E+00 0. -1.
         -4    1    4    4    0  502  0.12523407103E+03 -0.11080489605E+03 -0.34400367985E+03  0.38249160682E+03  0.00000000000E+00 0. -1.
<mgrwt>
<rscale>  2 0.10134641E+04</rscale>
<asrwt>0</asrwt>
<pdfrwt beam="1">  1       21 0.13464630E+00 0.10189956E+04</pdfrwt>
<pdfrwt beam="2">  1       21 0.26435184E+00 0.10189956E+04</pdfrwt>
<totfact> 0.83483162E+00</totfact>
</mgrwt>
</event>
<event>
 8    1  0.7631533E-006  0.1019127E+04  0.7818608E-02  0.8767558E-01
         21   -1    0    0  503  502  0.00000000000E+00  0.00000000000E+00  0.19634732196E+04  0.19634732196E+04  0.00000000000E+00 0.  1.
         21   -1    0    0  501  503 -0.00000000000E+00 -0.00000000000E+00 -0.53283245241E+03  0.53283245241E+03  0.00000000000E+00 0.  1.
    9000010    2    1    2  501    0  0.10183791558E+03  0.12650504786E+03  0.41739362686E+03  0.10591941125E+04  0.95984386229E+03 0.  0.
   -9000010    2    1    2    0  502 -0.10183791558E+03 -0.12650504786E+03  0.10132471403E+04  0.14371115595E+04  0.10061040597E+04 0.  0.
        -13    1    3    3    0    0  0.42664876814E+03  0.20922746850E+03  0.52408947917E+03  0.70744264664E+03  0.10566000000E+00 0.  1.
          4    1    3    3  501    0 -0.32481085256E+03 -0.82722420645E+02 -0.10669585231E+03  0.35175146584E+03  0.00000000000E+00 0.  1.
         13    1    4    4    0    0  0.38633278725E+03 -0.28963572059E+03  0.63811475026E+03  0.80020767230E+03  0.10566000000E+00 0. -1.
         -4    1    4    4    0  502 -0.48817070283E+03  0.16313067273E+03  0.37513239007E+03  0.63690388723E+03  0.00000000000E+00 0. -1.
<mgrwt>
<rscale>  2 0.10075199E+04</rscale>
<asrwt>0</asrwt>
<pdfrwt beam="1">  1       21 0.30207280E+00 0.10191270E+04</pdfrwt>
<pdfrwt beam="2">  1       21 0.81974225E-01 0.10191270E+04</pdfrwt>
<totfact> 0.17000775E+01</totfact>
</mgrwt>
</event>
<event>
 8    1  0.7631533E-006  0.1007257E+04  0.7818608E-02  0.8768291E-01
         21   -1    0    0  503  502  0.00000000000E+00  0.00000000000E+00  0.12333768641E+04  0.12333768641E+04  0.00000000000E+00 0.  1.
         21   -1    0    0  501  503 -0.00000000000E+00 -0.00000000000E+00 -0.92166015263E+03  0.92166015263E+03  0.00000000000E+00 0.  1.
    9000010    2    1    2  501    0  0.83866712884E+02  0.63984045103E+02 -0.20058546200E+03  0.10249841312E+04  0.99961510495E+03 0.  0.
   -9000010    2    1    2    0  502 -0.83866712884E+02 -0.63984045103E+02  0.51230217347E+03  0.11300528856E+04  0.10017177365E+04 0.  0.
        -13    1    3    3    0    0 -0.42239045160E+03  0.20808597653E+03 -0.30630081192E+02  0.47185980998E+03  0.10566000000E+00 0.  1.
          4    1    3    3  501    0  0.50625716449E+03 -0.14410193143E+03 -0.16995538081E+03  0.55312432120E+03  0.00000000000E+00 0.  1.
         13    1    4    4    0    0 -0.22234820765E+01  0.46500185177E+03  0.17207501078E+03  0.49582404794E+03  0.10566000000E+00 0. -1.
         -4    1    4    4    0  502 -0.81643230807E+02 -0.52898589687E+03  0.34022716269E+03  0.63422883761E+03  0.00000000000E+00 0. -1.
<mgrwt>
<rscale>  2 0.10067335E+04</rscale>
<asrwt>0</asrwt>
<pdfrwt beam="1">  1       21 0.18975029E+00 0.10072567E+04</pdfrwt>
<pdfrwt beam="2">  1       21 0.14179387E+00 0.10072567E+04</pdfrwt>
<totfact> 0.26037582E+01</totfact>
</mgrwt>
</event>
<event>
 8    1  0.7631533E-006  0.1038679E+04  0.7818608E-02  0.8754365E-01
         21   -1    0    0  503  502  0.00000000000E+00  0.00000000000E+00  0.31186428271E+04  0.31186428271E+04  0.00000000000E+00 0. -1.
         21   -1    0    0  501  503 -0.00000000000E+00 -0.00000000000E+00 -0.40459897502E+03  0.40459897502E+03  0.00000000000E+00 0. -1.
    9000010    2    1    2  501    0 -0.63507528420E+02  0.15375242256E+03  0.60844065483E+03  0.12037662306E+04  0.10252707418E+04 0.  0.
   -9000010    2    1    2    0  502  0.63507528420E+02 -0.15375242256E+03  0.21056031973E+04  0.23194755715E+04  0.95850356745E+03 0.  0.
        -13    1    3    3    0    0 -0.34124720251E+02  0.10449761250E+03 -0.28656423246E+03  0.30692559039E+03  0.10566000000E+00 0.  1.
          4    1    3    3  501    0 -0.29382808169E+02  0.49254810060E+02  0.89500488728E+03  0.89684064024E+03  0.00000000000E+00 0.  1.
         13    1    4    4    0    0  0.16890545524E+03 -0.30250804066E+03  0.21088649903E+04  0.21371363377E+04  0.10566000000E+00 0. -1.
         -4    1    4    4    0  502 -0.10539792682E+03  0.14875561810E+03 -0.32617930060E+01  0.18233923382E+03  0.00000000000E+00 0. -1.
<mgrwt>
<rscale>  2 0.10218104E+04</rscale>
<asrwt>0</asrwt>
<pdfrwt beam="1">  1       21 0.47979119E+00 0.10386785E+04</pdfrwt>
<pdfrwt beam="2">  1       21 0.62245998E-01 0.10386785E+04</pdfrwt>
<totfact> 0.18753848E+00</totfact>
</mgrwt>
</event>
<event>
 8    1  0.7631533E-006  0.1151634E+04  0.7818608E-02  0.8675877E-01
         21   -1    0    0  503  502  0.00000000000E+00  0.00000000000E+00  0.84506424298E+03  0.84506424298E+03  0.00000000000E+00 0. -1.
         21   -1    0    0  501  503 -0.00000000000E+00 -0.00000000000E+00 -0.14030198656E+04  0.14030198656E+04  0.00000000000E+00 0.  1.
    9000010    2    1    2  501    0  0.26580616641E+03  0.30824935476E+03 -0.42836437336E+03  0.10891821871E+04  0.91495968083E+03 0.  0.
   -9000010    2    1    2    0  502 -0.26580616641E+03 -0.30824935476E+03 -0.12959124922E+03  0.11589019214E+04  0.10773064507E+04 0.  0.
        -13    1    3    3    0    0  0.20480390464E+02  0.35668455232E+03  0.20242680183E+03  0.41063358060E+03  0.10566000000E+00 0.  1.
          4    1    3    3  501    0  0.24532577595E+03 -0.48435197560E+02 -0.63079117518E+03  0.67854860651E+03  0.00000000000E+00 0.  1.
         13    1    4    4    0    0  0.41399379366E+02  0.19301682583E+03 -0.44852920385E+03  0.49004883587E+03  0.10566000000E+00 0. -1.
         -4    1    4    4    0  502 -0.30720554578E+03 -0.50126618059E+03  0.31893795463E+03  0.66885308556E+03  0.00000000000E+00 0. -1.
<mgrwt>
<rscale>  2 0.11120868E+04</rscale>
<asrwt>0</asrwt>
<pdfrwt beam="1">  1       21 0.13000988E+00 0.11516335E+04</pdfrwt>
<pdfrwt beam="2">  1       21 0.21584921E+00 0.11516335E+04</pdfrwt>
<totfact> 0.20423993E+01</totfact>
</mgrwt>
</event>
<event>
 8    1  0.7631533E-006  0.1014406E+04  0.7818608E-02  0.8762606E-01
         21   -1    0    0  501  502  0.00000000000E+00  0.00000000000E+00  0.90114023864E+03  0.90114023864E+03  0.00000000000E+00 0.  1.
         21   -1    0    0  502  503 -0.00000000000E+00 -0.00000000000E+00 -0.11566521145E+04  0.11566521145E+04  0.00000000000E+00 0.  1.
    9000010    2    1    2  501    0 -0.10078059080E+03  0.32217471855E+02  0.13553544183E+02  0.10083088305E+04  0.10026506401E+04 0.  0.
   -9000010    2    1    2    0  503  0.10078059080E+03 -0.32217471855E+02 -0.26906542009E+03  0.10494835227E+04  0.10088730204E+04 0.  0.
        -13    1    3    3    0    0  0.18985053761E+03 -0.13013580380E+03 -0.40963554838E+03  0.46987216105E+03  0.10566000000E+00 0.  1.
          4    1    3    3  501    0 -0.29063112841E+03  0.16235327565E+03  0.42318909257E+03  0.53843666943E+03  0.00000000000E+00 0.  1.
         13    1    4    4    0    0 -0.38396312217E+03  0.24541720814E+03 -0.11390628649E+03  0.46971474162E+03  0.10566000000E+00 0. -1.
         -4    1    4    4    0  503  0.48474371297E+03 -0.27763467999E+03 -0.15515913360E+03  0.57976878109E+03  0.00000000000E+00 0. -1.
<mgrwt>
<rscale>  2 0.10128554E+04</rscale>
<asrwt>0</asrwt>
<pdfrwt beam="1">  1       21 0.13863696E+00 0.10144060E+04</pdfrwt>
<pdfrwt beam="2">  1       21 0.17794648E+00 0.10144060E+04</pdfrwt>
<totfact> 0.34631412E+01</totfact>
</mgrwt>
</event>
<event>
 8    1  0.7631533E-006  0.1131724E+04  0.7818608E-02  0.8671167E-01
         21   -1    0    0  501  502  0.00000000000E+00  0.00000000000E+00  0.10362468722E+04  0.10362468722E+04  0.00000000000E+00 0.  1.
         21   -1    0    0  502  503 -0.00000000000E+00 -0.00000000000E+00 -0.15781843379E+04  0.15781843379E+04  0.00000000000E+00 0.  1.
    9000010    2    1    2  501    0 -0.32811294261E+03 -0.27742523376E+03  0.39293545786E+03  0.11465124338E+04  0.98765865735E+03 0.  0.
   -9000010    2    1    2    0  503  0.32811294261E+03  0.27742523376E+03 -0.93487292357E+03  0.14679187763E+04  0.10469839001E+04 0.  0.
        -13    1    3    3    0    0 -0.50786341495E+03  0.94195794917E+02 -0.75638130659E+02  0.52203374795E+03  0.10566000000E+00 0.  1.
          4    1    3    3  501    0  0.17975047234E+03 -0.37162102867E+03  0.46857358852E+03  0.62447868588E+03  0.00000000000E+00 0.  1.
         13    1    4    4    0    0  0.67530496103E+03  0.27617247112E+02 -0.40870891601E+03  0.78983700338E+03  0.10566000000E+00 0. -1.
         -4    1    4    4    0  503 -0.34719201842E+03  0.24980798664E+03 -0.52616400757E+03  0.67808177287E+03  0.00000000000E+00 0. -1.
<mgrwt>
<rscale>  2 0.11178070E+04</rscale>
<asrwt>0</asrwt>
<pdfrwt beam="1">  1       21 0.15942260E+00 0.11317235E+04</pdfrwt>
<pdfrwt beam="2">  1       21 0.24279759E+00 0.11317235E+04</pdfrwt>
<totfact> 0.69625127E+00</totfact>
</mgrwt>
</event>
<event>
 8    1  0.7631533E-006  0.1024174E+04  0.7818608E-02  0.8761360E-01
         21   -1    0    0  503  502  0.00000000000E+00  0.00000000000E+00  0.10917647609E+04  0.10917647609E+04  0.00000000000E+00 0. -1.
         21   -1    0    0  501  503 -0.00000000000E+00 -0.00000000000E+00 -0.17342533692E+04  0.17342533692E+04  0.00000000000E+00 0. -1.
    9000010    2    1    2  501    0  0.17487265030E+01  0.18054394763E+03 -0.12834735823E+04  0.16177986463E+04  0.96817810788E+03 0.  0.
   -9000010    2    1    2    0  502 -0.17487265030E+01 -0.18054394763E+03  0.64098497402E+03  0.12082194838E+04  0.10081336266E+04 0.  0.
        -13    1    3    3    0    0  0.19625928381E+02 -0.25949174523E+03  0.67260599254E+00  0.26023375352E+03  0.10566000000E+00 0.  1.
          4    1    3    3  501    0 -0.17877201878E+02  0.44003569286E+03 -0.12841461882E+04  0.13575648928E+04  0.00000000000E+00 0.  1.
         13    1    4    4    0    0  0.63195130422E+02 -0.95431584766E+02  0.91078782605E+03  0.91795168017E+03  0.10566000000E+00 0. -1.
         -4    1    4    4    0  502 -0.64943856925E+02 -0.85112362864E+02 -0.26980285203E+03  0.29026780364E+03  0.00000000000E+00 0. -1.
<mgrwt>
<rscale>  2 0.10142033E+04</rscale>
<asrwt>0</asrwt>
<pdfrwt beam="1">  1       21 0.16796381E+00 0.10241741E+04</pdfrwt>
<pdfrwt beam="2">  1       21 0.26680821E+00 0.10241741E+04</pdfrwt>
<totfact> 0.40456968E+00</totfact>
</mgrwt>
</event>
<event>
 8    1  0.7631533E-006  0.8667825E+03  0.7818608E-02  0.8922350E-01
         21   -1    0    0  503  502  0.00000000000E+00  0.00000000000E+00  0.61366664732E+03  0.61366664732E+03  0.00000000000E+00 0.  1.
         21   -1    0    0  501  503 -0.00000000000E+00 -0.00000000000E+00 -0.11715981520E+04  0.11715981520E+04  0.00000000000E+00 0.  1.
    9000010    2    1    2  501    0 -0.78736576039E+02  0.58468017747E+02 -0.31602429495E+03  0.88535867629E+03  0.82120075084E+03 0.  0.
   -9000010    2    1    2    0  502  0.78736576039E+02 -0.58468017747E+02 -0.24190720977E+03  0.89990612306E+03  0.86121656665E+03 0.  0.
        -13    1    3    3    0    0 -0.16145253241E+03 -0.35373937459E+03 -0.60904440020E+02  0.39358331689E+03  0.10566000000E+00 0.  1.
          4    1    3    3  501    0  0.82715956367E+02  0.41220739234E+03 -0.25511985493E+03  0.49177535940E+03  0.00000000000E+00 0.  1.
         13    1    4    4    0    0 -0.11986577998E+03 -0.12489858604E+02 -0.53192730257E+03  0.54540853327E+03  0.10566000000E+00 0. -1.
         -4    1    4    4    0  502  0.19860235601E+03 -0.45978159143E+02  0.29002009281E+03  0.35449758979E+03  0.00000000000E+00 0. -1.
<mgrwt>
<rscale>  2 0.85667031E+03</rscale>
<asrwt>0</asrwt>
<pdfrwt beam="1">  1       21 0.94410253E-01 0.86678252E+03</pdfrwt>
<pdfrwt beam="2">  1       21 0.18024587E+00 0.86678252E+03</pdfrwt>
<totfact> 0.98671793E+01</totfact>
</mgrwt>
</event>
<event>
 8    1  0.7631533E-006  0.1010047E+04  0.7818608E-02  0.8765277E-01
         21   -1    0    0  501  502  0.00000000000E+00  0.00000000000E+00  0.19741047397E+04  0.19741047397E+04  0.00000000000E+00 0. -1.
         21   -1    0    0  502  503 -0.00000000000E+00 -0.00000000000E+00 -0.65716752771E+03  0.65716752771E+03  0.00000000000E+00 0. -1.
    9000010    2    1    2  501    0  0.13091969580E+03  0.12933558911E+03  0.12667815148E+04  0.16199806681E+04  0.99284152678E+03 0.  0.
   -9000010    2    1    2    0  503 -0.13091969580E+03 -0.12933558911E+03  0.50155697233E+02  0.10112915994E+04  0.99314019337E+03 0.  0.
        -13    1    3    3    0    0  0.30993254256E+03  0.20402702221E+03  0.34649247943E+02  0.37267383632E+03  0.10566000000E+00 0.  1.
          4    1    3    3  501    0 -0.17901284676E+03 -0.74691433103E+02  0.12321322669E+04  0.12473068317E+04  0.00000000000E+00 0.  1.
         13    1    4    4    0    0 -0.39104169667E+03 -0.37235274266E+03 -0.20042722349E+03  0.57596115891E+03  0.10566000000E+00 0. -1.
         -4    1    4    4    0  503  0.26012200087E+03  0.24301715355E+03  0.25058292072E+03  0.43533044048E+03  0.00000000000E+00 0. -1.
<mgrwt>
<rscale>  2 0.10099737E+04</rscale>
<asrwt>0</asrwt>
<pdfrwt beam="1">  1       21 0.30370842E+00 0.10100471E+04</pdfrwt>
<pdfrwt beam="2">  1       21 0.10110270E+00 0.10100471E+04</pdfrwt>
<totfact> 0.97102737E+00</totfact>
</mgrwt>
</event>
<event>
 8    1  0.7631533E-006  0.1035423E+04  0.7818608E-02  0.8743476E-01
         21   -1    0    0  503  502  0.00000000000E+00  0.00000000000E+00  0.11609713176E+04  0.11609713176E+04  0.00000000000E+00 0.  1.
         21   -1    0    0  501  503 -0.00000000000E+00 -0.00000000000E+00 -0.14851079856E+04  0.14851079856E+04  0.00000000000E+00 0.  1.
    9000010    2    1    2  501    0 -0.17662649043E+03 -0.17848622927E+03 -0.97957869949E+03  0.14206383942E+04  0.99778994154E+03 0.  0.
   -9000010    2    1    2    0  502  0.17662649043E+03  0.17848622927E+03  0.65544203150E+03  0.12254409089E+04  0.10045132719E+04 0.  0.
        -13    1    3    3    0    0 -0.46707834106E+03 -0.37457442278E+03 -0.86488573585E+03  0.10519009089E+04  0.10566000000E+00 0.  1.
          4    1    3    3  501    0  0.29045185063E+03  0.19608819351E+03 -0.11469296364E+03  0.36873748531E+03  0.00000000000E+00 0.  1.
         13    1    4    4    0    0 -0.25407195530E+03  0.31156746675E+03  0.66210322953E+03  0.77460153791E+03  0.10566000000E+00 0. -1.
         -4    1    4    4    0  502  0.43069844573E+03 -0.13308123748E+03 -0.66611980294E+01  0.45083937104E+03  0.00000000000E+00 0. -1.
<mgrwt>
<rscale>  2 0.10337890E+04</rscale>
<asrwt>0</asrwt>
<pdfrwt beam="1">  1       21 0.17861097E+00 0.10354232E+04</pdfrwt>
<pdfrwt beam="2">  1       21 0.22847815E+00 0.10354232E+04</pdfrwt>
<totfact> 0.62651043E+00</totfact>
</mgrwt>
</event>
<event>
 8    1  0.7631533E-006  0.1221122E+04  0.7818608E-02  0.8593773E-01
         21   -1    0    0  501  502  0.00000000000E+00  0.00000000000E+00  0.42513821671E+04  0.42513821671E+04  0.00000000000E+00 0. -1.
         21   -1    0    0  502  503 -0.00000000000E+00 -0.00000000000E+00 -0.37872790007E+03  0.37872790007E+03  0.00000000000E+00 0. -1.
    9000010    2    1    2  501    0  0.66528852103E+03  0.87247686781E+02  0.26032522169E+04  0.28687129575E+04  0.10011847747E+04 0.  0.
   -9000010    2    1    2    0  503 -0.66528852103E+03 -0.87247686781E+02  0.12694020502E+04  0.17613971097E+04  0.10202535165E+04 0.  0.
        -13    1    3    3    0    0  0.46315773380E+02 -0.56265206805E+02 -0.81771243616E+02  0.10953297132E+03  0.10566000000E+00 0.  1.
          4    1    3    3  501    0  0.61897274765E+03  0.14351289359E+03  0.26850234605E+04  0.27591799862E+04  0.00000000000E+00 0.  1.
         13    1    4    4    0    0 -0.24768834248E+03  0.45731228235E+03  0.41397857226E+03  0.66472724334E+03  0.10566000000E+00 0. -1.
         -4    1    4    4    0  503 -0.41760017855E+03 -0.54455996913E+03  0.85542347793E+03  0.10966698663E+04  0.00000000000E+00 0. -1.
<mgrwt>
<rscale>  2 0.12171306E+04</rscale>
<asrwt>0</asrwt>
<pdfrwt beam="1">  1       21 0.65405876E+00 0.12211217E+04</pdfrwt>
<pdfrwt beam="2">  1       21 0.58265834E-01 0.12211217E+04</pdfrwt>
<totfact> 0.10511166E-01</totfact>
</mgrwt>
</event>
<event>
 8    1  0.7631533E-006  0.1001922E+04  0.7818608E-02  0.8773436E-01
         21   -1    0    0  501  502  0.00000000000E+00  0.00000000000E+00  0.98263556748E+03  0.98263556748E+03  0.00000000000E+00 0.  1.
         21   -1    0    0  502  503 -0.00000000000E+00 -0.00000000000E+00 -0.10651971138E+04  0.10651971138E+04  0.00000000000E+00 0.  1.
    9000010    2    1    2  501    0 -0.72070106444E+02  0.18480682091E+02 -0.25509106774E+03  0.10338858376E+04  0.99915606211E+03 0.  0.
   -9000010    2    1    2    0  503  0.72070106444E+02 -0.18480682091E+02  0.17252952143E+03  0.10139468437E+04  0.99638653656E+03 0.  0.
        -13    1    3    3    0    0 -0.45756790218E+03 -0.25925092309E+03 -0.15575547737E+03  0.54848810938E+03  0.10566000000E+00 0.  1.
          4    1    3    3  501    0  0.38549779574E+03  0.27773160518E+03 -0.99335590370E+02  0.48539772821E+03  0.00000000000E+00 0.  1.
         13    1    4    4    0    0 -0.12372891972E+03  0.43779758703E+03  0.23748603139E+03  0.51320093438E+03  0.10566000000E+00 0. -1.
         -4    1    4    4    0  503  0.19579902616E+03 -0.45627826912E+03 -0.64956509964E+02  0.50074590932E+03  0.00000000000E+00 0. -1.
<mgrwt>
<rscale>  2 0.10012312E+04</rscale>
<asrwt>0</asrwt>
<pdfrwt beam="1">  1       21 0.15117470E+00 0.10019224E+04</pdfrwt>
<pdfrwt beam="2">  1       21 0.16387648E+00 0.10019224E+04</pdfrwt>
<totfact> 0.35031307E+01</totfact>
</mgrwt>
</event>
<event>
 8    1  0.7631533E-006  0.1109570E+04  0.7818608E-02  0.8701952E-01
         21   -1    0    0  501  502  0.00000000000E+00  0.00000000000E+00  0.32619423962E+03  0.32619423962E+03  0.00000000000E+00 0. -1.
         21   -1    0    0  502  503 -0.00000000000E+00 -0.00000000000E+00 -0.34302356626E+04  0.34302356626E+04  0.00000000000E+00 0. -1.
    9000010    2    1    2  501    0  0.51536189500E+02 -0.96952593975E+02 -0.16149682923E+04  0.18994206719E+04  0.99379098380E+03 0.  0.
   -9000010    2    1    2    0  503 -0.51536189500E+02  0.96952593975E+02 -0.14890731307E+04  0.18570092303E+04  0.11041235024E+04 0.  0.
        -13    1    3    3    0    0  0.14840965886E+02 -0.20521493902E+03  0.64841126458E+02  0.21572623464E+03  0.10566000000E+00 0.  1.
          4    1    3    3  501    0  0.36695223614E+02  0.10826234505E+03 -0.16798094188E+04  0.16836944373E+04  0.00000000000E+00 0.  1.
         13    1    4    4    0    0 -0.10768399687E+03  0.52251470842E+03 -0.34568290518E+03  0.63569972927E+03  0.10566000000E+00 0. -1.
         -4    1    4    4    0  503  0.56147807366E+02 -0.42556211445E+03 -0.11433902255E+04  0.12213095011E+04  0.00000000000E+00 0. -1.
<mgrwt>
<rscale>  2 0.10810563E+04</rscale>
<asrwt>0</asrwt>
<pdfrwt beam="1">  1       21 0.50183725E-01 0.11095695E+04</pdfrwt>
<pdfrwt beam="2">  1       21 0.52772861E+00 0.11095695E+04</pdfrwt>
<totfact> 0.13911535E+00</totfact>
</mgrwt>
</event>
<event>
 8    1  0.7631533E-006  0.7898335E+03  0.7818608E-02  0.9009928E-01
         21   -1    0    0  501  502  0.00000000000E+00  0.00000000000E+00  0.14129789809E+04  0.14129789809E+04  0.00000000000E+00 0.  1.
         21   -1    0    0  502  503 -0.00000000000E+00 -0.00000000000E+00 -0.72248411613E+03  0.72248411613E+03  0.00000000000E+00 0.  1.
    9000010    2    1    2  501    0 -0.10680228893E+03 -0.41617157727E+02  0.10305996723E+04  0.12984500932E+04  0.78147184423E+03 0.  0.
   -9000010    2    1    2    0  503  0.10680228893E+03  0.41617157727E+02 -0.34010480759E+03  0.83701300375E+03  0.75616186863E+03 0.  0.
        -13    1    3    3    0    0 -0.28982669084E+03 -0.10472631638E+03  0.66703417646E+02  0.31530377282E+03  0.10566000000E+00 0.  1.
          4    1    3    3  501    0  0.18302440191E+03  0.63109158650E+02  0.96389625466E+03  0.98314632042E+03  0.00000000000E+00 0.  1.
         13    1    4    4    0    0 -0.24703397405E+03 -0.92043942611E+02 -0.37365072537E+03  0.45728847289E+03  0.10566000000E+00 0. -1.
         -4    1    4    4    0  503  0.35383626298E+03  0.13366110034E+03  0.33545917780E+02  0.37972453086E+03  0.00000000000E+00 0. -1.
<mgrwt>
<rscale>  2 0.78349941E+03</rscale>
<asrwt>0</asrwt>
<pdfrwt beam="1">  1       21 0.21738138E+00 0.78983350E+03</pdfrwt>
<pdfrwt beam="2">  1       21 0.11115140E+00 0.78983350E+03</pdfrwt>
<totfact> 0.33671545E+01</totfact>
</mgrwt>
</event>
<event>
 8    1  0.7631533E-006  0.1017862E+04  0.7818608E-02  0.8762705E-01
         21   -1    0    0  501  502  0.00000000000E+00  0.00000000000E+00  0.75164586036E+03  0.75164586036E+03  0.00000000000E+00 0. -1.
         21   -1    0    0  502  503 -0.00000000000E+00 -0.00000000000E+00 -0.18337675804E+04  0.18337675804E+04  0.00000000000E+00 0. -1.
    9000010    2    1    2  501    0 -0.32404672425E+03 -0.40215674495E+02  0.12620306389E+03  0.10055111776E+04  0.94260380595E+03 0.  0.
   -9000010    2    1    2    0  503  0.32404672425E+03  0.40215674495E+02 -0.12083247839E+04  0.15799022631E+04  0.96406368962E+03 0.  0.
        -13    1    3    3    0    0  0.22170750385E+03  0.12070130408E+03 -0.22391750673E+03  0.33743456115E+03  0.10566000000E+00 0.  1.
          4    1    3    3  501    0 -0.54575422811E+03 -0.16091697858E+03  0.35012057062E+03  0.66807661646E+03  0.00000000000E+00 0.  1.
         13    1    4    4    0    0  0.32421298705E+03  0.47754092449E+03 -0.62360917909E+03  0.84973396715E+03  0.10566000000E+00 0. -1.
         -4    1    4    4    0  503 -0.16626279334E+00 -0.43732524999E+03 -0.58471560483E+03  0.73016829598E+03  0.00000000000E+00 0. -1.
<mgrwt>
<rscale>  2 0.10127478E+04</rscale>
<asrwt>0</asrwt>
<pdfrwt beam="1">  1       21 0.11563783E+00 0.10178617E+04</pdfrwt>
<pdfrwt beam="2">  1       21 0.28211809E+00 0.10178617E+04</pdfrwt>
<totfact> 0.96030164E+00</totfact>
</mgrwt>
</event>
<event>
 8    1  0.7631533E-006  0.1030788E+04  0.7818608E-02  0.8754741E-01
         21   -1    0    0  501  502  0.00000000000E+00  0.00000000000E+00  0.95502334718E+03  0.95502334718E+03  0.00000000000E+00 0. -1.
         21   -1    0    0  502  503 -0.00000000000E+00 -0.00000000000E+00 -0.12544927193E+04  0.12544927193E+04  0.00000000000E+00 0. -1.
    9000010    2    1    2  501    0 -0.19136898917E+03 -0.15660654399E+03  0.26813714457E+03  0.10650923932E+04  0.10006880523E+04 0.  0.
   -9000010    2    1    2    0  503  0.19136898917E+03  0.15660654399E+03 -0.56760651670E+03  0.11444236733E+04  0.96248672022E+03 0.  0.
        -13    1    3    3    0    0  0.38517779813E+03  0.10088772092E+03  0.12860444383E+03  0.41842488279E+03  0.10566000000E+00 0.  1.
          4    1    3    3  501    0 -0.57654678730E+03 -0.25749426491E+03  0.13953270074E+03  0.64666751038E+03  0.00000000000E+00 0.  1.
         13    1    4    4    0    0 -0.15624315646E+03 -0.26518214060E+03 -0.50886176016E+03  0.59470479547E+03  0.10566000000E+00 0. -1.
         -4    1    4    4    0  503  0.34761214563E+03  0.42178868459E+03 -0.58744756534E+02  0.54971887785E+03  0.00000000000E+00 0. -1.
<mgrwt>
<rscale>  2 0.10213998E+04</rscale>
<asrwt>0</asrwt>
<pdfrwt beam="1">  1       21 0.14692667E+00 0.10307882E+04</pdfrwt>
<pdfrwt beam="2">  1       21 0.19299888E+00 0.10307882E+04</pdfrwt>
<totfact> 0.21917511E+01</totfact>
</mgrwt>
</event>
<event>
 8    1  0.7631533E-006  0.1058145E+04  0.7818608E-02  0.8737106E-01
         21   -1    0    0  503  502  0.00000000000E+00  0.00000000000E+00  0.17252813809E+04  0.17252813809E+04  0.00000000000E+00 0. -1.
         21   -1    0    0  501  503 -0.00000000000E+00 -0.00000000000E+00 -0.66889098127E+03  0.66889098127E+03  0.00000000000E+00 0. -1.
    9000010    2    1    2  501    0  0.31184977851E+03  0.30148563225E+02  0.15225957545E+03  0.10023663232E+04  0.93989150827E+03 0.  0.
   -9000010    2    1    2    0  502 -0.31184977851E+03 -0.30148563225E+02  0.90413082418E+03  0.13918060390E+04  0.10106989080E+04 0.  0.
        -13    1    3    3    0    0  0.41468260841E+02 -0.43989563348E+03  0.12603928869E+03  0.45947110733E+03  0.10566000000E+00 0.  1.
          4    1    3    3  501    0  0.27038151766E+03  0.47004419671E+03  0.26220286754E+02  0.54289521585E+03  0.00000000000E+00 0.  1.
         13    1    4    4    0    0 -0.23911492524E+03 -0.32915419669E+02 -0.18258868860E+03  0.30265163587E+03  0.10566000000E+00 0. -1.
         -4    1    4    4    0  502 -0.72734853270E+02  0.27668564446E+01  0.10867195128E+04  0.10891544031E+04  0.00000000000E+00 0. -1.
<mgrwt>
<rscale>  2 0.10408744E+04</rscale>
<asrwt>0</asrwt>
<pdfrwt beam="1">  1       21 0.26542790E+00 0.10581453E+04</pdfrwt>
<pdfrwt beam="2">  1       21 0.10290631E+00 0.10581453E+04</pdfrwt>
<totfact> 0.17157982E+01</totfact>
</mgrwt>
</event>
<event>
 8    1  0.7631533E-006  0.1006618E+04  0.7818608E-02  0.8777484E-01
         21   -1    0    0  501  502  0.00000000000E+00  0.00000000000E+00  0.14583417716E+04  0.14583417716E+04  0.00000000000E+00 0.  1.
         21   -1    0    0  502  503 -0.00000000000E+00 -0.00000000000E+00 -0.80335206143E+03  0.80335206143E+03  0.00000000000E+00 0.  1.
    9000010    2    1    2  501    0 -0.51858880366E+02  0.62856203959E+02  0.78513219981E+03  0.12466981579E+04  0.96497848679E+03 0.  0.
   -9000010    2    1    2    0  503  0.51858880366E+02 -0.62856203959E+02 -0.13014248964E+03  0.10149956751E+04  0.10033139623E+04 0.  0.
        -13    1    3    3    0    0  0.28282675375E+03  0.26529760821E+03  0.76184452586E+03  0.85485723154E+03  0.10566000000E+00 0.  1.
          4    1    3    3  501    0 -0.33468563411E+03 -0.20244140425E+03  0.23287673948E+02  0.39184092639E+03  0.00000000000E+00 0.  1.
         13    1    4    4    0    0 -0.20880483836E+03 -0.46539891889E+03  0.25699819710E+02  0.51074074257E+03  0.10566000000E+00 0. -1.
         -4    1    4    4    0  503  0.26066371872E+03  0.40254271493E+03 -0.15584230935E+03  0.50425493254E+03  0.00000000000E+00 0. -1.
<mgrwt>
<rscale>  2 0.99692748E+03</rscale>
<asrwt>0</asrwt>
<pdfrwt beam="1">  1       21 0.22436027E+00 0.10066177E+04</pdfrwt>
<pdfrwt beam="2">  1       21 0.12359263E+00 0.10066177E+04</pdfrwt>
<totfact> 0.21019741E+01</totfact>
</mgrwt>
</event>
<event>
 8    1  0.7631533E-006  0.1010396E+04  0.7818608E-02  0.8773223E-01
         21   -1    0    0  501  502  0.00000000000E+00  0.00000000000E+00  0.63347014059E+03  0.63347014059E+03  0.00000000000E+00 0.  1.
         21   -1    0    0  502  503 -0.00000000000E+00 -0.00000000000E+00 -0.16879381753E+04  0.16879381753E+04  0.00000000000E+00 0.  1.
    9000010    2    1    2  501    0 -0.49604739431E+02  0.21628434359E+03 -0.86056180439E+03  0.13272025915E+04  0.98572843737E+03 0.  0.
   -9000010    2    1    2    0  503  0.49604739431E+02 -0.21628434359E+03 -0.19390623034E+03  0.99420572441E+03  0.94952927750E+03 0.  0.
        -13    1    3    3    0    0 -0.50623439221E+03  0.21693437604E+03 -0.41929775462E+03  0.69220257263E+03  0.10566000000E+00 0.  1.
          4    1    3    3  501    0  0.45662965278E+03 -0.65003244908E+00 -0.44126404977E+03  0.63500001886E+03  0.00000000000E+00 0.  1.
         13    1    4    4    0    0  0.98695772549E+02 -0.13519133403E+03  0.37857553723E+03  0.41392873888E+03  0.10566000000E+00 0. -1.
         -4    1    4    4    0  503 -0.49091033118E+02 -0.81093009562E+02 -0.57248176757E+03  0.58027698553E+03  0.00000000000E+00 0. -1.
<mgrwt>
<rscale>  2 0.10014573E+04</rscale>
<asrwt>0</asrwt>
<pdfrwt beam="1">  1       21 0.97456945E-01 0.10103960E+04</pdfrwt>
<pdfrwt beam="2">  1       21 0.25968279E+00 0.10103960E+04</pdfrwt>
<totfact> 0.21998775E+01</totfact>
</mgrwt>
</event>
<event>
 8    1  0.7631533E-006  0.1136767E+04  0.7818608E-02  0.8660272E-01
         21   -1    0    0  501  502  0.00000000000E+00  0.00000000000E+00  0.86464512072E+03  0.86464512072E+03  0.00000000000E+00 0.  1.
         21   -1    0    0  502  503 -0.00000000000E+00 -0.00000000000E+00 -0.23375925070E+04  0.23375925070E+04  0.00000000000E+00 0.  1.
    9000010    2    1    2  501    0 -0.46388508092E+03  0.16803772577E+03  0.23690752590E+03  0.11611912292E+04  0.10241161309E+04 0.  0.
   -9000010    2    1    2    0  503  0.46388508092E+03 -0.16803772577E+03 -0.17098549121E+04  0.20410463984E+04  0.99942009907E+03 0.  0.
        -13    1    3    3    0    0 -0.61627315571E+03  0.43503303835E+03 -0.28733291653E+02  0.75489864228E+03  0.10566000000E+00 0.  1.
          4    1    3    3  501    0  0.15238807479E+03 -0.26699531258E+03  0.26564081755E+03  0.40629258697E+03  0.00000000000E+00 0.  1.
         13    1    4    4    0    0  0.13644435871E+03  0.20823604289E+03 -0.14638755237E+04  0.14848942295E+04  0.10566000000E+00 0. -1.
         -4    1    4    4    0  503  0.32744072220E+03 -0.37627376866E+03 -0.24597938844E+03  0.55615216899E+03  0.00000000000E+00 0. -1.
<mgrwt>
<rscale>  2 0.11311769E+04</rscale>
<asrwt>0</asrwt>
<pdfrwt beam="1">  1       21 0.13302233E+00 0.11367673E+04</pdfrwt>
<pdfrwt beam="2">  1       21 0.35962961E+00 0.11367673E+04</pdfrwt>
<totfact> 0.17861104E+00</totfact>
</mgrwt>
</event>
<event>
 8    1  0.7631533E-006  0.1568679E+04  0.7818608E-02  0.8374271E-01
         21   -1    0    0  503  502  0.00000000000E+00  0.00000000000E+00  0.11792700827E+04  0.11792700827E+04  0.00000000000E+00 0. -1.
         21   -1    0    0  501  503 -0.00000000000E+00 -0.00000000000E+00 -0.21617959063E+04  0.21617959063E+04  0.00000000000E+00 0. -1.
    9000010    2    1    2  501    0  0.17648352448E+03  0.11999938432E+04 -0.85821656963E+03  0.17674692583E+04  0.95722528210E+03 0.  0.
   -9000010    2    1    2    0  502 -0.17648352448E+03 -0.11999938432E+04 -0.12430925405E+03  0.15735967307E+04  0.99479757843E+03 0.  0.
        -13    1    3    3    0    0  0.14220438028E+03  0.12909456958E+04 -0.96876486125E+03  0.16202679540E+04  0.10566000000E+00 0.  1.
          4    1    3    3  501    0  0.34279144202E+02 -0.90951852594E+02  0.11054829162E+03  0.14720130434E+03  0.00000000000E+00 0.  1.
         13    1    4    4    0    0  0.41462755018E+03 -0.56320059117E+03 -0.36618800878E+02  0.70032268206E+03  0.10566000000E+00 0. -1.
         -4    1    4    4    0  502 -0.59111107466E+03 -0.63679325199E+03 -0.87690453176E+02  0.87327404860E+03  0.00000000000E+00 0. -1.
<mgrwt>
<rscale>  2 0.15627571E+04</rscale>
<asrwt>0</asrwt>
<pdfrwt beam="1">  1       21 0.18142617E+00 0.15686790E+04</pdfrwt>
<pdfrwt beam="2">  1       21 0.33258398E+00 0.15686790E+04</pdfrwt>
<totfact> 0.95477430E-01</totfact>
</mgrwt>
</event>
<event>
 8    1  0.7631533E-006  0.1122173E+04  0.7818608E-02  0.8667616E-01
         21   -1    0    0  501  502  0.00000000000E+00  0.00000000000E+00  0.12123381222E+04  0.12123381222E+04  0.00000000000E+00 0. -1.
         21   -1    0    0  502  503 -0.00000000000E+00 -0.00000000000E+00 -0.10636996597E+04  0.10636996597E+04  0.00000000000E+00 0.  1.
    9000010    2    1    2  501    0  0.37125486296E+03 -0.37189995177E+03  0.24912075915E+03  0.11493748945E+04  0.99139384104E+03 0.  0.
   -9000010    2    1    2    0  503 -0.37125486296E+03  0.37189995177E+03 -0.10048229662E+03  0.11266628874E+04  0.99153054541E+03 0.  0.
        -13    1    3    3    0    0 -0.19080559476E+03 -0.21694276148E+03 -0.24986250404E+03  0.38197148956E+03  0.10566000000E+00 0.  1.
          4    1    3    3  501    0  0.56206045772E+03 -0.15495719030E+03  0.49898326319E+03  0.76740340493E+03  0.00000000000E+00 0.  1.
         13    1    4    4    0    0  0.25885370348E+03 -0.50437663557E+02  0.17847841580E+03  0.31843956064E+03  0.10566000000E+00 0. -1.
         -4    1    4    4    0  503 -0.63010856643E+03  0.42233761533E+03 -0.27896071242E+03  0.80822332674E+03  0.00000000000E+00 0. -1.
<mgrwt>
<rscale>  2 0.11221429E+04</rscale>
<asrwt>0</asrwt>
<pdfrwt beam="1">  1       21 0.18651356E+00 0.11221731E+04</pdfrwt>
<pdfrwt beam="2">  1       21 0.16364610E+00 0.11221731E+04</pdfrwt>
<totfact> 0.17261059E+01</totfact>
</mgrwt>
</event>
<event>
 8    1  0.7631533E-006  0.1065242E+04  0.7818608E-02  0.8716204E-01
         21   -1    0    0  501  502  0.00000000000E+00  0.00000000000E+00  0.17782744532E+04  0.17782744532E+04  0.00000000000E+00 0. -1.
         21   -1    0    0  502  503 -0.00000000000E+00 -0.00000000000E+00 -0.70460724261E+03  0.70460724261E+03  0.00000000000E+00 0. -1.
    9000010    2    1    2  501    0  0.32866430085E+03 -0.16049366666E+03  0.92233254724E+03  0.14069435378E+04  0.99750406066E+03 0.  0.
   -9000010    2    1    2    0  503 -0.32866430085E+03  0.16049366666E+03  0.15133466334E+03  0.10759381580E+04  0.10004810343E+04 0.  0.
        -13    1    3    3    0    0  0.50667005233E+03 -0.46922662700E+03  0.71776703259E+03  0.99603097023E+03  0.10566000000E+00 0.  1.
          4    1    3    3  501    0 -0.17800575148E+03  0.30873296034E+03  0.20456551465E+03  0.41091256752E+03  0.00000000000E+00 0.  1.
         13    1    4    4    0    0 -0.35386630232E+03 -0.37767456937E+03  0.14368258523E+03  0.53712581089E+03  0.10566000000E+00 0. -1.
         -4    1    4    4    0  503  0.25202001468E+02  0.53816823603E+03  0.76520781099E+01  0.53881234715E+03  0.00000000000E+00 0. -1.
<mgrwt>
<rscale>  2 0.10645425E+04</rscale>
<asrwt>0</asrwt>
<pdfrwt beam="1">  1       21 0.27358068E+00 0.10652421E+04</pdfrwt>
<pdfrwt beam="2">  1       21 0.10840111E+00 0.10652421E+04</pdfrwt>
<totfact> 0.13033309E+01</totfact>
</mgrwt>
</event>
<event>
 8    1  0.7631533E-006  0.1015951E+04  0.7818608E-02  0.8763581E-01
         21   -1    0    0  501  502  0.00000000000E+00  0.00000000000E+00  0.17470260894E+04  0.17470260894E+04  0.00000000000E+00 0.  1.
         21   -1    0    0  502  503 -0.00000000000E+00 -0.00000000000E+00 -0.82080161465E+03  0.82080161465E+03  0.00000000000E+00 0.  1.
    9000010    2    1    2  501    0 -0.26069616087E+02  0.97263629732E+02  0.11593873869E+04  0.15415370701E+04  0.10109488548E+04 0.  0.
   -9000010    2    1    2    0  503  0.26069616087E+02 -0.97263629732E+02 -0.23316291209E+03  0.10262906340E+04  0.99436798183E+03 0.  0.
        -13    1    3    3    0    0 -0.39652297005E+02  0.42126256334E+03  0.10159088189E+03  0.43514959540E+03  0.10566000000E+00 0.  1.
          4    1    3    3  501    0  0.13582680919E+02 -0.32399893360E+03  0.10577965050E+04  0.11063874747E+04  0.00000000000E+00 0.  1.
         13    1    4    4    0    0  0.23208528161E+03 -0.48513040404E+03 -0.20125739441E+02  0.53816367716E+03  0.10566000000E+00 0. -1.
         -4    1    4    4    0  503 -0.20601566553E+03  0.38786677431E+03 -0.21303717265E+03  0.48812695683E+03  0.00000000000E+00 0. -1.
<mgrwt>
<rscale>  2 0.10118017E+04</rscale>
<asrwt>0</asrwt>
<pdfrwt beam="1">  1       21 0.26877324E+00 0.10159515E+04</pdfrwt>
<pdfrwt beam="2">  1       21 0.12627717E+00 0.10159515E+04</pdfrwt>
<totfact> 0.93483850E+00</totfact>
</mgrwt>
</event>
<event>
 8    1  0.7631533E-006  0.1064608E+04  0.7818608E-02  0.8722383E-01
         21   -1    0    0  503  502  0.00000000000E+00  0.00000000000E+00  0.92424661691E+03  0.92424661691E+03  0.00000000000E+00 0.  1.
         21   -1    0    0  501  503 -0.00000000000E+00 -0.00000000000E+00 -0.12210901077E+04  0.12210901077E+04  0.00000000000E+00 0.  1.
    9000010    2    1    2  501    0  0.28661409382E+03  0.66575110975E+02 -0.30628833989E+03  0.10806870191E+04  0.99372632145E+03 0.  0.
   -9000010    2    1    2    0  502 -0.28661409382E+03 -0.66575110975E+02  0.94448491339E+01  0.10646497055E+04  0.10231372860E+04 0.  0.
        -13    1    3    3    0    0 -0.15904715819E+03  0.43002690376E+03 -0.17542512830E+03  0.49091050435E+03  0.10566000000E+00 0.  1.
          4    1    3    3  501    0  0.44566125201E+03 -0.36345179278E+03 -0.13086321160E+03  0.58977651476E+03  0.00000000000E+00 0.  1.
         13    1    4    4    0    0 -0.66155615839E+03 -0.15465744205E+03  0.37631578235E+00  0.67939357361E+03  0.10566000000E+00 0. -1.
         -4    1    4    4    0  502  0.37494206457E+03  0.88082331075E+02  0.90685333516E+01  0.38525613185E+03  0.00000000000E+00 0. -1.
<mgrwt>
<rscale>  2 0.10574782E+04</rscale>
<asrwt>0</asrwt>
<pdfrwt beam="1">  1       21 0.14219179E+00 0.10646078E+04</pdfrwt>
<pdfrwt beam="2">  1       21 0.18786001E+00 0.10646078E+04</pdfrwt>
<totfact> 0.26389935E+01</totfact>
</mgrwt>
</event>
<event>
 8    1  0.7631533E-006  0.1022700E+04  0.7818608E-02  0.8755467E-01
         21   -1    0    0  503  502  0.00000000000E+00  0.00000000000E+00  0.38235689839E+03  0.38235689839E+03  0.00000000000E+00 0.  1.
         21   -1    0    0  501  503 -0.00000000000E+00 -0.00000000000E+00 -0.32965674545E+04  0.32965674545E+04  0.00000000000E+00 0.  1.
    9000010    2    1    2  501    0 -0.16923635344E+03  0.24755183324E+03 -0.22358373366E+04  0.24586345113E+04  0.97774854168E+03 0.  0.
   -9000010    2    1    2    0  502  0.16923635344E+03 -0.24755183324E+03 -0.67837321950E+03  0.12202898416E+04  0.96901714081E+03 0.  0.
        -13    1    3    3    0    0  0.15732250530E+03  0.20538023419E+03 -0.20770079265E+04  0.20930583721E+04  0.10566000000E+00 0.  1.
          4    1    3    3  501    0 -0.32655885874E+03  0.42171599048E+02 -0.15882941012E+03  0.36557613914E+03  0.00000000000E+00 0.  1.
         13    1    4    4    0    0  0.32765536301E+03  0.29208296574E+03 -0.20176409286E+03  0.48309342380E+03  0.10566000000E+00 0. -1.
         -4    1    4    4    0  502 -0.15841900957E+03 -0.53963479898E+03 -0.47660912664E+03  0.73719641783E+03  0.00000000000E+00 0. -1.
<mgrwt>
<rscale>  2 0.10206074E+04</rscale>
<asrwt>0</asrwt>
<pdfrwt beam="1">  1       21 0.58824138E-01 0.10226999E+04</pdfrwt>
<pdfrwt beam="2">  1       21 0.50716422E+00 0.10226999E+04</pdfrwt>
<totfact> 0.13824672E+00</totfact>
</mgrwt>
</event>
<event>
 8    1  0.7631533E-006  0.1002793E+04  0.7818608E-02  0.8773123E-01
         21   -1    0    0  503  502  0.00000000000E+00  0.00000000000E+00  0.69983480647E+03  0.69983480647E+03  0.00000000000E+00 0. -1.
         21   -1    0    0  501  503 -0.00000000000E+00 -0.00000000000E+00 -0.15068882302E+04  0.15068882302E+04  0.00000000000E+00 0. -1.
    9000010    2    1    2  501    0  0.13207293201E+02 -0.37908845411E+02 -0.65201014932E+03  0.11920153506E+04  0.99708166566E+03 0.  0.
   -9000010    2    1    2    0  502 -0.13207293201E+02  0.37908845411E+02 -0.15504327438E+03  0.10147076861E+04  0.10019889012E+04 0.  0.
        -13    1    3    3    0    0 -0.32114622463E+03 -0.32818536872E+02 -0.77197592613E+03  0.83675491970E+03  0.10566000000E+00 0.  1.
          4    1    3    3  501    0  0.33435351783E+03 -0.50903085383E+01  0.11996577681E+03  0.35526043086E+03  0.00000000000E+00 0.  1.
         13    1    4    4    0    0  0.21283285581E+02 -0.25340782931E+03  0.34881645781E+03  0.43167283746E+03  0.10566000000E+00 0. -1.
         -4    1    4    4    0  502 -0.34490578782E+02  0.29131667472E+03 -0.50385973219E+03  0.58303484863E+03  0.00000000000E+00 0. -1.
<mgrwt>
<rscale>  2 0.10015647E+04</rscale>
<asrwt>0</asrwt>
<pdfrwt beam="1">  1       21 0.10766689E+00 0.10027927E+04</pdfrwt>
<pdfrwt beam="2">  1       21 0.23182896E+00 0.10027927E+04</pdfrwt>
<totfact> 0.27067551E+01</totfact>
</mgrwt>
</event>
<event>
 8    1  0.7631533E-006  0.1050014E+04  0.7818608E-02  0.8731703E-01
         21   -1    0    0  501  502  0.00000000000E+00  0.00000000000E+00  0.10421057941E+04  0.10421057941E+04  0.00000000000E+00 0. -1.
         21   -1    0    0  502  503 -0.00000000000E+00 -0.00000000000E+00 -0.13792289996E+04  0.13792289996E+04  0.00000000000E+00 0. -1.
    9000010    2    1    2  501    0 -0.99193610191E+02 -0.25650617357E+03  0.42607595284E+03  0.11331681394E+04  0.10133580439E+04 0.  0.
   -9000010    2    1    2    0  503  0.99193610191E+02  0.25650617357E+03 -0.76319915830E+03  0.12881666543E+04  0.10006325922E+04 0.  0.
        -13    1    3    3    0    0 -0.50075869958E+03  0.51711770400E+02  0.36810308495E+03  0.62364515128E+03  0.10566000000E+00 0.  1.
          4    1    3    3  501    0  0.40156508939E+03 -0.30821794397E+03  0.57972867890E+02  0.50952298811E+03  0.00000000000E+00 0.  1.
         13    1    4    4    0    0 -0.10825224040E+03 -0.19409479802E+03  0.13647260072E+03  0.26079900322E+03  0.10566000000E+00 0. -1.
         -4    1    4    4    0  503  0.20744585059E+03  0.45060097159E+03 -0.89967175902E+03  0.10273676511E+04  0.00000000000E+00 0. -1.
<mgrwt>
<rscale>  2 0.10469314E+04</rscale>
<asrwt>0</asrwt>
<pdfrwt beam="1">  1       21 0.16032397E+00 0.10500140E+04</pdfrwt>
<pdfrwt beam="2">  1       21 0.21218908E+00 0.10500140E+04</pdfrwt>
<totfact> 0.11794949E+01</totfact>
</mgrwt>
</event>
<event>
 8    1  0.7631533E-006  0.1087255E+04  0.7818608E-02  0.8698425E-01
         21   -1    0    0  503  502  0.00000000000E+00  0.00000000000E+00  0.14065922009E+04  0.14065922009E+04  0.00000000000E+00 0. -1.
         21   -1    0    0  501  503 -0.00000000000E+00 -0.00000000000E+00 -0.89181606246E+03  0.89181606246E+03  0.00000000000E+00 0. -1.
    9000010    2    1    2  501    0  0.30280448192E+03 -0.18656577090E+03 -0.34131498500E+02  0.10877904790E+04  0.10274365313E+04 0.  0.
   -9000010    2    1    2    0  502 -0.30280448192E+03  0.18656577090E+03  0.54890763691E+03  0.12106177843E+04  0.10187239492E+04 0.  0.
        -13    1    3    3    0    0 -0.20397192585E+03  0.10785068470E+03  0.32637801873E+03  0.39969856017E+03  0.10566000000E+00 0.  1.
          4    1    3    3  501    0  0.50677640777E+03 -0.29441645559E+03 -0.36050951723E+03  0.68809191886E+03  0.00000000000E+00 0.  1.
         13    1    4    4    0    0 -0.59329074772E+03  0.14655802591E+03  0.26690101874E+02  0.61170706959E+03  0.10566000000E+00 0. -1.
         -4    1    4    4    0  502  0.29048626580E+03  0.40007744988E+02  0.52221753504E+03  0.59891071470E+03  0.00000000000E+00 0. -1.
<mgrwt>
<rscale>  2 0.10851916E+04</rscale>
<asrwt>0</asrwt>
<pdfrwt beam="1">  1       21 0.21639880E+00 0.10872549E+04</pdfrwt>
<pdfrwt beam="2">  1       21 0.13720247E+00 0.10872549E+04</pdfrwt>
<totfact> 0.17516007E+01</totfact>
</mgrwt>
</event>
<event>
 8    1  0.7631533E-006  0.1007689E+04  0.7818608E-02  0.8770326E-01
         21   -1    0    0  501  502  0.00000000000E+00  0.00000000000E+00  0.91308926941E+03  0.91308926941E+03  0.00000000000E+00 0. -1.
         21   -1    0    0  502  503 -0.00000000000E+00 -0.00000000000E+00 -0.13137178761E+04  0.13137178761E+04  0.00000000000E+00 0. -1.
    9000010    2    1    2  501    0  0.17176409050E+03  0.48469396626E+02  0.24944029816E+03  0.10381025992E+04  0.99175821594E+03 0.  0.
   -9000010    2    1    2    0  503 -0.17176409050E+03 -0.48469396626E+02 -0.65006890488E+03  0.11887045464E+04  0.97906931944E+03 0.  0.
        -13    1    3    3    0    0 -0.39561339894E+03 -0.10642848180E+03  0.31531916630E+02  0.41089080799E+03  0.10566000000E+00 0.  1.
          4    1    3    3  501    0  0.56737748944E+03  0.15489787843E+03  0.21790838153E+03  0.62721179119E+03  0.00000000000E+00 0.  1.
         13    1    4    4    0    0 -0.26064125698E+03  0.42280294509E+03 -0.21513508767E+03  0.54127563433E+03  0.10566000000E+00 0. -1.
         -4    1    4    4    0  503  0.88877166478E+02 -0.47127234171E+03 -0.43493381721E+03  0.64742891203E+03  0.00000000000E+00 0. -1.
<mgrwt>
<rscale>  2 0.10045527E+04</rscale>
<asrwt>0</asrwt>
<pdfrwt beam="1">  1       21 0.14047527E+00 0.10076887E+04</pdfrwt>
<pdfrwt beam="2">  1       21 0.20211044E+00 0.10076887E+04</pdfrwt>
<totfact> 0.21401823E+01</totfact>
</mgrwt>
</event>
<event>
 8    1  0.7631533E-006  0.1012338E+04  0.7818608E-02  0.8764853E-01
         21   -1    0    0  503  502  0.00000000000E+00  0.00000000000E+00  0.51728614985E+03  0.51728614985E+03  0.00000000000E+00 0. -1.
         21   -1    0    0  501  503 -0.00000000000E+00 -0.00000000000E+00 -0.28474613115E+04  0.28474613115E+04  0.00000000000E+00 0. -1.
    9000010    2    1    2  501    0 -0.30126167548E+02 -0.13353992403E+03 -0.20979312841E+04  0.23261111834E+04  0.99535775845E+03 0.  0.
   -9000010    2    1    2    0  502  0.30126167548E+02  0.13353992403E+03 -0.23224387754E+03  0.10386362780E+04  0.10030391827E+04 0.  0.
        -13    1    3    3    0    0 -0.10139632218E+03  0.30700858784E+03 -0.20856244190E+03  0.38475159583E+03  0.10566000000E+00 0.  1.
          4    1    3    3  501    0  0.71270154634E+02 -0.44054851187E+03 -0.18893688422E+04  0.19413595876E+04  0.00000000000E+00 0.  1.
         13    1    4    4    0    0 -0.20932951887E+03  0.31779365810E+03 -0.50450038328E+03  0.63192745192E+03  0.10566000000E+00 0. -1.
         -4    1    4    4    0  502  0.23945568642E+03 -0.18425373407E+03  0.27225650574E+03  0.40670882606E+03  0.00000000000E+00 0. -1.
<mgrwt>
<rscale>  2 0.10104300E+04</rscale>
<asrwt>0</asrwt>
<pdfrwt beam="1">  1       21 0.79582484E-01 0.10123379E+04</pdfrwt>
<pdfrwt beam="2">  1       21 0.43807097E+00 0.10123379E+04</pdfrwt>
<totfact> 0.20542957E+00</totfact>
</mgrwt>
</event>
<event>
 8    1  0.7631533E-006  0.1054272E+04  0.7818608E-02  0.8746926E-01
         21   -1    0    0  501  502  0.00000000000E+00  0.00000000000E+00  0.14112515007E+04  0.14112515007E+04  0.00000000000E+00 0.  1.
         21   -1    0    0  502  503 -0.00000000000E+00 -0.00000000000E+00 -0.76881029637E+03  0.76881029637E+03  0.00000000000E+00 0.  1.
    9000010    2    1    2  501    0  0.77993517137E+02  0.15905774237E+03  0.58102956424E+02  0.10558723149E+04  0.10392824630E+04 0.  0.
   -9000010    2    1    2    0  503 -0.77993517137E+02 -0.15905774237E+03  0.58433824787E+03  0.11241894821E+04  0.94391125091E+03 0.  0.
        -13    1    3    3    0    0  0.22307813477E+03  0.45247810235E+03 -0.28685227713E+03  0.58033139444E+03  0.10566000000E+00 0.  1.
          4    1    3    3  501    0 -0.14508461763E+03 -0.29342035997E+03  0.34495523356E+03  0.47554092051E+03  0.00000000000E+00 0.  1.
         13    1    4    4    0    0 -0.27372342647E+02  0.26930721820E+03  0.63460299097E+03  0.68992506131E+03  0.10566000000E+00 0. -1.
         -4    1    4    4    0  503 -0.50621174490E+02 -0.42836496057E+03 -0.50264743103E+02  0.43426442077E+03  0.00000000000E+00 0. -1.
<mgrwt>
<rscale>  2 0.10299749E+04</rscale>
<asrwt>0</asrwt>
<pdfrwt beam="1">  1       21 0.21711561E+00 0.10542724E+04</pdfrwt>
<pdfrwt beam="2">  1       21 0.11827851E+00 0.10542724E+04</pdfrwt>
<totfact> 0.26668058E+01</totfact>
</mgrwt>
</event>
<event>
 8    1  0.7631533E-006  0.1088228E+04  0.7818608E-02  0.8702694E-01
         21   -1    0    0  503  502  0.00000000000E+00  0.00000000000E+00  0.67414001365E+03  0.67414001365E+03  0.00000000000E+00 0.  1.
         21   -1    0    0  501  503 -0.00000000000E+00 -0.00000000000E+00 -0.17616834296E+04  0.17616834296E+04  0.00000000000E+00 0.  1.
    9000010    2    1    2  501    0  0.32576913401E+03  0.21947844308E+03 -0.31888087962E+03  0.11035010117E+04  0.98067994362E+03 0.  0.
   -9000010    2    1    2    0  502 -0.32576913401E+03 -0.21947844308E+03 -0.76866253630E+03  0.13323224315E+04  0.10148618877E+04 0.  0.
        -13    1    3    3    0    0 -0.14665161556E+03 -0.39821588007E+01 -0.52244305157E+03  0.54265026235E+03  0.10566000000E+00 0.  1.
          4    1    3    3  501    0  0.47242074957E+03  0.22346060188E+03  0.20356217195E+03  0.56085074936E+03  0.00000000000E+00 0.  1.
         13    1    4    4    0    0  0.60120348508E+02 -0.52215371110E+03 -0.63439763741E+03  0.82384423761E+03  0.10566000000E+00 0. -1.
         -4    1    4    4    0  502 -0.38588948252E+03  0.30267526802E+03 -0.13426489889E+03  0.50847819389E+03  0.00000000000E+00 0. -1.
<mgrwt>
<rscale>  2 0.10801883E+04</rscale>
<asrwt>0</asrwt>
<pdfrwt beam="1">  1       21 0.10371385E+00 0.10882284E+04</pdfrwt>
<pdfrwt beam="2">  1       21 0.27102822E+00 0.10882284E+04</pdfrwt>
<totfact> 0.15220030E+01</totfact>
</mgrwt>
</event>
<event>
 8    1  0.7631533E-006  0.1009776E+04  0.7818608E-02  0.8768144E-01
         21   -1    0    0  501  502  0.00000000000E+00  0.00000000000E+00  0.12793177407E+04  0.12793177407E+04  0.00000000000E+00 0. -1.
         21   -1    0    0  502  503 -0.00000000000E+00 -0.00000000000E+00 -0.81239685109E+03  0.81239685109E+03  0.00000000000E+00 0. -1.
    9000010    2    1    2  501    0 -0.22361834797E+02  0.10029160594E+03  0.41348073601E+03  0.10805253813E+04  0.99298052481E+03 0.  0.
   -9000010    2    1    2    0  503  0.22361834797E+02 -0.10029160594E+03  0.53440153624E+02  0.10111892105E+04  0.10045343755E+04 0.  0.
        -13    1    3    3    0    0  0.81456545092E+01  0.71164298839E+02  0.74394238243E+03  0.74738275914E+03  0.10566000000E+00 0.  1.
          4    1    3    3  501    0 -0.30507489306E+02  0.29127307098E+02 -0.33046164642E+03  0.33314262213E+03  0.00000000000E+00 0.  1.
         13    1    4    4    0    0  0.28657731272E+02 -0.54869091620E+03  0.10634484481E+03  0.55963579609E+03  0.10566000000E+00 0. -1.
         -4    1    4    4    0  503 -0.62958964746E+01  0.44839931026E+03 -0.52904691187E+02  0.45155341445E+03  0.00000000000E+00 0. -1.
<mgrwt>
<rscale>  2 0.10068905E+04</rscale>
<asrwt>0</asrwt>
<pdfrwt beam="1">  1       21 0.19681811E+00 0.10097761E+04</pdfrwt>
<pdfrwt beam="2">  1       21 0.12498413E+00 0.10097761E+04</pdfrwt>
<totfact> 0.33061307E+01</totfact>
</mgrwt>
</event>
<event>
 8    1  0.7631533E-006  0.1035354E+04  0.7818608E-02  0.8747256E-01
         21   -1    0    0  501  502  0.00000000000E+00  0.00000000000E+00  0.86467458886E+03  0.86467458886E+03  0.00000000000E+00 0. -1.
         21   -1    0    0  502  503 -0.00000000000E+00 -0.00000000000E+00 -0.14782776836E+04  0.14782776836E+04  0.00000000000E+00 0. -1.
    9000010    2    1    2  501    0 -0.10305063990E+02  0.17156520649E+03 -0.80060671171E+03  0.12908460363E+04  0.99788354438E+03 0.  0.
   -9000010    2    1    2    0  503  0.10305063990E+02 -0.17156520649E+03  0.18700361701E+03  0.10521062361E+04  0.10209879357E+04 0.  0.
        -13    1    3    3    0    0 -0.34880672207E+03  0.45197958350E+03 -0.41100629325E+03  0.70347555574E+03  0.10566000000E+00 0.  1.
          4    1    3    3  501    0  0.33850165808E+03 -0.28041437701E+03 -0.38960041846E+03  0.58737048055E+03  0.00000000000E+00 0.  1.
         13    1    4    4    0    0  0.15975630950E+03  0.29739703307E+03  0.39339163554E+03  0.51838601812E+03  0.10566000000E+00 0. -1.
         -4    1    4    4    0  503 -0.14945124551E+03 -0.46896223956E+03 -0.20638801853E+03  0.53372021801E+03  0.00000000000E+00 0. -1.
<mgrwt>
<rscale>  2 0.10296119E+04</rscale>
<asrwt>0</asrwt>
<pdfrwt beam="1">  1       21 0.13302686E+00 0.10353536E+04</pdfrwt>
<pdfrwt beam="2">  1       21 0.22742734E+00 0.10353536E+04</pdfrwt>
<totfact> 0.16035079E+01</totfact>
</mgrwt>
</event>
<event>
 8    1  0.7631533E-006  0.1101399E+04  0.7818608E-02  0.8686672E-01
         21   -1    0    0  503  502  0.00000000000E+00  0.00000000000E+00  0.11121096389E+04  0.11121096389E+04  0.00000000000E+00 0. -1.
         21   -1    0    0  501  503 -0.00000000000E+00 -0.00000000000E+00 -0.12140134387E+04  0.12140134387E+04  0.00000000000E+00 0. -1.
    9000010    2    1    2  501    0  0.39016234567E+03  0.22801352121E+03 -0.43462244752E+03  0.11755663333E+04  0.99440570705E+03 0.  0.
   -9000010    2    1    2    0  502 -0.39016234567E+03 -0.22801352121E+03  0.33271864774E+03  0.11505567443E+04  0.10044213764E+04 0.  0.
        -13    1    3    3    0    0  0.49439867841E+03 -0.27383957176E+03 -0.32310722698E+03  0.65101187052E+03  0.10566000000E+00 0.  1.
          4    1    3    3  501    0 -0.10423633273E+03  0.50185309297E+03 -0.11151522054E+03  0.52455446275E+03  0.00000000000E+00 0.  1.
         13    1    4    4    0    0 -0.69950225711E+03 -0.31036506479E+03  0.14319735967E+03  0.77854696462E+03  0.10566000000E+00 0. -1.
         -4    1    4    4    0  502  0.30933991144E+03  0.82351543580E+02  0.18952128808E+03  0.37200977967E+03  0.00000000000E+00 0. -1.
<mgrwt>
<rscale>  2 0.10991101E+04</rscale>
<asrwt>0</asrwt>
<pdfrwt beam="1">  1       21 0.17109379E+00 0.11013987E+04</pdfrwt>
<pdfrwt beam="2">  1       21 0.18677130E+00 0.11013987E+04</pdfrwt>
<totfact> 0.14928507E+01</totfact>
</mgrwt>
</event>
<event>
 8    1  0.7631533E-006  0.1075177E+04  0.7818608E-02  0.8716912E-01
         21   -1    0    0  501  502  0.00000000000E+00  0.00000000000E+00  0.83507814633E+03  0.83507814633E+03  0.00000000000E+00 0.  1.
         21   -1    0    0  502  503 -0.00000000000E+00 -0.00000000000E+00 -0.14795372680E+04  0.14795372680E+04  0.00000000000E+00 0.  1.
    9000010    2    1    2  501    0 -0.22616923128E+03 -0.29595481549E+03  0.55604682618E+02  0.10316133243E+04  0.96041261761E+03 0.  0.
   -9000010    2    1    2    0  503  0.22616923128E+03  0.29595481549E+03 -0.70006380429E+03  0.12830020901E+04  0.10085946951E+04 0.  0.
        -13    1    3    3    0    0 -0.43001511661E+03  0.12949612657E+03 -0.20387129086E+03  0.49319951511E+03  0.10566000000E+00 0.  1.
          4    1    3    3  501    0  0.20384588532E+03 -0.42545094207E+03  0.25947597347E+03  0.53841380914E+03  0.00000000000E+00 0.  1.
         13    1    4    4    0    0  0.49885967116E+03 -0.14539035868E+03 -0.51662090403E+03  0.73273221408E+03  0.10566000000E+00 0. -1.
         -4    1    4    4    0  503 -0.27269043988E+03  0.44134517417E+03 -0.18344290026E+03  0.55026987599E+03  0.00000000000E+00 0. -1.
<mgrwt>
<rscale>  2 0.10637295E+04</rscale>
<asrwt>0</asrwt>
<pdfrwt beam="1">  1       21 0.12847356E+00 0.10751767E+04</pdfrwt>
<pdfrwt beam="2">  1       21 0.22762112E+00 0.10751767E+04</pdfrwt>
<totfact> 0.17516934E+01</totfact>
</mgrwt>
</event>
<event>
 8    1  0.7631533E-006  0.1114249E+04  0.7818608E-02  0.8675051E-01
         21   -1    0    0  501  502  0.00000000000E+00  0.00000000000E+00  0.99640698051E+03  0.99640698051E+03  0.00000000000E+00 0.  1.
         21   -1    0    0  502  503 -0.00000000000E+00 -0.00000000000E+00 -0.17138756767E+04  0.17138756767E+04  0.00000000000E+00 0.  1.
    9000010    2    1    2  501    0  0.40085867617E+03  0.28243766728E+03  0.35374216616E+03  0.11646295596E+04  0.99537418934E+03 0.  0.
   -9000010    2    1    2    0  503 -0.40085867617E+03 -0.28243766728E+03 -0.10712108623E+04  0.15456530976E+04  0.10005458872E+04 0.  0.
        -13    1    3    3    0    0  0.42075338824E+03  0.55624525608E+03 -0.23760974268E+02  0.69785872044E+03  0.10566000000E+00 0.  1.
          4    1    3    3  501    0 -0.19894712062E+02 -0.27380758881E+03  0.37750314043E+03  0.46677083916E+03  0.00000000000E+00 0.  1.
         13    1    4    4    0    0 -0.12696168228E+03  0.37570297228E+03 -0.31541809140E+03  0.50671547805E+03  0.10566000000E+00 0. -1.
         -4    1    4    4    0  503 -0.27389699390E+03 -0.65814063956E+03 -0.75579277091E+03  0.10389376195E+04  0.00000000000E+00 0. -1.
<mgrwt>
<rscale>  2 0.11130868E+04</rscale>
<asrwt>0</asrwt>
<pdfrwt beam="1">  1       21 0.15329338E+00 0.11142490E+04</pdfrwt>
<pdfrwt beam="2">  1       21 0.26367318E+00 0.11142490E+04</pdfrwt>
<totfact> 0.55772433E+00</totfact>
</mgrwt>
</event>
<event>
 8    1  0.7631533E-006  0.1061832E+04  0.7818608E-02  0.8721741E-01
         21   -1    0    0  501  502  0.00000000000E+00  0.00000000000E+00  0.16838492975E+04  0.16838492975E+04  0.00000000000E+00 0.  1.
         21   -1    0    0  502  503 -0.00000000000E+00 -0.00000000000E+00 -0.90035227781E+03  0.90035227781E+03  0.00000000000E+00 0.  1.
    9000010    2    1    2  501    0 -0.19850912257E+03 -0.26421615571E+03  0.10605631447E+04  0.15007602467E+04  0.10090941907E+04 0.  0.
   -9000010    2    1    2    0  503  0.19850912257E+03  0.26421615571E+03 -0.27706612503E+03  0.10834413285E+04  0.99391318839E+03 0.  0.
        -13    1    3    3    0    0 -0.43902121102E+03 -0.79649633158E+01  0.63610819436E+02  0.44367714825E+03  0.10566000000E+00 0.  1.
          4    1    3    3  501    0  0.24051208845E+03 -0.25625119239E+03  0.99695232524E+03  0.10570830985E+04  0.00000000000E+00 0.  1.
         13    1    4    4    0    0  0.34584296427E+03  0.16618522723E+03  0.29540549875E+03  0.48424095814E+03  0.10566000000E+00 0. -1.
         -4    1    4    4    0  503 -0.14733384170E+03  0.98030928484E+02 -0.57247162378E+03  0.59920037040E+03  0.00000000000E+00 0. -1.
<mgrwt>
<rscale>  2 0.10582094E+04</rscale>
<asrwt>0</asrwt>
<pdfrwt beam="1">  1       21 0.25905374E+00 0.10618320E+04</pdfrwt>
<pdfrwt beam="2">  1       21 0.13851574E+00 0.10618320E+04</pdfrwt>
<totfact> 0.82966889E+00</totfact>
</mgrwt>
</event>
<event>
 8    1  0.7631533E-006  0.1019244E+04  0.7818608E-02  0.8761452E-01
         21   -1    0    0  501  502  0.00000000000E+00  0.00000000000E+00  0.11267863936E+04  0.11267863936E+04  0.00000000000E+00 0.  1.
         21   -1    0    0  502  503 -0.00000000000E+00 -0.00000000000E+00 -0.17604567420E+04  0.17604567420E+04  0.00000000000E+00 0.  1.
    9000010    2    1    2  501    0  0.75689286444E+02  0.13990881890E+02  0.69193418603E+03  0.12150929267E+04  0.99586810861E+03 0.  0.
   -9000010    2    1    2    0  503 -0.75689286444E+02 -0.13990881890E+02 -0.13256045344E+04  0.16721502090E+04  0.10163337675E+04 0.  0.
        -13    1    3    3    0    0 -0.17130022785E+03  0.67119036919E+02  0.88070636464E+03  0.89971798085E+03  0.10566000000E+00 0.  1.
          4    1    3    3  501    0  0.24698951429E+03 -0.53128155029E+02 -0.18877217861E+03  0.31537494581E+03  0.00000000000E+00 0.  1.
         13    1    4    4    0    0  0.46087065852E+03  0.66180496722E+02 -0.49046246687E+03  0.67626552818E+03  0.10566000000E+00 0. -1.
         -4    1    4    4    0  503 -0.53655994497E+03 -0.80171378612E+02 -0.83514206757E+03  0.99588468083E+03  0.00000000000E+00 0. -1.
<mgrwt>
<rscale>  2 0.10141040E+04</rscale>
<asrwt>0</asrwt>
<pdfrwt beam="1">  1       21 0.17335175E+00 0.10192443E+04</pdfrwt>
<pdfrwt beam="2">  1       21 0.27083950E+00 0.10192443E+04</pdfrwt>
<totfact> 0.34164280E+00</totfact>
</mgrwt>
</event>
<event>
 8    1  0.7631533E-006  0.1094860E+04  0.7818608E-02  0.8704001E-01
         21   -1    0    0  503  502  0.00000000000E+00  0.00000000000E+00  0.10992279399E+04  0.10992279399E+04  0.00000000000E+00 0.  1.
         21   -1    0    0  501  503 -0.00000000000E+00 -0.00000000000E+00 -0.10821841885E+04  0.10821841885E+04  0.00000000000E+00 0.  1.
    9000010    2    1    2  501    0 -0.29261723127E+03 -0.82267994026E+00 -0.23497914119E+03  0.10579207472E+04  0.98911859238E+03 0.  0.
   -9000010    2    1    2    0  502  0.29261723127E+03  0.82267994026E+00  0.25202289253E+03  0.11234913812E+04  0.10550316698E+04 0.  0.
        -13    1    3    3    0    0 -0.54420661424E+03  0.19862729505E+02  0.17883910041E+03  0.57318304407E+03  0.10566000000E+00 0.  1.
          4    1    3    3  501    0  0.25158938297E+03 -0.20685409446E+02 -0.41381824160E+03  0.48473770317E+03  0.00000000000E+00 0.  1.
         13    1    4    4    0    0  0.40510455126E+03  0.29827661076E+03  0.50823404544E+03  0.71510872606E+03  0.10566000000E+00 0. -1.
         -4    1    4    4    0  502 -0.11248731999E+03 -0.29745393082E+03 -0.25621115291E+03  0.40838265511E+03  0.00000000000E+00 0. -1.
<mgrwt>
<rscale>  2 0.10786624E+04</rscale>
<asrwt>0</asrwt>
<pdfrwt beam="1">  1       21 0.16911199E+00 0.10948595E+04</pdfrwt>
<pdfrwt beam="2">  1       21 0.16648987E+00 0.10948595E+04</pdfrwt>
<totfact> 0.22830030E+01</totfact>
</mgrwt>
</event>
<event>
 8    1  0.7631533E-006  0.1032643E+04  0.7818608E-02  0.8745582E-01
         21   -1    0    0  501  502  0.00000000000E+00  0.00000000000E+00  0.12083528715E+04  0.12083528715E+04  0.00000000000E+00 0. -1.
         21   -1    0    0  502  503 -0.00000000000E+00 -0.00000000000E+00 -0.10259512004E+04  0.10259512004E+04  0.00000000000E+00 0. -1.
    9000010    2    1    2  501    0  0.13937226537E+03  0.23679510657E+03  0.51497285726E+03  0.11539273397E+04  0.99541685271E+03 0.  0.
   -9000010    2    1    2    0  503 -0.13937226537E+03 -0.23679510657E+03 -0.33257118608E+03  0.10803767322E+04  0.99051185702E+03 0.  0.
        -13    1    3    3    0    0  0.54159688446E+03  0.30447856106E+03  0.26444518055E+03  0.67525228181E+03  0.10566000000E+00 0.  1.
          4    1    3    3  501    0 -0.40222461910E+03 -0.67683454491E+02  0.25052767671E+03  0.47867505786E+03  0.00000000000E+00 0.  1.
         13    1    4    4    0    0 -0.37045592659E+03  0.27823087481E+03 -0.15813017337E+03  0.48954588767E+03  0.10566000000E+00 0. -1.
         -4    1    4    4    0  503  0.23108366122E+03 -0.51502598138E+03 -0.17444101271E+03  0.59083084457E+03  0.00000000000E+00 0. -1.
<mgrwt>
<rscale>  2 0.10314590E+04</rscale>
<asrwt>0</asrwt>
<pdfrwt beam="1">  1       21 0.18590044E+00 0.10326429E+04</pdfrwt>
<pdfrwt beam="2">  1       21 0.15783865E+00 0.10326429E+04</pdfrwt>
<totfact> 0.19985525E+01</totfact>
</mgrwt>
</event>
<event>
 8    1  0.7631533E-006  0.1046157E+04  0.7818608E-02  0.8732948E-01
         21   -1    0    0  503  502  0.00000000000E+00  0.00000000000E+00  0.54068520135E+03  0.54068520135E+03  0.00000000000E+00 0. -1.
         21   -1    0    0  501  503 -0.00000000000E+00 -0.00000000000E+00 -0.21139398479E+04  0.21139398479E+04  0.00000000000E+00 0. -1.
    9000010    2    1    2  501    0  0.17965633700E+03 -0.22681595602E+03 -0.50496869924E+03  0.11594065732E+04  0.10027503864E+04 0.  0.
   -9000010    2    1    2    0  502 -0.17965633700E+03  0.22681595602E+03 -0.10682859473E+04  0.14952184761E+04  0.10053464819E+04 0.  0.
        -13    1    3    3    0    0  0.39464689746E+03  0.19492358696E+03  0.34720624194E+02  0.44152792814E+03  0.10566000000E+00 0.  1.
          4    1    3    3  501    0 -0.21499056046E+03 -0.42173954298E+03 -0.53968932344E+03  0.71787864506E+03  0.00000000000E+00 0.  1.
         13    1    4    4    0    0  0.40939815121E+03  0.14523296506E+03 -0.32067594141E+03  0.53993752502E+03  0.10566000000E+00 0. -1.
         -4    1    4    4    0  502 -0.58905448821E+03  0.81582990967E+02 -0.74761000590E+03  0.95528095104E+03  0.00000000000E+00 0. -1.
<mgrwt>
<rscale>  2 0.10455323E+04</rscale>
<asrwt>0</asrwt>
<pdfrwt beam="1">  1       21 0.83182340E-01 0.10461565E+04</pdfrwt>
<pdfrwt beam="2">  1       21 0.32522151E+00 0.10461565E+04</pdfrwt>
<totfact> 0.11199445E+01</totfact>
</mgrwt>
</event>
<event>
 8    1  0.7631533E-006  0.1052570E+04  0.7818608E-02  0.8726944E-01
         21   -1    0    0  501  502  0.00000000000E+00  0.00000000000E+00  0.96775037610E+03  0.96775037610E+03  0.00000000000E+00 0. -1.
         21   -1    0    0  502  503 -0.00000000000E+00 -0.00000000000E+00 -0.11726311110E+04  0.11726311110E+04  0.00000000000E+00 0. -1.
    9000010    2    1    2  501    0  0.25258855801E+03  0.11829929143E+03  0.65841307475E+02  0.10535542539E+04  0.10138272960E+04 0.  0.
   -9000010    2    1    2    0  503 -0.25258855801E+03 -0.11829929143E+03 -0.27072204235E+03  0.10868272332E+04  0.10149420222E+04 0.  0.
        -13    1    3    3    0    0 -0.27663381837E+02  0.28206457383E+03  0.46162771859E+03  0.54168796206E+03  0.10566000000E+00 0.  1.
          4    1    3    3  501    0  0.28025193985E+03 -0.16376528240E+03 -0.39578641112E+03  0.51186629185E+03  0.00000000000E+00 0.  1.
         13    1    4    4    0    0 -0.57935008324E+03 -0.13156725938E+03  0.88931288552E+02  0.60072060722E+03  0.10566000000E+00 0. -1.
         -4    1    4    4    0  503  0.32676152523E+03  0.13267967950E+02 -0.35965333090E+03  0.48610662593E+03  0.00000000000E+00 0. -1.
<mgrwt>
<rscale>  2 0.10523009E+04</rscale>
<asrwt>0</asrwt>
<pdfrwt beam="1">  1       21 0.14888467E+00 0.10525697E+04</pdfrwt>
<pdfrwt beam="2">  1       21 0.18040479E+00 0.10525697E+04</pdfrwt>
<totfact> 0.26437731E+01</totfact>
</mgrwt>
</event>
<event>
 8    1  0.7631533E-006  0.1136210E+04  0.7818608E-02  0.8658677E-01
         21   -1    0    0  501  502  0.00000000000E+00  0.00000000000E+00  0.49796685304E+03  0.49796685304E+03  0.00000000000E+00 0. -1.
         21   -1    0    0  502  503 -0.00000000000E+00 -0.00000000000E+00 -0.28938587191E+04  0.28938587191E+04  0.00000000000E+00 0. -1.
    9000010    2    1    2  501    0  0.14719766401E+03  0.48515731720E+03 -0.17755809553E+04  0.21079992291E+04  0.10168226228E+04 0.  0.
   -9000010    2    1    2    0  503 -0.14719766401E+03 -0.48515731720E+03 -0.62031091073E+03  0.12838263430E+04  0.10031847678E+04 0.  0.
        -13    1    3    3    0    0  0.15711941023E+03 -0.21265114870E+03 -0.11189796850E+04  0.11497924016E+04  0.10566000000E+00 0.  1.
          4    1    3    3  501    0 -0.99217462155E+01  0.69780846590E+03 -0.65660127028E+03  0.95820682750E+03  0.00000000000E+00 0.  1.
         13    1    4    4    0    0 -0.89280296058E+02 -0.73289983108E+03 -0.69980822100E+03  0.10172731644E+04  0.10566000000E+00 0. -1.
         -4    1    4    4    0  503 -0.57917367955E+02  0.24774251388E+03  0.79497310270E+02  0.26655317862E+03  0.00000000000E+00 0. -1.
<mgrwt>
<rscale>  2 0.11331505E+04</rscale>
<asrwt>0</asrwt>
<pdfrwt beam="1">  1       21 0.76610285E-01 0.11362099E+04</pdfrwt>
<pdfrwt beam="2">  1       21 0.44520903E+00 0.11362099E+04</pdfrwt>
<totfact> 0.19572448E+00</totfact>
</mgrwt>
</event>
<event>
 8    1  0.7631533E-006  0.9986688E+03  0.7818608E-02  0.8776924E-01
         21   -1    0    0  501  502  0.00000000000E+00  0.00000000000E+00  0.14240330013E+04  0.14240330013E+04  0.00000000000E+00 0.  1.
         21   -1    0    0  502  503 -0.00000000000E+00 -0.00000000000E+00 -0.70040995263E+03  0.70040995263E+03  0.00000000000E+00 0.  1.
    9000010    2    1    2  501    0  0.27558482115E+02 -0.41254001238E+02  0.43342871009E+03  0.10844659336E+04  0.99284669105E+03 0.  0.
   -9000010    2    1    2    0  503 -0.27558482115E+02  0.41254001238E+02  0.29019433854E+03  0.10399770203E+04  0.99743575532E+03 0.  0.
        -13    1    3    3    0    0 -0.22315366329E+03  0.34121886347E+03 -0.59542588203E+02  0.41203543683E+03  0.10566000000E+00 0.  1.
          4    1    3    3  501    0  0.25071214540E+03 -0.38247286471E+03  0.49297129830E+03  0.67243049681E+03  0.00000000000E+00 0.  1.
         13    1    4    4    0    0  0.29466562607E+03 -0.37172680377E+03  0.12142189407E+03  0.48964470318E+03  0.10566000000E+00 0. -1.
         -4    1    4    4    0  503 -0.32222410819E+03  0.41298080501E+03  0.16877244448E+03  0.55033231708E+03  0.00000000000E+00 0. -1.
<mgrwt>
<rscale>  2 0.99752102E+03</rscale>
<asrwt>0</asrwt>
<pdfrwt beam="1">  1       21 0.21908200E+00 0.99866884E+03</pdfrwt>
<pdfrwt beam="2">  1       21 0.10775538E+00 0.99866884E+03</pdfrwt>
<totfact> 0.33665220E+01</totfact>
</mgrwt>
</event>
<event>
 8    1  0.7631533E-006  0.1192832E+04  0.7818608E-02  0.8648929E-01
         21   -1    0    0  503  502  0.00000000000E+00  0.00000000000E+00  0.12788141571E+04  0.12788141571E+04  0.00000000000E+00 0.  1.
         21   -1    0    0  501  503 -0.00000000000E+00 -0.00000000000E+00 -0.10869993373E+04  0.10869993373E+04  0.00000000000E+00 0.  1.
    9000010    2    1    2  501    0  0.12926647812E+03  0.79256928720E+02  0.51856667154E+03  0.13006761541E+04  0.11831549273E+04 0.  0.
   -9000010    2    1    2    0  502 -0.12926647812E+03 -0.79256928720E+02 -0.32675185174E+03  0.10651373404E+04  0.10023768244E+04 0.  0.
        -13    1    3    3    0    0  0.18509308801E+03 -0.31064684901E+03  0.75792640039E+03  0.83976982299E+03  0.10566000000E+00 0.  1.
          4    1    3    3  501    0 -0.55826609882E+02  0.38990377773E+03 -0.23935972885E+03  0.46090633111E+03  0.00000000000E+00 0.  1.
         13    1    4    4    0    0 -0.92981897120E+02  0.26374160752E+03 -0.57552437203E+03  0.63986997327E+03  0.10566000000E+00 0. -1.
         -4    1    4    4    0  502 -0.36284581004E+02 -0.34299853624E+03  0.24877252029E+03  0.42526736711E+03  0.00000000000E+00 0. -1.
<mgrwt>
<rscale>  2 0.11453028E+04</rscale>
<asrwt>0</asrwt>
<pdfrwt beam="1">  1       21 0.19674064E+00 0.11928315E+04</pdfrwt>
<pdfrwt beam="2">  1       21 0.16723067E+00 0.11928315E+04</pdfrwt>
<totfact> 0.13147600E+01</totfact>
</mgrwt>
</event>
<event>
 8    1  0.7631533E-006  0.1030291E+04  0.7818608E-02  0.8746649E-01
         21   -1    0    0  501  502  0.00000000000E+00  0.00000000000E+00  0.11656654074E+04  0.11656654074E+04  0.00000000000E+00 0. -1.
         21   -1    0    0  502  503 -0.00000000000E+00 -0.00000000000E+00 -0.10541559918E+04  0.10541559918E+04  0.00000000000E+00 0. -1.
    9000010    2    1    2  501    0  0.25270495257E+03 -0.42189670463E+02  0.46534099211E+03  0.11305054108E+04  0.99792809542E+03 0.  0.
   -9000010    2    1    2    0  503 -0.25270495257E+03  0.42189670463E+02 -0.35383157651E+03  0.10893159883E+04  0.99788414986E+03 0.  0.
        -13    1    3    3    0    0  0.46911137662E+03 -0.35349499406E+03  0.85055206561E+02  0.59351376886E+03  0.10566000000E+00 0.  1.
          4    1    3    3  501    0 -0.21640642404E+03  0.31130532359E+03  0.38028578555E+03  0.53699164198E+03  0.00000000000E+00 0.  1.
         13    1    4    4    0    0 -0.51777564261E+03  0.14712122848E+03 -0.52901034621E+03  0.75471069259E+03  0.10566000000E+00 0. -1.
         -4    1    4    4    0  503  0.26507069003E+03 -0.10493155801E+03  0.17517876970E+03  0.33460529574E+03  0.00000000000E+00 0. -1.
<mgrwt>
<rscale>  2 0.10302807E+04</rscale>
<asrwt>0</asrwt>
<pdfrwt beam="1">  1       21 0.17933314E+00 0.10302913E+04</pdfrwt>
<pdfrwt beam="2">  1       21 0.16217784E+00 0.10302913E+04</pdfrwt>
<totfact> 0.20736964E+01</totfact>
</mgrwt>
</event>
<event>
 8    1  0.7631533E-006  0.1093716E+04  0.7818608E-02  0.8691397E-01
         21   -1    0    0  503  502  0.00000000000E+00  0.00000000000E+00  0.44363819292E+03  0.44363819292E+03  0.00000000000E+00 0.  1.
         21   -1    0    0  501  503 -0.00000000000E+00 -0.00000000000E+00 -0.28335558952E+04  0.28335558952E+04  0.00000000000E+00 0.  1.
    9000010    2    1    2  501    0 -0.44471527053E+03  0.21520562903E+02 -0.83100995823E+03  0.13728810977E+04  0.99799306169E+03 0.  0.
   -9000010    2    1    2    0  502  0.44471527053E+03 -0.21520562903E+02 -0.15589077441E+04  0.19043129905E+04  0.99898939168E+03 0.  0.
        -13    1    3    3    0    0  0.11987024052E+03  0.23993175370E+03 -0.70534261239E+03  0.75461535435E+03  0.10566000000E+00 0.  1.
          4    1    3    3  501    0 -0.56458551105E+03 -0.21841119080E+03 -0.12566734585E+03  0.61826574332E+03  0.00000000000E+00 0.  1.
         13    1    4    4    0    0  0.26829475972E+03  0.42883912674E+03 -0.38825422139E+03  0.63767266392E+03  0.10566000000E+00 0. -1.
         -4    1    4    4    0  502  0.17642051081E+03 -0.45035968964E+03 -0.11706535227E+04  0.12666403266E+04  0.00000000000E+00 0. -1.
<mgrwt>
<rscale>  2 0.10934884E+04</rscale>
<asrwt>0</asrwt>
<pdfrwt beam="1">  1       21 0.68252031E-01 0.10937160E+04</pdfrwt>
<pdfrwt beam="2">  1       21 0.43593167E+00 0.10937160E+04</pdfrwt>
<totfact> 0.30176220E+00</totfact>
</mgrwt>
</event>
<event>
 8    1  0.7631533E-006  0.1038900E+04  0.7818608E-02  0.8772398E-01
         21   -1    0    0  503  502  0.00000000000E+00  0.00000000000E+00  0.12174747446E+04  0.12174747446E+04  0.00000000000E+00 0.  1.
         21   -1    0    0  501  503 -0.00000000000E+00 -0.00000000000E+00 -0.14213035894E+04  0.14213035894E+04  0.00000000000E+00 0.  1.
    9000010    2    1    2  501    0  0.27882854989E+03  0.27912955297E+02 -0.98841159174E+03  0.13369013006E+04  0.85546660918E+03 0.  0.
   -9000010    2    1    2    0  502 -0.27882854989E+03 -0.27912955297E+02  0.78458274692E+03  0.13018770335E+04  0.10003945373E+04 0.  0.
        -13    1    3    3    0    0  0.52221927674E+03  0.15538783973E+03 -0.89292832829E+03  0.10460302885E+04  0.10566000000E+00 0.  1.
          4    1    3    3  501    0 -0.24339072685E+03 -0.12747488443E+03 -0.95483263450E+02  0.29087101209E+03  0.00000000000E+00 0.  1.
         13    1    4    4    0    0 -0.94601561867E+02 -0.58476220402E+02 -0.23783024862E+03  0.26254935190E+03  0.10566000000E+00 0. -1.
         -4    1    4    4    0  502 -0.18422698802E+03  0.30563265105E+02  0.10224129955E+04  0.10393276816E+04  0.00000000000E+00 0. -1.
<mgrwt>
<rscale>  2 0.10023383E+04</rscale>
<asrwt>0</asrwt>
<pdfrwt beam="1">  1       21 0.18730381E+00 0.10389002E+04</pdfrwt>
<pdfrwt beam="2">  1       21 0.21866209E+00 0.10389002E+04</pdfrwt>
<totfact> 0.63052217E+00</totfact>
</mgrwt>
</event>
<event>
 8    1  0.7631533E-006  0.9531619E+03  0.7818608E-02  0.8833361E-01
         21   -1    0    0  501  502  0.00000000000E+00  0.00000000000E+00  0.77152482013E+03  0.77152482013E+03  0.00000000000E+00 0.  1.
         21   -1    0    0  502  503 -0.00000000000E+00 -0.00000000000E+00 -0.13332847501E+04  0.13332847501E+04  0.00000000000E+00 0.  1.
    9000010    2    1    2  501    0 -0.14361082926E+03  0.19408250708E+03  0.15286517258E+03  0.91350496946E+03  0.86765861858E+03 0.  0.
   -9000010    2    1    2    0  503  0.14361082926E+03 -0.19408250708E+03 -0.71462510254E+03  0.11913046008E+04  0.92207674560E+03 0.  0.
        -13    1    3    3    0    0 -0.33541369054E+03  0.27367828666E+03  0.40089761667E+03  0.59001784600E+03  0.10566000000E+00 0.  1.
          4    1    3    3  501    0  0.19180286127E+03 -0.79595779579E+02 -0.24803244409E+03  0.32348712345E+03  0.00000000000E+00 0.  1.
         13    1    4    4    0    0  0.11087643955E+03  0.37084728765E+03 -0.27781489033E+03  0.47644770968E+03  0.10566000000E+00 0. -1.
         -4    1    4    4    0  503  0.32734389716E+02 -0.56492979473E+03 -0.43681021220E+03  0.71485689108E+03  0.00000000000E+00 0. -1.
<mgrwt>
<rscale>  2 0.93974686E+03</rscale>
<asrwt>0</asrwt>
<pdfrwt beam="1">  1       21 0.11869613E+00 0.95316190E+03</pdfrwt>
<pdfrwt beam="2">  1       21 0.20512073E+00 0.95316190E+03</pdfrwt>
<totfact> 0.33379892E+01</totfact>
</mgrwt>
</event>
<event>
 8    1  0.7631533E-006  0.1064858E+04  0.7818608E-02  0.8729398E-01
         21   -1    0    0  503  502  0.00000000000E+00  0.00000000000E+00  0.21626323641E+04  0.21626323641E+04  0.00000000000E+00 0.  1.
         21   -1    0    0  501  503 -0.00000000000E+00 -0.00000000000E+00 -0.53248716074E+03  0.53248716074E+03  0.00000000000E+00 0.  1.
    9000010    2    1    2  501    0 -0.42301745230E+02  0.14262367826E+02  0.43660387966E+03  0.10955998016E+04  0.10038541352E+04 0.  0.
   -9000010    2    1    2    0  502  0.42301745230E+02 -0.14262367826E+02  0.11935413237E+04  0.15995197232E+04  0.10639218021E+04 0.  0.
        -13    1    3    3    0    0 -0.25882513194E+03 -0.40653546772E+03  0.49999456012E+02  0.48452192128E+03  0.10566000000E+00 0.  1.
          4    1    3    3  501    0  0.21652338671E+03  0.42079783554E+03  0.38660442365E+03  0.61107788029E+03  0.00000000000E+00 0.  1.
         13    1    4    4    0    0  0.51865001830E+02 -0.47544983506E+03  0.98151166221E+03  0.10918368368E+04  0.10566000000E+00 0. -1.
         -4    1    4    4    0  502 -0.95632565993E+01  0.46118746723E+03  0.21202966147E+03  0.50768288641E+03  0.00000000000E+00 0. -1.
<mgrwt>
<rscale>  2 0.10495271E+04</rscale>
<asrwt>0</asrwt>
<pdfrwt beam="1">  1       21 0.33271267E+00 0.10648580E+04</pdfrwt>
<pdfrwt beam="2">  1       21 0.81921103E-01 0.10648580E+04</pdfrwt>
<totfact> 0.10260657E+01</totfact>
</mgrwt>
</event>
<event>
 8    1  0.7631533E-006  0.1071841E+04  0.7818608E-02  0.8711847E-01
         21   -1    0    0  501  502  0.00000000000E+00  0.00000000000E+00  0.68034370473E+03  0.68034370473E+03  0.00000000000E+00 0. -1.
         21   -1    0    0  502  503 -0.00000000000E+00 -0.00000000000E+00 -0.25886532761E+04  0.25886532761E+04  0.00000000000E+00 0. -1.
    9000010    2    1    2  501    0  0.87399179415E+02 -0.36834733546E+03  0.19883377925E+02  0.10629209165E+04  0.99301920922E+03 0.  0.
   -9000010    2    1    2    0  503 -0.87399179415E+02  0.36834733546E+03 -0.19281929493E+04  0.22060760643E+04  0.10027587825E+04 0.  0.
        -13    1    3    3    0    0  0.50817414501E+03 -0.35385064624E+03  0.11857248791E+03  0.63048448636E+03  0.10566000000E+00 0.  1.
          4    1    3    3  501    0 -0.42077496559E+03 -0.14496689220E+02 -0.98689109981E+02  0.43243643012E+03  0.00000000000E+00 0.  1.
         13    1    4    4    0    0  0.34446126835E+03 -0.15958967033E+03 -0.83981818169E+03  0.92163822497E+03  0.10566000000E+00 0. -1.
         -4    1    4    4    0  503 -0.43186044777E+03  0.52793700579E+03 -0.10883747676E+04  0.12844378394E+04  0.00000000000E+00 0. -1.
<mgrwt>
<rscale>  2 0.10695573E+04</rscale>
<asrwt>0</asrwt>
<pdfrwt beam="1">  1       21 0.10466826E+00 0.10718412E+04</pdfrwt>
<pdfrwt beam="2">  1       21 0.39825435E+00 0.10718412E+04</pdfrwt>
<totfact> 0.18957757E+00</totfact>
</mgrwt>
</event>
<event>
 8    1  0.7631533E-006  0.1303986E+04  0.7818608E-02  0.8535153E-01
         21   -1    0    0  503  502  0.00000000000E+00  0.00000000000E+00  0.18594393499E+04  0.18594393499E+04  0.00000000000E+00 0.  1.
         21   -1    0    0  501  503 -0.00000000000E+00 -0.00000000000E+00 -0.15408089058E+04  0.15408089058E+04  0.00000000000E+00 0. -1.
    9000010    2    1    2  501    0 -0.66254484679E+02  0.83453850407E+03 -0.93591724649E+03  0.15907537531E+04  0.97658191635E+03 0.  0.
   -9000010    2    1    2    0  502  0.66254484679E+02 -0.83453850407E+03  0.12545476906E+04  0.18094945026E+04  0.99976811082E+03 0.  0.
        -13    1    3    3    0    0  0.39335303324E+03  0.70738188098E+03 -0.59420873683E+03  0.10040915139E+04  0.10566000000E+00 0.  1.
          4    1    3    3  501    0 -0.45960751792E+03  0.12715662310E+03 -0.34170850965E+03  0.58666223919E+03  0.00000000000E+00 0.  1.
         13    1    4    4    0    0  0.14775697152E+03 -0.48875799537E+03  0.52116831277E+01  0.51063066249E+03  0.10566000000E+00 0. -1.
         -4    1    4    4    0  502 -0.81502486837E+02 -0.34578050870E+03  0.12493360075E+04  0.12988638401E+04  0.00000000000E+00 0. -1.
<mgrwt>
<rscale>  2 0.12995410E+04</rscale>
<asrwt>0</asrwt>
<pdfrwt beam="1">  1       21 0.28606759E+00 0.13039864E+04</pdfrwt>
<pdfrwt beam="2">  1       21 0.23704752E+00 0.13039864E+04</pdfrwt>
<totfact> 0.79465757E-01</totfact>
</mgrwt>
</event>
<event>
 8    1  0.7631533E-006  0.9940577E+03  0.7818608E-02  0.8785299E-01
         21   -1    0    0  503  502  0.00000000000E+00  0.00000000000E+00  0.16261493185E+04  0.16261493185E+04  0.00000000000E+00 0. -1.
         21   -1    0    0  501  503 -0.00000000000E+00 -0.00000000000E+00 -0.10983584216E+04  0.10983584216E+04  0.00000000000E+00 0. -1.
    9000010    2    1    2  501    0 -0.12704229158E+03  0.14702860496E+03 -0.66010372664E+03  0.11755582751E+04  0.95312285344E+03 0.  0.
   -9000010    2    1    2    0  502  0.12704229158E+03 -0.14702860496E+03  0.11878946235E+04  0.15489494649E+04  0.97488135372E+03 0.  0.
        -13    1    3    3    0    0 -0.20501997079E+03 -0.38408807143E+03 -0.31506967961E+03  0.53742511033E+03  0.10566000000E+00 0.  1.
          4    1    3    3  501    0  0.77977679217E+02  0.53111667639E+03 -0.34503404703E+03  0.63813316480E+03  0.00000000000E+00 0.  1.
         13    1    4    4    0    0  0.11498382256E+03  0.28782664370E+03  0.29239779920E+02  0.31132046538E+03  0.10566000000E+00 0. -1.
         -4    1    4    4    0  502  0.12058469018E+02 -0.43485524866E+03  0.11586548436E+04  0.12376289996E+04  0.00000000000E+00 0. -1.
<mgrwt>
<rscale>  2 0.98868193E+03</rscale>
<asrwt>0</asrwt>
<pdfrwt beam="1">  1       21 0.25017682E+00 0.99405775E+03</pdfrwt>
<pdfrwt beam="2">  1       21 0.16897822E+00 0.99405775E+03</pdfrwt>
<totfact> 0.52714244E+00</totfact>
</mgrwt>
</event>
<event>
 8    1  0.7631533E-006  0.1022392E+04  0.7818608E-02  0.8754519E-01
         21   -1    0    0  501  502  0.00000000000E+00  0.00000000000E+00  0.11078207324E+04  0.11078207324E+04  0.00000000000E+00 0.  1.
         21   -1    0    0  502  503 -0.00000000000E+00 -0.00000000000E+00 -0.94760018090E+03  0.94760018090E+03  0.00000000000E+00 0.  1.
    9000010    2    1    2  501    0 -0.10076268834E+03  0.19428807569E+03 -0.69112934479E+01  0.10224154800E+04  0.99869147990E+03 0.  0.
   -9000010    2    1    2    0  503  0.10076268834E+03 -0.19428807569E+03  0.16713184496E+03  0.10330054333E+04  0.99562352119E+03 0.  0.
        -13    1    3    3    0    0  0.30239996937E+02  0.59389463991E+03  0.55621688786E+02  0.59725964551E+03  0.10566000000E+00 0.  1.
          4    1    3    3  501    0 -0.13100268528E+03 -0.39960656422E+03 -0.62532982233E+02  0.42515583447E+03  0.00000000000E+00 0.  1.
         13    1    4    4    0    0 -0.38572419074E+03 -0.21506207389E+03  0.29310636646E+03  0.53004358328E+03  0.10566000000E+00 0. -1.
         -4    1    4    4    0  503  0.48648687908E+03  0.20773998205E+02 -0.12597452150E+03  0.50296185003E+03  0.00000000000E+00 0. -1.
<mgrwt>
<rscale>  2 0.10216421E+04</rscale>
<asrwt>0</asrwt>
<pdfrwt beam="1">  1       21 0.17043396E+00 0.10223921E+04</pdfrwt>
<pdfrwt beam="2">  1       21 0.14578464E+00 0.10223921E+04</pdfrwt>
<totfact> 0.34311911E+01</totfact>
</mgrwt>
</event>
<event>
 8    1  0.7631533E-006  0.1014606E+04  0.7818608E-02  0.8770605E-01
         21   -1    0    0  503  502  0.00000000000E+00  0.00000000000E+00  0.11082152115E+04  0.11082152115E+04  0.00000000000E+00 0.  1.
         21   -1    0    0  501  503 -0.00000000000E+00 -0.00000000000E+00 -0.10861316322E+04  0.10861316322E+04  0.00000000000E+00 0.  1.
    9000010    2    1    2  501    0 -0.10318776507E+03 -0.57545236712E+02 -0.45261517717E+03  0.11109841217E+04  0.10077033546E+04 0.  0.
   -9000010    2    1    2    0  502  0.10318776507E+03  0.57545236712E+02  0.47469875650E+03  0.10833627220E+04  0.96663163041E+03 0.  0.
        -13    1    3    3    0    0  0.11215282617E+03 -0.22658172345E+03 -0.69860270759E+03  0.74294231811E+03  0.10566000000E+00 0.  1.
          4    1    3    3  501    0 -0.21534059124E+03  0.16903648674E+03  0.24598753041E+03  0.36804180361E+03  0.00000000000E+00 0.  1.
         13    1    4    4    0    0 -0.24533508597E+03 -0.12880096549E+03  0.60646129211E+03  0.66676405356E+03  0.10566000000E+00 0. -1.
         -4    1    4    4    0  502  0.34852285104E+03  0.18634620220E+03 -0.13176253561E+03  0.41659866846E+03  0.00000000000E+00 0. -1.
<mgrwt>
<rscale>  2 0.10042534E+04</rscale>
<asrwt>0</asrwt>
<pdfrwt beam="1">  1       21 0.17049465E+00 0.10146059E+04</pdfrwt>
<pdfrwt beam="2">  1       21 0.16709717E+00 0.10146059E+04</pdfrwt>
<totfact> 0.22366231E+01</totfact>
</mgrwt>
</event>
<event>
 8    1  0.7631533E-006  0.1009572E+04  0.7818608E-02  0.8771303E-01
         21   -1    0    0  503  502  0.00000000000E+00  0.00000000000E+00  0.70414737515E+03  0.70414737515E+03  0.00000000000E+00 0.  1.
         21   -1    0    0  501  503 -0.00000000000E+00 -0.00000000000E+00 -0.14184766553E+04  0.14184766553E+04  0.00000000000E+00 0.  1.
    9000010    2    1    2  501    0 -0.43773670507E+02 -0.14616596904E+01 -0.28820264926E+03  0.10268045301E+04  0.98455497830E+03 0.  0.
   -9000010    2    1    2    0  502  0.43773670507E+02  0.14616596904E+01 -0.42612663090E+03  0.10958195004E+04  0.10086219317E+04 0.  0.
        -13    1    3    3    0    0 -0.27841531402E+03  0.13498808453E+03  0.26707446196E+03  0.40873665048E+03  0.10566000000E+00 0.  1.
          4    1    3    3  501    0  0.23464164352E+03 -0.13644974422E+03 -0.55527711122E+03  0.61806787962E+03  0.00000000000E+00 0.  1.
         13    1    4    4    0    0  0.13825941535E+03 -0.40485302502E+03  0.84893871989E+02  0.43615205888E+03  0.10566000000E+00 0. -1.
         -4    1    4    4    0  502 -0.94485744840E+02  0.40631468471E+03 -0.51102050288E+03  0.65966744149E+03  0.00000000000E+00 0. -1.
<mgrwt>
<rscale>  2 0.10035070E+04</rscale>
<asrwt>0</asrwt>
<pdfrwt beam="1">  1       21 0.10833037E+00 0.10095724E+04</pdfrwt>
<pdfrwt beam="2">  1       21 0.21822718E+00 0.10095724E+04</pdfrwt>
<totfact> 0.33600683E+01</totfact>
</mgrwt>
</event>
<event>
 8    1  0.7631533E-006  0.1030295E+04  0.7818608E-02  0.8750994E-01
         21   -1    0    0  501  502  0.00000000000E+00  0.00000000000E+00  0.82580028920E+03  0.82580028920E+03  0.00000000000E+00 0.  1.
         21   -1    0    0  502  503 -0.00000000000E+00 -0.00000000000E+00 -0.14534687570E+04  0.14534687570E+04  0.00000000000E+00 0.  1.
    9000010    2    1    2  501    0  0.11480277907E+03  0.20536930889E+03  0.97479699158E+02  0.10348966258E+04  0.10030715344E+04 0.  0.
   -9000010    2    1    2    0  503 -0.11480277907E+03 -0.20536930889E+03 -0.72514816692E+03  0.12443724204E+04  0.98349714061E+03 0.  0.
        -13    1    3    3    0    0 -0.40649744814E+03 -0.14943519088E+02  0.21014559573E+03  0.45784786412E+03  0.10566000000E+00 0.  1.
          4    1    3    3  501    0  0.52130022720E+03  0.22031282798E+03 -0.11266589657E+03  0.57704876164E+03  0.00000000000E+00 0.  1.
         13    1    4    4    0    0 -0.51846700410E+03  0.43736302295E+02 -0.26663028000E+03  0.58464742868E+03  0.10566000000E+00 0. -1.
         -4    1    4    4    0  503  0.40366422503E+03 -0.24910561119E+03 -0.45851788692E+03  0.65972499174E+03  0.00000000000E+00 0. -1.
<mgrwt>
<rscale>  2 0.10255003E+04</rscale>
<asrwt>0</asrwt>
<pdfrwt beam="1">  1       21 0.12704620E+00 0.10302955E+04</pdfrwt>
<pdfrwt beam="2">  1       21 0.22361058E+00 0.10302955E+04</pdfrwt>
<totfact> 0.19577462E+01</totfact>
</mgrwt>
</event>
<event>
 8    1  0.7631533E-006  0.1035140E+04  0.7818608E-02  0.8744381E-01
         21   -1    0    0  501  502  0.00000000000E+00  0.00000000000E+00  0.11378641679E+04  0.11378641679E+04  0.00000000000E+00 0. -1.
         21   -1    0    0  502  503 -0.00000000000E+00 -0.00000000000E+00 -0.11155722400E+04  0.11155722400E+04  0.00000000000E+00 0. -1.
    9000010    2    1    2  501    0  0.25477288533E+03  0.32546334780E+02  0.46668822709E+03  0.11269360251E+04  0.99308530171E+03 0.  0.
   -9000010    2    1    2    0  503 -0.25477288533E+03 -0.32546334780E+02 -0.44439629924E+03  0.11265003828E+04  0.10027694424E+04 0.  0.
        -13    1    3    3    0    0  0.56783447995E+03  0.23201820781E+03  0.43974922964E+03  0.75475018483E+03  0.10566000000E+00 0.  1.
          4    1    3    3  501    0 -0.31306159461E+03 -0.19947187303E+03  0.26938997450E+02  0.37218584032E+03  0.00000000000E+00 0.  1.
         13    1    4    4    0    0 -0.22641251847E+03 -0.90863693327E+02 -0.76316040986E+03  0.80120700298E+03  0.10566000000E+00 0. -1.
         -4    1    4    4    0  503 -0.28360366869E+02  0.58317358547E+02  0.31876411062E+03  0.32529337979E+03  0.00000000000E+00 0. -1.
<mgrwt>
<rscale>  2 0.10327875E+04</rscale>
<asrwt>0</asrwt>
<pdfrwt beam="1">  1       21 0.17505603E+00 0.10351401E+04</pdfrwt>
<pdfrwt beam="2">  1       21 0.17162650E+00 0.10351401E+04</pdfrwt>
<totfact> 0.18687092E+01</totfact>
</mgrwt>
</event>
<event>
 8    1  0.7631533E-006  0.1019046E+04  0.7818608E-02  0.8757606E-01
         21   -1    0    0  503  502  0.00000000000E+00  0.00000000000E+00  0.13961619765E+04  0.13961619765E+04  0.00000000000E+00 0.  1.
         21   -1    0    0  501  503 -0.00000000000E+00 -0.00000000000E+00 -0.74762892201E+03  0.74762892201E+03  0.00000000000E+00 0.  1.
    9000010    2    1    2  501    0 -0.36113088109E+02 -0.21248981676E+03  0.22810717332E+03  0.10442637178E+04  0.99599083949E+03 0.  0.
   -9000010    2    1    2    0  502  0.36113088109E+02  0.21248981676E+03  0.42042588115E+03  0.10995271807E+04  0.99284743151E+03 0.  0.
        -13    1    3    3    0    0  0.25021940649E+03  0.29980389473E+03  0.23796971994E+03  0.45729828937E+03  0.10566000000E+00 0.  1.
          4    1    3    3  501    0 -0.28633249460E+03 -0.51229371149E+03 -0.98625466297E+01  0.58696542839E+03  0.00000000000E+00 0.  1.
         13    1    4    4    0    0  0.12434957881E+03 -0.22402716860E+03 -0.20749917672E+03  0.32970730887E+03  0.10566000000E+00 0. -1.
         -4    1    4    4    0  502 -0.88236490705E+02  0.43651698535E+03  0.62792505787E+03  0.76981987185E+03  0.00000000000E+00 0. -1.
<mgrwt>
<rscale>  2 0.10182767E+04</rscale>
<asrwt>0</asrwt>
<pdfrwt beam="1">  1       21 0.21479415E+00 0.10190455E+04</pdfrwt>
<pdfrwt beam="2">  1       21 0.11501983E+00 0.10190455E+04</pdfrwt>
<totfact> 0.30235309E+01</totfact>
</mgrwt>
</event>
<event>
 8    1  0.7631533E-006  0.1012798E+04  0.7818608E-02  0.8762894E-01
         21   -1    0    0  503  502  0.00000000000E+00  0.00000000000E+00  0.12136782979E+04  0.12136782979E+04  0.00000000000E+00 0.  1.
         21   -1    0    0  501  503 -0.00000000000E+00 -0.00000000000E+00 -0.87684834639E+03  0.87684834639E+03  0.00000000000E+00 0.  1.
    9000010    2    1    2  501    0  0.45358862257E+02  0.63727387831E+02 -0.32835814354E+02  0.10133303537E+04  0.10097730481E+04 0.  0.
   -9000010    2    1    2    0  502 -0.45358862257E+02 -0.63727387831E+02  0.36966576590E+03  0.10771962907E+04  0.10087519337E+04 0.  0.
        -13    1    3    3    0    0 -0.44541437786E+03  0.18732528575E+03  0.92423502102E+02  0.49196224000E+03  0.10566000000E+00 0.  1.
          4    1    3    3  501    0  0.49077324012E+03 -0.12359789792E+03 -0.12525931646E+03  0.52136811366E+03  0.00000000000E+00 0.  1.
         13    1    4    4    0    0  0.30687831813E+03  0.35113815901E+03  0.19690369032E+03  0.50620488270E+03  0.10566000000E+00 0. -1.
         -4    1    4    4    0  502 -0.35223718038E+03 -0.41486554684E+03  0.17276207558E+03  0.57099140795E+03  0.00000000000E+00 0. -1.
<mgrwt>
<rscale>  2 0.10125436E+04</rscale>
<asrwt>0</asrwt>
<pdfrwt beam="1">  1       21 0.18671974E+00 0.10127982E+04</pdfrwt>
<pdfrwt beam="2">  1       21 0.13489975E+00 0.10127982E+04</pdfrwt>
<totfact> 0.31879304E+01</totfact>
</mgrwt>
</event>
<event>
 8    1  0.7631533E-006  0.1073000E+04  0.7818608E-02  0.8714601E-01
         21   -1    0    0  501  502  0.00000000000E+00  0.00000000000E+00  0.15004134825E+04  0.15004134825E+04  0.00000000000E+00 0. -1.
         21   -1    0    0  502  503 -0.00000000000E+00 -0.00000000000E+00 -0.10770327022E+04  0.10770327022E+04  0.00000000000E+00 0. -1.
    9000010    2    1    2  501    0 -0.16045929298E+03 -0.10370118152E+03  0.92501299533E+03  0.14166787491E+04  0.10558544014E+04 0.  0.
   -9000010    2    1    2    0  503  0.16045929298E+03  0.10370118152E+03 -0.50163221501E+03  0.11607674357E+04  0.10291963082E+04 0.  0.
        -13    1    3    3    0    0  0.30933280802E+03 -0.13546940101E+03 -0.42802293152E+02  0.34039799087E+03  0.10566000000E+00 0.  1.
          4    1    3    3  501    0 -0.46979210100E+03  0.31768219496E+02  0.96781528848E+03  0.10762807582E+04  0.00000000000E+00 0.  1.
         13    1    4    4    0    0 -0.96233241458E+02  0.61406031006E+02 -0.77501911637E+03  0.78338124774E+03  0.10566000000E+00 0. -1.
         -4    1    4    4    0  503  0.25669253444E+03  0.42295150513E+02  0.27338690136E+03  0.37738618792E+03  0.00000000000E+00 0. -1.
<mgrwt>
<rscale>  2 0.10663840E+04</rscale>
<asrwt>0</asrwt>
<pdfrwt beam="1">  1       21 0.23083284E+00 0.10730003E+04</pdfrwt>
<pdfrwt beam="2">  1       21 0.16569734E+00 0.10730003E+04</pdfrwt>
<totfact> 0.76399559E+00</totfact>
</mgrwt>
</event>
<event>
 8    1  0.7631533E-006  0.1151808E+04  0.7818608E-02  0.8646421E-01
         21   -1    0    0  503  502  0.00000000000E+00  0.00000000000E+00  0.14012723661E+04  0.14012723661E+04  0.00000000000E+00 0.  1.
         21   -1    0    0  501  503 -0.00000000000E+00 -0.00000000000E+00 -0.12241001960E+04  0.12241001960E+04  0.00000000000E+00 0.  1.
    9000010    2    1    2  501    0 -0.21107863203E+03 -0.51886087823E+03 -0.54804600419E+03  0.12755452789E+04  0.10064246300E+04 0.  0.
   -9000010    2    1    2    0  502  0.21107863203E+03  0.51886087823E+03  0.72521817435E+03  0.13498272832E+04  0.99112133168E+03 0.  0.
        -13    1    3    3    0    0 -0.44845452634E+03 -0.30049945399E+03 -0.72791942738E+03  0.90624394507E+03  0.10566000000E+00 0.  1.
          4    1    3    3  501    0  0.23737589431E+03 -0.21836142424E+03  0.17987342319E+03  0.36930133383E+03  0.00000000000E+00 0.  1.
         13    1    4    4    0    0  0.20827553834E+03  0.21666564803E+03 -0.21023361642E+03  0.36677089244E+03  0.10566000000E+00 0. -1.
         -4    1    4    4    0  502  0.28030936911E+01  0.30219523020E+03  0.93545179077E+03  0.98305639072E+03  0.00000000000E+00 0. -1.
<mgrwt>
<rscale>  2 0.11484564E+04</rscale>
<asrwt>0</asrwt>
<pdfrwt beam="1">  1       21 0.21558037E+00 0.11518079E+04</pdfrwt>
<pdfrwt beam="2">  1       21 0.18832311E+00 0.11518079E+04</pdfrwt>
<totfact> 0.63581754E+00</totfact>
</mgrwt>
</event>
<event>
 8    1  0.7631533E-006  0.1009905E+04  0.7818608E-02  0.8767188E-01
         21   -1    0    0  501  502  0.00000000000E+00  0.00000000000E+00  0.20429182606E+04  0.20429182606E+04  0.00000000000E+00 0. -1.
         21   -1    0    0  502  503 -0.00000000000E+00 -0.00000000000E+00 -0.50189076813E+03  0.50189076813E+03  0.00000000000E+00 0. -1.
    9000010    2    1    2  501    0 -0.62059981634E+02 -0.13177561220E+03  0.62205032209E+03  0.11793691162E+04  0.99133680233E+03 0.  0.
   -9000010    2    1    2    0  503  0.62059981634E+02  0.13177561220E+03  0.91897717036E+03  0.13654399125E+04  0.99934521655E+03 0.  0.
        -13    1    3    3    0    0 -0.89949818213E+01 -0.47049341209E+03  0.68472435120E+03  0.83083837707E+03  0.10566000000E+00 0.  1.
          4    1    3    3  501    0 -0.53064999813E+02  0.33871779989E+03 -0.62674029107E+02  0.34853073910E+03  0.00000000000E+00 0.  1.
         13    1    4    4    0    0 -0.62246339286E+02  0.42058477033E+03  0.95847707605E+03  0.10485439773E+04  0.10566000000E+00 0. -1.
         -4    1    4    4    0  503  0.12430632092E+03 -0.28880915814E+03 -0.39499905690E+02  0.31689593528E+03  0.00000000000E+00 0. -1.
<mgrwt>
<rscale>  2 0.10079176E+04</rscale>
<asrwt>0</asrwt>
<pdfrwt beam="1">  1       21 0.31429511E+00 0.10099045E+04</pdfrwt>
<pdfrwt beam="2">  1       21 0.77213965E-01 0.10099045E+04</pdfrwt>
<totfact> 0.16166058E+01</totfact>
</mgrwt>
</event>
<event>
 8    1  0.7631533E-006  0.1026082E+04  0.7818608E-02  0.8753585E-01
         21   -1    0    0  501  502  0.00000000000E+00  0.00000000000E+00  0.21865322469E+04  0.21865322469E+04  0.00000000000E+00 0. -1.
         21   -1    0    0  502  503 -0.00000000000E+00 -0.00000000000E+00 -0.49650210345E+03  0.49650210345E+03  0.00000000000E+00 0. -1.
    9000010    2    1    2  501    0  0.23225352659E+03  0.67646989972E+01  0.11286200938E+04  0.15253288977E+04  0.99942857085E+03 0.  0.
   -9000010    2    1    2    0  503 -0.23225352659E+03 -0.67646989972E+01  0.56141004968E+03  0.11577054527E+04  0.98545076463E+03 0.  0.
        -13    1    3    3    0    0 -0.87568351096E+02 -0.80808170231E+02 -0.15730420929E+03  0.19733930656E+03  0.10566000000E+00 0.  1.
          4    1    3    3  501    0  0.31982187769E+03  0.87572869228E+02  0.12859243031E+04  0.13279895911E+04  0.00000000000E+00 0.  1.
         13    1    4    4    0    0  0.27987033525E+03 -0.22015508212E+02 -0.11988229905E+03  0.30526032160E+03  0.10566000000E+00 0. -1.
         -4    1    4    4    0  503 -0.51212386184E+03  0.15250809215E+02  0.68129234873E+03  0.85244513107E+03  0.00000000000E+00 0. -1.
<mgrwt>
<rscale>  2 0.10226628E+04</rscale>
<asrwt>0</asrwt>
<pdfrwt beam="1">  1       21 0.33638957E+00 0.10260823E+04</pdfrwt>
<pdfrwt beam="2">  1       21 0.76384940E-01 0.10260823E+04</pdfrwt>
<totfact> 0.11563882E+01</totfact>
</mgrwt>
</event>
<event>
 8    1  0.7631533E-006  0.1231619E+04  0.7818608E-02  0.8584537E-01
         21   -1    0    0  503  502  0.00000000000E+00  0.00000000000E+00  0.10573014715E+04  0.10573014715E+04  0.00000000000E+00 0.  1.
         21   -1    0    0  501  503 -0.00000000000E+00 -0.00000000000E+00 -0.14411103732E+04  0.14411103732E+04  0.00000000000E+00 0. -1.
    9000010    2    1    2  501    0  0.14401617380E+03  0.69933905549E+03 -0.32164509417E+03  0.12729262216E+04  0.10035286873E+04 0.  0.
   -9000010    2    1    2    0  502 -0.14401617380E+03 -0.69933905549E+03 -0.62163807487E+02  0.12254856230E+04  0.99404974749E+03 0.  0.
        -13    1    3    3    0    0  0.40532910724E+03  0.32767648135E+03 -0.55567175098E+03  0.76186263041E+03  0.10566000000E+00 0.  1.
          4    1    3    3  501    0 -0.26131293344E+03  0.37166257414E+03  0.23402665681E+03  0.51106359124E+03  0.00000000000E+00 0.  1.
         13    1    4    4    0    0  0.41851388908E+03 -0.43051441968E+03 -0.26151435757E+02  0.60098290297E+03  0.10566000000E+00 0. -1.
         -4    1    4    4    0  502 -0.56253006288E+03 -0.26882463581E+03 -0.36012371730E+02  0.62450272008E+03  0.00000000000E+00 0. -1.
<mgrwt>
<rscale>  2 0.12296868E+04</rscale>
<asrwt>0</asrwt>
<pdfrwt beam="1">  1       21 0.16266176E+00 0.12316191E+04</pdfrwt>
<pdfrwt beam="2">  1       21 0.22170929E+00 0.12316191E+04</pdfrwt>
<totfact> 0.91680752E+00</totfact>
</mgrwt>
</event>
<event>
 8    1  0.7631533E-006  0.1180157E+04  0.7818608E-02  0.8625548E-01
         21   -1    0    0  501  502  0.00000000000E+00  0.00000000000E+00  0.21912440930E+04  0.21912440930E+04  0.00000000000E+00 0. -1.
         21   -1    0    0  502  503 -0.00000000000E+00 -0.00000000000E+00 -0.76526867195E+03  0.76526867195E+03  0.00000000000E+00 0. -1.
    9000010    2    1    2  501    0 -0.56331332841E+03  0.71509003297E+02  0.13512058012E+04  0.17940255144E+04  0.10345699519E+04 0.  0.
   -9000010    2    1    2    0  503  0.56331332841E+03 -0.71509003297E+02  0.74769619868E+02  0.11624872506E+04  0.10116079617E+04 0.  0.
        -13    1    3    3    0    0 -0.62053980341E+03  0.50785904865E+02  0.21873380209E+03  0.65991919436E+03  0.10566000000E+00 0.  1.
          4    1    3    3  501    0  0.57226474997E+02  0.20723098432E+02  0.11324719991E+04  0.11341063200E+04  0.00000000000E+00 0.  1.
         13    1    4    4    0    0  0.34001415149E+03 -0.52686564356E+03  0.16256262496E+03  0.64778364271E+03  0.10566000000E+00 0. -1.
         -4    1    4    4    0  503  0.22329917692E+03  0.45535664026E+03 -0.87793005089E+02  0.51470360790E+03  0.00000000000E+00 0. -1.
<mgrwt>
<rscale>  2 0.11751054E+04</rscale>
<asrwt>0</asrwt>
<pdfrwt beam="1">  1       21 0.33711447E+00 0.11801570E+04</pdfrwt>
<pdfrwt beam="2">  1       21 0.11773364E+00 0.11801570E+04</pdfrwt>
<totfact> 0.36045609E+00</totfact>
</mgrwt>
</event>
<event>
 8    1  0.7631533E-006  0.1104016E+04  0.7818608E-02  0.8699442E-01
         21   -1    0    0  501  502  0.00000000000E+00  0.00000000000E+00  0.12368485045E+04  0.12368485045E+04  0.00000000000E+00 0.  1.
         21   -1    0    0  502  503 -0.00000000000E+00 -0.00000000000E+00 -0.10387431364E+04  0.10387431364E+04  0.00000000000E+00 0.  1.
    9000010    2    1    2  501    0  0.73732838931E+02 -0.43126077245E+03  0.49135518156E+03  0.12084213339E+04  0.10136221290E+04 0.  0.
   -9000010    2    1    2    0  503 -0.73732838931E+02  0.43126077245E+03 -0.29324981352E+03  0.10671703070E+04  0.92813502556E+03 0.  0.
        -13    1    3    3    0    0  0.41527265927E+03 -0.55084303295E+03  0.49068310224E+03  0.84655144349E+03  0.10566000000E+00 0.  1.
          4    1    3    3  501    0 -0.34153982034E+03  0.11958226050E+03  0.67207931943E+00  0.36186989042E+03  0.00000000000E+00 0.  1.
         13    1    4    4    0    0  0.32604477684E+03  0.52245965866E+03 -0.18613308618E+03  0.64336212848E+03  0.10566000000E+00 0. -1.
         -4    1    4    4    0  503 -0.39977761577E+03 -0.91198886209E+02 -0.10711672734E+03  0.42380817854E+03  0.00000000000E+00 0. -1.
<mgrwt>
<rscale>  2 0.10839963E+04</rscale>
<asrwt>0</asrwt>
<pdfrwt beam="1">  1       21 0.19028439E+00 0.11040164E+04</pdfrwt>
<pdfrwt beam="2">  1       21 0.15980664E+00 0.11040164E+04</pdfrwt>
<totfact> 0.17442056E+01</totfact>
</mgrwt>
</event>
<event>
 8    1  0.7631533E-006  0.1100359E+04  0.7818608E-02  0.8691346E-01
         21   -1    0    0  501  502  0.00000000000E+00  0.00000000000E+00  0.81349718166E+03  0.81349718166E+03  0.00000000000E+00 0. -1.
         21   -1    0    0  502  503 -0.00000000000E+00 -0.00000000000E+00 -0.16289931137E+04  0.16289931137E+04  0.00000000000E+00 0. -1.
    9000010    2    1    2  501    0 -0.13866068398E+03  0.37771748443E+03 -0.80564899166E+03  0.13420875477E+04  0.99510371556E+03 0.  0.
   -9000010    2    1    2    0  503  0.13866068398E+03 -0.37771748443E+03 -0.98469403888E+01  0.11004027476E+04  0.10241542664E+04 0.  0.
        -13    1    3    3    0    0  0.35677306418E+03  0.14793704019E+02 -0.59293137453E+03  0.69215135561E+03  0.10566000000E+00 0.  1.
          4    1    3    3  501    0 -0.49543374817E+03  0.36292378041E+03 -0.21271761714E+03  0.64993619214E+03  0.00000000000E+00 0.  1.
         13    1    4    4    0    0 -0.22524652766E+03 -0.34051533853E+03 -0.39580399484E+03  0.56863653373E+03  0.10566000000E+00 0. -1.
         -4    1    4    4    0  503  0.36390721165E+03 -0.37202145899E+02  0.38595705445E+03  0.53176621389E+03  0.00000000000E+00 0. -1.
<mgrwt>
<rscale>  2 0.10935492E+04</rscale>
<asrwt>0</asrwt>
<pdfrwt beam="1">  1       21 0.12515341E+00 0.11003587E+04</pdfrwt>
<pdfrwt beam="2">  1       21 0.25061432E+00 0.11003587E+04</pdfrwt>
<totfact> 0.12715856E+01</totfact>
</mgrwt>
</event>
<event>
 8    1  0.7631533E-006  0.1271039E+04  0.7818608E-02  0.8555466E-01
         21   -1    0    0  503  502  0.00000000000E+00  0.00000000000E+00  0.14538339153E+04  0.14538339153E+04  0.00000000000E+00 0. -1.
         21   -1    0    0  501  503 -0.00000000000E+00 -0.00000000000E+00 -0.14314994345E+04  0.14314994345E+04  0.00000000000E+00 0. -1.
    9000010    2    1    2  501    0 -0.13405524439E+03  0.76774647100E+03  0.69650228614E+03  0.14465688451E+04  0.10000202682E+04 0.  0.
   -9000010    2    1    2    0  502  0.13405524439E+03 -0.76774647100E+03 -0.67416780538E+03  0.14387645047E+04  0.10040595689E+04 0.  0.
        -13    1    3    3    0    0 -0.49043155015E+03  0.72405958152E+03  0.63864986280E+03  0.10828938274E+04  0.10566000000E+00 0.  1.
          4    1    3    3  501    0  0.35637630575E+03  0.43686889474E+02  0.57852423337E+02  0.36367501770E+03  0.00000000000E+00 0.  1.
         13    1    4    4    0    0  0.22965608223E+03 -0.35744159288E+03  0.19908909072E+03  0.46919386786E+03  0.10566000000E+00 0. -1.
         -4    1    4    4    0  502 -0.95600837838E+02 -0.41030487812E+03 -0.87325689610E+03  0.96957063682E+03  0.00000000000E+00 0. -1.
<mgrwt>
<rscale>  2 0.12702415E+04</rscale>
<asrwt>0</asrwt>
<pdfrwt beam="1">  1       21 0.22366676E+00 0.12710394E+04</pdfrwt>
<pdfrwt beam="2">  1       21 0.22023068E+00 0.12710394E+04</pdfrwt>
<totfact> 0.30427996E+00</totfact>
</mgrwt>
</event>
<event>
 8    1  0.7631533E-006  0.1101976E+04  0.7818608E-02  0.8698963E-01
         21   -1    0    0  501  502  0.00000000000E+00  0.00000000000E+00  0.56433472544E+03  0.56433472544E+03  0.00000000000E+00 0. -1.
         21   -1    0    0  502  503 -0.00000000000E+00 -0.00000000000E+00 -0.20727131829E+04  0.20727131829E+04  0.00000000000E+00 0. -1.
    9000010    2    1    2  501    0 -0.49036042346E+02 -0.23790708589E+03 -0.98572097313E+03  0.14785118105E+04  0.10748707001E+04 0.  0.
   -9000010    2    1    2    0  503  0.49036042346E+02  0.23790708589E+03 -0.52265748435E+03  0.11585360979E+04  0.10050028504E+04 0.  0.
        -13    1    3    3    0    0 -0.37543746270E+03 -0.45158531087E+03 -0.23512713441E+03  0.63258782939E+03  0.10566000000E+00 0.  1.
          4    1    3    3  501    0  0.32640142035E+03  0.21367822498E+03 -0.75059383872E+03  0.84592398107E+03  0.00000000000E+00 0.  1.
         13    1    4    4    0    0 -0.38813604040E+03 -0.15216784834E+03 -0.80695674219E+02  0.42463683652E+03  0.10566000000E+00 0. -1.
         -4    1    4    4    0  503  0.43717208274E+03  0.39007493423E+03 -0.44196181013E+03  0.73389926139E+03  0.00000000000E+00 0. -1.
<mgrwt>
<rscale>  2 0.10845589E+04</rscale>
<asrwt>0</asrwt>
<pdfrwt beam="1">  1       21 0.86820729E-01 0.11019761E+04</pdfrwt>
<pdfrwt beam="2">  1       21 0.31887895E+00 0.11019761E+04</pdfrwt>
<totfact> 0.11008709E+01</totfact>
</mgrwt>
</event>
<event>
 8    1  0.7631533E-006  0.1089705E+04  0.7818608E-02  0.8702223E-01
         21   -1    0    0  501  502  0.00000000000E+00  0.00000000000E+00  0.10922210358E+04  0.10922210358E+04  0.00000000000E+00 0. -1.
         21   -1    0    0  502  503 -0.00000000000E+00 -0.00000000000E+00 -0.14214010748E+04  0.14214010748E+04  0.00000000000E+00 0. -1.
    9000010    2    1    2  501    0  0.36135726578E+03 -0.10584857355E+02  0.47794511053E+03  0.11575588439E+04  0.99036348659E+03 0.  0.
   -9000010    2    1    2    0  503 -0.36135726578E+03  0.10584857355E+02 -0.80712514954E+03  0.13560632667E+04  0.10279909842E+04 0.  0.
        -13    1    3    3    0    0  0.26024895341E+03  0.41351708634E+03  0.52720353540E+03  0.71879724356E+03  0.10566000000E+00 0.  1.
          4    1    3    3  501    0  0.10110831237E+03 -0.42410194369E+03 -0.49258424872E+02  0.43876160030E+03  0.00000000000E+00 0.  1.
         13    1    4    4    0    0 -0.70340685742E+03 -0.10818401432E+03 -0.64059238570E+03  0.95751950570E+03  0.10566000000E+00 0. -1.
         -4    1    4    4    0  503  0.34204959164E+03  0.11876887168E+03 -0.16653276384E+03  0.39854376102E+03  0.00000000000E+00 0. -1.
<mgrwt>
<rscale>  2 0.10807391E+04</rscale>
<asrwt>0</asrwt>
<pdfrwt beam="1">  1       21 0.16803401E+00 0.10897048E+04</pdfrwt>
<pdfrwt beam="2">  1       21 0.21867709E+00 0.10897048E+04</pdfrwt>
<totfact> 0.89681202E+00</totfact>
</mgrwt>
</event>
<event>
 8    1  0.7631533E-006  0.1042796E+04  0.7818608E-02  0.8736858E-01
         21   -1    0    0  501  502  0.00000000000E+00  0.00000000000E+00  0.10693669695E+04  0.10693669695E+04  0.00000000000E+00 0. -1.
         21   -1    0    0  502  503 -0.00000000000E+00 -0.00000000000E+00 -0.10356191350E+04  0.10356191350E+04  0.00000000000E+00 0. -1.
    9000010    2    1    2  501    0 -0.46104120925E+02  0.27278237863E+03  0.18073882834E+03  0.10518816084E+04  0.99862534410E+03 0.  0.
   -9000010    2    1    2    0  503  0.46104120925E+02 -0.27278237863E+03 -0.14699099379E+03  0.10531044962E+04  0.10054287203E+04 0.  0.
        -13    1    3    3    0    0  0.83442461608E+02 -0.24970864069E+03  0.39316198055E+03  0.47317375641E+03  0.10566000000E+00 0.  1.
          4    1    3    3  501    0 -0.12954658253E+03  0.52249101932E+03 -0.21242315222E+03  0.57870785196E+03  0.00000000000E+00 0.  1.
         13    1    4    4    0    0 -0.31899466782E+03 -0.28779822523E+03 -0.41702654409E+03  0.59874582770E+03  0.10566000000E+00 0. -1.
         -4    1    4    4    0  503  0.36509878875E+03  0.15015846599E+02  0.27003555030E+03  0.45435866848E+03  0.00000000000E+00 0. -1.
<mgrwt>
<rscale>  2 0.10411522E+04</rscale>
<asrwt>0</asrwt>
<pdfrwt beam="1">  1       21 0.16451800E+00 0.10427956E+04</pdfrwt>
<pdfrwt beam="2">  1       21 0.15932602E+00 0.10427956E+04</pdfrwt>
<totfact> 0.29082142E+01</totfact>
</mgrwt>
</event>
<event>
 8    1  0.7631533E-006  0.1251230E+04  0.7818608E-02  0.8569372E-01
         21   -1    0    0  501  502  0.00000000000E+00  0.00000000000E+00  0.13211733628E+04  0.13211733628E+04  0.00000000000E+00 0.  1.
         21   -1    0    0  502  503 -0.00000000000E+00 -0.00000000000E+00 -0.13269149754E+04  0.13269149754E+04  0.00000000000E+00 0.  1.
    9000010    2    1    2  501    0  0.74209097642E+03  0.60487256328E+02 -0.43926439211E+03  0.13260955456E+04  0.10055935881E+04 0.  0.
   -9000010    2    1    2    0  503 -0.74209097642E+03 -0.60487256328E+02  0.43352277958E+03  0.13219927926E+04  0.10026790203E+04 0.  0.
        -13    1    3    3    0    0  0.68289949611E+03  0.40644737418E+03 -0.54015615651E+03  0.96089535036E+03  0.10566000000E+00 0.  1.
          4    1    3    3  501    0  0.59191480313E+02 -0.34596011785E+03  0.10089176440E+03  0.36520019525E+03  0.00000000000E+00 0.  1.
         13    1    4    4    0    0 -0.23494842682E+03  0.45314173130E+03  0.28658528390E+03  0.58537964435E+03  0.10566000000E+00 0. -1.
         -4    1    4    4    0  503 -0.50714254960E+03 -0.51362898762E+03  0.14693749568E+03  0.73661314825E+03  0.00000000000E+00 0. -1.
<mgrwt>
<rscale>  2 0.12506442E+04</rscale>
<asrwt>0</asrwt>
<pdfrwt beam="1">  1       21 0.20325744E+00 0.12512299E+04</pdfrwt>
<pdfrwt beam="2">  1       21 0.20414077E+00 0.12512299E+04</pdfrwt>
<totfact> 0.58100060E+00</totfact>
</mgrwt>
</event>
<event>
 8    1  0.7631533E-006  0.1049712E+04  0.7818608E-02  0.8739207E-01
         21   -1    0    0  503  502  0.00000000000E+00  0.00000000000E+00  0.93269257512E+03  0.93269257512E+03  0.00000000000E+00 0.  1.
         21   -1    0    0  501  503 -0.00000000000E+00 -0.00000000000E+00 -0.11611359801E+04  0.11611359801E+04  0.00000000000E+00 0.  1.
    9000010    2    1    2  501    0 -0.69059486458E+02  0.10688049791E+03 -0.28127645783E+03  0.10867432774E+04  0.10419701779E+04 0.  0.
   -9000010    2    1    2    0  502  0.69059486458E+02 -0.10688049791E+03  0.52833052810E+02  0.10070852779E+04  0.99761554313E+03 0.  0.
        -13    1    3    3    0    0 -0.39180210283E+02 -0.40916121134E+03 -0.38082893845E+03  0.56033800270E+03  0.10566000000E+00 0.  1.
          4    1    3    3  501    0 -0.29879276175E+02  0.51604170925E+03  0.99552480616E+02  0.52640527470E+03  0.00000000000E+00 0.  1.
         13    1    4    4    0    0  0.54097978948E+01 -0.61522067354E+02  0.52493592769E+03  0.52855649654E+03  0.10566000000E+00 0. -1.
         -4    1    4    4    0  502  0.63649688564E+02 -0.45358430554E+02 -0.47210287488E+03  0.47852878132E+03  0.00000000000E+00 0. -1.
<mgrwt>
<rscale>  2 0.10385310E+04</rscale>
<asrwt>0</asrwt>
<pdfrwt beam="1">  1       21 0.14349117E+00 0.10497116E+04</pdfrwt>
<pdfrwt beam="2">  1       21 0.17863630E+00 0.10497116E+04</pdfrwt>
<totfact> 0.30599393E+01</totfact>
</mgrwt>
</event>
<event>
 8    1  0.7631533E-006  0.1004765E+04  0.7818608E-02  0.8770472E-01
         21   -1    0    0  501  502  0.00000000000E+00  0.00000000000E+00  0.77850319790E+03  0.77850319790E+03  0.00000000000E+00 0. -1.
         21   -1    0    0  502  503 -0.00000000000E+00 -0.00000000000E+00 -0.15925132844E+04  0.15925132844E+04  0.00000000000E+00 0. -1.
    9000010    2    1    2  501    0  0.99568316122E+02  0.80836673287E+02  0.10574729171E+03  0.10088466352E+04  0.99505810198E+03 0.  0.
   -9000010    2    1    2    0  503 -0.99568316122E+02 -0.80836673287E+02 -0.91975737817E+03  0.13621698471E+04  0.99654635630E+03 0.  0.
        -13    1    3    3    0    0  0.20779104162E+03  0.50617265819E+03 -0.34076636577E+02  0.54822359052E+03  0.10566000000E+00 0.  1.
          4    1    3    3  501    0 -0.10822272550E+03 -0.42533598490E+03  0.13982392828E+03  0.46062304467E+03  0.00000000000E+00 0.  1.
         13    1    4    4    0    0 -0.11646647519E+03 -0.53544464229E+03 -0.46093578678E+03  0.71604972977E+03  0.10566000000E+00 0. -1.
         -4    1    4    4    0  503  0.16898159067E+02  0.45460796900E+03 -0.45882159139E+03  0.64612011730E+03  0.00000000000E+00 0. -1.
<mgrwt>
<rscale>  2 0.10043960E+04</rscale>
<asrwt>0</asrwt>
<pdfrwt beam="1">  1       21 0.11976972E+00 0.10047652E+04</pdfrwt>
<pdfrwt beam="2">  1       21 0.24500204E+00 0.10047652E+04</pdfrwt>
<totfact> 0.16168724E+01</totfact>
</mgrwt>
</event>
<event>
 8    1  0.7631533E-006  0.1032206E+04  0.7818608E-02  0.8746538E-01
         21   -1    0    0  503  502  0.00000000000E+00  0.00000000000E+00  0.16356010313E+04  0.16356010313E+04  0.00000000000E+00 0. -1.
         21   -1    0    0  501  503 -0.00000000000E+00 -0.00000000000E+00 -0.76349205648E+03  0.76349205648E+03  0.00000000000E+00 0. -1.
    9000010    2    1    2  501    0 -0.72668886274E+02 -0.13719697914E+03 -0.31446513977E+02  0.10326848955E+04  0.10204633418E+04 0.  0.
   -9000010    2    1    2    0  502  0.72668886274E+02  0.13719697914E+03  0.90355548875E+03  0.13664081922E+04  0.10131905292E+04 0.  0.
        -13    1    3    3    0    0  0.15995690853E+03 -0.53167740068E+03 -0.11541807283E+03  0.56708765961E+03  0.10566000000E+00 0.  1.
          4    1    3    3  501    0 -0.23262579481E+03  0.39448042154E+03  0.83971558858E+02  0.46559723590E+03  0.00000000000E+00 0.  1.
         13    1    4    4    0    0  0.25625268590E+03  0.35091866764E+03  0.98209011186E+03  0.10739228787E+04  0.10566000000E+00 0. -1.
         -4    1    4    4    0  502 -0.18358379963E+03 -0.21372168850E+03 -0.78534623113E+02  0.29248531356E+03  0.00000000000E+00 0. -1.
<mgrwt>
<rscale>  2 0.10304039E+04</rscale>
<asrwt>0</asrwt>
<pdfrwt beam="1">  1       21 0.25163093E+00 0.10322060E+04</pdfrwt>
<pdfrwt beam="2">  1       21 0.11746032E+00 0.10322060E+04</pdfrwt>
<totfact> 0.15173014E+01</totfact>
</mgrwt>
</event>
<event>
 8    1  0.7631533E-006  0.1210044E+04  0.7818608E-02  0.8601608E-01
         21   -1    0    0  501  502  0.00000000000E+00  0.00000000000E+00  0.11484380558E+04  0.11484380558E+04  0.00000000000E+00 0.  1.
         21   -1    0    0  502  503 -0.00000000000E+00 -0.00000000000E+00 -0.17043553965E+04  0.17043553965E+04  0.00000000000E+00 0.  1.
    9000010    2    1    2  501    0  0.66960617446E+03 -0.81909402387E+02  0.45108210347E+03  0.12785464032E+04  0.98799001109E+03 0.  0.
   -9000010    2    1    2    0  503 -0.66960617446E+03  0.81909402387E+02 -0.10069994442E+04  0.15742470490E+04  0.10045517964E+04 0.  0.
        -13    1    3    3    0    0  0.89929649156E+03 -0.11711269709E+03  0.18551811109E+03  0.92567086173E+03  0.10566000000E+00 0.  1.
          4    1    3    3  501    0 -0.22969031710E+03  0.35203294699E+02  0.26556399237E+03  0.35287554147E+03  0.00000000000E+00 0.  1.
         13    1    4    4    0    0  0.21885782286E+03  0.22044236705E+03 -0.27145600511E+03  0.41253115966E+03  0.10566000000E+00 0. -1.
         -4    1    4    4    0  503 -0.88846399732E+03 -0.13853296466E+03 -0.73554343905E+03  0.11617158894E+04  0.00000000000E+00 0. -1.
<mgrwt>
<rscale>  2 0.12066007E+04</rscale>
<asrwt>0</asrwt>
<pdfrwt beam="1">  1       21 0.17668278E+00 0.12100438E+04</pdfrwt>
<pdfrwt beam="2">  1       21 0.26220852E+00 0.12100438E+04</pdfrwt>
<totfact> 0.35339817E+00</totfact>
</mgrwt>
</event>
<event>
 8    1  0.7631533E-006  0.1028336E+04  0.7818608E-02  0.8749970E-01
         21   -1    0    0  503  502  0.00000000000E+00  0.00000000000E+00  0.59705084462E+03  0.59705084462E+03  0.00000000000E+00 0. -1.
         21   -1    0    0  501  503 -0.00000000000E+00 -0.00000000000E+00 -0.19547221201E+04  0.19547221201E+04  0.00000000000E+00 0. -1.
    9000010    2    1    2  501    0  0.81825101476E+02  0.28420569603E+03 -0.10800895356E+04  0.14866312094E+04  0.97775800846E+03 0.  0.
   -9000010    2    1    2    0  502 -0.81825101476E+02 -0.28420569603E+03 -0.27758173988E+03  0.10651417553E+04  0.98488939055E+03 0.  0.
        -13    1    3    3    0    0 -0.27578882331E+03 -0.12126469688E+03 -0.26512605964E+02  0.30243599523E+03  0.10566000000E+00 0.  1.
          4    1    3    3  501    0  0.35761392478E+03  0.40547039291E+03 -0.10535769296E+04  0.11841952142E+04  0.00000000000E+00 0.  1.
         13    1    4    4    0    0 -0.51156616110E+03 -0.46280093308E+02 -0.25486247496E+03  0.57340794948E+03  0.10566000000E+00 0. -1.
         -4    1    4    4    0  502  0.42974105963E+03 -0.23792560272E+03 -0.22719264920E+02  0.49173380579E+03  0.00000000000E+00 0. -1.
<mgrwt>
<rscale>  2 0.10266249E+04</rscale>
<asrwt>0</asrwt>
<pdfrwt beam="1">  1       21 0.91853976E-01 0.10283362E+04</pdfrwt>
<pdfrwt beam="2">  1       21 0.30072648E+00 0.10283362E+04</pdfrwt>
<totfact> 0.12998725E+01</totfact>
</mgrwt>
</event>
<event>
 8    1  0.7631533E-006  0.1029881E+04  0.7818608E-02  0.8749357E-01
         21   -1    0    0  503  502  0.00000000000E+00  0.00000000000E+00  0.15342004991E+04  0.15342004991E+04  0.00000000000E+00 0. -1.
         21   -1    0    0  501  503 -0.00000000000E+00 -0.00000000000E+00 -0.98402735110E+03  0.98402735110E+03  0.00000000000E+00 0. -1.
    9000010    2    1    2  501    0 -0.16622025986E+03 -0.10188330708E+03 -0.42059853981E+03  0.11029357273E+04  0.10007770500E+04 0.  0.
   -9000010    2    1    2    0  502  0.16622025986E+03  0.10188330708E+03  0.97077168783E+03  0.14152921230E+04  0.10112589878E+04 0.  0.
        -13    1    3    3    0    0  0.32831956153E+02  0.56910251728E+02 -0.71253326189E+03  0.71555598982E+03  0.10566000000E+00 0.  1.
          4    1    3    3  501    0 -0.19905221601E+03 -0.15879355881E+03  0.29193472208E+03  0.38737973744E+03  0.00000000000E+00 0.  1.
         13    1    4    4    0    0  0.55305812236E+03  0.14427016489E+03  0.81650277698E+03  0.99667645862E+03  0.10566000000E+00 0. -1.
         -4    1    4    4    0  502 -0.38683786250E+03 -0.42386857807E+02  0.15426891085E+03  0.41861566434E+03  0.00000000000E+00 0. -1.
<mgrwt>
<rscale>  2 0.10272983E+04</rscale>
<asrwt>0</asrwt>
<pdfrwt beam="1">  1       21 0.23603085E+00 0.10298806E+04</pdfrwt>
<pdfrwt beam="2">  1       21 0.15138882E+00 0.10298806E+04</pdfrwt>
<totfact> 0.94014249E+00</totfact>
</mgrwt>
</event>
<event>
 8    1  0.7631533E-006  0.1136689E+04  0.7818608E-02  0.8658810E-01
         21   -1    0    0  501  502  0.00000000000E+00  0.00000000000E+00  0.99572176835E+03  0.99572176835E+03  0.00000000000E+00 0. -1.
         21   -1    0    0  502  503 -0.00000000000E+00 -0.00000000000E+00 -0.21128457792E+04  0.21128457792E+04  0.00000000000E+00 0. -1.
    9000010    2    1    2  501    0 -0.48483450131E+03  0.22915689104E+03  0.41456498752E+03  0.12099285012E+04  0.10022402281E+04 0.  0.
   -9000010    2    1    2    0  503  0.48483450131E+03 -0.22915689104E+03 -0.15316889984E+04  0.18986390464E+04  0.98548549775E+03 0.  0.
        -13    1    3    3    0    0  0.21035361658E+03 -0.22151536626E+03  0.74986512936E+02  0.31454839021E+03  0.10566000000E+00 0.  1.
          4    1    3    3  501    0 -0.69518811789E+03  0.45067225731E+03  0.33957847458E+03  0.89538011099E+03  0.00000000000E+00 0.  1.
         13    1    4    4    0    0 -0.27635814532E+03  0.35488871695E+02 -0.63258545093E+03  0.69122908532E+03  0.10566000000E+00 0. -1.
         -4    1    4    4    0  503  0.76119264663E+03 -0.26464576274E+03 -0.89910354746E+03  0.12074099611E+04  0.00000000000E+00 0. -1.
<mgrwt>
<rscale>  2 0.11329851E+04</rscale>
<asrwt>0</asrwt>
<pdfrwt beam="1">  1       21 0.15318797E+00 0.11366894E+04</pdfrwt>
<pdfrwt beam="2">  1       21 0.32505319E+00 0.11366894E+04</pdfrwt>
<totfact> 0.20401952E+00</totfact>
</mgrwt>
</event>
<event>
 8    1  0.7631533E-006  0.1095185E+04  0.7818608E-02  0.8695217E-01
         21   -1    0    0  503  502  0.00000000000E+00  0.00000000000E+00  0.31352773447E+04  0.31352773447E+04  0.00000000000E+00 0.  1.
         21   -1    0    0  501  503 -0.00000000000E+00 -0.00000000000E+00 -0.43937458326E+03  0.43937458326E+03  0.00000000000E+00 0.  1.
    9000010    2    1    2  501    0  0.21858047178E+03  0.32310473599E+03  0.20504249755E+04  0.23245799123E+04  0.10233548238E+04 0.  0.
   -9000010    2    1    2    0  502 -0.21858047178E+03 -0.32310473599E+03  0.64547778591E+03  0.12500720157E+04  0.99692746936E+03 0.  0.
        -13    1    3    3    0    0  0.57879669238E+03  0.38917556585E+03  0.15901284106E+04  0.17363673590E+04  0.10566000000E+00 0.  1.
          4    1    3    3  501    0 -0.36021622059E+03 -0.66070829859E+02  0.46029656497E+03  0.58821255330E+03  0.00000000000E+00 0.  1.
         13    1    4    4    0    0 -0.20086277328E+03  0.46497813603E+02  0.81672016469E+03  0.84234181835E+03  0.10566000000E+00 0. -1.
         -4    1    4    4    0  502 -0.17717698502E+02 -0.36960254959E+03 -0.17124237878E+03  0.40773019731E+03  0.00000000000E+00 0. -1.
<mgrwt>
<rscale>  2 0.10889687E+04</rscale>
<asrwt>0</asrwt>
<pdfrwt beam="1">  1       21 0.48235035E+00 0.10951845E+04</pdfrwt>
<pdfrwt beam="2">  1       21 0.67596092E-01 0.10951845E+04</pdfrwt>
<totfact> 0.14676253E+00</totfact>
</mgrwt>
</event>
<event>
 8    1  0.7631533E-006  0.1063886E+04  0.7818608E-02  0.8716799E-01
         21   -1    0    0  503  502  0.00000000000E+00  0.00000000000E+00  0.24596456480E+04  0.24596456480E+04  0.00000000000E+00 0. -1.
         21   -1    0    0  501  503 -0.00000000000E+00 -0.00000000000E+00 -0.48773346289E+03  0.48773346289E+03  0.00000000000E+00 0. -1.
    9000010    2    1    2  501    0  0.85955304436E+02  0.35515879649E+03  0.63537136803E+03  0.12391735430E+04  0.99916375504E+03 0.  0.
   -9000010    2    1    2    0  502 -0.85955304436E+02 -0.35515879649E+03  0.13365408171E+04  0.17082055679E+04  0.99904895839E+03 0.  0.
        -13    1    3    3    0    0  0.21927100989E+03 -0.29374926604E+03  0.38332778107E+03  0.53038533726E+03  0.10566000000E+00 0.  1.
          4    1    3    3  501    0 -0.13331570546E+03  0.64890806253E+03  0.25204358696E+03  0.70878820578E+03  0.00000000000E+00 0.  1.
         13    1    4    4    0    0  0.16951809470E+03  0.20647559326E+03  0.93410240745E+03  0.97155333040E+03  0.10566000000E+00 0. -1.
         -4    1    4    4    0  502 -0.25547339914E+03 -0.56163438975E+03  0.40243840966E+03  0.73665223748E+03  0.00000000000E+00 0. -1.
<mgrwt>
<rscale>  2 0.10638595E+04</rscale>
<asrwt>0</asrwt>
<pdfrwt beam="1">  1       21 0.37840702E+00 0.10638864E+04</pdfrwt>
<pdfrwt beam="2">  1       21 0.75035919E-01 0.10638864E+04</pdfrwt>
<totfact> 0.60726187E+00</totfact>
</mgrwt>
</event>
<event>
 8    1  0.7631533E-006  0.1066710E+04  0.7818608E-02  0.8716196E-01
         21   -1    0    0  501  502  0.00000000000E+00  0.00000000000E+00  0.15810694055E+04  0.15810694055E+04  0.00000000000E+00 0. -1.
         21   -1    0    0  502  503 -0.00000000000E+00 -0.00000000000E+00 -0.16642684365E+04  0.16642684365E+04  0.00000000000E+00 0. -1.
    9000010    2    1    2  501    0 -0.38456381246E+03  0.30905323544E+02  0.11846842277E+04  0.15884133507E+04  0.98525924945E+03 0.  0.
   -9000010    2    1    2    0  503  0.38456381246E+03 -0.30905323544E+02 -0.12678832586E+04  0.16569244913E+04  0.99449803801E+03 0.  0.
        -13    1    3    3    0    0 -0.12491346415E+03 -0.31685728924E+03  0.15125808039E+02  0.34092626256E+03  0.10566000000E+00 0.  1.
          4    1    3    3  501    0 -0.25965034831E+03  0.34776261279E+03  0.11695584196E+04  0.12474870882E+04  0.00000000000E+00 0.  1.
         13    1    4    4    0    0  0.21464353680E+03  0.19612057237E+03  0.61880015353E+02  0.29726128955E+03  0.10566000000E+00 0. -1.
         -4    1    4    4    0  503  0.16992027566E+03 -0.22702589592E+03 -0.13297632739E+04  0.13596632018E+04  0.00000000000E+00 0. -1.
<mgrwt>
<rscale>  2 0.10645517E+04</rscale>
<asrwt>0</asrwt>
<pdfrwt beam="1">  1       21 0.24324145E+00 0.10667103E+04</pdfrwt>
<pdfrwt beam="2">  1       21 0.25604130E+00 0.10667103E+04</pdfrwt>
<totfact> 0.12434600E+00</totfact>
</mgrwt>
</event>
<event>
 8    1  0.7631533E-006  0.1152025E+04  0.7818608E-02  0.8653578E-01
         21   -1    0    0  503  502  0.00000000000E+00  0.00000000000E+00  0.14205147309E+04  0.14205147309E+04  0.00000000000E+00 0.  1.
         21   -1    0    0  501  503 -0.00000000000E+00 -0.00000000000E+00 -0.11989256108E+04  0.11989256108E+04  0.00000000000E+00 0.  1.
    9000010    2    1    2  501    0  0.36627435829E+03  0.23775523353E+03 -0.55065025976E+03  0.12325321305E+04  0.10125390302E+04 0.  0.
   -9000010    2    1    2    0  502 -0.36627435829E+03 -0.23775523353E+03  0.77223937982E+03  0.13869082112E+04  0.10660564103E+04 0.  0.
        -13    1    3    3    0    0 -0.31304932832E+03  0.16778743237E+03 -0.39671539212E+03  0.53248062682E+03  0.10566000000E+00 0.  1.
          4    1    3    3  501    0  0.67932368661E+03  0.69967801158E+02 -0.15393486763E+03  0.70005150372E+03  0.00000000000E+00 0.  1.
         13    1    4    4    0    0 -0.46158977414E+03 -0.52013118149E+03  0.17141635085E+03  0.71622981092E+03  0.10566000000E+00 0. -1.
         -4    1    4    4    0  502  0.95315415851E+02  0.28237594796E+03  0.60082302897E+03  0.67067840030E+03  0.00000000000E+00 0. -1.
<mgrwt>
<rscale>  2 0.11394872E+04</rscale>
<asrwt>0</asrwt>
<pdfrwt beam="1">  1       21 0.21854073E+00 0.11520246E+04</pdfrwt>
<pdfrwt beam="2">  1       21 0.18445009E+00 0.11520246E+04</pdfrwt>
<totfact> 0.64878126E+00</totfact>
</mgrwt>
</event>
<event>
 8    1  0.7631533E-006  0.1084245E+04  0.7818608E-02  0.8721539E-01
         21   -1    0    0  501  502  0.00000000000E+00  0.00000000000E+00  0.11113181212E+04  0.11113181212E+04  0.00000000000E+00 0. -1.
         21   -1    0    0  502  503 -0.00000000000E+00 -0.00000000000E+00 -0.10020385281E+04  0.10020385281E+04  0.00000000000E+00 0. -1.
    9000010    2    1    2  501    0 -0.14829884624E+03 -0.45780272462E+02  0.26578179954E+03  0.11163455475E+04  0.10730792307E+04 0.  0.
   -9000010    2    1    2    0  503  0.14829884624E+03  0.45780272462E+02 -0.15650220651E+03  0.99701110181E+03  0.97234243728E+03 0.  0.
        -13    1    3    3    0    0  0.33176537871E+03  0.33394059367E+03  0.14401227644E+03  0.49226429237E+03  0.10566000000E+00 0.  1.
          4    1    3    3  501    0 -0.48006422494E+03 -0.37972086613E+03  0.12176952309E+03  0.62408125512E+03  0.00000000000E+00 0.  1.
         13    1    4    4    0    0  0.19874758598E+03  0.46181668853E+03 -0.25902380670E+03  0.56556927103E+03  0.10566000000E+00 0. -1.
         -4    1    4    4    0  503 -0.50448739745E+02 -0.41603641606E+03  0.10252160019E+03  0.43144183077E+03  0.00000000000E+00 0. -1.
<mgrwt>
<rscale>  2 0.10584399E+04</rscale>
<asrwt>0</asrwt>
<pdfrwt beam="1">  1       21 0.17097202E+00 0.10842451E+04</pdfrwt>
<pdfrwt beam="2">  1       21 0.15415977E+00 0.10842451E+04</pdfrwt>
<totfact> 0.28204496E+01</totfact>
</mgrwt>
</event>
<event>
 8    1  0.7631533E-006  0.1059712E+04  0.7818608E-02  0.8725531E-01
         21   -1    0    0  501  502  0.00000000000E+00  0.00000000000E+00  0.67349804512E+03  0.67349804512E+03  0.00000000000E+00 0. -1.
         21   -1    0    0  502  503 -0.00000000000E+00 -0.00000000000E+00 -0.18104573280E+04  0.18104573280E+04  0.00000000000E+00 0. -1.
    9000010    2    1    2  501    0 -0.42408017168E+03  0.44182693030E+02 -0.17219972045E+03  0.10508641112E+04  0.94491615190E+03 0.  0.
   -9000010    2    1    2    0  503  0.42408017168E+03 -0.44182693030E+02 -0.96475956238E+03  0.14330912619E+04  0.97015125071E+03 0.  0.
        -13    1    3    3    0    0  0.12115034236E+03 -0.26244598505E+03  0.17252279102E+03  0.33662950719E+03  0.10566000000E+00 0.  1.
          4    1    3    3  501    0 -0.54523051404E+03  0.30662867808E+03 -0.34472251147E+03  0.71423460402E+03  0.00000000000E+00 0.  1.
         13    1    4    4    0    0  0.11285287565E+03  0.45528573858E+03 -0.38280238284E+03  0.60544079047E+03  0.10566000000E+00 0. -1.
         -4    1    4    4    0  503  0.31122729603E+03 -0.49946843161E+03 -0.58195717954E+03  0.82765047139E+03  0.00000000000E+00 0. -1.
<mgrwt>
<rscale>  2 0.10539012E+04</rscale>
<asrwt>0</asrwt>
<pdfrwt beam="1">  1       21 0.10361508E+00 0.10597120E+04</pdfrwt>
<pdfrwt beam="2">  1       21 0.27853190E+00 0.10597120E+04</pdfrwt>
<totfact> 0.13571596E+01</totfact>
</mgrwt>
</event>
<event>
 8    1  0.7631533E-006  0.1379786E+04  0.7818608E-02  0.8486438E-01
         21   -1    0    0  503  502  0.00000000000E+00  0.00000000000E+00  0.10212037724E+04  0.10212037724E+04  0.00000000000E+00 0.  1.
         21   -1    0    0  501  503 -0.00000000000E+00 -0.00000000000E+00 -0.19113638955E+04  0.19113638955E+04  0.00000000000E+00 0.  1.
    9000010    2    1    2  501    0  0.94267182578E+03  0.14122649726E+03 -0.75342069091E+03  0.15720853632E+04  0.99761443312E+03 0.  0.
   -9000010    2    1    2    0  502 -0.94267182578E+03 -0.14122649726E+03 -0.13673943217E+03  0.13604823047E+04  0.96106156647E+03 0.  0.
        -13    1    3    3    0    0  0.25488509763E+03 -0.37499102698E+03 -0.40824667637E+02  0.45524866607E+03  0.10566000000E+00 0.  1.
          4    1    3    3  501    0  0.68778672814E+03  0.51621752424E+03 -0.71259602327E+03  0.11168366972E+04  0.00000000000E+00 0.  1.
         13    1    4    4    0    0 -0.53226599313E+03  0.35557786083E+03 -0.28270472061E+03  0.69976043956E+03  0.10566000000E+00 0. -1.
         -4    1    4    4    0  502 -0.41040583265E+03 -0.49680435809E+03  0.14596528845E+03  0.66072186518E+03  0.00000000000E+00 0. -1.
<mgrwt>
<rscale>  2 0.13731907E+04</rscale>
<asrwt>0</asrwt>
<pdfrwt beam="1">  1       21 0.15710827E+00 0.13797861E+04</pdfrwt>
<pdfrwt beam="2">  1       21 0.29405599E+00 0.13797861E+04</pdfrwt>
<totfact> 0.29658408E+00</totfact>
</mgrwt>
</event>
<event>
 8    1  0.7631533E-006  0.1033347E+04  0.7818608E-02  0.8744162E-01
         21   -1    0    0  503  502  0.00000000000E+00  0.00000000000E+00  0.15611929569E+04  0.15611929569E+04  0.00000000000E+00 0. -1.
         21   -1    0    0  501  503 -0.00000000000E+00 -0.00000000000E+00 -0.71339149455E+03  0.71339149455E+03  0.00000000000E+00 0. -1.
    9000010    2    1    2  501    0  0.21484329249E+03 -0.18729420102E+03  0.65789978698E+03  0.12239331368E+04  0.99193922983E+03 0.  0.
   -9000010    2    1    2    0  502 -0.21484329249E+03  0.18729420102E+03  0.18990167538E+03  0.10506513146E+04  0.99326168784E+03 0.  0.
        -13    1    3    3    0    0  0.95597660415E+02  0.16325108003E+03 -0.20861623934E+03  0.28162133138E+03  0.10566000000E+00 0.  1.
          4    1    3    3  501    0  0.11924563208E+03 -0.35054528105E+03  0.86651602632E+03  0.94231180546E+03  0.00000000000E+00 0.  1.
         13    1    4    4    0    0 -0.41819456188E+03  0.99753265197E+01  0.49187889008E+03  0.64570198420E+03  0.10566000000E+00 0. -1.
         -4    1    4    4    0  502  0.20335126939E+03  0.17731887450E+03 -0.30197721469E+03  0.40494933043E+03  0.00000000000E+00 0. -1.
<mgrwt>
<rscale>  2 0.10330288E+04</rscale>
<asrwt>0</asrwt>
<pdfrwt beam="1">  1       21 0.24018353E+00 0.10333468E+04</pdfrwt>
<pdfrwt beam="2">  1       21 0.10975254E+00 0.10333468E+04</pdfrwt>
<totfact> 0.22148173E+01</totfact>
</mgrwt>
</event>
<event>
 8    1  0.7631533E-006  0.1023465E+04  0.7818608E-02  0.8761231E-01
         21   -1    0    0  503  502  0.00000000000E+00  0.00000000000E+00  0.74179235409E+03  0.74179235409E+03  0.00000000000E+00 0.  1.
         21   -1    0    0  501  503 -0.00000000000E+00 -0.00000000000E+00 -0.14194758937E+04  0.14194758937E+04  0.00000000000E+00 0.  1.
    9000010    2    1    2  501    0  0.96048853766E+02 -0.97022272300E+02 -0.56045319656E+03  0.11668714330E+04  0.10143187133E+04 0.  0.
   -9000010    2    1    2    0  502 -0.96048853766E+02  0.97022272300E+02 -0.11723034305E+03  0.99439681476E+03  0.97797922689E+03 0.  0.
        -13    1    3    3    0    0 -0.11315047112E+03  0.43206577689E+03 -0.17523605583E+03  0.47978281659E+03  0.10566000000E+00 0.  1.
          4    1    3    3  501    0  0.20919932489E+03 -0.52908804919E+03 -0.38521714073E+03  0.68708861644E+03  0.00000000000E+00 0.  1.
         13    1    4    4    0    0  0.76692270517E+02  0.40493526860E+03  0.25237123657E+03  0.48326548431E+03  0.10566000000E+00 0. -1.
         -4    1    4    4    0  502 -0.17274112428E+03 -0.30791299630E+03 -0.36960157962E+03  0.51113133045E+03  0.00000000000E+00 0. -1.
<mgrwt>
<rscale>  2 0.10143433E+04</rscale>
<asrwt>0</asrwt>
<pdfrwt beam="1">  1       21 0.11412190E+00 0.10234653E+04</pdfrwt>
<pdfrwt beam="2">  1       21 0.21838090E+00 0.10234653E+04</pdfrwt>
<totfact> 0.28993233E+01</totfact>
</mgrwt>
</event>
<event>
 8    1  0.7631533E-006  0.1090909E+04  0.7818608E-02  0.8699039E-01
         21   -1    0    0  503  502  0.00000000000E+00  0.00000000000E+00  0.19026488303E+04  0.19026488303E+04  0.00000000000E+00 0.  1.
         21   -1    0    0  501  503 -0.00000000000E+00 -0.00000000000E+00 -0.63276410281E+03  0.63276410281E+03  0.00000000000E+00 0.  1.
    9000010    2    1    2  501    0  0.29162958076E+03 -0.81652630857E+02  0.39225039162E+03  0.11352971955E+04  0.10214325175E+04 0.  0.
   -9000010    2    1    2    0  502 -0.29162958076E+03  0.81652630857E+02  0.87763433586E+03  0.14001157376E+04  0.10480300982E+04 0.  0.
        -13    1    3    3    0    0  0.34082075422E+03 -0.36983764614E+03  0.59533039471E+03  0.77933109846E+03  0.10566000000E+00 0.  1.
          4    1    3    3  501    0 -0.49191173456E+02  0.28818501528E+03 -0.20308000308E+03  0.35596609703E+03  0.00000000000E+00 0.  1.
         13    1    4    4    0    0  0.16620272517E+03 -0.38894737235E+03  0.44433218842E+03  0.61346109016E+03  0.10566000000E+00 0. -1.
         -4    1    4    4    0  502 -0.45783230593E+03  0.47060000321E+03  0.43330214745E+03  0.78665464745E+03  0.00000000000E+00 0. -1.
<mgrwt>
<rscale>  2 0.10844704E+04</rscale>
<asrwt>0</asrwt>
<pdfrwt beam="1">  1       21 0.29271520E+00 0.10909088E+04</pdfrwt>
<pdfrwt beam="2">  1       21 0.97348324E-01 0.10909088E+04</pdfrwt>
<totfact> 0.12589244E+01</totfact>
</mgrwt>
</event>
<event>
 8    1  0.7631533E-006  0.1263749E+04  0.7818608E-02  0.8582664E-01
         21   -1    0    0  503  502  0.00000000000E+00  0.00000000000E+00  0.11513108777E+04  0.11513108777E+04  0.00000000000E+00 0. -1.
         21   -1    0    0  501  503 -0.00000000000E+00 -0.00000000000E+00 -0.16037657885E+04  0.16037657885E+04  0.00000000000E+00 0. -1.
    9000010    2    1    2  501    0 -0.20283177011E+03  0.49891641600E+03 -0.87493740793E+03  0.15370676417E+04  0.11432423847E+04 0.  0.
   -9000010    2    1    2    0  502  0.20283177011E+03 -0.49891641600E+03  0.42248249714E+03  0.12180090245E+04  0.10074702012E+04 0.  0.
        -13    1    3    3    0    0 -0.48130087204E+03  0.39463847827E+03 -0.10286805505E+04  0.12023201504E+04  0.10566000000E+00 0.  1.
          4    1    3    3  501    0  0.27846910193E+03  0.10427793774E+03  0.15374314255E+03  0.33474749127E+03  0.00000000000E+00 0.  1.
         13    1    4    4    0    0  0.20671911885E+03 -0.28473491559E+03 -0.30127158183E+03  0.46321846189E+03  0.10566000000E+00 0. -1.
         -4    1    4    4    0  502 -0.38873487419E+01 -0.21418150042E+03  0.72375407897E+03  0.75479056262E+03  0.00000000000E+00 0. -1.
<mgrwt>
<rscale>  2 0.12322510E+04</rscale>
<asrwt>0</asrwt>
<pdfrwt beam="1">  1       21 0.17712475E+00 0.12637490E+04</pdfrwt>
<pdfrwt beam="2">  1       21 0.24673320E+00 0.12637490E+04</pdfrwt>
<totfact> 0.44889203E+00</totfact>
</mgrwt>
</event>
<event>
 8    1  0.7631533E-006  0.1039296E+04  0.7818608E-02  0.8743943E-01
         21   -1    0    0  503  502  0.00000000000E+00  0.00000000000E+00  0.68560191855E+03  0.68560191855E+03  0.00000000000E+00 0.  1.
         21   -1    0    0  501  503 -0.00000000000E+00 -0.00000000000E+00 -0.18060686449E+04  0.18060686449E+04  0.00000000000E+00 0.  1.
    9000010    2    1    2  501    0  0.80838813004E+02 -0.21031860733E+03 -0.10444291958E+04  0.14734204159E+04  0.10145770284E+04 0.  0.
   -9000010    2    1    2    0  502 -0.80838813004E+02  0.21031860733E+03 -0.76037530481E+02  0.10182501475E+04  0.99009233235E+03 0.  0.
        -13    1    3    3    0    0 -0.18953922558E+03  0.24312732243E+03 -0.86099953365E+03  0.91452513419E+03  0.10566000000E+00 0.  1.
          4    1    3    3  501    0  0.27037803858E+03 -0.45344592976E+03 -0.18342966218E+03  0.55889528173E+03  0.00000000000E+00 0.  1.
         13    1    4    4    0    0  0.22945076921E+03 -0.11459455598E+03 -0.39238772095E+03  0.46877254875E+03  0.10566000000E+00 0. -1.
         -4    1    4    4    0  502 -0.31028958221E+03  0.32491316331E+03  0.31635019047E+03  0.54947759875E+03  0.00000000000E+00 0. -1.
<mgrwt>
<rscale>  2 0.10332713E+04</rscale>
<asrwt>0</asrwt>
<pdfrwt beam="1">  1       21 0.10547722E+00 0.10392956E+04</pdfrwt>
<pdfrwt beam="2">  1       21 0.27785671E+00 0.10392956E+04</pdfrwt>
<totfact> 0.13149394E+01</totfact>
</mgrwt>
</event>
<event>
 8    1  0.7631533E-006  0.1035851E+04  0.7818608E-02  0.8745746E-01
         21   -1    0    0  501  502  0.00000000000E+00  0.00000000000E+00  0.75069773395E+03  0.75069773395E+03  0.00000000000E+00 0. -1.
         21   -1    0    0  502  503 -0.00000000000E+00 -0.00000000000E+00 -0.16744608225E+04  0.16744608225E+04  0.00000000000E+00 0. -1.
    9000010    2    1    2  501    0 -0.20039143104E+03 -0.10595961219E+03  0.28541189021E+02  0.10180796340E+04  0.99211258265E+03 0.  0.
   -9000010    2    1    2    0  503  0.20039143104E+03  0.10595961219E+03 -0.95230427755E+03  0.14070789224E+04  0.10107440288E+04 0.  0.
        -13    1    3    3    0    0  0.36116238980E+03  0.20445796903E+02 -0.18229366154E+03  0.40507689717E+03  0.10566000000E+00 0.  1.
          4    1    3    3  501    0 -0.56155382084E+03 -0.12640540910E+03  0.21083485056E+03  0.61300273683E+03  0.00000000000E+00 0.  1.
         13    1    4    4    0    0 -0.13312798972E+03  0.42994593689E+03 -0.79977699784E+03  0.91772535529E+03  0.10566000000E+00 0. -1.
         -4    1    4    4    0  503  0.33351942076E+03 -0.32398632470E+03 -0.15252727971E+03  0.48935356714E+03  0.00000000000E+00 0. -1.
<mgrwt>
<rscale>  2 0.10312781E+04</rscale>
<asrwt>0</asrwt>
<pdfrwt beam="1">  1       21 0.11549196E+00 0.10358512E+04</pdfrwt>
<pdfrwt beam="2">  1       21 0.25760936E+00 0.10358512E+04</pdfrwt>
<totfact> 0.14377243E+01</totfact>
</mgrwt>
</event>
<event>
 8    1  0.7631533E-006  0.1122267E+04  0.7818608E-02  0.8668511E-01
         21   -1    0    0  503  502  0.00000000000E+00  0.00000000000E+00  0.19559907264E+04  0.19559907264E+04  0.00000000000E+00 0. -1.
         21   -1    0    0  501  503 -0.00000000000E+00 -0.00000000000E+00 -0.71221699996E+03  0.71221699996E+03  0.00000000000E+00 0. -1.
    9000010    2    1    2  501    0  0.34521545446E+03 -0.35509466305E+03  0.10446060313E+04  0.15331941346E+04  0.10070831961E+04 0.  0.
   -9000010    2    1    2    0  502 -0.34521545446E+03  0.35509466305E+03  0.19916769510E+03  0.11350135917E+04  0.10016596992E+04 0.  0.
        -13    1    3    3    0    0  0.59352794920E+03 -0.54760720908E+03  0.77259469749E+03  0.11176097976E+04  0.10566000000E+00 0.  1.
          4    1    3    3  501    0 -0.24831249474E+03  0.19251254603E+03  0.27201133381E+03  0.41558433699E+03  0.00000000000E+00 0.  1.
         13    1    4    4    0    0 -0.66650290115E+03  0.51034151322E+02  0.17989901474E+03  0.69223859219E+03  0.10566000000E+00 0. -1.
         -4    1    4    4    0  502  0.32128744670E+03  0.30406051172E+03  0.19268680363E+02  0.44277499956E+03  0.00000000000E+00 0. -1.
<mgrwt>
<rscale>  2 0.11210486E+04</rscale>
<asrwt>0</asrwt>
<pdfrwt beam="1">  1       21 0.30092165E+00 0.11222667E+04</pdfrwt>
<pdfrwt beam="2">  1       21 0.10957185E+00 0.11222667E+04</pdfrwt>
<totfact> 0.79926613E+00</totfact>
</mgrwt>
</event>
<event>
 8    1  0.7631533E-006  0.1017382E+04  0.7818608E-02  0.8769818E-01
         21   -1    0    0  503  502  0.00000000000E+00  0.00000000000E+00  0.30721058975E+04  0.30721058975E+04  0.00000000000E+00 0.  1.
         21   -1    0    0  501  503 -0.00000000000E+00 -0.00000000000E+00 -0.33619565874E+03  0.33619565874E+03  0.00000000000E+00 0.  1.
    9000010    2    1    2  501    0 -0.57494616838E+02 -0.46096208249E+02  0.16968375642E+04  0.19540877183E+04  0.96631806376E+03 0.  0.
   -9000010    2    1    2    0  502  0.57494616838E+02  0.46096208249E+02  0.10390726746E+04  0.14542138379E+04  0.10147095013E+04 0.  0.
        -13    1    3    3    0    0  0.13319346526E+03  0.32757210467E+03  0.13901683333E+04  0.14344378652E+04  0.10566000000E+00 0.  1.
          4    1    3    3  501    0 -0.19068808209E+03 -0.37366831292E+03  0.30666923088E+03  0.51964985317E+03  0.00000000000E+00 0.  1.
         13    1    4    4    0    0  0.92229511945E+02 -0.39035184011E+02  0.12343327329E+04  0.12383890080E+04  0.10566000000E+00 0. -1.
         -4    1    4    4    0  502 -0.34734895107E+02  0.85131392260E+02 -0.19526005825E+03  0.21582482997E+03  0.00000000000E+00 0. -1.
<mgrwt>
<rscale>  2 0.10050966E+04</rscale>
<asrwt>0</asrwt>
<pdfrwt beam="1">  1       21 0.47263166E+00 0.10173819E+04</pdfrwt>
<pdfrwt beam="2">  1       21 0.51722411E-01 0.10173819E+04</pdfrwt>
<totfact> 0.32179294E+00</totfact>
</mgrwt>
</event>
<event>
 8    1  0.7631533E-006  0.1187191E+04  0.7818608E-02  0.8632629E-01
         21   -1    0    0  501  502  0.00000000000E+00  0.00000000000E+00  0.15593901674E+04  0.15593901674E+04  0.00000000000E+00 0. -1.
         21   -1    0    0  502  503 -0.00000000000E+00 -0.00000000000E+00 -0.87347239745E+03  0.87347239745E+03  0.00000000000E+00 0. -1.
    9000010    2    1    2  501    0  0.32529374222E+02 -0.52919282009E+03  0.12428305013E+03  0.11936784055E+04  0.10622234502E+04 0.  0.
   -9000010    2    1    2    0  503 -0.32529374222E+02  0.52919282009E+03  0.56163471980E+03  0.12391841594E+04  0.96904108339E+03 0.  0.
        -13    1    3    3    0    0  0.11197062569E+03 -0.75691021945E+03 -0.19875567695E+03  0.79054053129E+03  0.10566000000E+00 0.  1.
          4    1    3    3  501    0 -0.79441251463E+02  0.22771739936E+03  0.32303872708E+03  0.40313787419E+03  0.00000000000E+00 0.  1.
         13    1    4    4    0    0  0.10599271890E+03 -0.22185219504E+03  0.38255932430E+03  0.45475762850E+03  0.10566000000E+00 0. -1.
         -4    1    4    4    0  503 -0.13852209312E+03  0.75104501513E+03  0.17907539549E+03  0.78442653086E+03  0.00000000000E+00 0. -1.
<mgrwt>
<rscale>  2 0.11659818E+04</rscale>
<asrwt>0</asrwt>
<pdfrwt beam="1">  1       21 0.23990618E+00 0.11871907E+04</pdfrwt>
<pdfrwt beam="2">  1       21 0.13438037E+00 0.11871907E+04</pdfrwt>
<totfact> 0.12174428E+01</totfact>
</mgrwt>
</event>
<event>
 8    1  0.7631533E-006  0.1050624E+04  0.7818608E-02  0.8728982E-01
         21   -1    0    0  503  502  0.00000000000E+00  0.00000000000E+00  0.53352858220E+03  0.53352858220E+03  0.00000000000E+00 0. -1.
         21   -1    0    0  501  503 -0.00000000000E+00 -0.00000000000E+00 -0.22328304938E+04  0.22328304938E+04  0.00000000000E+00 0. -1.
    9000010    2    1    2  501    0 -0.11292755610E+03 -0.28765097580E+03 -0.12291037262E+04  0.16153169330E+04  0.10015273873E+04 0.  0.
   -9000010    2    1    2    0  502  0.11292755610E+03  0.28765097580E+03 -0.47019818543E+03  0.11510421430E+04  0.10041493737E+04 0.  0.
        -13    1    3    3    0    0 -0.46041037085E+03 -0.28323859398E+03 -0.28883327171E+03  0.61288374159E+03  0.10566000000E+00 0.  1.
          4    1    3    3  501    0  0.34748281474E+03 -0.44123818213E+01 -0.94027045446E+03  0.10024331914E+04  0.00000000000E+00 0.  1.
         13    1    4    4    0    0 -0.19874256947E+03  0.43577162707E+03 -0.61271078738E+03  0.77769533881E+03  0.10566000000E+00 0. -1.
         -4    1    4    4    0  502  0.31167012557E+03 -0.14812065127E+03  0.14251260195E+03  0.37334680422E+03  0.00000000000E+00 0. -1.
<mgrwt>
<rscale>  2 0.10499974E+04</rscale>
<asrwt>0</asrwt>
<pdfrwt beam="1">  1       21 0.82081321E-01 0.10506244E+04</pdfrwt>
<pdfrwt beam="2">  1       21 0.34351238E+00 0.10506244E+04</pdfrwt>
<totfact> 0.86035443E+00</totfact>
</mgrwt>
</event>
<event>
 8    1  0.7631533E-006  0.1096440E+04  0.7818608E-02  0.8714198E-01
         21   -1    0    0  503  502  0.00000000000E+00  0.00000000000E+00  0.13993901168E+04  0.13993901168E+04  0.00000000000E+00 0. -1.
         21   -1    0    0  501  503 -0.00000000000E+00 -0.00000000000E+00 -0.78442117990E+03  0.78442117990E+03  0.00000000000E+00 0. -1.
    9000010    2    1    2  501    0 -0.18843965282E+03  0.40951203328E+03  0.18864536661E+03  0.11125503146E+04  0.99948562773E+03 0.  0.
   -9000010    2    1    2    0  502  0.18843965282E+03 -0.40951203328E+03  0.42632357033E+03  0.10712609821E+04  0.87329187391E+03 0.  0.
        -13    1    3    3    0    0 -0.40796663766E+03  0.35583030459E+03  0.49386393746E+03  0.73277116687E+03  0.10566000000E+00 0.  1.
          4    1    3    3  501    0  0.21952698484E+03  0.53681728685E+02 -0.30521857085E+03  0.37977914774E+03  0.00000000000E+00 0.  1.
         13    1    4    4    0    0  0.10322533677E+03  0.23491230021E+03 -0.55005463174E+02  0.26242117118E+03  0.10566000000E+00 0. -1.
         -4    1    4    4    0  502  0.85214316050E+02 -0.64442433349E+03  0.48132903351E+03  0.80883981094E+03  0.00000000000E+00 0. -1.
<mgrwt>
<rscale>  2 0.10668475E+04</rscale>
<asrwt>0</asrwt>
<pdfrwt beam="1">  1       21 0.21529079E+00 0.10964402E+04</pdfrwt>
<pdfrwt beam="2">  1       21 0.12068018E+00 0.10964402E+04</pdfrwt>
<totfact> 0.25794317E+01</totfact>
</mgrwt>
</event>
<event>
 8    1  0.7631533E-006  0.1153448E+04  0.7818608E-02  0.8653036E-01
         21   -1    0    0  503  502  0.00000000000E+00  0.00000000000E+00  0.18853232126E+04  0.18853232126E+04  0.00000000000E+00 0. -1.
         21   -1    0    0  501  503 -0.00000000000E+00 -0.00000000000E+00 -0.69695506657E+03  0.69695506657E+03  0.00000000000E+00 0. -1.
    9000010    2    1    2  501    0 -0.54574821227E+03 -0.22235123601E+02  0.84128432344E+03  0.14276559365E+04  0.10159264975E+04 0.  0.
   -9000010    2    1    2    0  502  0.54574821227E+03  0.22235123601E+02  0.34708382262E+03  0.11546223427E+04  0.95621653530E+03 0.  0.
        -13    1    3    3    0    0 -0.40242417142E+03  0.86343307358E+02 -0.13638364220E+03  0.43359069350E+03  0.10566000000E+00 0.  1.
          4    1    3    3  501    0 -0.14332404085E+03 -0.10857843096E+03  0.97766796564E+03  0.99406524302E+03  0.00000000000E+00 0.  1.
         13    1    4    4    0    0  0.80279456890E+03  0.17700362529E+02  0.12058634742E+03  0.81199353510E+03  0.10566000000E+00 0. -1.
         -4    1    4    4    0  502 -0.25704635663E+03  0.45347610719E+01  0.22649747519E+03  0.34262880758E+03  0.00000000000E+00 0. -1.
<mgrwt>
<rscale>  2 0.11401632E+04</rscale>
<asrwt>0</asrwt>
<pdfrwt beam="1">  1       21 0.29004972E+00 0.11534479E+04</pdfrwt>
<pdfrwt beam="2">  1       21 0.10722386E+00 0.11534479E+04</pdfrwt>
<totfact> 0.10052605E+01</totfact>
</mgrwt>
</event>
<event>
 8    1  0.7631533E-006  0.1051010E+04  0.7818608E-02  0.8745663E-01
         21   -1    0    0  501  502  0.00000000000E+00  0.00000000000E+00  0.87371608237E+03  0.87371608237E+03  0.00000000000E+00 0. -1.
         21   -1    0    0  502  503 -0.00000000000E+00 -0.00000000000E+00 -0.13406389069E+04  0.13406389069E+04  0.00000000000E+00 0. -1.
    9000010    2    1    2  501    0  0.24594746915E+02 -0.31628934424E+03  0.16427639769E+03  0.98837221461E+03  0.92154709534E+03 0.  0.
   -9000010    2    1    2    0  503 -0.24594746915E+02  0.31628934424E+03 -0.63119922223E+03  0.12259827747E+04  0.10019867538E+04 0.  0.
        -13    1    3    3    0    0  0.42220632026E+03  0.59596984759E+02  0.94957943035E+02  0.43683749790E+03  0.10566000000E+00 0.  1.
          4    1    3    3  501    0 -0.39761157335E+03 -0.37588632900E+03  0.69318454658E+02  0.55153471672E+03  0.00000000000E+00 0.  1.
         13    1    4    4    0    0  0.36526668882E+03 -0.93805954880E+02  0.15667525591E+01  0.37712302636E+03  0.10566000000E+00 0. -1.
         -4    1    4    4    0  503 -0.38986143574E+03  0.41009529912E+03 -0.63276597479E+03  0.84885974830E+03  0.00000000000E+00 0. -1.
<mgrwt>
<rscale>  2 0.10313697E+04</rscale>
<asrwt>0</asrwt>
<pdfrwt beam="1">  1       21 0.13441786E+00 0.10510097E+04</pdfrwt>
<pdfrwt beam="2">  1       21 0.20625214E+00 0.10510097E+04</pdfrwt>
<totfact> 0.22426916E+01</totfact>
</mgrwt>
</event>
<event>
 8    1  0.7631533E-006  0.1107663E+04  0.7818608E-02  0.8682766E-01
         21   -1    0    0  501  502  0.00000000000E+00  0.00000000000E+00  0.16723609782E+04  0.16723609782E+04  0.00000000000E+00 0. -1.
         21   -1    0    0  502  503 -0.00000000000E+00 -0.00000000000E+00 -0.11097336800E+04  0.11097336800E+04  0.00000000000E+00 0. -1.
    9000010    2    1    2  501    0  0.27984880914E+03 -0.33790406505E+03  0.11007100053E+04  0.15506520141E+04  0.10002322930E+04 0.  0.
   -9000010    2    1    2    0  503 -0.27984880914E+03  0.33790406505E+03 -0.53808270712E+03  0.12314426440E+04  0.10170661103E+04 0.  0.
        -13    1    3    3    0    0 -0.21803231829E+03  0.14114564852E+03  0.71199246318E+03  0.75788750136E+03  0.10566000000E+00 0.  1.
          4    1    3    3  501    0  0.49788112742E+03 -0.47904971357E+03  0.38871754215E+03  0.79276451276E+03  0.00000000000E+00 0.  1.
         13    1    4    4    0    0  0.26129474396E+03  0.38620383440E+03  0.69859020998E+00  0.46629265930E+03  0.10566000000E+00 0. -1.
         -4    1    4    4    0  503 -0.54114355310E+03 -0.48299769347E+02 -0.53878129733E+03  0.76514998473E+03  0.00000000000E+00 0. -1.
<mgrwt>
<rscale>  2 0.11037838E+04</rscale>
<asrwt>0</asrwt>
<pdfrwt beam="1">  1       21 0.25728631E+00 0.11076633E+04</pdfrwt>
<pdfrwt beam="2">  1       21 0.17072826E+00 0.11076633E+04</pdfrwt>
<totfact> 0.43995518E+00</totfact>
</mgrwt>
</event>
<event>
 8    1  0.7631533E-006  0.1029771E+04  0.7818608E-02  0.8750529E-01
         21   -1    0    0  503  502  0.00000000000E+00  0.00000000000E+00  0.10963591458E+04  0.10963591458E+04  0.00000000000E+00 0. -1.
         21   -1    0    0  501  503 -0.00000000000E+00 -0.00000000000E+00 -0.96823291817E+03  0.96823291817E+03  0.00000000000E+00 0. -1.
    9000010    2    1    2  501    0  0.10534892165E+02 -0.14172734348E+03  0.19210675338E+03  0.10328355717E+04  0.10048117683E+04 0.  0.
   -9000010    2    1    2    0  502 -0.10534892165E+02  0.14172734348E+03 -0.63980525760E+02  0.10317564922E+04  0.10199168239E+04 0.  0.
        -13    1    3    3    0    0  0.41247726629E+03  0.19632503723E+03 -0.40136536945E+02  0.45857602228E+03  0.10566000000E+00 0.  1.
          4    1    3    3  501    0 -0.40194237413E+03 -0.33805238071E+03  0.23224329032E+03  0.57425954944E+03  0.00000000000E+00 0.  1.
         13    1    4    4    0    0  0.42860400710E+03 -0.25544157301E+02  0.22025679898E+03  0.48256291562E+03  0.10566000000E+00 0. -1.
         -4    1    4    4    0  502 -0.43913889926E+03  0.16727150078E+03 -0.28423732474E+03  0.54919357661E+03  0.00000000000E+00 0. -1.
<mgrwt>
<rscale>  2 0.10260107E+04</rscale>
<asrwt>0</asrwt>
<pdfrwt beam="1">  1       21 0.16867064E+00 0.10297708E+04</pdfrwt>
<pdfrwt beam="2">  1       21 0.14895891E+00 0.10297708E+04</pdfrwt>
<totfact> 0.33183853E+01</totfact>
</mgrwt>
</event>
<event>
 8    1  0.7631533E-006  0.1063266E+04  0.7818608E-02  0.8721531E-01
         21   -1    0    0  503  502  0.00000000000E+00  0.00000000000E+00  0.26330753160E+04  0.26330753160E+04  0.00000000000E+00 0. -1.
         21   -1    0    0  501  503 -0.00000000000E+00 -0.00000000000E+00 -0.42260128312E+03  0.42260128312E+03  0.00000000000E+00 0. -1.
    9000010    2    1    2  501    0 -0.29415053471E+03  0.93938593726E+02  0.10233397284E+04  0.14619948435E+04  0.99742454663E+03 0.  0.
   -9000010    2    1    2    0  502  0.29415053471E+03 -0.93938593726E+02  0.11871343045E+04  0.15936817557E+04  0.10174402611E+04 0.  0.
        -13    1    3    3    0    0 -0.62580193596E+03  0.25280641314E+03  0.62514694299E+03  0.91997166101E+03  0.10566000000E+00 0.  1.
          4    1    3    3  501    0  0.33165140124E+03 -0.15886781942E+03  0.39819278538E+03  0.54202318246E+03  0.00000000000E+00 0.  1.
         13    1    4    4    0    0  0.19472852818E+03  0.26886473513E+03 -0.16746001086E+02  0.33239717989E+03  0.10566000000E+00 0. -1.
         -4    1    4    4    0  502  0.99422006533E+02 -0.36280332886E+03  0.12038803056E+04  0.12612845758E+04  0.00000000000E+00 0. -1.
<mgrwt>
<rscale>  2 0.10584487E+04</rscale>
<asrwt>0</asrwt>
<pdfrwt beam="1">  1       21 0.40508850E+00 0.10632656E+04</pdfrwt>
<pdfrwt beam="2">  1       21 0.65015583E-01 0.10632656E+04</pdfrwt>
<totfact> 0.55576666E+00</totfact>
</mgrwt>
</event>
<event>
 8    1  0.7631533E-006  0.1020049E+04  0.7818608E-02  0.8758028E-01
         21   -1    0    0  503  502  0.00000000000E+00  0.00000000000E+00  0.45498341171E+03  0.45498341171E+03  0.00000000000E+00 0.  1.
         21   -1    0    0  501  503 -0.00000000000E+00 -0.00000000000E+00 -0.24204010869E+04  0.24204010869E+04  0.00000000000E+00 0.  1.
    9000010    2    1    2  501    0 -0.46251470853E+02 -0.12321558939E+03 -0.13486726408E+04  0.16909813094E+04  0.10115229195E+04 0.  0.
   -9000010    2    1    2    0  502  0.46251470853E+02  0.12321558939E+03 -0.61674503435E+03  0.11844031892E+04  0.10025543362E+04 0.  0.
        -13    1    3    3    0    0 -0.28910568642E+03 -0.17064408216E+03 -0.13987928519E+04  0.14385141482E+04  0.10566000000E+00 0.  1.
          4    1    3    3  501    0  0.24285421556E+03  0.47428492763E+02  0.50120211119E+02  0.25246716124E+03  0.00000000000E+00 0.  1.
         13    1    4    4    0    0  0.48614200410E+03  0.21831429712E+03 -0.19454221215E+03  0.56731108217E+03  0.10566000000E+00 0. -1.
         -4    1    4    4    0  502 -0.43989053325E+03 -0.95098707731E+02 -0.42220282220E+03  0.61709210700E+03  0.00000000000E+00 0. -1.
<mgrwt>
<rscale>  2 0.10178184E+04</rscale>
<asrwt>0</asrwt>
<pdfrwt beam="1">  1       21 0.69997448E-01 0.10200490E+04</pdfrwt>
<pdfrwt beam="2">  1       21 0.37236940E+00 0.10200490E+04</pdfrwt>
<totfact> 0.79785685E+00</totfact>
</mgrwt>
</event>
<event>
 8    1  0.7631533E-006  0.1022436E+04  0.7818608E-02  0.8754773E-01
         21   -1    0    0  501  502  0.00000000000E+00  0.00000000000E+00  0.36311845024E+04  0.36311845024E+04  0.00000000000E+00 0. -1.
         21   -1    0    0  502  503 -0.00000000000E+00 -0.00000000000E+00 -0.42680183747E+03  0.42680183747E+03  0.00000000000E+00 0. -1.
    9000010    2    1    2  501    0 -0.18693274862E+03 -0.28093611445E+02  0.27624862221E+04  0.29441427451E+04  0.10004565320E+04 0.  0.
   -9000010    2    1    2    0  503  0.18693274862E+03  0.28093611445E+02  0.44189644279E+03  0.11138435948E+04  0.10048094267E+04 0.  0.
        -13    1    3    3    0    0 -0.15631833835E+03  0.41399279338E+03  0.65436643689E+03  0.78994993561E+03  0.10566000000E+00 0.  1.
          4    1    3    3  501    0 -0.30614410275E+02 -0.44208640483E+03  0.21081197852E+04  0.21541928094E+04  0.00000000000E+00 0.  1.
         13    1    4    4    0    0  0.26116494174E+03 -0.16777510167E+03  0.70925211148E+03  0.77420551557E+03  0.10566000000E+00 0. -1.
         -4    1    4    4    0  503 -0.74232193113E+02  0.19586871311E+03 -0.26735566869E+03  0.33963807921E+03  0.00000000000E+00 0. -1.
<mgrwt>
<rscale>  2 0.10213648E+04</rscale>
<asrwt>0</asrwt>
<pdfrwt beam="1">  1       21 0.55864375E+00 0.10224359E+04</pdfrwt>
<pdfrwt beam="2">  1       21 0.65661823E-01 0.10224359E+04</pdfrwt>
<totfact> 0.45968009E-01</totfact>
</mgrwt>
</event>
<event>
 8    1  0.7631533E-006  0.1030459E+04  0.7818608E-02  0.8746516E-01
         21   -1    0    0  503  502  0.00000000000E+00  0.00000000000E+00  0.67186669096E+03  0.67186669096E+03  0.00000000000E+00 0. -1.
         21   -1    0    0  501  503 -0.00000000000E+00 -0.00000000000E+00 -0.20842859175E+04  0.20842859175E+04  0.00000000000E+00 0. -1.
    9000010    2    1    2  501    0  0.26988905845E+03 -0.16082856388E+02 -0.13839201960E+04  0.17254216929E+04  0.99435715276E+03 0.  0.
   -9000010    2    1    2    0  502 -0.26988905845E+03  0.16082856388E+02 -0.28499030580E+02  0.10307309156E+04  0.99423099104E+03 0.  0.
        -13    1    3    3    0    0  0.57433774097E+03  0.24947985776E+03 -0.82145643725E+03  0.10329059636E+04  0.10566000000E+00 0.  1.
          4    1    3    3  501    0 -0.30444868252E+03 -0.26556271415E+03 -0.56246375874E+03  0.69251572930E+03  0.00000000000E+00 0.  1.
         13    1    4    4    0    0 -0.50628032928E+03  0.33829844952E+03  0.86177354017E+02  0.61497330046E+03  0.10566000000E+00 0. -1.
         -4    1    4    4    0  502  0.23639127083E+03 -0.32221559313E+03 -0.11467638460E+03  0.41575761516E+03  0.00000000000E+00 0. -1.
<mgrwt>
<rscale>  2 0.10304282E+04</rscale>
<asrwt>0</asrwt>
<pdfrwt beam="1">  1       21 0.10336411E+00 0.10304586E+04</pdfrwt>
<pdfrwt beam="2">  1       21 0.32065937E+00 0.10304586E+04</pdfrwt>
<totfact> 0.69261476E+00</totfact>
</mgrwt>
</event>
<event>
 8    1  0.7631533E-006  0.1072935E+04  0.7818608E-02  0.8715371E-01
         21   -1    0    0  501  502  0.00000000000E+00  0.00000000000E+00  0.20876115217E+04  0.20876115217E+04  0.00000000000E+00 0.  1.
         21   -1    0    0  502  503 -0.00000000000E+00 -0.00000000000E+00 -0.55477609901E+03  0.55477609901E+03  0.00000000000E+00 0.  1.
    9000010    2    1    2  501    0 -0.25058107235E+03 -0.20830213250E+03  0.10170822003E+04  0.14783933083E+04  0.10222572668E+04 0.  0.
   -9000010    2    1    2    0  503  0.25058107235E+03  0.20830213250E+03  0.51575322233E+03  0.11639943124E+04  0.99131262516E+03 0.  0.
        -13    1    3    3    0    0 -0.59199810178E+03 -0.36465195758E+03  0.70422518145E+03  0.98962918309E+03  0.10566000000E+00 0.  1.
          4    1    3    3  501    0  0.34141702944E+03  0.15634982508E+03  0.31285701889E+03  0.48876412518E+03  0.00000000000E+00 0.  1.
         13    1    4    4    0    0  0.23825545032E+02  0.59437643685E+03  0.31813496444E+03  0.67458199801E+03  0.10566000000E+00 0. -1.
         -4    1    4    4    0  503  0.22675552731E+03 -0.38607430435E+03  0.19761825789E+03  0.48941231442E+03  0.00000000000E+00 0. -1.
<mgrwt>
<rscale>  2 0.10654983E+04</rscale>
<asrwt>0</asrwt>
<pdfrwt beam="1">  1       21 0.32117100E+00 0.10729355E+04</pdfrwt>
<pdfrwt beam="2">  1       21 0.85350170E-01 0.10729355E+04</pdfrwt>
<totfact> 0.11146352E+01</totfact>
</mgrwt>
</event>
<event>
 8    1  0.7631533E-006  0.1017513E+04  0.7818608E-02  0.8790802E-01
         21   -1    0    0  501  502  0.00000000000E+00  0.00000000000E+00  0.10566674442E+04  0.10566674442E+04  0.00000000000E+00 0. -1.
         21   -1    0    0  502  503 -0.00000000000E+00 -0.00000000000E+00 -0.86110974488E+03  0.86110974488E+03  0.00000000000E+00 0. -1.
    9000010    2    1    2  501    0  0.82260689864E+02  0.43742201452E+02  0.40990949580E+02  0.10183383689E+04  0.10132386561E+04 0.  0.
   -9000010    2    1    2    0  503 -0.82260689864E+02 -0.43742201452E+02  0.15456674972E+03  0.89943882020E+03  0.88114647470E+03 0.  0.
        -13    1    3    3    0    0  0.43076152284E+03 -0.14174415888E+03  0.30220694823E+03  0.54495499526E+03  0.10566000000E+00 0.  1.
          4    1    3    3  501    0 -0.34850083297E+03  0.18548636033E+03 -0.26121599865E+03  0.47338337361E+03  0.00000000000E+00 0.  1.
         13    1    4    4    0    0  0.34602868526E+03 -0.97322669282E+02 -0.13023174253E+03  0.38231906950E+03  0.10566000000E+00 0. -1.
         -4    1    4    4    0  503 -0.42828937512E+03  0.53580467831E+02  0.28479849225E+03  0.51711975070E+03  0.00000000000E+00 0. -1.
<mgrwt>
<rscale>  2 0.98292541E+03</rscale>
<asrwt>0</asrwt>
<pdfrwt beam="1">  1       21 0.16256422E+00 0.10175130E+04</pdfrwt>
<pdfrwt beam="2">  1       21 0.13247842E+00 0.10175130E+04</pdfrwt>
<totfact> 0.53214431E+01</totfact>
</mgrwt>
</event>
<event>
 8    1  0.7631533E-006  0.1014777E+04  0.7818608E-02  0.8766687E-01
         21   -1    0    0  503  502  0.00000000000E+00  0.00000000000E+00  0.20775845420E+04  0.20775845420E+04  0.00000000000E+00 0.  1.
         21   -1    0    0  501  503 -0.00000000000E+00 -0.00000000000E+00 -0.52872031602E+03  0.52872031602E+03  0.00000000000E+00 0.  1.
    9000010    2    1    2  501    0  0.15742337624E+03  0.11403654142E+03  0.40219584421E+03  0.10915740497E+04  0.99598491795E+03 0.  0.
   -9000010    2    1    2    0  502 -0.15742337624E+03 -0.11403654142E+03  0.11466683818E+04  0.15147308083E+04  0.97045071575E+03 0.  0.
        -13    1    3    3    0    0 -0.39864439385E+03 -0.96365593238E+02  0.89351979579E+02  0.41974690913E+03  0.10566000000E+00 0.  1.
          4    1    3    3  501    0  0.55606777010E+03  0.21040213466E+03  0.31284386463E+03  0.67182714060E+03  0.00000000000E+00 0.  1.
         13    1    4    4    0    0 -0.29248664009E+03 -0.39066050815E+03  0.21455824214E+03  0.53310347748E+03  0.10566000000E+00 0. -1.
         -4    1    4    4    0  502  0.13506326385E+03  0.27662396673E+03  0.93211013966E+03  0.98162733085E+03  0.00000000000E+00 0. -1.
<mgrwt>
<rscale>  2 0.10084559E+04</rscale>
<asrwt>0</asrwt>
<pdfrwt beam="1">  1       21 0.31962839E+00 0.10147770E+04</pdfrwt>
<pdfrwt beam="2">  1       21 0.81341588E-01 0.10147770E+04</pdfrwt>
<totfact> 0.13049935E+01</totfact>
</mgrwt>
</event>
<event>
 8    1  0.7631533E-006  0.1013048E+04  0.7818608E-02  0.8763228E-01
         21   -1    0    0  503  502  0.00000000000E+00  0.00000000000E+00  0.16828566436E+04  0.16828566436E+04  0.00000000000E+00 0. -1.
         21   -1    0    0  501  503 -0.00000000000E+00 -0.00000000000E+00 -0.66628803130E+03  0.66628803130E+03  0.00000000000E+00 0. -1.
    9000010    2    1    2  501    0  0.40805865630E+02  0.12940684691E+03  0.15936987332E+03  0.10220969631E+04  0.10004360023E+04 0.  0.
   -9000010    2    1    2    0  502 -0.40805865630E+02 -0.12940684691E+03  0.85719873898E+03  0.13270477118E+04  0.10039196684E+04 0.  0.
        -13    1    3    3    0    0 -0.47898196929E+03  0.76522759833E+02  0.10941143488E+03  0.49724273039E+03  0.10566000000E+00 0.  1.
          4    1    3    3  501    0  0.51978783492E+03  0.52884087078E+02  0.49958438444E+02  0.52485423269E+03  0.00000000000E+00 0.  1.
         13    1    4    4    0    0 -0.52240446696E+03 -0.77089407905E+02  0.42512501463E+03  0.67792366320E+03  0.10566000000E+00 0. -1.
         -4    1    4    4    0  502  0.48159860133E+03 -0.52317439006E+02  0.43207372435E+03  0.64912404862E+03  0.00000000000E+00 0. -1.
<mgrwt>
<rscale>  2 0.10121837E+04</rscale>
<asrwt>0</asrwt>
<pdfrwt beam="1">  1       21 0.25890102E+00 0.10130479E+04</pdfrwt>
<pdfrwt beam="2">  1       21 0.10250585E+00 0.10130479E+04</pdfrwt>
<totfact> 0.19515010E+01</totfact>
</mgrwt>
</event>
<event>
 8    1  0.7631533E-006  0.1027761E+04  0.7818608E-02  0.8752737E-01
         21   -1    0    0  503  502  0.00000000000E+00  0.00000000000E+00  0.13332160878E+04  0.13332160878E+04  0.00000000000E+00 0.  1.
         21   -1    0    0  501  503 -0.00000000000E+00 -0.00000000000E+00 -0.79321336321E+03  0.79321336321E+03  0.00000000000E+00 0.  1.
    9000010    2    1    2  501    0  0.98569095700E+00 -0.11304524496E+03  0.41165731605E+03  0.11071376444E+04  0.10215242624E+04 0.  0.
   -9000010    2    1    2    0  502 -0.98569095700E+00  0.11304524496E+03  0.12834540852E+03  0.10192918066E+04  0.10048398102E+04 0.  0.
        -13    1    3    3    0    0  0.42310429772E+03 -0.26768594879E+03  0.42596398883E+03  0.65735709083E+03  0.10566000000E+00 0.  1.
          4    1    3    3  501    0 -0.42211860676E+03  0.15464070383E+03 -0.14306672782E+02  0.44978055354E+03  0.00000000000E+00 0.  1.
         13    1    4    4    0    0 -0.13059114040E+03 -0.35995077793E+03  0.31370132972E+03  0.49500216557E+03  0.10566000000E+00 0. -1.
         -4    1    4    4    0  502  0.12960544944E+03  0.47299602289E+03 -0.18535592120E+03  0.52428964105E+03  0.00000000000E+00 0. -1.
<mgrwt>
<rscale>  2 0.10235900E+04</rscale>
<asrwt>0</asrwt>
<pdfrwt beam="1">  1       21 0.20511017E+00 0.10277607E+04</pdfrwt>
<pdfrwt beam="2">  1       21 0.12203283E+00 0.10277607E+04</pdfrwt>
<totfact> 0.30365937E+01</totfact>
</mgrwt>
</event>
<event>
 8    1  0.7631533E-006  0.1031984E+04  0.7818608E-02  0.8748628E-01
         21   -1    0    0  503  502  0.00000000000E+00  0.00000000000E+00  0.58444163910E+03  0.58444163910E+03  0.00000000000E+00 0. -1.
         21   -1    0    0  501  503 -0.00000000000E+00 -0.00000000000E+00 -0.22009659496E+04  0.22009659496E+04  0.00000000000E+00 0. -1.
    9000010    2    1    2  501    0  0.96107689810E+02 -0.22037304785E+03 -0.14013627427E+04  0.17312325894E+04  0.98769822003E+03 0.  0.
   -9000010    2    1    2    0  502 -0.96107689810E+02  0.22037304785E+03 -0.21516156787E+03  0.10541749993E+04  0.10035882924E+04 0.  0.
        -13    1    3    3    0    0 -0.63292332651E+02  0.38464580008E+03 -0.49993943833E+03  0.63395407093E+03  0.10566000000E+00 0.  1.
          4    1    3    3  501    0  0.15940002246E+03 -0.60501884793E+03 -0.90142330433E+03  0.10972785185E+04  0.00000000000E+00 0.  1.
         13    1    4    4    0    0  0.42043249792E+03  0.21760449999E+03 -0.25202594931E+03  0.53631361535E+03  0.10566000000E+00 0. -1.
         -4    1    4    4    0  502 -0.51654018773E+03  0.27685478621E+01  0.36864381435E+02  0.51786138397E+03  0.00000000000E+00 0. -1.
<mgrwt>
<rscale>  2 0.10281003E+04</rscale>
<asrwt>0</asrwt>
<pdfrwt beam="1">  1       21 0.89914098E-01 0.10319837E+04</pdfrwt>
<pdfrwt beam="2">  1       21 0.33861015E+00 0.10319837E+04</pdfrwt>
<totfact> 0.74268948E+00</totfact>
</mgrwt>
</event>
<event>
 8    1  0.7631533E-006  0.1040743E+04  0.7818608E-02  0.8743522E-01
         21   -1    0    0  501  502  0.00000000000E+00  0.00000000000E+00  0.15617965939E+04  0.15617965939E+04  0.00000000000E+00 0.  1.
         21   -1    0    0  502  503 -0.00000000000E+00 -0.00000000000E+00 -0.69184893806E+03  0.69184893806E+03  0.00000000000E+00 0.  1.
    9000010    2    1    2  501    0 -0.14220622496E+02  0.25032829925E+03  0.61568012326E+03  0.12092183085E+04  0.10100893129E+04 0.  0.
   -9000010    2    1    2    0  503  0.14220622496E+02 -0.25032829925E+03  0.25426753254E+03  0.10444272234E+04  0.98148345034E+03 0.  0.
        -13    1    3    3    0    0  0.36923438846E+02  0.27551529382E+03  0.88826000702E+03  0.93074049482E+03  0.10566000000E+00 0.  1.
          4    1    3    3  501    0 -0.51144061342E+02 -0.25186994564E+02 -0.27257988376E+03  0.27847781372E+03  0.00000000000E+00 0.  1.
         13    1    4    4    0    0 -0.10126318683E+03  0.30699780105E+03 -0.13975384558E+03  0.35218323551E+03  0.10566000000E+00 0. -1.
         -4    1    4    4    0  503  0.11548380933E+03 -0.55732610030E+03  0.39402137813E+03  0.69224398785E+03  0.00000000000E+00 0. -1.
<mgrwt>
<rscale>  2 0.10337381E+04</rscale>
<asrwt>0</asrwt>
<pdfrwt beam="1">  1       21 0.24027640E+00 0.10407434E+04</pdfrwt>
<pdfrwt beam="2">  1       21 0.10643830E+00 0.10407434E+04</pdfrwt>
<totfact> 0.23973992E+01</totfact>
</mgrwt>
</event>
<event>
 8    1  0.7631533E-006  0.1162429E+04  0.7818608E-02  0.8677194E-01
         21   -1    0    0  503  502  0.00000000000E+00  0.00000000000E+00  0.14559482995E+04  0.14559482995E+04  0.00000000000E+00 0. -1.
         21   -1    0    0  501  503 -0.00000000000E+00 -0.00000000000E+00 -0.89250201776E+03  0.89250201776E+03  0.00000000000E+00 0.  1.
    9000010    2    1    2  501    0 -0.28915522257E+03 -0.48600531549E+03 -0.11216987493E+03  0.11678286844E+04  0.10155933467E+04 0.  0.
   -9000010    2    1    2    0  502  0.28915522257E+03  0.48600531549E+03  0.67561615662E+03  0.11806216328E+04  0.78587425161E+03 0.  0.
        -13    1    3    3    0    0  0.31877939116E+02 -0.60072464336E+03 -0.39936582667E+03  0.72206604602E+03  0.10566000000E+00 0.  1.
          4    1    3    3  501    0 -0.32103316168E+03  0.11471932787E+03  0.28719595174E+03  0.44576263839E+03  0.00000000000E+00 0.  1.
         13    1    4    4    0    0  0.55863195594E+03  0.26034854409E+03  0.41389037999E+03  0.74239900621E+03  0.10566000000E+00 0. -1.
         -4    1    4    4    0  502 -0.26947673338E+03  0.22565677140E+03  0.26172577663E+03  0.43822262660E+03  0.00000000000E+00 0. -1.
<mgrwt>
<rscale>  2 0.11104937E+04</rscale>
<asrwt>0</asrwt>
<pdfrwt beam="1">  1       21 0.22399205E+00 0.11624292E+04</pdfrwt>
<pdfrwt beam="2">  1       21 0.13730800E+00 0.11624292E+04</pdfrwt>
<totfact> 0.15073588E+01</totfact>
</mgrwt>
</event>
<event>
 8    1  0.7631533E-006  0.1047682E+04  0.7818608E-02  0.8732083E-01
         21   -1    0    0  503  502  0.00000000000E+00  0.00000000000E+00  0.54055508378E+03  0.54055508378E+03  0.00000000000E+00 0.  1.
         21   -1    0    0  501  503 -0.00000000000E+00 -0.00000000000E+00 -0.22024382750E+04  0.22024382750E+04  0.00000000000E+00 0.  1.
    9000010    2    1    2  501    0 -0.26788924820E+03 -0.12911276137E+03 -0.12223662201E+04  0.16068535267E+04  0.99968211242E+03 0.  0.
   -9000010    2    1    2    0  502  0.26788924820E+03  0.12911276137E+03 -0.43951697113E+03  0.11361398320E+04  0.10045913575E+04 0.  0.
        -13    1    3    3    0    0 -0.58521363316E+03 -0.32543077880E+03 -0.80074470239E+03  0.10438257890E+04  0.10566000000E+00 0.  1.
          4    1    3    3  501    0  0.31732438496E+03  0.19631801743E+03 -0.42162151771E+03  0.56302773773E+03  0.00000000000E+00 0.  1.
         13    1    4    4    0    0 -0.37921792447E+03 -0.31396237291E+02 -0.14372605613E+03  0.40675440788E+03  0.10566000000E+00 0. -1.
         -4    1    4    4    0  502  0.64710717267E+03  0.16050899866E+03 -0.29579091499E+03  0.72938542415E+03  0.00000000000E+00 0. -1.
<mgrwt>
<rscale>  2 0.10465039E+04</rscale>
<asrwt>0</asrwt>
<pdfrwt beam="1">  1       21 0.83162322E-01 0.10476825E+04</pdfrwt>
<pdfrwt beam="2">  1       21 0.33883665E+00 0.10476825E+04</pdfrwt>
<totfact> 0.89887548E+00</totfact>
</mgrwt>
</event>
<event>
 8    1  0.7631533E-006  0.1041827E+04  0.7818608E-02  0.8740199E-01
         21   -1    0    0  501  502  0.00000000000E+00  0.00000000000E+00  0.12379203292E+04  0.12379203292E+04  0.00000000000E+00 0. -1.
         21   -1    0    0  502  503 -0.00000000000E+00 -0.00000000000E+00 -0.93742018626E+03  0.93742018626E+03  0.00000000000E+00 0. -1.
    9000010    2    1    2  501    0  0.24982055526E+03 -0.55006402737E+02  0.45963789469E+03  0.11387140561E+04  0.10099340044E+04 0.  0.
   -9000010    2    1    2    0  503 -0.24982055526E+03  0.55006402737E+02 -0.15913775170E+03  0.10366264594E+04  0.99188385311E+03 0.  0.
        -13    1    3    3    0    0  0.25798941460E+03 -0.48944758273E+03  0.74864774032E+02  0.55832089326E+03  0.10566000000E+00 0.  1.
          4    1    3    3  501    0 -0.81688593460E+01  0.43444118000E+03  0.38477312065E+03  0.58039316288E+03  0.00000000000E+00 0.  1.
         13    1    4    4    0    0 -0.58566696884E+02 -0.24611517800E+03  0.33958150428E+03  0.42345997218E+03  0.10566000000E+00 0. -1.
         -4    1    4    4    0  503 -0.19125385837E+03  0.30112158073E+03 -0.49871925598E+03  0.61316648719E+03  0.00000000000E+00 0. -1.
<mgrwt>
<rscale>  2 0.10374268E+04</rscale>
<asrwt>0</asrwt>
<pdfrwt beam="1">  1       21 0.19044928E+00 0.10418266E+04</pdfrwt>
<pdfrwt beam="2">  1       21 0.14421849E+00 0.10418266E+04</pdfrwt>
<totfact> 0.24235505E+01</totfact>
</mgrwt>
</event>
<event>
 8    1  0.7631533E-006  0.1030916E+04  0.7818608E-02  0.8747625E-01
         21   -1    0    0  501  502  0.00000000000E+00  0.00000000000E+00  0.17444943564E+04  0.17444943564E+04  0.00000000000E+00 0. -1.
         21   -1    0    0  502  503 -0.00000000000E+00 -0.00000000000E+00 -0.90452380998E+03  0.90452380998E+03  0.00000000000E+00 0. -1.
    9000010    2    1    2  501    0 -0.69823070788E+02 -0.21774793353E+03  0.11809855789E+04  0.15631640488E+04  0.99823117674E+03 0.  0.
   -9000010    2    1    2    0  503  0.69823070788E+02  0.21774793353E+03 -0.34101503251E+03  0.10858541175E+04  0.10052355388E+04 0.  0.
        -13    1    3    3    0    0  0.14598209666E+02  0.28961538970E+03  0.16855351787E+02  0.29047253867E+03  0.10566000000E+00 0.  1.
          4    1    3    3  501    0 -0.84421280454E+02 -0.50736332322E+03  0.11641302271E+04  0.12726915102E+04  0.00000000000E+00 0.  1.
         13    1    4    4    0    0  0.21380049530E+03  0.51133803439E+03  0.72189245694E+02  0.55891728866E+03  0.10566000000E+00 0. -1.
         -4    1    4    4    0  503 -0.14397742451E+03 -0.29359010086E+03 -0.41320427820E+03  0.52693682887E+03  0.00000000000E+00 0. -1.
<mgrwt>
<rscale>  2 0.10292046E+04</rscale>
<asrwt>0</asrwt>
<pdfrwt beam="1">  1       21 0.26838375E+00 0.10309161E+04</pdfrwt>
<pdfrwt beam="2">  1       21 0.13915751E+00 0.10309161E+04</pdfrwt>
<totfact> 0.70646623E+00</totfact>
</mgrwt>
</event>
<event>
 8    1  0.7631533E-006  0.1077098E+04  0.7818608E-02  0.8718387E-01
         21   -1    0    0  503  502  0.00000000000E+00  0.00000000000E+00  0.11452683745E+04  0.11452683745E+04  0.00000000000E+00 0.  1.
         21   -1    0    0  501  503 -0.00000000000E+00 -0.00000000000E+00 -0.95958500494E+03  0.95958500494E+03  0.00000000000E+00 0.  1.
    9000010    2    1    2  501    0  0.39763388759E+03 -0.71611641914E+01  0.51373469646E+02  0.10194135909E+04  0.93723041200E+03 0.  0.
   -9000010    2    1    2    0  502 -0.39763388759E+03  0.71611641914E+01  0.13430989993E+03  0.10854397885E+04  0.10009877094E+04 0.  0.
        -13    1    3    3    0    0  0.20477345886E+03  0.46441235139E+03  0.21930290184E+01  0.50755868835E+03  0.10566000000E+00 0.  1.
          4    1    3    3  501    0  0.19286042873E+03 -0.47157351558E+03  0.49180440628E+02  0.51185490259E+03  0.00000000000E+00 0.  1.
         13    1    4    4    0    0  0.71737757634E+02 -0.32332819539E+03 -0.23209662278E+03  0.40442092092E+03  0.10566000000E+00 0. -1.
         -4    1    4    4    0  502 -0.46937164523E+03  0.33048935958E+03  0.36640652271E+03  0.68101886760E+03  0.00000000000E+00 0. -1.
<mgrwt>
<rscale>  2 0.10620403E+04</rscale>
<asrwt>0</asrwt>
<pdfrwt beam="1">  1       21 0.17619514E+00 0.10770981E+04</pdfrwt>
<pdfrwt beam="2">  1       21 0.14762846E+00 0.10770981E+04</pdfrwt>
<totfact> 0.29221267E+01</totfact>
</mgrwt>
</event>
<event>
 8    1  0.7631533E-006  0.1097306E+04  0.7818608E-02  0.8700631E-01
         21   -1    0    0  501  502  0.00000000000E+00  0.00000000000E+00  0.10933200423E+04  0.10933200423E+04  0.00000000000E+00 0.  1.
         21   -1    0    0  502  503 -0.00000000000E+00 -0.00000000000E+00 -0.10523240434E+04  0.10523240434E+04  0.00000000000E+00 0.  1.
    9000010    2    1    2  501    0 -0.74592179028E+02 -0.27068753630E+03  0.11410024245E+03  0.10459059598E+04  0.10010318056E+04 0.  0.
   -9000010    2    1    2    0  503  0.74592179028E+02  0.27068753630E+03 -0.73104243519E+02  0.10997381259E+04  0.10607751787E+04 0.  0.
        -13    1    3    3    0    0  0.40526270698E+03 -0.21770132533E+03  0.27628044765E+03  0.53662149196E+03  0.10566000000E+00 0.  1.
          4    1    3    3  501    0 -0.47985488601E+03 -0.52986210973E+02 -0.16218020521E+03  0.50928446780E+03  0.00000000000E+00 0.  1.
         13    1    4    4    0    0 -0.40290459256E+03 -0.15169461982E+03 -0.15376867051E+03  0.45715225426E+03  0.10566000000E+00 0. -1.
         -4    1    4    4    0  503  0.47749677159E+03  0.42238215612E+03  0.80664426988E+02  0.64258587167E+03  0.00000000000E+00 0. -1.
<mgrwt>
<rscale>  2 0.10826022E+04</rscale>
<asrwt>0</asrwt>
<pdfrwt beam="1">  1       21 0.16820308E+00 0.10973057E+04</pdfrwt>
<pdfrwt beam="2">  1       21 0.16189601E+00 0.10973057E+04</pdfrwt>
<totfact> 0.25416001E+01</totfact>
</mgrwt>
</event>
<event>
 8    1  0.7631533E-006  0.1028696E+04  0.7818608E-02  0.8748526E-01
         21   -1    0    0  501  502  0.00000000000E+00  0.00000000000E+00  0.24115354441E+04  0.24115354441E+04  0.00000000000E+00 0.  1.
         21   -1    0    0  502  503 -0.00000000000E+00 -0.00000000000E+00 -0.55904759865E+03  0.55904759865E+03  0.00000000000E+00 0.  1.
    9000010    2    1    2  501    0  0.50652475607E+02 -0.20978622994E+03  0.16167298482E+04  0.19152169405E+04  0.10038249805E+04 0.  0.
   -9000010    2    1    2    0  503 -0.50652475607E+02  0.20978622994E+03  0.23575799723E+03  0.10553661023E+04  0.10058030826E+04 0.  0.
        -13    1    3    3    0    0  0.91809355079E+02 -0.59521002157E+03  0.72248420211E+03  0.94057820564E+03  0.10566000000E+00 0.  1.
          4    1    3    3  501    0 -0.41156879471E+02  0.38542379163E+03  0.89424564613E+03  0.97463873487E+03  0.00000000000E+00 0.  1.
         13    1    4    4    0    0 -0.32772234306E+03 -0.27091739048E+03  0.26281544466E+03  0.49987011885E+03  0.10566000000E+00 0. -1.
         -4    1    4    4    0  503  0.27706986745E+03  0.48070362042E+03 -0.27057447427E+02  0.55549598342E+03  0.00000000000E+00 0. -1.
<mgrwt>
<rscale>  2 0.10282123E+04</rscale>
<asrwt>0</asrwt>
<pdfrwt beam="1">  1       21 0.37100545E+00 0.10286962E+04</pdfrwt>
<pdfrwt beam="2">  1       21 0.86007324E-01 0.10286962E+04</pdfrwt>
<totfact> 0.49349182E+00</totfact>
</mgrwt>
</event>
<event>
 8    1  0.7631533E-006  0.1112621E+04  0.7818608E-02  0.8696061E-01
         21   -1    0    0  503  502  0.00000000000E+00  0.00000000000E+00  0.12864965823E+04  0.12864965823E+04  0.00000000000E+00 0. -1.
         21   -1    0    0  501  503 -0.00000000000E+00 -0.00000000000E+00 -0.10669755554E+04  0.10669755554E+04  0.00000000000E+00 0. -1.
    9000010    2    1    2  501    0  0.32725379170E+03 -0.13058153260E+03 -0.38446049761E+03  0.10874865298E+04  0.95429057280E+03 0.  0.
   -9000010    2    1    2    0  502 -0.32725379170E+03  0.13058153260E+03  0.60398152451E+03  0.12659856079E+04  0.10553574260E+04 0.  0.
        -13    1    3    3    0    0  0.17438590345E+03  0.34016062628E+03 -0.44751101983E+03  0.58854551143E+03  0.10566000000E+00 0.  1.
          4    1    3    3  501    0  0.15286788826E+03 -0.47074215888E+03  0.63050522214E+02  0.49894101832E+03  0.00000000000E+00 0.  1.
         13    1    4    4    0    0 -0.28686868303E+03 -0.33017788158E+03 -0.75662194019E+02  0.44388720815E+03  0.10566000000E+00 0. -1.
         -4    1    4    4    0  502 -0.40385108674E+02  0.46075941418E+03  0.67964371853E+03  0.82209839977E+03  0.00000000000E+00 0. -1.
<mgrwt>
<rscale>  2 0.10879738E+04</rscale>
<asrwt>0</asrwt>
<pdfrwt beam="1">  1       21 0.19792255E+00 0.11126212E+04</pdfrwt>
<pdfrwt beam="2">  1       21 0.16415008E+00 0.11126212E+04</pdfrwt>
<totfact> 0.13900531E+01</totfact>
</mgrwt>
</event>
<event>
 8    1  0.7631533E-006  0.1239087E+04  0.7818608E-02  0.8588681E-01
         21   -1    0    0  503  502  0.00000000000E+00  0.00000000000E+00  0.32229027303E+04  0.32229027303E+04  0.00000000000E+00 0.  1.
         21   -1    0    0  501  503 -0.00000000000E+00 -0.00000000000E+00 -0.58282412497E+03  0.58282412497E+03  0.00000000000E+00 0.  1.
    9000010    2    1    2  501    0  0.49025671305E+03 -0.34951055910E+03  0.45048998472E+03  0.13184374786E+04  0.10829713214E+04 0.  0.
   -9000010    2    1    2    0  502 -0.49025671305E+03  0.34951055910E+03  0.21895886206E+04  0.24872893767E+04  0.10147910327E+04 0.  0.
        -13    1    3    3    0    0  0.17682865783E+03 -0.68087624923E+03  0.39661764867E+02  0.70458066093E+03  0.10566000000E+00 0.  1.
          4    1    3    3  501    0  0.31342805522E+03  0.33136569013E+03  0.41082821985E+03  0.61385681769E+03  0.00000000000E+00 0.  1.
         13    1    4    4    0    0  0.14044301434E+03  0.21691371882E+03  0.15772841969E+04  0.15983120004E+04  0.10566000000E+00 0. -1.
         -4    1    4    4    0  502 -0.63069972740E+03  0.13259684028E+03  0.61230442369E+03  0.88897737624E+03  0.00000000000E+00 0. -1.
<mgrwt>
<rscale>  2 0.12240335E+04</rscale>
<asrwt>0</asrwt>
<pdfrwt beam="1">  1       21 0.49583118E+00 0.12390868E+04</pdfrwt>
<pdfrwt beam="2">  1       21 0.89665252E-01 0.12390868E+04</pdfrwt>
<totfact> 0.57578849E-01</totfact>
</mgrwt>
</event>
<event>
 8    1  0.7631533E-006  0.1050111E+04  0.7818608E-02  0.8733223E-01
         21   -1    0    0  501  502  0.00000000000E+00  0.00000000000E+00  0.92236201434E+03  0.92236201434E+03  0.00000000000E+00 0. -1.
         21   -1    0    0  502  503 -0.00000000000E+00 -0.00000000000E+00 -0.16641654295E+04  0.16641654295E+04  0.00000000000E+00 0. -1.
    9000010    2    1    2  501    0  0.16175046989E+03  0.23748891199E+03  0.33371728378E+03  0.10833711983E+04  0.98982914185E+03 0.  0.
   -9000010    2    1    2    0  503 -0.16175046989E+03 -0.23748891199E+03 -0.10755206990E+04  0.15031562455E+04  0.10100345176E+04 0.  0.
        -13    1    3    3    0    0 -0.15384485109E+03  0.19241475587E+03  0.61230062975E+03  0.66000284002E+03  0.10566000000E+00 0.  1.
          4    1    3    3  501    0  0.31559532098E+03  0.45074156118E+02 -0.27858334597E+03  0.42336835832E+03  0.00000000000E+00 0.  1.
         13    1    4    4    0    0 -0.43731250651E+03 -0.36518241236E+03 -0.10546835836E+04  0.11987317862E+04  0.10566000000E+00 0. -1.
         -4    1    4    4    0  503  0.27556203661E+03  0.12769350037E+03 -0.20837115403E+02  0.30442445933E+03  0.00000000000E+00 0. -1.
<mgrwt>
<rscale>  2 0.10452225E+04</rscale>
<asrwt>0</asrwt>
<pdfrwt beam="1">  1       21 0.14190185E+00 0.10501114E+04</pdfrwt>
<pdfrwt beam="2">  1       21 0.25602545E+00 0.10501114E+04</pdfrwt>
<totfact> 0.81418929E+00</totfact>
</mgrwt>
</event>
<event>
 8    1  0.7631533E-006  0.1007401E+04  0.7818608E-02  0.8767862E-01
         21   -1    0    0  501  502  0.00000000000E+00  0.00000000000E+00  0.14365097762E+04  0.14365097762E+04  0.00000000000E+00 0. -1.
         21   -1    0    0  502  503 -0.00000000000E+00 -0.00000000000E+00 -0.70621091688E+03  0.70621091688E+03  0.00000000000E+00 0. -1.
    9000010    2    1    2  501    0  0.42862335751E+02  0.13713627480E+03  0.34253720742E+03  0.10640431510E+04  0.99710207653E+03 0.  0.
   -9000010    2    1    2    0  503 -0.42862335751E+02 -0.13713627480E+03  0.38776165185E+03  0.10786775420E+04  0.99626432404E+03 0.  0.
        -13    1    3    3    0    0 -0.14641991515E+03 -0.39761491669E+03  0.52570918322E+02  0.42696618852E+03  0.10566000000E+00 0.  1.
          4    1    3    3  501    0  0.18928225090E+03  0.53475119148E+03  0.28996628910E+03  0.63707696247E+03  0.00000000000E+00 0.  1.
         13    1    4    4    0    0 -0.18099122422E+03  0.11644105746E+03  0.65240951687E+03  0.68698947006E+03  0.10566000000E+00 0. -1.
         -4    1    4    4    0  503  0.13812888847E+03 -0.25357733226E+03 -0.26464786502E+03  0.39168807197E+03  0.00000000000E+00 0. -1.
<mgrwt>
<rscale>  2 0.10071933E+04</rscale>
<asrwt>0</asrwt>
<pdfrwt beam="1">  1       21 0.22100150E+00 0.10074007E+04</pdfrwt>
<pdfrwt beam="2">  1       21 0.10864783E+00 0.10074007E+04</pdfrwt>
<totfact> 0.31785404E+01</totfact>
</mgrwt>
</event>
<event>
 8    1  0.7631533E-006  0.1169413E+04  0.7818608E-02  0.8644366E-01
         21   -1    0    0  501  502  0.00000000000E+00  0.00000000000E+00  0.23995201227E+04  0.23995201227E+04  0.00000000000E+00 0.  1.
         21   -1    0    0  502  503 -0.00000000000E+00 -0.00000000000E+00 -0.56690510057E+03  0.56690510057E+03  0.00000000000E+00 0.  1.
    9000010    2    1    2  501    0  0.38350390307E+03  0.19618086372E+03  0.59468034668E+03  0.13119342412E+04  0.10871819368E+04 0.  0.
   -9000010    2    1    2    0  503 -0.38350390307E+03 -0.19618086372E+03  0.12379346755E+04  0.16544909821E+04  0.10096018889E+04 0.  0.
        -13    1    3    3    0    0 -0.31205543997E+03  0.59454644721E+02 -0.86070724404E+02  0.32912251998E+03  0.10566000000E+00 0.  1.
          4    1    3    3  501    0  0.69555934305E+03  0.13672621900E+03  0.68075107108E+03  0.98281172126E+03  0.00000000000E+00 0.  1.
         13    1    4    4    0    0  0.34418895743E+03 -0.98322845063E+02  0.48524964938E+03  0.60299307929E+03  0.10566000000E+00 0. -1.
         -4    1    4    4    0  503 -0.72769286050E+03 -0.97858018660E+02  0.75268502611E+03  0.10514979028E+04  0.00000000000E+00 0. -1.
<mgrwt>
<rscale>  2 0.11510466E+04</rscale>
<asrwt>0</asrwt>
<pdfrwt beam="1">  1       21 0.36915694E+00 0.11694130E+04</pdfrwt>
<pdfrwt beam="2">  1       21 0.87216171E-01 0.11694130E+04</pdfrwt>
<totfact> 0.47607372E+00</totfact>
</mgrwt>
</event>
<event>
 8    1  0.7631533E-006  0.1015869E+04  0.7818608E-02  0.8761328E-01
         21   -1    0    0  501  502  0.00000000000E+00  0.00000000000E+00  0.19616917457E+04  0.19616917457E+04  0.00000000000E+00 0.  1.
         21   -1    0    0  502  503 -0.00000000000E+00 -0.00000000000E+00 -0.77282458756E+03  0.77282458756E+03  0.00000000000E+00 0.  1.
    9000010    2    1    2  501    0 -0.20892063627E+03 -0.42610344024E+02  0.13735495507E+04  0.17083994164E+04  0.99324051674E+03 0.  0.
   -9000010    2    1    2    0  503  0.20892063627E+03  0.42610344024E+02 -0.18468239256E+03  0.10261169168E+04  0.98658241786E+03 0.  0.
        -13    1    3    3    0    0  0.24236062330E+03 -0.37683138109E+03  0.70459192126E+03  0.83497925014E+03  0.10566000000E+00 0.  1.
          4    1    3    3  501    0 -0.45128125957E+03  0.33422103707E+03  0.66895762940E+03  0.87342016624E+03  0.00000000000E+00 0.  1.
         13    1    4    4    0    0 -0.71791897187E+02 -0.42075882522E+03 -0.22563046660E+03  0.48280553448E+03  0.10566000000E+00 0. -1.
         -4    1    4    4    0  503  0.28071253346E+03  0.46336916924E+03  0.40948074044E+02  0.54331138237E+03  0.00000000000E+00 0. -1.
<mgrwt>
<rscale>  2 0.10142381E+04</rscale>
<asrwt>0</asrwt>
<pdfrwt beam="1">  1       21 0.30179873E+00 0.10158692E+04</pdfrwt>
<pdfrwt beam="2">  1       21 0.11889609E+00 0.10158692E+04</pdfrwt>
<totfact> 0.64525208E+00</totfact>
</mgrwt>
</event>
<event>
 8    1  0.7631533E-006  0.1054581E+04  0.7818608E-02  0.8737152E-01
         21   -1    0    0  501  502  0.00000000000E+00  0.00000000000E+00  0.87987256773E+03  0.87987256773E+03  0.00000000000E+00 0. -1.
         21   -1    0    0  502  503 -0.00000000000E+00 -0.00000000000E+00 -0.13656577741E+04  0.13656577741E+04  0.00000000000E+00 0. -1.
    9000010    2    1    2  501    0  0.12956166923E+03 -0.12426056564E+03  0.14227567053E+03  0.10641353655E+04  0.10391894896E+04 0.  0.
   -9000010    2    1    2    0  503 -0.12956166923E+03  0.12426056564E+03 -0.62806087691E+03  0.11813949763E+04  0.98438138479E+03 0.  0.
        -13    1    3    3    0    0  0.36831978816E+03 -0.30763997192E+03  0.43245294006E+03  0.64600106440E+03  0.10566000000E+00 0.  1.
          4    1    3    3  501    0 -0.23875811893E+03  0.18337940628E+03 -0.29017726953E+03  0.41813430110E+03  0.00000000000E+00 0.  1.
         13    1    4    4    0    0 -0.15861726214E+03 -0.40834612633E+03 -0.42587408722E+03  0.61096214618E+03  0.10566000000E+00 0. -1.
         -4    1    4    4    0  503  0.29055592912E+02  0.53260669196E+03 -0.20218678969E+03  0.57043283016E+03  0.00000000000E+00 0. -1.
<mgrwt>
<rscale>  2 0.10408232E+04</rscale>
<asrwt>0</asrwt>
<pdfrwt beam="1">  1       21 0.13536501E+00 0.10545813E+04</pdfrwt>
<pdfrwt beam="2">  1       21 0.21010120E+00 0.10545813E+04</pdfrwt>
<totfact> 0.20505133E+01</totfact>
</mgrwt>
</event>
<event>
 8    1  0.7631533E-006  0.1031155E+04  0.7818608E-02  0.8761762E-01
         21   -1    0    0  503  502  0.00000000000E+00  0.00000000000E+00  0.15035538735E+04  0.15035538735E+04  0.00000000000E+00 0. -1.
         21   -1    0    0  501  503 -0.00000000000E+00 -0.00000000000E+00 -0.74038347471E+03  0.74038347471E+03  0.00000000000E+00 0. -1.
    9000010    2    1    2  501    0  0.31057895508E+03  0.88001113363E+02  0.27000816529E+02  0.10315086391E+04  0.97932504569E+03 0.  0.
   -9000010    2    1    2    0  502 -0.31057895508E+03 -0.88001113363E+02  0.73616958222E+03  0.12124287091E+04  0.90765314825E+03 0.  0.
        -13    1    3    3    0    0  0.32693510415E+02 -0.43559807317E+03 -0.16587413308E+02  0.43713807935E+03  0.10566000000E+00 0.  1.
          4    1    3    3  501    0  0.27788544466E+03  0.52359918653E+03  0.43588229837E+02  0.59437055973E+03  0.00000000000E+00 0.  1.
         13    1    4    4    0    0  0.44591256455E+02 -0.45209806228E+03  0.36514546494E+03  0.58284840207E+03  0.10566000000E+00 0. -1.
         -4    1    4    4    0  502 -0.35517021153E+03  0.36409694891E+03  0.37102411728E+03  0.62958030701E+03  0.00000000000E+00 0. -1.
<mgrwt>
<rscale>  2 0.10137683E+04</rscale>
<asrwt>0</asrwt>
<pdfrwt beam="1">  1       21 0.23131598E+00 0.10311552E+04</pdfrwt>
<pdfrwt beam="2">  1       21 0.11390515E+00 0.10311552E+04</pdfrwt>
<totfact> 0.23281147E+01</totfact>
</mgrwt>
</event>
<event>
 8    1  0.7631533E-006  0.1044047E+04  0.7818608E-02  0.8741504E-01
         21   -1    0    0  501  502  0.00000000000E+00  0.00000000000E+00  0.36657995640E+03  0.36657995640E+03  0.00000000000E+00 0. -1.
         21   -1    0    0  502  503 -0.00000000000E+00 -0.00000000000E+00 -0.33495407416E+04  0.33495407416E+04  0.00000000000E+00 0. -1.
    9000010    2    1    2  501    0 -0.10016763097E+03  0.16573712891E+03 -0.77843777896E+03  0.12768676285E+04  0.99344009119E+03 0.  0.
   -9000010    2    1    2    0  503  0.10016763097E+03 -0.16573712891E+03 -0.22045230062E+04  0.24392530695E+04  0.10259295794E+04 0.  0.
        -13    1    3    3    0    0 -0.51435605759E+03 -0.74665614458E+02 -0.50852653155E+03  0.72714259428E+03  0.10566000000E+00 0.  1.
          4    1    3    3  501    0  0.41418842661E+03  0.24040274337E+03 -0.26991124741E+03  0.54972503421E+03  0.00000000000E+00 0.  1.
         13    1    4    4    0    0 -0.27685211982E+03 -0.18676984274E+03 -0.19625680018E+04  0.19907795567E+04  0.10566000000E+00 0. -1.
         -4    1    4    4    0  503  0.37701975079E+03  0.21032713823E+02 -0.24195500439E+03  0.44847351280E+03  0.00000000000E+00 0. -1.
<mgrwt>
<rscale>  2 0.10359768E+04</rscale>
<asrwt>0</asrwt>
<pdfrwt beam="1">  1       21 0.56396914E-01 0.10440469E+04</pdfrwt>
<pdfrwt beam="2">  1       21 0.51531398E+00 0.10440469E+04</pdfrwt>
<totfact> 0.13278253E+00</totfact>
</mgrwt>
</event>
<event>
 8    1  0.7631533E-006  0.1044338E+04  0.7818608E-02  0.8748335E-01
         21   -1    0    0  503  502  0.00000000000E+00  0.00000000000E+00  0.95831112052E+03  0.95831112052E+03  0.00000000000E+00 0. -1.
         21   -1    0    0  501  503 -0.00000000000E+00 -0.00000000000E+00 -0.13579187680E+04  0.13579187680E+04  0.00000000000E+00 0. -1.
    9000010    2    1    2  501    0 -0.10513451798E+02  0.28713937409E+03 -0.73652039868E+03  0.12779300309E+04  0.10040335221E+04 0.  0.
   -9000010    2    1    2    0  502  0.10513451798E+02 -0.28713937409E+03  0.33691275123E+03  0.10382998575E+04  0.93914686787E+03 0.  0.
        -13    1    3    3    0    0 -0.39894534388E+03  0.39192899980E+03 -0.66567955504E+03  0.86942222737E+03  0.10566000000E+00 0.  1.
          4    1    3    3  501    0  0.38843189209E+03 -0.10478962571E+03 -0.70840843640E+02  0.40850780356E+03  0.00000000000E+00 0.  1.
         13    1    4    4    0    0  0.25416734410E+03 -0.50573696264E+03  0.41490534275E+03  0.70179581702E+03  0.10566000000E+00 0. -1.
         -4    1    4    4    0  502 -0.24365389230E+03  0.21859758856E+03 -0.77992591518E+02  0.33650404052E+03  0.00000000000E+00 0. -1.
<mgrwt>
<rscale>  2 0.10284233E+04</rscale>
<asrwt>0</asrwt>
<pdfrwt beam="1">  1       21 0.14743248E+00 0.10443385E+04</pdfrwt>
<pdfrwt beam="2">  1       21 0.20891058E+00 0.10443385E+04</pdfrwt>
<totfact> 0.16251828E+01</totfact>
</mgrwt>
</event>
<event>
 8    1  0.7631533E-006  0.1007158E+04  0.7818608E-02  0.8781246E-01
         21   -1    0    0  501  502  0.00000000000E+00  0.00000000000E+00  0.99546191946E+03  0.99546191946E+03  0.00000000000E+00 0.  1.
         21   -1    0    0  502  503 -0.00000000000E+00 -0.00000000000E+00 -0.99308739543E+03  0.99308739543E+03  0.00000000000E+00 0.  1.
    9000010    2    1    2  501    0  0.18692068433E+03 -0.13764614673E+03 -0.17042810091E+03  0.10214760060E+04  0.98004167732E+03 0.  0.
   -9000010    2    1    2    0  503 -0.18692068433E+03  0.13764614673E+03  0.17280262494E+03  0.96707330890E+03  0.92275903337E+03 0.  0.
        -13    1    3    3    0    0  0.71820515056E+02  0.22458915470E+03  0.32220176925E+03  0.39926490713E+03  0.10566000000E+00 0.  1.
          4    1    3    3  501    0  0.11510016927E+03 -0.36223530143E+03 -0.49262987016E+03  0.62221109886E+03  0.00000000000E+00 0.  1.
         13    1    4    4    0    0 -0.42180610599E+03  0.35749046244E+03  0.29039325234E+03  0.62453828862E+03  0.10566000000E+00 0. -1.
         -4    1    4    4    0  503  0.23488542166E+03 -0.21984431572E+03 -0.11759062740E+03  0.34253502028E+03  0.00000000000E+00 0. -1.
<mgrwt>
<rscale>  2 0.99294801E+03</rscale>
<asrwt>0</asrwt>
<pdfrwt beam="1">  1       21 0.15314799E+00 0.10071581E+04</pdfrwt>
<pdfrwt beam="2">  1       21 0.15278268E+00 0.10071581E+04</pdfrwt>
<totfact> 0.41946166E+01</totfact>
</mgrwt>
</event>
<event>
 8    1  0.7631533E-006  0.1031583E+04  0.7818608E-02  0.8761980E-01
         21   -1    0    0  501  502  0.00000000000E+00  0.00000000000E+00  0.16722262024E+04  0.16722262024E+04  0.00000000000E+00 0. -1.
         21   -1    0    0  502  503 -0.00000000000E+00 -0.00000000000E+00 -0.65494163576E+03  0.65494163576E+03  0.00000000000E+00 0. -1.
    9000010    2    1    2  501    0  0.21586910218E+02 -0.56515872095E+02  0.84789860825E+03  0.12817709534E+04  0.95934596917E+03 0.  0.
   -9000010    2    1    2    0  503 -0.21586910218E+02  0.56515872095E+02  0.16938595839E+03  0.10453968848E+04  0.10298072661E+04 0.  0.
        -13    1    3    3    0    0  0.37433566671E+02 -0.49162677004E+03  0.61420310243E+03  0.78761895300E+03  0.10566000000E+00 0.  1.
          4    1    3    3  501    0 -0.15846656453E+02  0.43511089795E+03  0.23369550583E+03  0.49415200038E+03  0.00000000000E+00 0.  1.
         13    1    4    4    0    0  0.32452754238E+03 -0.62812110871E+02  0.46799145848E+03  0.57295680763E+03  0.10566000000E+00 0. -1.
         -4    1    4    4    0  503 -0.34611445259E+03  0.11932798297E+03 -0.29860550009E+03  0.47244007715E+03  0.00000000000E+00 0. -1.
<mgrwt>
<rscale>  2 0.10135317E+04</rscale>
<asrwt>0</asrwt>
<pdfrwt beam="1">  1       21 0.25726557E+00 0.10315828E+04</pdfrwt>
<pdfrwt beam="2">  1       21 0.10076025E+00 0.10315828E+04</pdfrwt>
<totfact> 0.20893655E+01</totfact>
</mgrwt>
</event>
<event>
 8    1  0.7631533E-006  0.1139349E+04  0.7818608E-02  0.8664734E-01
         21   -1    0    0  501  502  0.00000000000E+00  0.00000000000E+00  0.12344948175E+04  0.12344948175E+04  0.00000000000E+00 0. -1.
         21   -1    0    0  502  503 -0.00000000000E+00 -0.00000000000E+00 -0.12340519908E+04  0.12340519908E+04  0.00000000000E+00 0. -1.
    9000010    2    1    2  501    0  0.37493856572E+03  0.17856931451E+03  0.53468128713E+03  0.12101640362E+04  0.10030687851E+04 0.  0.
   -9000010    2    1    2    0  503 -0.37493856572E+03 -0.17856931451E+03 -0.53423846046E+03  0.12583827721E+04  0.10609667951E+04 0.  0.
        -13    1    3    3    0    0  0.28696319066E+03 -0.39333036447E+03  0.12960764236E+03  0.50384005451E+03  0.10566000000E+00 0.  1.
          4    1    3    3  501    0  0.87975375057E+02  0.57189967898E+03  0.40507364477E+03  0.70632398169E+03  0.00000000000E+00 0.  1.
         13    1    4    4    0    0  0.64803153932E+02  0.34599892809E+03  0.53644916818E+02  0.35607933844E+03  0.10566000000E+00 0. -1.
         -4    1    4    4    0  503 -0.43974171965E+03 -0.52456824260E+03 -0.58788337728E+03  0.90230343368E+03  0.00000000000E+00 0. -1.
<mgrwt>
<rscale>  2 0.11256776E+04</rscale>
<asrwt>0</asrwt>
<pdfrwt beam="1">  1       21 0.18992228E+00 0.11393491E+04</pdfrwt>
<pdfrwt beam="2">  1       21 0.18985415E+00 0.11393491E+04</pdfrwt>
<totfact> 0.98152118E+00</totfact>
</mgrwt>
</event>
<event>
 8    1  0.7631533E-006  0.1014413E+04  0.7818608E-02  0.8765178E-01
         21   -1    0    0  501  502  0.00000000000E+00  0.00000000000E+00  0.82314202152E+03  0.82314202152E+03  0.00000000000E+00 0.  1.
         21   -1    0    0  502  503 -0.00000000000E+00 -0.00000000000E+00 -0.12569738866E+04  0.12569738866E+04  0.00000000000E+00 0.  1.
    9000010    2    1    2  501    0 -0.64916473461E+02 -0.45538550259E+02 -0.37389201871E+03  0.10811236367E+04  0.10113086413E+04 0.  0.
   -9000010    2    1    2    0  503  0.64916473461E+02  0.45538550259E+02 -0.59939846400E+02  0.99899227151E+03  0.99403463987E+03 0.  0.
        -13    1    3    3    0    0 -0.48857815704E+02 -0.23862073823E+03  0.29625647846E+03  0.38352947092E+03  0.10566000000E+00 0.  1.
          4    1    3    3  501    0 -0.16058657757E+02  0.19308218797E+03 -0.67014849718E+03  0.69759416573E+03  0.00000000000E+00 0.  1.
         13    1    4    4    0    0 -0.39229946449E+03  0.27786372514E+03  0.13376615596E+02  0.48092209827E+03  0.10566000000E+00 0. -1.
         -4    1    4    4    0  503  0.45721593795E+03 -0.23232517488E+03 -0.73316461997E+02  0.51807017324E+03  0.00000000000E+00 0. -1.
<mgrwt>
<rscale>  2 0.10100799E+04</rscale>
<asrwt>0</asrwt>
<pdfrwt beam="1">  1       21 0.12663723E+00 0.10144127E+04</pdfrwt>
<pdfrwt beam="2">  1       21 0.19338060E+00 0.10144127E+04</pdfrwt>
<totfact> 0.33859962E+01</totfact>
</mgrwt>
</event>
<event>
 8    1  0.7631533E-006  0.1024284E+04  0.7818608E-02  0.8753104E-01
         21   -1    0    0  501  502  0.00000000000E+00  0.00000000000E+00  0.75512537362E+03  0.75512537362E+03  0.00000000000E+00 0. -1.
         21   -1    0    0  502  503 -0.00000000000E+00 -0.00000000000E+00 -0.13865050253E+04  0.13865050253E+04  0.00000000000E+00 0. -1.
    9000010    2    1    2  501    0  0.23212530864E+02 -0.15416797683E+03 -0.36657963209E+03  0.10879050801E+04  0.10123488776E+04 0.  0.
   -9000010    2    1    2    0  503 -0.23212530864E+02  0.15416797683E+03 -0.26480001957E+03  0.10537253188E+04  0.10079243079E+04 0.  0.
        -13    1    3    3    0    0 -0.34174070444E+03  0.12828019028E+03  0.15050658782E+03  0.39483510536E+03  0.10566000000E+00 0.  1.
          4    1    3    3  501    0  0.36495323530E+03 -0.28244816711E+03 -0.51708621990E+03  0.69306997473E+03  0.00000000000E+00 0.  1.
         13    1    4    4    0    0 -0.51054328935E+03  0.15023031583E+03 -0.12391750323E+03  0.54642397172E+03  0.10566000000E+00 0. -1.
         -4    1    4    4    0  503  0.48733075849E+03  0.39376609988E+01 -0.14088251634E+03  0.50730134709E+03  0.00000000000E+00 0. -1.
<mgrwt>
<rscale>  2 0.10231886E+04</rscale>
<asrwt>0</asrwt>
<pdfrwt beam="1">  1       21 0.11617314E+00 0.10242836E+04</pdfrwt>
<pdfrwt beam="2">  1       21 0.21330846E+00 0.10242836E+04</pdfrwt>
<totfact> 0.30154575E+01</totfact>
</mgrwt>
</event>
<event>
 8    1  0.7631533E-006  0.1041615E+04  0.7818608E-02  0.8738700E-01
         21   -1    0    0  501  502  0.00000000000E+00  0.00000000000E+00  0.38055755401E+03  0.38055755401E+03  0.00000000000E+00 0.  1.
         21   -1    0    0  502  503 -0.00000000000E+00 -0.00000000000E+00 -0.31200201225E+04  0.31200201225E+04  0.00000000000E+00 0.  1.
    9000010    2    1    2  501    0  0.74001291893E+02 -0.27669784532E+03 -0.83622297148E+03  0.13357509893E+04  0.10014609121E+04 0.  0.
   -9000010    2    1    2    0  503 -0.74001291893E+02  0.27669784532E+03 -0.19032395970E+04  0.21648266873E+04  0.99101752428E+03 0.  0.
        -13    1    3    3    0    0 -0.74913730505E+01 -0.28836269041E+02 -0.10175686681E+04  0.10180047429E+04  0.10566000000E+00 0.  1.
          4    1    3    3  501    0  0.81492664944E+02 -0.24786157628E+03  0.18134569658E+03  0.31774624640E+03  0.00000000000E+00 0.  1.
         13    1    4    4    0    0 -0.21642997948E+03  0.51462266446E+03 -0.55081881931E+03  0.78427023765E+03  0.10566000000E+00 0. -1.
         -4    1    4    4    0  503  0.14242868759E+03 -0.23792481914E+03 -0.13524207777E+04  0.13805564496E+04  0.00000000000E+00 0. -1.
<mgrwt>
<rscale>  2 0.10390967E+04</rscale>
<asrwt>0</asrwt>
<pdfrwt beam="1">  1       21 0.58547315E-01 0.10416150E+04</pdfrwt>
<pdfrwt beam="2">  1       21 0.48000311E+00 0.10416150E+04</pdfrwt>
<totfact> 0.21498153E+00</totfact>
</mgrwt>
</event>
<event>
 8    1  0.7631533E-006  0.1021314E+04  0.7818608E-02  0.8758279E-01
         21   -1    0    0  501  502  0.00000000000E+00  0.00000000000E+00  0.11692438752E+04  0.11692438752E+04  0.00000000000E+00 0. -1.
         21   -1    0    0  502  503 -0.00000000000E+00 -0.00000000000E+00 -0.93892517625E+03  0.93892517625E+03  0.00000000000E+00 0. -1.
    9000010    2    1    2  501    0  0.90559334293E+02  0.45001897431E+02  0.38212736087E+03  0.10904598172E+04  0.10162948043E+04 0.  0.
   -9000010    2    1    2    0  503 -0.90559334293E+02 -0.45001897431E+02 -0.15180866196E+03  0.10177092342E+04  0.10012292703E+04 0.  0.
        -13    1    3    3    0    0 -0.41353131174E+03 -0.19568270666E+03  0.11747009700E+03  0.47233367689E+03  0.10566000000E+00 0.  1.
          4    1    3    3  501    0  0.50409064603E+03  0.24068460409E+03  0.26465726387E+03  0.61812614035E+03  0.00000000000E+00 0.  1.
         13    1    4    4    0    0 -0.61451575670E+02 -0.22437384442E+03  0.38563750021E+03  0.45037341279E+03  0.10566000000E+00 0. -1.
         -4    1    4    4    0  503 -0.29107758623E+02  0.17937194699E+03 -0.53744616218E+03  0.56733582138E+03  0.00000000000E+00 0. -1.
<mgrwt>
<rscale>  2 0.10175451E+04</rscale>
<asrwt>0</asrwt>
<pdfrwt beam="1">  1       21 0.17988367E+00 0.10213135E+04</pdfrwt>
<pdfrwt beam="2">  1       21 0.14445003E+00 0.10213135E+04</pdfrwt>
<totfact> 0.29481379E+01</totfact>
</mgrwt>
</event>
<event>
 8    1  0.7631533E-006  0.1011775E+04  0.7818608E-02  0.8766844E-01
         21   -1    0    0  501  502  0.00000000000E+00  0.00000000000E+00  0.10001052912E+04  0.10001052912E+04  0.00000000000E+00 0. -1.
         21   -1    0    0  502  503 -0.00000000000E+00 -0.00000000000E+00 -0.10358029924E+04  0.10358029924E+04  0.00000000000E+00 0. -1.
    9000010    2    1    2  501    0 -0.11048461889E+02 -0.68814337470E+02  0.14397835708E+03  0.10219677491E+04  0.10093715032E+04 0.  0.
   -9000010    2    1    2    0  503  0.11048461889E+02  0.68814337470E+02 -0.17967605825E+03  0.10139405345E+04  0.99545690012E+03 0.  0.
        -13    1    3    3    0    0 -0.39507014051E+03 -0.35265571441E+03  0.12464305123E+03  0.54404261801E+03  0.10566000000E+00 0.  1.
          4    1    3    3  501    0  0.38402167863E+03  0.28384137694E+03  0.19335305851E+02  0.47792513113E+03  0.00000000000E+00 0.  1.
         13    1    4    4    0    0 -0.42787376245E+03 -0.21102257577E+03 -0.97772700606E+02  0.48699691603E+03  0.10566000000E+00 0. -1.
         -4    1    4    4    0  503  0.43892222433E+03  0.27983691324E+03 -0.81903357649E+02  0.52694361844E+03  0.00000000000E+00 0. -1.
<mgrwt>
<rscale>  2 0.10082866E+04</rscale>
<asrwt>0</asrwt>
<pdfrwt beam="1">  1       21 0.15386235E+00 0.10117748E+04</pdfrwt>
<pdfrwt beam="2">  1       21 0.15935431E+00 0.10117748E+04</pdfrwt>
<totfact> 0.36190741E+01</totfact>
</mgrwt>
</event>
<event>
 8    1  0.7631533E-006  0.1006162E+04  0.7818608E-02  0.8768853E-01
         21   -1    0    0  503  502  0.00000000000E+00  0.00000000000E+00  0.81238134765E+03  0.81238134765E+03  0.00000000000E+00 0.  1.
         21   -1    0    0  501  503 -0.00000000000E+00 -0.00000000000E+00 -0.20178588772E+04  0.20178588772E+04  0.00000000000E+00 0.  1.
    9000010    2    1    2  501    0 -0.64067124705E+02 -0.22557663337E+02 -0.14779296264E+04  0.17878432208E+04  0.10037399847E+04 0.  0.
   -9000010    2    1    2    0  502  0.64067124705E+02  0.22557663337E+02  0.27245209694E+03  0.10423970040E+04  0.10038664872E+04 0.  0.
        -13    1    3    3    0    0 -0.40218209526E+03 -0.24535659221E+02 -0.17070607143E+03  0.43759914340E+03  0.10566000000E+00 0.  1.
          4    1    3    3  501    0  0.33811497055E+03  0.19779958845E+01 -0.13072235550E+04  0.13502440774E+04  0.00000000000E+00 0.  1.
         13    1    4    4    0    0  0.20197700865E+03 -0.45191797911E+03  0.23188863370E+03  0.54662319880E+03  0.10566000000E+00 0. -1.
         -4    1    4    4    0  502 -0.13790988395E+03  0.47447564245E+03  0.40563463246E+02  0.49577380520E+03  0.00000000000E+00 0. -1.
<mgrwt>
<rscale>  2 0.10061301E+04</rscale>
<asrwt>0</asrwt>
<pdfrwt beam="1">  1       21 0.12498175E+00 0.10061617E+04</pdfrwt>
<pdfrwt beam="2">  1       21 0.31043982E+00 0.10061617E+04</pdfrwt>
<totfact> 0.48842270E+00</totfact>
</mgrwt>
</event>
<event>
 8    1  0.7631533E-006  0.9822631E+03  0.7818608E-02  0.8854490E-01
         21   -1    0    0  501  502  0.00000000000E+00  0.00000000000E+00  0.10101978617E+04  0.10101978617E+04  0.00000000000E+00 0. -1.
         21   -1    0    0  502  503 -0.00000000000E+00 -0.00000000000E+00 -0.14562779854E+04  0.14562779854E+04  0.00000000000E+00 0. -1.
    9000010    2    1    2  501    0  0.12706846071E+03 -0.56337731674E+02 -0.10959349863E+04  0.14717045713E+04  0.97237879311E+03 0.  0.
   -9000010    2    1    2    0  503 -0.12706846071E+03  0.56337731674E+02  0.64985486259E+03  0.99477127589E+03  0.74022848850E+03 0.  0.
        -13    1    3    3    0    0  0.32238949440E+03  0.37411008614E+03 -0.42850458694E+03  0.65384213296E+03  0.10566000000E+00 0.  1.
          4    1    3    3  501    0 -0.19532103369E+03 -0.43044781781E+03 -0.66743039933E+03  0.81786243831E+03  0.00000000000E+00 0.  1.
         13    1    4    4    0    0  0.12013822449E+03  0.26356838508E+03  0.60279832142E+03  0.66878046777E+03  0.10566000000E+00 0. -1.
         -4    1    4    4    0  503 -0.24720668519E+03 -0.20723065341E+03  0.47056541167E+02  0.32599080812E+03  0.00000000000E+00 0. -1.
<mgrwt>
<rscale>  2 0.91916507E+03</rscale>
<asrwt>0</asrwt>
<pdfrwt beam="1">  1       21 0.15541505E+00 0.98226313E+03</pdfrwt>
<pdfrwt beam="2">  1       21 0.22404277E+00 0.98226313E+03</pdfrwt>
<totfact> 0.10764209E+01</totfact>
</mgrwt>
</event>
<event>
 8    1  0.7631533E-006  0.9431024E+03  0.7818608E-02  0.8832702E-01
         21   -1    0    0  501  502  0.00000000000E+00  0.00000000000E+00  0.11335455446E+04  0.11335455446E+04  0.00000000000E+00 0.  1.
         21   -1    0    0  502  503 -0.00000000000E+00 -0.00000000000E+00 -0.78294386794E+03  0.78294386794E+03  0.00000000000E+00 0.  1.
    9000010    2    1    2  501    0 -0.42036687062E+02 -0.72439988128E+02  0.82236197127E+02  0.93594763904E+03  0.92855832125E+03 0.  0.
   -9000010    2    1    2    0  503  0.42036687062E+02  0.72439988128E+02  0.26836547958E+03  0.98054177356E+03  0.93937612495E+03 0.  0.
        -13    1    3    3    0    0 -0.43641518657E+03  0.14672834564E+03  0.13962437104E+03  0.48112617746E+03  0.10566000000E+00 0.  1.
          4    1    3    3  501    0  0.39437849951E+03 -0.21916833377E+03 -0.57388173911E+02  0.45482146158E+03  0.00000000000E+00 0.  1.
         13    1    4    4    0    0 -0.21523714749E+03  0.69084460794E+02 -0.28885121695E+03  0.36678976142E+03  0.10566000000E+00 0. -1.
         -4    1    4    4    0  503  0.25727383455E+03  0.33555273343E+01  0.55721669653E+03  0.61375201214E+03  0.00000000000E+00 0. -1.
<mgrwt>
<rscale>  2 0.94039714E+03</rscale>
<asrwt>0</asrwt>
<pdfrwt beam="1">  1       21 0.17439162E+00 0.94310240E+03</pdfrwt>
<pdfrwt beam="2">  1       21 0.12045290E+00 0.94310240E+03</pdfrwt>
<totfact> 0.56457926E+01</totfact>
</mgrwt>
</event>
<event>
 8    1  0.7631533E-006  0.1004409E+04  0.7818608E-02  0.8795685E-01
         21   -1    0    0  501  502  0.00000000000E+00  0.00000000000E+00  0.86992817846E+03  0.86992817846E+03  0.00000000000E+00 0.  1.
         21   -1    0    0  502  503 -0.00000000000E+00 -0.00000000000E+00 -0.10778104607E+04  0.10778104607E+04  0.00000000000E+00 0.  1.
    9000010    2    1    2  501    0  0.10667670709E+03  0.74303418484E+02  0.60865542264E+02  0.10062518698E+04  0.99596048787E+03 0.  0.
   -9000010    2    1    2    0  503 -0.10667670709E+03 -0.74303418484E+02 -0.26874782453E+03  0.94148676938E+03  0.89290034489E+03 0.  0.
        -13    1    3    3    0    0 -0.30055634410E+03  0.37229722068E+03 -0.73409873355E+02  0.48407474337E+03  0.10566000000E+00 0.  1.
          4    1    3    3  501    0  0.40723305119E+03 -0.29799380219E+03  0.13427541562E+03  0.52217712643E+03  0.00000000000E+00 0.  1.
         13    1    4    4    0    0 -0.19772851904E+03 -0.20372843976E+03  0.26281061046E+03  0.38687371653E+03  0.10566000000E+00 0. -1.
         -4    1    4    4    0  503  0.91051811948E+02  0.12942502127E+03 -0.53155843499E+03  0.55461305285E+03  0.00000000000E+00 0. -1.
<mgrwt>
<rscale>  2 0.97785078E+03</rscale>
<asrwt>0</asrwt>
<pdfrwt beam="1">  1       21 0.13383511E+00 0.10044094E+04</pdfrwt>
<pdfrwt beam="2">  1       21 0.16581699E+00 0.10044094E+04</pdfrwt>
<totfact> 0.48605258E+01</totfact>
</mgrwt>
</event>
<event>
 8    1  0.7631533E-006  0.1009938E+04  0.7818608E-02  0.8776124E-01
         21   -1    0    0  501  502  0.00000000000E+00  0.00000000000E+00  0.95007956592E+03  0.95007956592E+03  0.00000000000E+00 0.  1.
         21   -1    0    0  502  503 -0.00000000000E+00 -0.00000000000E+00 -0.10746393421E+04  0.10746393421E+04  0.00000000000E+00 0.  1.
    9000010    2    1    2  501    0 -0.74017803256E+02 -0.78725967627E+02  0.15493072544E+03  0.97682162448E+03  0.95838434002E+03 0.  0.
   -9000010    2    1    2    0  503  0.74017803256E+02  0.78725967627E+02 -0.27949050164E+03  0.10478972836E+04  0.10041401113E+04 0.  0.
        -13    1    3    3    0    0 -0.86101080486E+02 -0.39618081435E+03 -0.23909509983E+03  0.47067941494E+03  0.10566000000E+00 0.  1.
          4    1    3    3  501    0  0.12083277230E+02  0.31745484673E+03  0.39402582527E+03  0.50614220954E+03  0.00000000000E+00 0.  1.
         13    1    4    4    0    0  0.24325600240E+03  0.26604900672E+03 -0.56284645333E+03  0.66839486673E+03  0.10566000000E+00 0. -1.
         -4    1    4    4    0  503 -0.16923819914E+03 -0.18732303909E+03  0.28335595169E+03  0.37950241683E+03  0.00000000000E+00 0. -1.
<mgrwt>
<rscale>  2 0.99837012E+03</rscale>
<asrwt>0</asrwt>
<pdfrwt beam="1">  1       21 0.14616609E+00 0.10099375E+04</pdfrwt>
<pdfrwt beam="2">  1       21 0.16532913E+00 0.10099375E+04</pdfrwt>
<totfact> 0.37688118E+01</totfact>
</mgrwt>
</event>
<event>
 8    1  0.7631533E-006  0.9991162E+03  0.7818608E-02  0.8776080E-01
         21   -1    0    0  501  502  0.00000000000E+00  0.00000000000E+00  0.22326146038E+04  0.22326146038E+04  0.00000000000E+00 0. -1.
         21   -1    0    0  502  503 -0.00000000000E+00 -0.00000000000E+00 -0.46549734136E+03  0.46549734136E+03  0.00000000000E+00 0. -1.
    9000010    2    1    2  501    0  0.11085378663E+02  0.10011253559E+03  0.11594201362E+04  0.15286979619E+04  0.99121995594E+03 0.  0.
   -9000010    2    1    2    0  503 -0.11085378663E+02 -0.10011253559E+03  0.60769712620E+03  0.11694139832E+04  0.99402608698E+03 0.  0.
        -13    1    3    3    0    0 -0.46997818999E+03  0.15260047104E+03  0.73125699531E+03  0.88255493154E+03  0.10566000000E+00 0.  1.
          4    1    3    3  501    0  0.48106356866E+03 -0.52487935449E+02  0.42816314093E+03  0.64614303038E+03  0.00000000000E+00 0.  1.
         13    1    4    4    0    0 -0.12082835834E+03  0.28100250350E+03  0.69851157598E+03  0.76254857687E+03  0.10566000000E+00 0. -1.
         -4    1    4    4    0  503  0.10974297967E+03 -0.38111503909E+03 -0.90814449777E+02  0.40686540637E+03  0.00000000000E+00 0. -1.
<mgrwt>
<rscale>  2 0.99841756E+03</rscale>
<asrwt>0</asrwt>
<pdfrwt beam="1">  1       21 0.34347916E+00 0.99911624E+03</pdfrwt>
<pdfrwt beam="2">  1       21 0.71614977E-01 0.99911624E+03</pdfrwt>
<totfact> 0.12107093E+01</totfact>
</mgrwt>
</event>
<event>
 8    1  0.7631533E-006  0.1014061E+04  0.7818608E-02  0.8767761E-01
         21   -1    0    0  503  502  0.00000000000E+00  0.00000000000E+00  0.76614083304E+03  0.76614083304E+03  0.00000000000E+00 0.  1.
         21   -1    0    0  501  503 -0.00000000000E+00 -0.00000000000E+00 -0.13170502473E+04  0.13170502473E+04  0.00000000000E+00 0.  1.
    9000010    2    1    2  501    0 -0.67913230716E+02  0.72323490402E+02 -0.36271777730E+03  0.10518153910E+04  0.98229758049E+03 0.  0.
   -9000010    2    1    2    0  502  0.67913230716E+02 -0.72323490402E+02 -0.18819163692E+03  0.10313756893E+04  0.10091961286E+04 0.  0.
        -13    1    3    3    0    0  0.36772323783E+03  0.16621701179E+03 -0.44273163418E+03  0.59904906787E+03  0.10566000000E+00 0.  1.
          4    1    3    3  501    0 -0.43563646855E+03 -0.93893521386E+02  0.80013856875E+02  0.45276632315E+03  0.00000000000E+00 0.  1.
         13    1    4    4    0    0  0.28398673403E+02  0.31353401660E+03 -0.46023584027E+03  0.55760837875E+03  0.10566000000E+00 0. -1.
         -4    1    4    4    0  502  0.39514557313E+02 -0.38585750700E+03  0.27204420335E+03  0.47376731053E+03  0.00000000000E+00 0. -1.
<mgrwt>
<rscale>  2 0.10073022E+04</rscale>
<asrwt>0</asrwt>
<pdfrwt beam="1">  1       21 0.11786782E+00 0.10140610E+04</pdfrwt>
<pdfrwt beam="2">  1       21 0.20262311E+00 0.10140610E+04</pdfrwt>
<totfact> 0.35081137E+01</totfact>
</mgrwt>
</event>
<event>
 8    1  0.7631533E-006  0.1036443E+04  0.7818608E-02  0.8742114E-01
         21   -1    0    0  501  502  0.00000000000E+00  0.00000000000E+00  0.23953925761E+04  0.23953925761E+04  0.00000000000E+00 0.  1.
         21   -1    0    0  502  503 -0.00000000000E+00 -0.00000000000E+00 -0.64943122414E+03  0.64943122414E+03  0.00000000000E+00 0.  1.
    9000010    2    1    2  501    0  0.73222547435E+02 -0.24134862474E+03  0.17253727431E+04  0.20127404844E+04  0.10052872498E+04 0.  0.
   -9000010    2    1    2    0  503 -0.73222547435E+02  0.24134862474E+03  0.20588608820E+02  0.10320833159E+04  0.10005805215E+04 0.  0.
        -13    1    3    3    0    0  0.50149577016E+03 -0.21709182134E+03  0.61673206888E+03  0.82400565673E+03  0.10566000000E+00 0.  1.
          4    1    3    3  501    0 -0.42827322272E+03 -0.24256803407E+02  0.11086406743E+04  0.11887348276E+04  0.00000000000E+00 0.  1.
         13    1    4    4    0    0  0.27437594615E+03 -0.23500623968E+03 -0.18716003297E+03  0.40686481984E+03  0.10566000000E+00 0. -1.
         -4    1    4    4    0  503 -0.34759849359E+03  0.47635486443E+03  0.20774864179E+03  0.62521849603E+03  0.00000000000E+00 0. -1.
<mgrwt>
<rscale>  2 0.10352995E+04</rscale>
<asrwt>0</asrwt>
<pdfrwt beam="1">  1       21 0.36852193E+00 0.10364425E+04</pdfrwt>
<pdfrwt beam="2">  1       21 0.99912497E-01 0.10364425E+04</pdfrwt>
<totfact> 0.34902845E+00</totfact>
</mgrwt>
</event>
<event>
 8    1  0.7631533E-006  0.1086014E+04  0.7818608E-02  0.8698716E-01
         21   -1    0    0  503  502  0.00000000000E+00  0.00000000000E+00  0.52795587199E+03  0.52795587199E+03  0.00000000000E+00 0.  1.
         21   -1    0    0  501  503 -0.00000000000E+00 -0.00000000000E+00 -0.23329918395E+04  0.23329918395E+04  0.00000000000E+00 0.  1.
    9000010    2    1    2  501    0  0.45197535910E+02 -0.47677974912E+03 -0.59573148842E+03  0.12386778363E+04  0.97471279328E+03 0.  0.
   -9000010    2    1    2    0  502 -0.45197535910E+02  0.47677974912E+03 -0.12093044791E+04  0.16222698752E+04  0.96952590396E+03 0.  0.
        -13    1    3    3    0    0  0.25388369071E+01 -0.43972768918E+03 -0.86135628001E+03  0.96710988962E+03  0.10566000000E+00 0.  1.
          4    1    3    3  501    0  0.42658699002E+02 -0.37052059938E+02  0.26562479159E+03  0.27156794666E+03  0.00000000000E+00 0.  1.
         13    1    4    4    0    0 -0.36898258011E+03  0.57443181564E+03 -0.53308832546E+03  0.86620045553E+03  0.10566000000E+00 0. -1.
         -4    1    4    4    0  502  0.32378504420E+03 -0.97652066522E+02 -0.67621615367E+03  0.75606941971E+03  0.00000000000E+00 0. -1.
<mgrwt>
<rscale>  2 0.10848491E+04</rscale>
<asrwt>0</asrwt>
<pdfrwt beam="1">  1       21 0.81223979E-01 0.10860142E+04</pdfrwt>
<pdfrwt beam="2">  1       21 0.35892183E+00 0.10860142E+04</pdfrwt>
<totfact> 0.68311171E+00</totfact>
</mgrwt>
</event>
<event>
 8    1  0.7631533E-006  0.1073433E+04  0.7818608E-02  0.8710295E-01
         21   -1    0    0  501  502  0.00000000000E+00  0.00000000000E+00  0.13984205880E+04  0.13984205880E+04  0.00000000000E+00 0.  1.
         21   -1    0    0  502  503 -0.00000000000E+00 -0.00000000000E+00 -0.89320369276E+03  0.89320369276E+03  0.00000000000E+00 0.  1.
    9000010    2    1    2  501    0 -0.24374714146E+03  0.29854649107E+03  0.58504116945E+03  0.12152277467E+04  0.99295650968E+03 0.  0.
   -9000010    2    1    2    0  503  0.24374714146E+03 -0.29854649107E+03 -0.79824274244E+02  0.10763965340E+04  0.10018557318E+04 0.  0.
        -13    1    3    3    0    0 -0.58189032025E+02  0.53447454143E+03 -0.21946864470E+02  0.53808054686E+03  0.10566000000E+00 0.  1.
          4    1    3    3  501    0 -0.18555810943E+03 -0.23592805037E+03  0.60698803392E+03  0.67714719984E+03  0.00000000000E+00 0.  1.
         13    1    4    4    0    0  0.10451621073E+03 -0.16334710969E+03 -0.54172107142E+03  0.57538478164E+03  0.10566000000E+00 0. -1.
         -4    1    4    4    0  503  0.13923093073E+03 -0.13519938138E+03  0.46189679718E+03  0.50101175240E+03  0.00000000000E+00 0. -1.
<mgrwt>
<rscale>  2 0.10713513E+04</rscale>
<asrwt>0</asrwt>
<pdfrwt beam="1">  1       21 0.21514163E+00 0.10734326E+04</pdfrwt>
<pdfrwt beam="2">  1       21 0.13741595E+00 0.10734326E+04</pdfrwt>
<totfact> 0.17876879E+01</totfact>
</mgrwt>
</event>
<event>
 8    1  0.7631533E-006  0.1200653E+04  0.7818608E-02  0.8607392E-01
         21   -1    0    0  503  502  0.00000000000E+00  0.00000000000E+00  0.23303696991E+04  0.23303696991E+04  0.00000000000E+00 0.  1.
         21   -1    0    0  501  503 -0.00000000000E+00 -0.00000000000E+00 -0.75590656191E+03  0.75590656191E+03  0.00000000000E+00 0.  1.
    9000010    2    1    2  501    0 -0.65610716675E+03  0.25045725917E+02  0.14516104860E+04  0.18793540624E+04  0.99684240800E+03 0.  0.
   -9000010    2    1    2    0  502  0.65610716675E+03 -0.25045725917E+02  0.12285265122E+03  0.12069221986E+04  0.10052186413E+04 0.  0.
        -13    1    3    3    0    0 -0.91818514975E+03 -0.52900392146E+02  0.10953412757E+04  0.14302569497E+04  0.10566000000E+00 0.  1.
          4    1    3    3  501    0  0.26207798300E+03  0.77946118063E+02  0.35626921023E+03  0.44909711272E+03  0.00000000000E+00 0.  1.
         13    1    4    4    0    0  0.24524394965E+03  0.16816863472E+03  0.52306733948E+03  0.60168491533E+03  0.10566000000E+00 0. -1.
         -4    1    4    4    0  502  0.41086321709E+03 -0.19321436064E+03 -0.40021468826E+03  0.60523728323E+03  0.00000000000E+00 0. -1.
<mgrwt>
<rscale>  2 0.11988985E+04</rscale>
<asrwt>0</asrwt>
<pdfrwt beam="1">  1       21 0.35851841E+00 0.12006533E+04</pdfrwt>
<pdfrwt beam="2">  1       21 0.11629332E+00 0.12006533E+04</pdfrwt>
<totfact> 0.26282697E+00</totfact>
</mgrwt>
</event>
<event>
 8    1  0.7631533E-006  0.1060626E+04  0.7818608E-02  0.8723812E-01
         21   -1    0    0  501  502  0.00000000000E+00  0.00000000000E+00  0.15133583694E+04  0.15133583694E+04  0.00000000000E+00 0.  1.
         21   -1    0    0  502  503 -0.00000000000E+00 -0.00000000000E+00 -0.86992317071E+03  0.86992317071E+03  0.00000000000E+00 0.  1.
    9000010    2    1    2  501    0 -0.12557001701E+03 -0.13406379221E+03  0.79700963004E+03  0.13115944443E+04  0.10253363869E+04 0.  0.
   -9000010    2    1    2    0  503  0.12557001701E+03  0.13406379221E+03 -0.15357443130E+03  0.10716870958E+04  0.10445990599E+04 0.  0.
        -13    1    3    3    0    0 -0.34620329809E+03 -0.15357238878E+03 -0.96667427743E+02  0.39087824825E+03  0.10566000000E+00 0.  1.
          4    1    3    3  501    0  0.22063328108E+03  0.19508596571E+02  0.89367705778E+03  0.92071619605E+03  0.00000000000E+00 0.  1.
         13    1    4    4    0    0  0.63690209984E+02  0.28502414525E+03  0.39960281376E+03  0.49495214532E+03  0.10566000000E+00 0. -1.
         -4    1    4    4    0  503  0.61879807027E+02 -0.15096035304E+03 -0.55317724506E+03  0.57673495053E+03  0.00000000000E+00 0. -1.
<mgrwt>
<rscale>  2 0.10558526E+04</rscale>
<asrwt>0</asrwt>
<pdfrwt beam="1">  1       21 0.23282436E+00 0.10606263E+04</pdfrwt>
<pdfrwt beam="2">  1       21 0.13383433E+00 0.10606263E+04</pdfrwt>
<totfact> 0.14281080E+01</totfact>
</mgrwt>
</event>
<event>
 8    1  0.7631533E-006  0.9985630E+03  0.7818608E-02  0.8780040E-01
         21   -1    0    0  501  502  0.00000000000E+00  0.00000000000E+00  0.64983357801E+03  0.64983357801E+03  0.00000000000E+00 0.  1.
         21   -1    0    0  502  503 -0.00000000000E+00 -0.00000000000E+00 -0.21741469411E+04  0.21741469411E+04  0.00000000000E+00 0.  1.
    9000010    2    1    2  501    0 -0.10436229926E+03 -0.11993851923E+03  0.14770446956E+02  0.99867220848E+03  0.98582517516E+03 0.  0.
   -9000010    2    1    2    0  503  0.10436229926E+03  0.11993851923E+03 -0.15390838101E+04  0.18253083107E+04  0.96834638257E+03 0.  0.
        -13    1    3    3    0    0  0.41231801733E+02 -0.23410408038E+03  0.45930557141E+03  0.51717153925E+03  0.10566000000E+00 0.  1.
          4    1    3    3  501    0 -0.14559410099E+03  0.11416556115E+03 -0.44453512445E+03  0.48150066923E+03  0.00000000000E+00 0.  1.
         13    1    4    4    0    0  0.44615682821E+03 -0.17447300110E+03 -0.49964938538E+03  0.69220391717E+03  0.10566000000E+00 0. -1.
         -4    1    4    4    0  503 -0.34179452895E+03  0.29441152033E+03 -0.10394344247E+04  0.11331043935E+04  0.00000000000E+00 0. -1.
<mgrwt>
<rscale>  2 0.99422178E+03</rscale>
<asrwt>0</asrwt>
<pdfrwt beam="1">  1       21 0.99974398E-01 0.99856297E+03</pdfrwt>
<pdfrwt beam="2">  1       21 0.33448414E+00 0.99856297E+03</pdfrwt>
<totfact> 0.60936443E+00</totfact>
</mgrwt>
</event>
<event>
 8    1  0.7631533E-006  0.1137317E+04  0.7818608E-02  0.8671731E-01
         21   -1    0    0  501  502  0.00000000000E+00  0.00000000000E+00  0.71227890124E+03  0.71227890124E+03  0.00000000000E+00 0. -1.
         21   -1    0    0  502  503 -0.00000000000E+00 -0.00000000000E+00 -0.18581535697E+04  0.18581535697E+04  0.00000000000E+00 0. -1.
    9000010    2    1    2  501    0 -0.19773817126E+03 -0.27966769372E+03 -0.97507303602E+03  0.14980842129E+04  0.10845157813E+04 0.  0.
   -9000010    2    1    2    0  503  0.19773817126E+03  0.27966769372E+03 -0.17080163248E+03  0.10723482581E+04  0.10017201135E+04 0.  0.
        -13    1    3    3    0    0 -0.31632974002E+03 -0.65483268390E+03 -0.75049044717E+03  0.10450388848E+04  0.10566000000E+00 0.  1.
          4    1    3    3  501    0  0.11859156876E+03  0.37516499019E+03 -0.22458258885E+03  0.45304532804E+03  0.00000000000E+00 0.  1.
         13    1    4    4    0    0  0.59182951376E+03  0.79415308152E+02  0.35813097164E+01  0.59714470731E+03  0.10566000000E+00 0. -1.
         -4    1    4    4    0  503 -0.39409134250E+03  0.20025238557E+03 -0.17438294219E+03  0.47520355079E+03  0.00000000000E+00 0. -1.
<mgrwt>
<rscale>  2 0.11171204E+04</rscale>
<asrwt>0</asrwt>
<pdfrwt beam="1">  1       21 0.10958137E+00 0.11373165E+04</pdfrwt>
<pdfrwt beam="2">  1       21 0.28586978E+00 0.11373165E+04</pdfrwt>
<totfact> 0.10183891E+01</totfact>
</mgrwt>
</event>
<event>
 8    1  0.7631533E-006  0.1373775E+04  0.7818608E-02  0.8487130E-01
         21   -1    0    0  503  502  0.00000000000E+00  0.00000000000E+00  0.17052629935E+04  0.17052629935E+04  0.00000000000E+00 0.  1.
         21   -1    0    0  501  503 -0.00000000000E+00 -0.00000000000E+00 -0.18040445074E+04  0.18040445074E+04  0.00000000000E+00 0. -1.
    9000010    2    1    2  501    0  0.23289604172E+03  0.91329341855E+03  0.10456070994E+04  0.17264277612E+04  0.99945643914E+03 0.  0.
   -9000010    2    1    2    0  502 -0.23289604172E+03 -0.91329341855E+03 -0.11443886132E+04  0.17828797397E+04  0.99029764898E+03 0.  0.
        -13    1    3    3    0    0 -0.21850458079E+03  0.64779312940E+03  0.98533808370E+03  0.11992795090E+04  0.10566000000E+00 0.  1.
          4    1    3    3  501    0  0.45140062251E+03  0.26550028915E+03  0.60269015658E+02  0.52714825219E+03  0.00000000000E+00 0.  1.
         13    1    4    4    0    0  0.22189622896E+03 -0.83686525643E+03 -0.94146920189E+03  0.12790409153E+04  0.10566000000E+00 0. -1.
         -4    1    4    4    0  502 -0.45479227068E+03 -0.76428162121E+02 -0.20291941131E+03  0.50383882435E+03  0.00000000000E+00 0. -1.
<mgrwt>
<rscale>  2 0.13721101E+04</rscale>
<asrwt>0</asrwt>
<pdfrwt beam="1">  1       21 0.26234815E+00 0.13737753E+04</pdfrwt>
<pdfrwt beam="2">  1       21 0.27754531E+00 0.13737753E+04</pdfrwt>
<totfact> 0.58863376E-01</totfact>
</mgrwt>
</event>
<event>
 8    1  0.7631533E-006  0.1098070E+04  0.7818608E-02  0.8687651E-01
         21   -1    0    0  503  502  0.00000000000E+00  0.00000000000E+00  0.15783184050E+04  0.15783184050E+04  0.00000000000E+00 0.  1.
         21   -1    0    0  501  503 -0.00000000000E+00 -0.00000000000E+00 -0.12168226834E+04  0.12168226834E+04  0.00000000000E+00 0.  1.
    9000010    2    1    2  501    0 -0.16320564400E+03  0.44577666372E+03 -0.67221923854E+03  0.12870547323E+04  0.98958489438E+03 0.  0.
   -9000010    2    1    2    0  502  0.16320564400E+03 -0.44577666372E+03  0.10337149601E+04  0.15080863560E+04  0.99015398918E+03 0.  0.
        -13    1    3    3    0    0 -0.17802169129E+02  0.75056882406E+03 -0.38503814395E+03  0.84375639870E+03  0.10566000000E+00 0.  1.
          4    1    3    3  501    0 -0.14540347488E+03 -0.30479216034E+03 -0.28718109459E+03  0.44329833363E+03  0.00000000000E+00 0.  1.
         13    1    4    4    0    0 -0.39121781291E+03 -0.55052547866E+02  0.23282162514E+03  0.45857178332E+03  0.10566000000E+00 0. -1.
         -4    1    4    4    0  502  0.55442345691E+03 -0.39072411585E+03  0.80089333497E+03  0.10495145727E+04  0.00000000000E+00 0. -1.
<mgrwt>
<rscale>  2 0.10979417E+04</rscale>
<asrwt>0</asrwt>
<pdfrwt beam="1">  1       21 0.24281822E+00 0.10980701E+04</pdfrwt>
<pdfrwt beam="2">  1       21 0.18720349E+00 0.10980701E+04</pdfrwt>
<totfact> 0.41178913E+00</totfact>
</mgrwt>
</event>
<event>
 8    1  0.7631533E-006  0.1355569E+04  0.7818608E-02  0.8509999E-01
         21   -1    0    0  501  502  0.00000000000E+00  0.00000000000E+00  0.99824495273E+03  0.99824495273E+03  0.00000000000E+00 0.  1.
         21   -1    0    0  502  503 -0.00000000000E+00 -0.00000000000E+00 -0.20607290987E+04  0.20607290987E+04  0.00000000000E+00 0. -1.
    9000010    2    1    2  501    0 -0.78940362323E+03 -0.22048758187E+03  0.56610105053E+02  0.13567510079E+04  0.10797202135E+04 0.  0.
   -9000010    2    1    2    0  503  0.78940362323E+03  0.22048758187E+03 -0.11190942511E+04  0.17022230435E+04  0.98661973072E+03 0.  0.
        -13    1    3    3    0    0 -0.95182668067E+03 -0.42848942124E+03 -0.10208140038E+03  0.10488078173E+04  0.10566000000E+00 0.  1.
          4    1    3    3  501    0  0.16242305744E+03  0.20800183937E+03  0.15869150544E+03  0.30794319065E+03  0.00000000000E+00 0.  1.
         13    1    4    4    0    0  0.10105394483E+04  0.27827737039E+03 -0.97833286208E+03  0.14337933853E+04  0.10566000000E+00 0. -1.
         -4    1    4    4    0  503 -0.22113582510E+03 -0.57789788516E+02 -0.14076138898E+03  0.26842965825E+03  0.00000000000E+00 0. -1.
<mgrwt>
<rscale>  2 0.13369599E+04</rscale>
<asrwt>0</asrwt>
<pdfrwt beam="1">  1       21 0.15357615E+00 0.13555695E+04</pdfrwt>
<pdfrwt beam="2">  1       21 0.31703524E+00 0.13555695E+04</pdfrwt>
<totfact> 0.22013314E+00</totfact>
</mgrwt>
</event>
<event>
 8    1  0.7631533E-006  0.1059236E+04  0.7818608E-02  0.8723070E-01
         21   -1    0    0  503  502  0.00000000000E+00  0.00000000000E+00  0.12433420190E+04  0.12433420190E+04  0.00000000000E+00 0.  1.
         21   -1    0    0  501  503 -0.00000000000E+00 -0.00000000000E+00 -0.13079006657E+04  0.13079006657E+04  0.00000000000E+00 0.  1.
    9000010    2    1    2  501    0 -0.22700523996E+03 -0.23760431247E+03 -0.75016203048E+03  0.12979692332E+04  0.10069726263E+04 0.  0.
   -9000010    2    1    2    0  502  0.22700523996E+03  0.23760431247E+03  0.68560338376E+03  0.12532734515E+04  0.99632080990E+03 0.  0.
        -13    1    3    3    0    0 -0.54513603416E+03 -0.58852950330E+02 -0.75492039902E+03  0.93302828764E+03  0.10566000000E+00 0.  1.
          4    1    3    3  501    0  0.31813079420E+03 -0.17875136214E+03  0.47583685446E+01  0.36494094557E+03  0.00000000000E+00 0.  1.
         13    1    4    4    0    0  0.35552057285E+03  0.50105309644E+03  0.73291710691E+03  0.95635588561E+03  0.10566000000E+00 0. -1.
         -4    1    4    4    0  502 -0.12851533289E+03 -0.26344878397E+03 -0.47313723144E+02  0.29691756594E+03  0.00000000000E+00 0. -1.
<mgrwt>
<rscale>  2 0.10566967E+04</rscale>
<asrwt>0</asrwt>
<pdfrwt beam="1">  1       21 0.19128339E+00 0.10592361E+04</pdfrwt>
<pdfrwt beam="2">  1       21 0.20121549E+00 0.10592361E+04</pdfrwt>
<totfact> 0.79329960E+00</totfact>
</mgrwt>
</event>
<event>
 8    1  0.7631533E-006  0.1065697E+04  0.7818608E-02  0.8716080E-01
         21   -1    0    0  501  502  0.00000000000E+00  0.00000000000E+00  0.94842750381E+03  0.94842750381E+03  0.00000000000E+00 0. -1.
         21   -1    0    0  502  503 -0.00000000000E+00 -0.00000000000E+00 -0.17973108019E+04  0.17973108019E+04  0.00000000000E+00 0. -1.
    9000010    2    1    2  501    0  0.40680883317E+02  0.33837395317E+03  0.37220479323E+03  0.11250082000E+04  0.10054626674E+04 0.  0.
   -9000010    2    1    2    0  503 -0.40680883317E+02 -0.33837395317E+03 -0.12210880913E+04  0.16207301057E+04  0.10097316883E+04 0.  0.
        -13    1    3    3    0    0 -0.47019142679E+03  0.21244633201E+03  0.29174022855E+03  0.59272741958E+03  0.10566000000E+00 0.  1.
          4    1    3    3  501    0  0.51087231011E+03  0.12592762117E+03  0.80464564683E+02  0.53228078039E+03  0.00000000000E+00 0.  1.
         13    1    4    4    0    0 -0.38081012717E+03 -0.13053809591E+03 -0.11466165050E+04  0.12152308292E+04  0.10566000000E+00 0. -1.
         -4    1    4    4    0  503  0.34012924385E+03 -0.20783585726E+03 -0.74471586254E+02  0.40549927650E+03  0.00000000000E+00 0. -1.
<mgrwt>
<rscale>  2 0.10646845E+04</rscale>
<asrwt>0</asrwt>
<pdfrwt beam="1">  1       21 0.14591193E+00 0.10656969E+04</pdfrwt>
<pdfrwt beam="2">  1       21 0.27650935E+00 0.10656969E+04</pdfrwt>
<totfact> 0.53137839E+00</totfact>
</mgrwt>
</event>
<event>
 8    1  0.7631533E-006  0.1019692E+04  0.7818608E-02  0.8756457E-01
         21   -1    0    0  501  502  0.00000000000E+00  0.00000000000E+00  0.74050844202E+03  0.74050844202E+03  0.00000000000E+00 0.  1.
         21   -1    0    0  502  503 -0.00000000000E+00 -0.00000000000E+00 -0.17318408296E+04  0.17318408296E+04  0.00000000000E+00 0.  1.
    9000010    2    1    2  501    0 -0.14138752807E+03 -0.11663863194E+03  0.42680055525E+02  0.10205846529E+04  0.10030834676E+04 0.  0.
   -9000010    2    1    2    0  503  0.14138752807E+03  0.11663863194E+03 -0.10340124431E+04  0.14517646187E+04  0.10024189604E+04 0.  0.
        -13    1    3    3    0    0 -0.32186737448E+03 -0.38766789813E+03 -0.26784282892E+03  0.57063543367E+03  0.10566000000E+00 0.  1.
          4    1    3    3  501    0  0.18047984641E+03  0.27102926619E+03  0.31052288445E+03  0.44994921920E+03  0.00000000000E+00 0.  1.
         13    1    4    4    0    0 -0.35396737103E+01  0.11777195463E+03  0.18762862113E+03  0.22155647862E+03  0.10566000000E+00 0. -1.
         -4    1    4    4    0  503  0.14492720178E+03 -0.11333226853E+01 -0.12216410642E+04  0.12302081401E+04  0.00000000000E+00 0. -1.
<mgrwt>
<rscale>  2 0.10195284E+04</rscale>
<asrwt>0</asrwt>
<pdfrwt beam="1">  1       21 0.11392437E+00 0.10196918E+04</pdfrwt>
<pdfrwt beam="2">  1       21 0.26643705E+00 0.10196918E+04</pdfrwt>
<totfact> 0.12944709E+01</totfact>
</mgrwt>
</event>
<event>
 8    1  0.7631533E-006  0.1039384E+04  0.7818608E-02  0.8771048E-01
         21   -1    0    0  501  502  0.00000000000E+00  0.00000000000E+00  0.96199706649E+03  0.96199706649E+03  0.00000000000E+00 0.  1.
         21   -1    0    0  502  503 -0.00000000000E+00 -0.00000000000E+00 -0.10297494788E+04  0.10297494788E+04  0.00000000000E+00 0.  1.
    9000010    2    1    2  501    0  0.67595190145E+02  0.78366600177E+02  0.17871204743E+03  0.10546362696E+04  0.10342191409E+04 0.  0.
   -9000010    2    1    2    0  503 -0.67595190145E+02 -0.78366600177E+02 -0.24646445976E+03  0.93711027575E+03  0.89817621057E+03 0.  0.
        -13    1    3    3    0    0 -0.27132036401E+03  0.45660308143E+03  0.76959374468E+02  0.53667855405E+03  0.10566000000E+00 0.  1.
          4    1    3    3  501    0  0.33891555415E+03 -0.37823648125E+03  0.10175267296E+03  0.51795771550E+03  0.00000000000E+00 0.  1.
         13    1    4    4    0    0 -0.45294540327E+03 -0.35323088057E+02  0.38444504222E+02  0.45594434964E+03  0.10566000000E+00 0. -1.
         -4    1    4    4    0  503  0.38535021313E+03 -0.43043512120E+02 -0.28490896398E+03  0.48116592611E+03  0.00000000000E+00 0. -1.
<mgrwt>
<rscale>  2 0.10037799E+04</rscale>
<asrwt>0</asrwt>
<pdfrwt beam="1">  1       21 0.14799955E+00 0.10393843E+04</pdfrwt>
<pdfrwt beam="2">  1       21 0.15842300E+00 0.10393843E+04</pdfrwt>
<totfact> 0.41317513E+01</totfact>
</mgrwt>
</event>
<event>
 8    1  0.7631533E-006  0.1169641E+04  0.7818608E-02  0.8642577E-01
         21   -1    0    0  501  502  0.00000000000E+00  0.00000000000E+00  0.18832389460E+04  0.18832389460E+04  0.00000000000E+00 0. -1.
         21   -1    0    0  502  503 -0.00000000000E+00 -0.00000000000E+00 -0.78759890789E+03  0.78759890789E+03  0.00000000000E+00 0. -1.
    9000010    2    1    2  501    0 -0.29493830204E+03  0.40492509345E+03  0.57865002843E+02  0.11071765989E+04  0.98566664211E+03 0.  0.
   -9000010    2    1    2    0  503  0.29493830204E+03 -0.40492509345E+03  0.10377750352E+04  0.15636612549E+04  0.10569326199E+04 0.  0.
        -13    1    3    3    0    0 -0.11972376447E+03  0.39902435612E+03  0.48862205306E+03  0.64211037872E+03  0.10566000000E+00 0.  1.
          4    1    3    3  501    0 -0.17521453757E+03  0.59007373282E+01 -0.43075705022E+03  0.46506622022E+03  0.00000000000E+00 0.  1.
         13    1    4    4    0    0  0.58409117067E+03 -0.49307942810E+02  0.91926858621E+03  0.10902515827E+04  0.10566000000E+00 0. -1.
         -4    1    4    4    0  503 -0.28915286863E+03 -0.35561715064E+03  0.11850644901E+03  0.47340967219E+03  0.00000000000E+00 0. -1.
<mgrwt>
<rscale>  2 0.11533075E+04</rscale>
<asrwt>0</asrwt>
<pdfrwt beam="1">  1       21 0.28972907E+00 0.11696408E+04</pdfrwt>
<pdfrwt beam="2">  1       21 0.12116906E+00 0.11696408E+04</pdfrwt>
<totfact> 0.71954872E+00</totfact>
</mgrwt>
</event>
<event>
 8    1  0.7631533E-006  0.1092810E+04  0.7818608E-02  0.8701913E-01
         21   -1    0    0  503  502  0.00000000000E+00  0.00000000000E+00  0.24843190627E+04  0.24843190627E+04  0.00000000000E+00 0.  1.
         21   -1    0    0  501  503 -0.00000000000E+00 -0.00000000000E+00 -0.56770444464E+03  0.56770444464E+03  0.00000000000E+00 0.  1.
    9000010    2    1    2  501    0  0.59808710522E+00 -0.28671302939E+03  0.31250988518E+03  0.11366156355E+04  0.10545273612E+04 0.  0.
   -9000010    2    1    2    0  502 -0.59808710522E+00  0.28671302939E+03  0.16041047329E+04  0.19154078718E+04  0.10066929038E+04 0.  0.
        -13    1    3    3    0    0 -0.23068706542E+03 -0.33205760104E+03 -0.28475195989E+03  0.49453256959E+03  0.10566000000E+00 0.  1.
          4    1    3    3  501    0  0.23128515253E+03  0.45344571654E+02  0.59726184507E+03  0.64208306592E+03  0.00000000000E+00 0.  1.
         13    1    4    4    0    0  0.34634826607E+03  0.10548598622E+03  0.12134004520E+03  0.38184791794E+03  0.10566000000E+00 0. -1.
         -4    1    4    4    0  502 -0.34694635318E+03  0.18122704317E+03  0.14827646877E+04  0.15335599539E+04  0.00000000000E+00 0. -1.
<mgrwt>
<rscale>  2 0.10811018E+04</rscale>
<asrwt>0</asrwt>
<pdfrwt beam="1">  1       21 0.38220293E+00 0.10928095E+04</pdfrwt>
<pdfrwt beam="2">  1       21 0.87339146E-01 0.10928095E+04</pdfrwt>
<totfact> 0.39043537E+00</totfact>
</mgrwt>
</event>
<event>
 8    1  0.7631533E-006  0.1001197E+04  0.7818608E-02  0.8773721E-01
         21   -1    0    0  503  502  0.00000000000E+00  0.00000000000E+00  0.60158233305E+03  0.60158233305E+03  0.00000000000E+00 0.  1.
         21   -1    0    0  501  503 -0.00000000000E+00 -0.00000000000E+00 -0.19660285340E+04  0.19660285340E+04  0.00000000000E+00 0.  1.
    9000010    2    1    2  501    0 -0.85159687714E+02 -0.39021472890E+02 -0.11853325740E+04  0.15515827580E+04  0.99680534507E+03 0.  0.
   -9000010    2    1    2    0  502  0.85159687714E+02  0.39021472890E+02 -0.17911362693E+03  0.10160281091E+04  0.99571912675E+03 0.  0.
        -13    1    3    3    0    0  0.16041758186E+03  0.42351604248E+03 -0.72237204774E+03  0.85259663695E+03  0.10566000000E+00 0.  1.
          4    1    3    3  501    0 -0.24557726958E+03 -0.46253751537E+03 -0.46296052629E+03  0.69898612101E+03  0.00000000000E+00 0.  1.
         13    1    4    4    0    0  0.27326770594E+03 -0.18013849927E+03 -0.49155105800E+03  0.59054853468E+03  0.10566000000E+00 0. -1.
         -4    1    4    4    0  502 -0.18810801823E+03  0.21915997216E+03  0.31243743107E+03  0.42547957442E+03  0.00000000000E+00 0. -1.
<mgrwt>
<rscale>  2 0.10009267E+04</rscale>
<asrwt>0</asrwt>
<pdfrwt beam="1">  1       21 0.92551128E-01 0.10011972E+04</pdfrwt>
<pdfrwt beam="2">  1       21 0.30246593E+00 0.10011972E+04</pdfrwt>
<totfact> 0.12473024E+01</totfact>
</mgrwt>
</event>
<event>
 8    1  0.7631533E-006  0.1053115E+04  0.7818608E-02  0.8730480E-01
         21   -1    0    0  503  502  0.00000000000E+00  0.00000000000E+00  0.21361120341E+04  0.21361120341E+04  0.00000000000E+00 0. -1.
         21   -1    0    0  501  503 -0.00000000000E+00 -0.00000000000E+00 -0.51819850553E+03  0.51819850553E+03  0.00000000000E+00 0. -1.
    9000010    2    1    2  501    0  0.38412136054E+02  0.25497117384E+03  0.64748024939E+03  0.12362368614E+04  0.10210607781E+04 0.  0.
   -9000010    2    1    2    0  502 -0.38412136054E+02 -0.25497117384E+03  0.97043327914E+03  0.14180736782E+04  0.10013522935E+04 0.  0.
        -13    1    3    3    0    0 -0.31866285483E+03  0.83574798364E+02 -0.13750609533E+03  0.35698557308E+03  0.10566000000E+00 0.  1.
          4    1    3    3  501    0  0.35707499089E+03  0.17139637547E+03  0.78498634472E+03  0.87925128834E+03  0.00000000000E+00 0.  1.
         13    1    4    4    0    0 -0.26643105163E+03 -0.45945927151E+03  0.97665464496E+03  0.11117295688E+04  0.10566000000E+00 0. -1.
         -4    1    4    4    0  502  0.22801891558E+03  0.20448809767E+03 -0.62213658195E+01  0.30634410937E+03  0.00000000000E+00 0. -1.
<mgrwt>
<rscale>  2 0.10483077E+04</rscale>
<asrwt>0</asrwt>
<pdfrwt beam="1">  1       21 0.32863262E+00 0.10531149E+04</pdfrwt>
<pdfrwt beam="2">  1       21 0.79722848E-01 0.10531149E+04</pdfrwt>
<totfact> 0.11748035E+01</totfact>
</mgrwt>
</event>
<event>
 8    1  0.7631533E-006  0.1158619E+04  0.7818608E-02  0.8639291E-01
         21   -1    0    0  501  502  0.00000000000E+00  0.00000000000E+00  0.15060897353E+04  0.15060897353E+04  0.00000000000E+00 0.  1.
         21   -1    0    0  502  503 -0.00000000000E+00 -0.00000000000E+00 -0.95541706604E+03  0.95541706604E+03  0.00000000000E+00 0.  1.
    9000010    2    1    2  501    0 -0.53511850137E+03  0.20694833803E+03  0.60325185097E+03  0.13062582224E+04  0.10065874640E+04 0.  0.
   -9000010    2    1    2    0  503  0.53511850137E+03 -0.20694833803E+03 -0.52579181759E+02  0.11552485789E+04  0.10013267616E+04 0.  0.
        -13    1    3    3    0    0  0.23426914412E+03 -0.12454870779E+03  0.33344061353E+03  0.42611860604E+03  0.10566000000E+00 0.  1.
          4    1    3    3  501    0 -0.76938764549E+03  0.33149704582E+03  0.26981123744E+03  0.88013961635E+03  0.00000000000E+00 0.  1.
         13    1    4    4    0    0  0.76660370656E+03 -0.35758006207E+03 -0.15633149334E+03  0.86022339579E+03  0.10566000000E+00 0. -1.
         -4    1    4    4    0  503 -0.23148520519E+03  0.15063172404E+03  0.10375231158E+03  0.29502518311E+03  0.00000000000E+00 0. -1.
<mgrwt>
<rscale>  2 0.11574753E+04</rscale>
<asrwt>0</asrwt>
<pdfrwt beam="1">  1       21 0.23170611E+00 0.11586189E+04</pdfrwt>
<pdfrwt beam="2">  1       21 0.14698724E+00 0.11586189E+04</pdfrwt>
<totfact> 0.10764468E+01</totfact>
</mgrwt>
</event>
<event>
 8    1  0.7631533E-006  0.1047324E+04  0.7818608E-02  0.8734105E-01
         21   -1    0    0  501  502  0.00000000000E+00  0.00000000000E+00  0.12207278825E+04  0.12207278825E+04  0.00000000000E+00 0. -1.
         21   -1    0    0  502  503 -0.00000000000E+00 -0.00000000000E+00 -0.10061129343E+04  0.10061129343E+04  0.00000000000E+00 0. -1.
    9000010    2    1    2  501    0  0.20814608154E+03 -0.24357714334E+03  0.48931244950E+03  0.11559901750E+04  0.99711182695E+03 0.  0.
   -9000010    2    1    2    0  503 -0.20814608154E+03  0.24357714334E+03 -0.27469750133E+03  0.10708506418E+04  0.98417872556E+03 0.  0.
        -13    1    3    3    0    0 -0.18842291201E+02 -0.35565560404E+03 -0.20917889713E+03  0.41303966249E+03  0.10566000000E+00 0.  1.
          4    1    3    3  501    0  0.22698837274E+03  0.11207846069E+03  0.69849134664E+03  0.74295051251E+03  0.00000000000E+00 0.  1.
         13    1    4    4    0    0 -0.24717259322E+03  0.57603431565E+03  0.16696328289E+02  0.62704752785E+03  0.10566000000E+00 0. -1.
         -4    1    4    4    0  503  0.39026511677E+02 -0.33245717231E+03 -0.29139382962E+03  0.44380311397E+03  0.00000000000E+00 0. -1.
<mgrwt>
<rscale>  2 0.10442335E+04</rscale>
<asrwt>0</asrwt>
<pdfrwt beam="1">  1       21 0.18780429E+00 0.10473235E+04</pdfrwt>
<pdfrwt beam="2">  1       21 0.15478661E+00 0.10473235E+04</pdfrwt>
<totfact> 0.20444780E+01</totfact>
</mgrwt>
</event>
<event>
 8    1  0.7631533E-006  0.1024796E+04  0.7818608E-02  0.8753253E-01
         21   -1    0    0  501  502  0.00000000000E+00  0.00000000000E+00  0.74778654942E+03  0.74778654942E+03  0.00000000000E+00 0.  1.
         21   -1    0    0  502  503 -0.00000000000E+00 -0.00000000000E+00 -0.15090661532E+04  0.15090661532E+04  0.00000000000E+00 0.  1.
    9000010    2    1    2  501    0  0.95765616525E+02 -0.14002753059E+03 -0.68858267248E+02  0.10200606776E+04  0.10034956713E+04 0.  0.
   -9000010    2    1    2    0  503 -0.95765616525E+02  0.14002753059E+03 -0.69242133653E+03  0.12367920250E+04  0.10106574312E+04 0.  0.
        -13    1    3    3    0    0 -0.30620773948E+03 -0.39515729238E+03 -0.17969358074E+03  0.53122712615E+03  0.10566000000E+00 0.  1.
          4    1    3    3  501    0  0.40197335601E+03  0.25512976179E+03  0.11083531349E+03  0.48883355143E+03  0.00000000000E+00 0.  1.
         13    1    4    4    0    0 -0.28630190323E+03 -0.36452553646E+03 -0.44809778186E+03  0.64470092275E+03  0.10566000000E+00 0. -1.
         -4    1    4    4    0  503  0.19053628671E+03  0.50455306705E+03 -0.24432355467E+03  0.59209110227E+03  0.00000000000E+00 0. -1.
<mgrwt>
<rscale>  2 0.10230260E+04</rscale>
<asrwt>0</asrwt>
<pdfrwt beam="1">  1       21 0.11504409E+00 0.10247962E+04</pdfrwt>
<pdfrwt beam="2">  1       21 0.23216402E+00 0.10247962E+04</pdfrwt>
<totfact> 0.22359858E+01</totfact>
</mgrwt>
</event>
<event>
 8    1  0.7631533E-006  0.9938331E+03  0.7818608E-02  0.8781218E-01
         21   -1    0    0  501  502  0.00000000000E+00  0.00000000000E+00  0.69140561601E+03  0.69140561601E+03  0.00000000000E+00 0. -1.
         21   -1    0    0  502  503 -0.00000000000E+00 -0.00000000000E+00 -0.15327712583E+04  0.15327712583E+04  0.00000000000E+00 0. -1.
    9000010    2    1    2  501    0 -0.36553059668E+02 -0.22445327462E+01 -0.12325880737E+03  0.99805224222E+03  0.98973450001E+03 0.  0.
   -9000010    2    1    2    0  503  0.36553059668E+02  0.22445327462E+01 -0.71810683496E+03  0.12261246321E+04  0.99315810574E+03 0.  0.
        -13    1    3    3    0    0 -0.32689770019E+03  0.27102980104E+03  0.21428111555E+03  0.47564237310E+03  0.10566000000E+00 0.  1.
          4    1    3    3  501    0  0.29034464052E+03 -0.27327433378E+03 -0.33753992292E+03  0.52240986912E+03  0.00000000000E+00 0.  1.
         13    1    4    4    0    0  0.50437605004E+03  0.44731945218E+02 -0.48724611590E+03  0.70271255532E+03  0.10566000000E+00 0. -1.
         -4    1    4    4    0  503 -0.46782299038E+03 -0.42487412471E+02 -0.23086071906E+03  0.52341207681E+03  0.00000000000E+00 0. -1.
<mgrwt>
<rscale>  2 0.99297665E+03</rscale>
<asrwt>0</asrwt>
<pdfrwt beam="1">  1       21 0.10637010E+00 0.99383308E+03</pdfrwt>
<pdfrwt beam="2">  1       21 0.23581096E+00 0.99383308E+03</pdfrwt>
<totfact> 0.26179919E+01</totfact>
</mgrwt>
</event>
<event>
 8    1  0.7631533E-006  0.1072832E+04  0.7818608E-02  0.8718370E-01
         21   -1    0    0  503  502  0.00000000000E+00  0.00000000000E+00  0.14988580479E+04  0.14988580479E+04  0.00000000000E+00 0. -1.
         21   -1    0    0  501  503 -0.00000000000E+00 -0.00000000000E+00 -0.79293910645E+03  0.79293910645E+03  0.00000000000E+00 0. -1.
    9000010    2    1    2  501    0  0.18160020973E+02 -0.35031409695E+03  0.64840585222E+03  0.12174247469E+04  0.96883595734E+03 0.  0.
   -9000010    2    1    2    0  502 -0.18160020973E+02  0.35031409695E+03  0.57513089279E+02  0.10743724075E+04  0.10138631869E+04 0.  0.
        -13    1    3    3    0    0 -0.12193464919E+03 -0.65665368770E+03  0.29793968839E+03  0.73132085525E+03  0.10566000000E+00 0.  1.
          4    1    3    3  501    0  0.14009467016E+03  0.30633959075E+03  0.35046616383E+03  0.48610389163E+03  0.00000000000E+00 0.  1.
         13    1    4    4    0    0 -0.14103362669E+02 -0.28313620670E+02 -0.44446984677E+03  0.44559401006E+03  0.10566000000E+00 0. -1.
         -4    1    4    4    0  502 -0.40566583044E+01  0.37862771762E+03  0.50198293605E+03  0.62877839746E+03  0.00000000000E+00 0. -1.
<mgrwt>
<rscale>  2 0.10620590E+04</rscale>
<asrwt>0</asrwt>
<pdfrwt beam="1">  1       21 0.23059355E+00 0.10728319E+04</pdfrwt>
<pdfrwt beam="2">  1       21 0.12199063E+00 0.10728319E+04</pdfrwt>
<totfact> 0.19303203E+01</totfact>
</mgrwt>
</event>
<event>
 8    1  0.7631533E-006  0.1034463E+04  0.7818608E-02  0.8748635E-01
         21   -1    0    0  503  502  0.00000000000E+00  0.00000000000E+00  0.10521918814E+04  0.10521918814E+04  0.00000000000E+00 0. -1.
         21   -1    0    0  501  503 -0.00000000000E+00 -0.00000000000E+00 -0.10319764427E+04  0.10319764427E+04  0.00000000000E+00 0. -1.
    9000010    2    1    2  501    0 -0.23606236561E+03 -0.11101208130E+03 -0.19393189237E+03  0.10524844121E+04  0.10010318357E+04 0.  0.
   -9000010    2    1    2    0  502  0.23606236561E+03  0.11101208130E+03  0.21414733110E+03  0.10316839120E+04  0.97491717196E+03 0.  0.
        -13    1    3    3    0    0  0.27049375531E+03 -0.96449844496E+02  0.24849650052E+03  0.37976303941E+03  0.10566000000E+00 0.  1.
          4    1    3    3  501    0 -0.50655612092E+03 -0.14562236808E+02 -0.44242839289E+03  0.67272137264E+03  0.00000000000E+00 0.  1.
         13    1    4    4    0    0  0.59555448003E+03  0.17291933989E+03  0.24232521114E+03  0.66581360448E+03  0.10566000000E+00 0. -1.
         -4    1    4    4    0  502 -0.35949211442E+03 -0.61907258588E+02 -0.28177880042E+02  0.36587030751E+03  0.00000000000E+00 0. -1.
<mgrwt>
<rscale>  2 0.10280922E+04</rscale>
<asrwt>0</asrwt>
<pdfrwt beam="1">  1       21 0.16187567E+00 0.10344631E+04</pdfrwt>
<pdfrwt beam="2">  1       21 0.15876561E+00 0.10344631E+04</pdfrwt>
<totfact> 0.31036606E+01</totfact>
</mgrwt>
</event>
<event>
 8    1  0.7631533E-006  0.1056929E+04  0.7818608E-02  0.8737296E-01
         21   -1    0    0  503  502  0.00000000000E+00  0.00000000000E+00  0.94695338712E+03  0.94695338712E+03  0.00000000000E+00 0.  1.
         21   -1    0    0  501  503 -0.00000000000E+00 -0.00000000000E+00 -0.11604332166E+04  0.11604332166E+04  0.00000000000E+00 0.  1.
    9000010    2    1    2  501    0  0.50251701007E+02  0.45092576509E+02 -0.32361332250E+03  0.10447350289E+04  0.99105354255E+03 0.  0.
   -9000010    2    1    2    0  502 -0.50251701007E+02 -0.45092576509E+02  0.11013349306E+03  0.10626515748E+04  0.10547703111E+04 0.  0.
        -13    1    3    3    0    0  0.40230631185E+03  0.44867249749E+02  0.16949131931E+03  0.43885163454E+03  0.10566000000E+00 0.  1.
          4    1    3    3  501    0 -0.35205461084E+03  0.22532676066E+00 -0.49310464182E+03  0.60588339436E+03  0.00000000000E+00 0.  1.
         13    1    4    4    0    0  0.20450413827E+03 -0.30727197274E+03 -0.32678047281E+03  0.49297413358E+03  0.10566000000E+00 0. -1.
         -4    1    4    4    0  502 -0.25475583928E+03  0.26217939623E+03  0.43691396587E+03  0.56967744121E+03  0.00000000000E+00 0. -1.
<mgrwt>
<rscale>  2 0.10406628E+04</rscale>
<asrwt>0</asrwt>
<pdfrwt beam="1">  1       21 0.14568514E+00 0.10569290E+04</pdfrwt>
<pdfrwt beam="2">  1       21 0.17852819E+00 0.10569290E+04</pdfrwt>
<totfact> 0.29239840E+01</totfact>
</mgrwt>
</event>
<event>
 8    1  0.7631533E-006  0.1088258E+04  0.7818608E-02  0.8698042E-01
         21   -1    0    0  503  502  0.00000000000E+00  0.00000000000E+00  0.90459357802E+03  0.90459357802E+03  0.00000000000E+00 0.  1.
         21   -1    0    0  501  503 -0.00000000000E+00 -0.00000000000E+00 -0.13665983604E+04  0.13665983604E+04  0.00000000000E+00 0.  1.
    9000010    2    1    2  501    0  0.30356871642E+03  0.28577401636E+03  0.26878159554E+02  0.10781656893E+04  0.99393061336E+03 0.  0.
   -9000010    2    1    2    0  502 -0.30356871642E+03 -0.28577401636E+03 -0.48888294198E+03  0.11930262491E+04  0.10052285044E+04 0.  0.
        -13    1    3    3    0    0 -0.24546704019E+03 -0.14568498114E+03 -0.19475595614E+03  0.34555473541E+03  0.10566000000E+00 0.  1.
          4    1    3    3  501    0  0.54903575661E+03  0.43145899750E+03  0.22163411570E+03  0.73261095392E+03  0.00000000000E+00 0.  1.
         13    1    4    4    0    0  0.34659989226E+03 -0.74494245398E+02 -0.34446070364E+03  0.49430159359E+03  0.10566000000E+00 0. -1.
         -4    1    4    4    0  502 -0.65016860868E+03 -0.21127977096E+03 -0.14442223834E+03  0.69872465554E+03  0.00000000000E+00 0. -1.
<mgrwt>
<rscale>  2 0.10856416E+04</rscale>
<asrwt>0</asrwt>
<pdfrwt beam="1">  1       21 0.13916824E+00 0.10882578E+04</pdfrwt>
<pdfrwt beam="2">  1       21 0.21024590E+00 0.10882578E+04</pdfrwt>
<totfact> 0.18701039E+01</totfact>
</mgrwt>
</event>
<event>
 8    1  0.7631533E-006  0.1346458E+04  0.7818608E-02  0.8535975E-01
         21   -1    0    0  501  502  0.00000000000E+00  0.00000000000E+00  0.11803061775E+04  0.11803061775E+04  0.00000000000E+00 0.  1.
         21   -1    0    0  502  503 -0.00000000000E+00 -0.00000000000E+00 -0.13742638910E+04  0.13742638910E+04  0.00000000000E+00 0.  1.
    9000010    2    1    2  501    0 -0.53472687694E+03  0.13961314601E+03 -0.31925509059E+03  0.13837894006E+04  0.12278129454E+04 0.  0.
   -9000010    2    1    2    0  503  0.53472687694E+03 -0.13961314601E+03  0.12529737711E+03  0.11707806679E+04  0.10245014768E+04 0.  0.
        -13    1    3    3    0    0 -0.47504023413E+03 -0.68123327015E+02 -0.75659307719E+03  0.89595597400E+03  0.10566000000E+00 0.  1.
          4    1    3    3  501    0 -0.59686642813E+02  0.20773647302E+03  0.43733798660E+03  0.48783342657E+03  0.00000000000E+00 0.  1.
         13    1    4    4    0    0  0.19930001720E+03 -0.44651755339E+03  0.40677641436E+03  0.63605462406E+03  0.10566000000E+00 0. -1.
         -4    1    4    4    0  503  0.33542685974E+03  0.30690440738E+03 -0.28147903725E+03  0.53472604380E+03  0.00000000000E+00 0. -1.
<mgrwt>
<rscale>  2 0.12983391E+04</rscale>
<asrwt>0</asrwt>
<pdfrwt beam="1">  1       21 0.18158557E+00 0.13464581E+04</pdfrwt>
<pdfrwt beam="2">  1       21 0.21142521E+00 0.13464581E+04</pdfrwt>
<totfact> 0.74569971E+00</totfact>
</mgrwt>
</event>
<event>
 8    1  0.7631533E-006  0.1098462E+04  0.7818608E-02  0.8695337E-01
         21   -1    0    0  503  502  0.00000000000E+00  0.00000000000E+00  0.99602564243E+03  0.99602564243E+03  0.00000000000E+00 0. -1.
         21   -1    0    0  501  503 -0.00000000000E+00 -0.00000000000E+00 -0.14570277991E+04  0.14570277991E+04  0.00000000000E+00 0. -1.
    9000010    2    1    2  501    0  0.33551508158E+03 -0.28861611859E+03 -0.77169926936E+03  0.13114969552E+04  0.96365702779E+03 0.  0.
   -9000010    2    1    2    0  502 -0.33551508158E+03  0.28861611859E+03  0.31069711269E+03  0.11415564864E+04  0.10053600757E+04 0.  0.
        -13    1    3    3    0    0 -0.17196379277E+02  0.30206842229E+02 -0.83156579815E+03  0.83229192991E+03  0.10566000000E+00 0.  1.
          4    1    3    3  501    0  0.35271146085E+03 -0.31882296082E+03  0.59866528789E+02  0.47920502526E+03  0.00000000000E+00 0.  1.
         13    1    4    4    0    0 -0.52550075395E+03 -0.17174084059E+03 -0.32108854456E+01  0.55286189928E+03  0.10566000000E+00 0. -1.
         -4    1    4    4    0  502  0.18998567237E+03  0.46035695918E+03  0.31390799814E+03  0.58869458709E+03  0.00000000000E+00 0. -1.
<mgrwt>
<rscale>  2 0.10888270E+04</rscale>
<asrwt>0</asrwt>
<pdfrwt beam="1">  1       21 0.15323472E+00 0.10984619E+04</pdfrwt>
<pdfrwt beam="2">  1       21 0.22415812E+00 0.10984619E+04</pdfrwt>
<totfact> 0.10918672E+01</totfact>
</mgrwt>
</event>
<event>
 8    1  0.7631533E-006  0.1146381E+04  0.7818608E-02  0.8669943E-01
         21   -1    0    0  503  502  0.00000000000E+00  0.00000000000E+00  0.51195898202E+03  0.51195898202E+03  0.00000000000E+00 0.  1.
         21   -1    0    0  501  503 -0.00000000000E+00 -0.00000000000E+00 -0.25473822001E+04  0.25473822001E+04  0.00000000000E+00 0.  1.
    9000010    2    1    2  501    0 -0.52042652786E+03 -0.12472716264E+03 -0.15002116045E+04  0.18880742194E+04  0.10137991732E+04 0.  0.
   -9000010    2    1    2    0  502  0.52042652786E+03  0.12472716264E+03 -0.53521161359E+03  0.11712669628E+04  0.89387593700E+03 0.  0.
        -13    1    3    3    0    0  0.17023668906E+03  0.24893316582E+03 -0.17780585767E+03  0.35009025341E+03  0.10566000000E+00 0.  1.
          4    1    3    3  501    0 -0.69066321692E+03 -0.37366032846E+03 -0.13224057468E+04  0.15379839660E+04  0.00000000000E+00 0.  1.
         13    1    4    4    0    0  0.71976495329E+03  0.23899269145E+02 -0.16490859337E+03  0.73880147427E+03  0.10566000000E+00 0. -1.
         -4    1    4    4    0  502 -0.19933842543E+03  0.10082789350E+03 -0.37030302021E+03  0.43246548850E+03  0.00000000000E+00 0. -1.
<mgrwt>
<rscale>  2 0.11192992E+04</rscale>
<asrwt>0</asrwt>
<pdfrwt beam="1">  1       21 0.78762921E-01 0.11463810E+04</pdfrwt>
<pdfrwt beam="2">  1       21 0.39190495E+00 0.11463810E+04</pdfrwt>
<totfact> 0.42706863E+00</totfact>
</mgrwt>
</event>
<event>
 8    1  0.7631533E-006  0.1067148E+04  0.7818608E-02  0.8727556E-01
         21   -1    0    0  501  502  0.00000000000E+00  0.00000000000E+00  0.14568259982E+04  0.14568259982E+04  0.00000000000E+00 0.  1.
         21   -1    0    0  502  503 -0.00000000000E+00 -0.00000000000E+00 -0.73910535746E+03  0.73910535746E+03  0.00000000000E+00 0.  1.
    9000010    2    1    2  501    0 -0.83236904212E+02 -0.15236015802E+03  0.30207281988E+03  0.10506943960E+04  0.99124604684E+03 0.  0.
   -9000010    2    1    2    0  503  0.83236904212E+02  0.15236015802E+03  0.41564782085E+03  0.11452369596E+04  0.10529304738E+04 0.  0.
        -13    1    3    3    0    0 -0.39166285129E+03 -0.46296269536E+02 -0.20752798885E+03  0.44565795289E+03  0.10566000000E+00 0.  1.
          4    1    3    3  501    0  0.30842594708E+03 -0.10606388848E+03  0.50960080873E+03  0.60503644314E+03  0.00000000000E+00 0.  1.
         13    1    4    4    0    0  0.26303093649E+03  0.52460916007E+03  0.42589079356E+02  0.58839942660E+03  0.10566000000E+00 0. -1.
         -4    1    4    4    0  503 -0.17979403228E+03 -0.37224900206E+03  0.37305874150E+03  0.55683753302E+03  0.00000000000E+00 0. -1.
<mgrwt>
<rscale>  2 0.10516086E+04</rscale>
<asrwt>0</asrwt>
<pdfrwt beam="1">  1       21 0.22412708E+00 0.10671479E+04</pdfrwt>
<pdfrwt beam="2">  1       21 0.11370852E+00 0.10671479E+04</pdfrwt>
<totfact> 0.26253238E+01</totfact>
</mgrwt>
</event>
<event>
 8    1  0.7631533E-006  0.1037232E+04  0.7818608E-02  0.8779861E-01
         21   -1    0    0  501  502  0.00000000000E+00  0.00000000000E+00  0.11266867047E+04  0.11266867047E+04  0.00000000000E+00 0. -1.
         21   -1    0    0  502  503 -0.00000000000E+00 -0.00000000000E+00 -0.87033373399E+03  0.87033373399E+03  0.00000000000E+00 0. -1.
    9000010    2    1    2  501    0 -0.15381455673E+03  0.19267814097E+03  0.39491997209E+03  0.11098705772E+04  0.10075053994E+04 0.  0.
   -9000010    2    1    2    0  503  0.15381455673E+03 -0.19267814097E+03 -0.13856700139E+03  0.88714986149E+03  0.84086281818E+03 0.  0.
        -13    1    3    3    0    0 -0.25137311191E+03  0.55477764935E+03  0.41057410378E+03  0.73453235972E+03  0.10566000000E+00 0.  1.
          4    1    3    3  501    0  0.97558555180E+02 -0.36209950838E+03 -0.15654131696E+02  0.37533821748E+03  0.00000000000E+00 0.  1.
         13    1    4    4    0    0 -0.11904718821E+03 -0.34478951722E+03 -0.35350429703E+03  0.50795407606E+03  0.10566000000E+00 0. -1.
         -4    1    4    4    0  503  0.27286174493E+03  0.15211137625E+03  0.21493729564E+03  0.37919578543E+03  0.00000000000E+00 0. -1.
<mgrwt>
<rscale>  2 0.99440994E+03</rscale>
<asrwt>0</asrwt>
<pdfrwt beam="1">  1       21 0.17333642E+00 0.10372323E+04</pdfrwt>
<pdfrwt beam="2">  1       21 0.13389750E+00 0.10372323E+04</pdfrwt>
<totfact> 0.41676468E+01</totfact>
</mgrwt>
</event>
<event>
 8    1  0.7631533E-006  0.1000894E+04  0.7818608E-02  0.8775681E-01
         21   -1    0    0  503  502  0.00000000000E+00  0.00000000000E+00  0.91957935204E+03  0.91957935204E+03  0.00000000000E+00 0.  1.
         21   -1    0    0  501  503 -0.00000000000E+00 -0.00000000000E+00 -0.10826039143E+04  0.10826039143E+04  0.00000000000E+00 0.  1.
    9000010    2    1    2  501    0  0.31975567838E+02 -0.73062699535E+02 -0.12591334610E+03  0.10087832638E+04  0.99771183596E+03 0.  0.
   -9000010    2    1    2    0  502 -0.31975567838E+02  0.73062699535E+02 -0.37111216195E+02  0.99340000257E+03  0.98949771487E+03 0.  0.
        -13    1    3    3    0    0  0.40971506507E+03  0.17718225657E+03 -0.28378687246E+03  0.52895650741E+03  0.10566000000E+00 0.  1.
          4    1    3    3  501    0 -0.37773949723E+03 -0.25024495611E+03  0.15787352636E+03  0.47982675639E+03  0.00000000000E+00 0.  1.
         13    1    4    4    0    0 -0.14257492501E+03  0.32395824386E+03  0.36388041190E+03  0.50762734199E+03  0.10566000000E+00 0. -1.
         -4    1    4    4    0  502  0.11059935717E+03 -0.25089554432E+03 -0.40099162810E+03  0.48577266058E+03  0.00000000000E+00 0. -1.
<mgrwt>
<rscale>  2 0.99884110E+03</rscale>
<asrwt>0</asrwt>
<pdfrwt beam="1">  1       21 0.14147375E+00 0.10008944E+04</pdfrwt>
<pdfrwt beam="2">  1       21 0.16655445E+00 0.10008944E+04</pdfrwt>
<totfact> 0.40685466E+01</totfact>
</mgrwt>
</event>
<event>
 8    1  0.7631533E-006  0.1013039E+04  0.7818608E-02  0.8776435E-01
         21   -1    0    0  501  502  0.00000000000E+00  0.00000000000E+00  0.67647326454E+03  0.67647326454E+03  0.00000000000E+00 0.  1.
         21   -1    0    0  502  503 -0.00000000000E+00 -0.00000000000E+00 -0.14584657714E+04  0.14584657714E+04  0.00000000000E+00 0.  1.
    9000010    2    1    2  501    0  0.18170676674E+03  0.66352545713E+01 -0.23169919345E+03  0.98208596892E+03  0.93688150714E+03 0.  0.
   -9000010    2    1    2    0  503 -0.18170676674E+03 -0.66352545713E+01 -0.55029331342E+03  0.11528530670E+04  0.99658722032E+03 0.  0.
        -13    1    3    3    0    0 -0.18688993639E+03 -0.27239475181E+03 -0.37340445529E+03  0.49855556113E+03  0.10566000000E+00 0.  1.
          4    1    3    3  501    0  0.36859670313E+03  0.27903000639E+03  0.14170526184E+03  0.48353040779E+03  0.00000000000E+00 0.  1.
         13    1    4    4    0    0 -0.47665151760E+03 -0.30030950318E+03 -0.45914678626E+03  0.72677248808E+03  0.10566000000E+00 0. -1.
         -4    1    4    4    0  503  0.29494475086E+03  0.29367424861E+03 -0.91146527162E+02  0.42608057896E+03  0.00000000000E+00 0. -1.
<mgrwt>
<rscale>  2 0.99803992E+03</rscale>
<asrwt>0</asrwt>
<pdfrwt beam="1">  1       21 0.10407281E+00 0.10130387E+04</pdfrwt>
<pdfrwt beam="2">  1       21 0.22437935E+00 0.10130387E+04</pdfrwt>
<totfact> 0.33590177E+01</totfact>
</mgrwt>
</event>
<event>
 8    1  0.7631533E-006  0.1014580E+04  0.7818608E-02  0.8762889E-01
         21   -1    0    0  503  502  0.00000000000E+00  0.00000000000E+00  0.14312487427E+04  0.14312487427E+04  0.00000000000E+00 0.  1.
         21   -1    0    0  501  503 -0.00000000000E+00 -0.00000000000E+00 -0.71553037667E+03  0.71553037667E+03  0.00000000000E+00 0.  1.
    9000010    2    1    2  501    0 -0.12084538516E+03 -0.11982328171E+03  0.29904016191E+03  0.10499682131E+04  0.99199143352E+03 0.  0.
   -9000010    2    1    2    0  502  0.12084538516E+03  0.11982328171E+03  0.41667820412E+03  0.10968109062E+04  0.10002060849E+04 0.  0.
        -13    1    3    3    0    0 -0.20411946967E+03  0.38572251174E+03 -0.35849075495E+02  0.43787187777E+03  0.10566000000E+00 0.  1.
          4    1    3    3  501    0  0.83274084510E+02 -0.50554579345E+03  0.33488923741E+03  0.61209633536E+03  0.00000000000E+00 0.  1.
         13    1    4    4    0    0 -0.28730516396E+03  0.30053107972E+03  0.49198547305E+03  0.64413733316E+03  0.10566000000E+00 0. -1.
         -4    1    4    4    0  502  0.40815054913E+03 -0.18070779800E+03 -0.75307268930E+02  0.45267357308E+03  0.00000000000E+00 0. -1.
<mgrwt>
<rscale>  2 0.10125500E+04</rscale>
<asrwt>0</asrwt>
<pdfrwt beam="1">  1       21 0.22019211E+00 0.10145804E+04</pdfrwt>
<pdfrwt beam="2">  1       21 0.11008160E+00 0.10145804E+04</pdfrwt>
<totfact> 0.31063001E+01</totfact>
</mgrwt>
</event>
<event>
 8    1  0.7712840E-006  0.1032800E+04  0.7818608E-02  0.8781364E-01
         21   -1    0    0  503  502  0.00000000000E+00  0.00000000000E+00  0.12453976720E+04  0.12453976720E+04  0.00000000000E+00 0. -1.
         21   -1    0    0  501  503 -0.00000000000E+00 -0.00000000000E+00 -0.87447364744E+03  0.87447364744E+03  0.00000000000E+00 0. -1.
    9000010    2    1    2  501    0 -0.15585464386E+03 -0.13872398747E+03 -0.24758244498E+03  0.91603352887E+03  0.85690451291E+03 0.  0.
   -9000010    2    1    2    0  502  0.15585464386E+03  0.13872398747E+03  0.61850646958E+03  0.12038377906E+04  0.10115039093E+04 0.  0.
        -13    1    3    3    0    0  0.20959169262E+03 -0.15257609762E+03 -0.43401469364E+03  0.50554614887E+03  0.10566000000E+00 0.  1.
          4    1    3    3  501    0 -0.36544633648E+03  0.13852110143E+02  0.18643224866E+03  0.41048738000E+03  0.00000000000E+00 0.  1.
         13    1    4    4    0    0  0.38332758342E+03 -0.57929205185E+02 -0.12051910566E+03  0.40598115106E+03  0.10566000000E+00 0. -1.
         -4    1    4    4    0  502 -0.22747293956E+03  0.19665319266E+03  0.73902557523E+03  0.79785663954E+03  0.00000000000E+00 0. -1.
<mgrwt>
<rscale>  2 0.99282335E+03</rscale>
<asrwt>0</asrwt>
<pdfrwt beam="1">  1       21 0.19159964E+00 0.10327997E+04</pdfrwt>
<pdfrwt beam="2">  1       21 0.13453441E+00 0.10327997E+04</pdfrwt>
<totfact> 0.29245015E+01</totfact>
</mgrwt>
</event>
<event>
 8    1  0.7631533E-006  0.1085349E+04  0.7818608E-02  0.8698597E-01
         21   -1    0    0  501  502  0.00000000000E+00  0.00000000000E+00  0.89901185301E+03  0.89901185301E+03  0.00000000000E+00 0. -1.
         21   -1    0    0  502  503 -0.00000000000E+00 -0.00000000000E+00 -0.14630674261E+04  0.14630674261E+04  0.00000000000E+00 0. -1.
    9000010    2    1    2  501    0 -0.11048302348E+03 -0.37550139089E+03  0.10159711799E+03  0.10900941835E+04  0.10123119882E+04 0.  0.
   -9000010    2    1    2    0  503  0.11048302348E+03  0.37550139089E+03 -0.66565269109E+03  0.12719850957E+04  0.10107644559E+04 0.  0.
        -13    1    3    3    0    0 -0.52976973850E+03 -0.15304457700E+02  0.87424503913E+02  0.53715291799E+03  0.10566000000E+00 0.  1.
          4    1    3    3  501    0  0.41928671501E+03 -0.36019693319E+03  0.14172614076E+02  0.55294126547E+03  0.00000000000E+00 0.  1.
         13    1    4    4    0    0  0.28765506031E+02  0.44999326044E+03 -0.90345670651E+03  0.10097303702E+04  0.10566000000E+00 0. -1.
         -4    1    4    4    0  503  0.81717517451E+02 -0.74491869544E+02  0.23780401542E+03  0.26225472548E+03  0.00000000000E+00 0. -1.
<mgrwt>
<rscale>  2 0.10849884E+04</rscale>
<asrwt>0</asrwt>
<pdfrwt beam="1">  1       21 0.13830952E+00 0.10853494E+04</pdfrwt>
<pdfrwt beam="2">  1       21 0.22508729E+00 0.10853494E+04</pdfrwt>
<totfact> 0.14715889E+01</totfact>
</mgrwt>
</event>
<event>
 8    1  0.7631533E-006  0.1058149E+04  0.7818608E-02  0.8724247E-01
         21   -1    0    0  503  502  0.00000000000E+00  0.00000000000E+00  0.11395034728E+04  0.11395034728E+04  0.00000000000E+00 0. -1.
         21   -1    0    0  501  503 -0.00000000000E+00 -0.00000000000E+00 -0.10801580943E+04  0.10801580943E+04  0.00000000000E+00 0. -1.
    9000010    2    1    2  501    0 -0.20518498000E+03 -0.26816051176E+03 -0.32087700106E+03  0.11057307036E+04  0.10028296978E+04 0.  0.
   -9000010    2    1    2    0  502  0.20518498000E+03  0.26816051176E+03  0.38022237953E+03  0.11139308636E+04  0.99109130504E+03 0.  0.
        -13    1    3    3    0    0  0.29901885114E+03  0.18659398536E+03 -0.22956816056E+03  0.42063183452E+03  0.10566000000E+00 0.  1.
          4    1    3    3  501    0 -0.50420383114E+03 -0.45475449712E+03 -0.91308840508E+02  0.68509886903E+03  0.00000000000E+00 0.  1.
         13    1    4    4    0    0  0.67302016656E+00  0.20971884278E+03 -0.31973069367E+03  0.38237438933E+03  0.10566000000E+00 0. -1.
         -4    1    4    4    0  502  0.20451195983E+03  0.58441668973E+02  0.69995307320E+03  0.73155647428E+03  0.00000000000E+00 0. -1.
<mgrwt>
<rscale>  2 0.10553580E+04</rscale>
<asrwt>0</asrwt>
<pdfrwt beam="1">  1       21 0.17530823E+00 0.10581485E+04</pdfrwt>
<pdfrwt beam="2">  1       21 0.16617817E+00 0.10581485E+04</pdfrwt>
<totfact> 0.20557081E+01</totfact>
</mgrwt>
</event>
<event>
 8    1  0.7631533E-006  0.1024029E+04  0.7818608E-02  0.8760623E-01
         21   -1    0    0  501  502  0.00000000000E+00  0.00000000000E+00  0.15497398626E+04  0.15497398626E+04  0.00000000000E+00 0.  1.
         21   -1    0    0  502  503 -0.00000000000E+00 -0.00000000000E+00 -0.65697621516E+03  0.65697621516E+03  0.00000000000E+00 0.  1.
    9000010    2    1    2  501    0  0.89368450202E+02 -0.19875263929E+02  0.53666058780E+03  0.11561315969E+04  0.10199283979E+04 0.  0.
   -9000010    2    1    2    0  503 -0.89368450202E+02  0.19875263929E+02  0.35610305966E+03  0.10505844809E+04  0.98414257931E+03 0.  0.
        -13    1    3    3    0    0 -0.38593876757E+03 -0.10183180334E+03  0.54281575864E+03  0.67377103491E+03  0.10566000000E+00 0.  1.
          4    1    3    3  501    0  0.47530721777E+03  0.81956539411E+02 -0.61551708446E+01  0.48236056197E+03  0.00000000000E+00 0.  1.
         13    1    4    4    0    0 -0.30679314000E+02 -0.48124017553E+03  0.14385006905E+03  0.50321583876E+03  0.10566000000E+00 0. -1.
         -4    1    4    4    0  503 -0.58689136202E+02  0.50111543946E+03  0.21225299061E+03  0.54736864214E+03  0.00000000000E+00 0. -1.
<mgrwt>
<rscale>  2 0.10150011E+04</rscale>
<asrwt>0</asrwt>
<pdfrwt beam="1">  1       21 0.23842152E+00 0.10240291E+04</pdfrwt>
<pdfrwt beam="2">  1       21 0.10107326E+00 0.10240291E+04</pdfrwt>
<totfact> 0.28479474E+01</totfact>
</mgrwt>
</event>
<event>
 8    1  0.7631533E-006  0.9975427E+03  0.7818608E-02  0.8778401E-01
         21   -1    0    0  503  502  0.00000000000E+00  0.00000000000E+00  0.71149926985E+03  0.71149926985E+03  0.00000000000E+00 0.  1.
         21   -1    0    0  501  503 -0.00000000000E+00 -0.00000000000E+00 -0.19958744643E+04  0.19958744643E+04  0.00000000000E+00 0.  1.
    9000010    2    1    2  501    0 -0.32101674437E+02 -0.51459172205E+02 -0.13896185120E+04  0.17105937759E+04  0.99569718959E+03 0.  0.
   -9000010    2    1    2    0  502  0.32101674437E+02  0.51459172205E+02  0.10524331752E+03  0.99677995826E+03  0.98935108299E+03 0.  0.
        -13    1    3    3    0    0 -0.19905182027E+03  0.60408681556E+02  0.83265806560E+02  0.22406258426E+03  0.10566000000E+00 0.  1.
          4    1    3    3  501    0  0.16695014583E+03 -0.11186785376E+03 -0.14728843185E+04  0.14865311916E+04  0.00000000000E+00 0.  1.
         13    1    4    4    0    0  0.56828428806E+02 -0.80813465585E+02  0.53624022289E+03  0.54526495793E+03  0.10566000000E+00 0. -1.
         -4    1    4    4    0  502 -0.24726754370E+02  0.13227263779E+03 -0.43099690537E+03  0.45151500033E+03  0.00000000000E+00 0. -1.
<mgrwt>
<rscale>  2 0.99595535E+03</rscale>
<asrwt>0</asrwt>
<pdfrwt beam="1">  1       21 0.10946143E+00 0.99754271E+03</pdfrwt>
<pdfrwt beam="2">  1       21 0.30705761E+00 0.99754271E+03</pdfrwt>
<totfact> 0.74651797E+00</totfact>
</mgrwt>
</event>
<event>
 8    1  0.7631533E-006  0.1051949E+04  0.7818608E-02  0.8728803E-01
         21   -1    0    0  503  502  0.00000000000E+00  0.00000000000E+00  0.15894776393E+04  0.15894776393E+04  0.00000000000E+00 0.  1.
         21   -1    0    0  501  503 -0.00000000000E+00 -0.00000000000E+00 -0.15033091828E+04  0.15033091828E+04  0.00000000000E+00 0.  1.
    9000010    2    1    2  501    0 -0.20034643575E+03 -0.29112914663E+03 -0.10932951556E+04  0.15123658207E+04  0.98339270079E+03 0.  0.
   -9000010    2    1    2    0  502  0.20034643575E+03  0.29112914663E+03  0.11794636121E+04  0.15804210014E+04  0.99080838463E+03 0.  0.
        -13    1    3    3    0    0 -0.46969661310E+03 -0.21052462551E+03 -0.11173303402E+04  0.12301880452E+04  0.10566000000E+00 0.  1.
          4    1    3    3  501    0  0.26935017735E+03 -0.80604521120E+02  0.24035184608E+02  0.28217777546E+03  0.00000000000E+00 0.  1.
         13    1    4    4    0    0  0.30084775908E+03 -0.27987427154E+02  0.12074541144E+04  0.12446839437E+04  0.10566000000E+00 0. -1.
         -4    1    4    4    0  502 -0.10050132333E+03  0.31911657379E+03 -0.27990502325E+02  0.33573705765E+03  0.00000000000E+00 0. -1.
<mgrwt>
<rscale>  2 0.10501989E+04</rscale>
<asrwt>0</asrwt>
<pdfrwt beam="1">  1       21 0.24453502E+00 0.10519487E+04</pdfrwt>
<pdfrwt beam="2">  1       21 0.23127833E+00 0.10519487E+04</pdfrwt>
<totfact> 0.18544107E+00</totfact>
</mgrwt>
</event>
<event>
 8    1  0.7631533E-006  0.1135982E+04  0.7818608E-02  0.8656398E-01
         21   -1    0    0  503  502  0.00000000000E+00  0.00000000000E+00  0.10803714776E+04  0.10803714776E+04  0.00000000000E+00 0.  1.
         21   -1    0    0  501  503 -0.00000000000E+00 -0.00000000000E+00 -0.12730315541E+04  0.12730315541E+04  0.00000000000E+00 0.  1.
    9000010    2    1    2  501    0 -0.27929138075E+03 -0.45283029461E+03 -0.38871294017E+03  0.12006473035E+04  0.10036918085E+04 0.  0.
   -9000010    2    1    2    0  502  0.27929138075E+03  0.45283029461E+03  0.19605286367E+03  0.11527557283E+04  0.10036683181E+04 0.  0.
        -13    1    3    3    0    0 -0.17725103881E+03  0.86359002819E+02  0.27567889643E+03  0.33893166454E+03  0.10566000000E+00 0.  1.
          4    1    3    3  501    0 -0.10204034194E+03 -0.53918929743E+03 -0.66439183660E+03  0.86171563894E+03  0.00000000000E+00 0.  1.
         13    1    4    4    0    0 -0.11420042230E+03  0.66058468007E+03  0.10006172816E+02  0.67045804541E+03  0.10566000000E+00 0. -1.
         -4    1    4    4    0  502  0.39349180306E+03 -0.20775438546E+03  0.18604669086E+03  0.48229768290E+03  0.00000000000E+00 0. -1.
<mgrwt>
<rscale>  2 0.11359773E+04</rscale>
<asrwt>0</asrwt>
<pdfrwt beam="1">  1       21 0.16621100E+00 0.11359825E+04</pdfrwt>
<pdfrwt beam="2">  1       21 0.19585101E+00 0.11359825E+04</pdfrwt>
<totfact> 0.13792081E+01</totfact>
</mgrwt>
</event>
<event>
 8    1  0.7631533E-006  0.9960124E+03  0.7818608E-02  0.8807391E-01
         21   -1    0    0  503  502  0.00000000000E+00  0.00000000000E+00  0.93120076802E+03  0.93120076802E+03  0.00000000000E+00 0.  1.
         21   -1    0    0  501  503 -0.00000000000E+00 -0.00000000000E+00 -0.95870192308E+03  0.95870192308E+03  0.00000000000E+00 0.  1.
    9000010    2    1    2  501    0 -0.64787583615E+02  0.14651206769E+02 -0.12539064913E+03  0.10038742461E+04  0.99379504837E+03 0.  0.
   -9000010    2    1    2    0  502  0.64787583615E+02 -0.14651206769E+02  0.97889494073E+02  0.88602844504E+03  0.87809564600E+03 0.  0.
        -13    1    3    3    0    0  0.42301129527E+03  0.46902907765E+02 -0.25754658086E+03  0.49746225099E+03  0.10566000000E+00 0.  1.
          4    1    3    3  501    0 -0.48779887889E+03 -0.32251700996E+02  0.13215593173E+03  0.50641199507E+03  0.00000000000E+00 0.  1.
         13    1    4    4    0    0  0.98218338278E+02  0.33100988023E+02  0.48428948781E+03  0.49525633418E+03  0.10566000000E+00 0. -1.
         -4    1    4    4    0  502 -0.33430754663E+02 -0.47752194792E+02 -0.38639999374E+03  0.39077211086E+03  0.00000000000E+00 0. -1.
<mgrwt>
<rscale>  2 0.96581460E+03</rscale>
<asrwt>0</asrwt>
<pdfrwt beam="1">  1       21 0.14326166E+00 0.99601239E+03</pdfrwt>
<pdfrwt beam="2">  1       21 0.14749260E+00 0.99601239E+03</pdfrwt>
<totfact> 0.57493000E+01</totfact>
</mgrwt>
</event>
<event>
 8    1  0.7631533E-006  0.1064577E+04  0.7818608E-02  0.8730246E-01
         21   -1    0    0  503  502  0.00000000000E+00  0.00000000000E+00  0.88006471748E+03  0.88006471748E+03  0.00000000000E+00 0. -1.
         21   -1    0    0  501  503 -0.00000000000E+00 -0.00000000000E+00 -0.15781358817E+04  0.15781358817E+04  0.00000000000E+00 0. -1.
    9000010    2    1    2  501    0  0.25156069304E+03  0.21826960631E+03 -0.93177168401E+03  0.13682736623E+04  0.94501319597E+03 0.  0.
   -9000010    2    1    2    0  502 -0.25156069304E+03 -0.21826960631E+03  0.23370051978E+03  0.10899269369E+04  0.10111381664E+04 0.  0.
        -13    1    3    3    0    0  0.29347161905E+02  0.61398501148E+00 -0.10388825218E+04  0.10392971366E+04  0.10566000000E+00 0.  1.
          4    1    3    3  501    0  0.22221353114E+03  0.21765562130E+03  0.10711083779E+03  0.32897652572E+03  0.00000000000E+00 0.  1.
         13    1    4    4    0    0  0.97475394165E+02  0.36435874700E+03  0.19112798682E+02  0.37765600647E+03  0.10566000000E+00 0. -1.
         -4    1    4    4    0  502 -0.34903608721E+03 -0.58262835331E+03  0.21458772110E+03  0.71227093041E+03  0.00000000000E+00 0. -1.
<mgrwt>
<rscale>  2 0.10485719E+04</rscale>
<asrwt>0</asrwt>
<pdfrwt beam="1">  1       21 0.13539457E+00 0.10645773E+04</pdfrwt>
<pdfrwt beam="2">  1       21 0.24279013E+00 0.10645773E+04</pdfrwt>
<totfact> 0.11646623E+01</totfact>
</mgrwt>
</event>
<event>
 8    1  0.7631533E-006  0.1110565E+04  0.7818608E-02  0.8689465E-01
         21   -1    0    0  503  502  0.00000000000E+00  0.00000000000E+00  0.18490188984E+04  0.18490188984E+04  0.00000000000E+00 0. -1.
         21   -1    0    0  501  503 -0.00000000000E+00 -0.00000000000E+00 -0.16622317788E+04  0.16622317788E+04  0.00000000000E+00 0. -1.
    9000010    2    1    2  501    0 -0.30028175788E+03 -0.11004845049E+03 -0.12890629669E+04  0.16642293108E+04  0.10028439911E+04 0.  0.
   -9000010    2    1    2    0  502  0.30028175788E+03  0.11004845049E+03  0.14758500865E+04  0.18470213664E+04  0.10635199363E+04 0.  0.
        -13    1    3    3    0    0  0.16204346970E+03  0.13532174972E+03  0.58097006389E+02  0.21896423301E+03  0.10566000000E+00 0.  1.
          4    1    3    3  501    0 -0.46232522758E+03 -0.24537020021E+03 -0.13471599733E+04  0.14452650777E+04  0.00000000000E+00 0.  1.
         13    1    4    4    0    0  0.38720353636E+03 -0.40341686588E+03  0.97798482183E+03  0.11265549561E+04  0.10566000000E+00 0. -1.
         -4    1    4    4    0  502 -0.86921778485E+02  0.51346531636E+03  0.49786526464E+03  0.72046641033E+03  0.00000000000E+00 0. -1.
<mgrwt>
<rscale>  2 0.10957822E+04</rscale>
<asrwt>0</asrwt>
<pdfrwt beam="1">  1       21 0.28446445E+00 0.11105649E+04</pdfrwt>
<pdfrwt beam="2">  1       21 0.25572797E+00 0.11105649E+04</pdfrwt>
<totfact> 0.62355096E-01</totfact>
</mgrwt>
</event>
<event>
 8    1  0.7631533E-006  0.1024214E+04  0.7818608E-02  0.8754350E-01
         21   -1    0    0  501  502  0.00000000000E+00  0.00000000000E+00  0.13954691524E+04  0.13954691524E+04  0.00000000000E+00 0. -1.
         21   -1    0    0  502  503 -0.00000000000E+00 -0.00000000000E+00 -0.10857965665E+04  0.10857965665E+04  0.00000000000E+00 0. -1.
    9000010    2    1    2  501    0  0.12542102917E+03 -0.13619706550E+03  0.84962991813E+03  0.13234368581E+04  0.99766429444E+03 0.  0.
   -9000010    2    1    2    0  503 -0.12542102917E+03  0.13619706550E+03 -0.53995733215E+03  0.11578288608E+04  0.10073399005E+04 0.  0.
        -13    1    3    3    0    0 -0.30664051446E+03 -0.24849999903E+03  0.37205466304E+02  0.39644030132E+03  0.10566000000E+00 0.  1.
          4    1    3    3  501    0  0.43206154363E+03  0.11230293353E+03  0.81242445182E+03  0.92699655678E+03  0.00000000000E+00 0.  1.
         13    1    4    4    0    0  0.20895131904E+03 -0.58748282921E+02 -0.70455630880E+03  0.73723240428E+03  0.10566000000E+00 0. -1.
         -4    1    4    4    0  503 -0.33437234822E+03  0.19494534842E+03  0.16459897665E+03  0.42059645652E+03  0.00000000000E+00 0. -1.
<mgrwt>
<rscale>  2 0.10218267E+04</rscale>
<asrwt>0</asrwt>
<pdfrwt beam="1">  1       21 0.21468756E+00 0.10242137E+04</pdfrwt>
<pdfrwt beam="2">  1       21 0.16704563E+00 0.10242137E+04</pdfrwt>
<totfact> 0.99541226E+00</totfact>
</mgrwt>
</event>
<event>
 8    1  0.7631533E-006  0.1027608E+04  0.7818608E-02  0.8753672E-01
         21   -1    0    0  503  502  0.00000000000E+00  0.00000000000E+00  0.68458497367E+03  0.68458497367E+03  0.00000000000E+00 0.  1.
         21   -1    0    0  501  503 -0.00000000000E+00 -0.00000000000E+00 -0.15152592217E+04  0.15152592217E+04  0.00000000000E+00 0.  1.
    9000010    2    1    2  501    0 -0.86753730803E+01  0.23682025003E+03 -0.36528214825E+03  0.10717624203E+04  0.97932861940E+03 0.  0.
   -9000010    2    1    2    0  502  0.86753730803E+01 -0.23682025003E+03 -0.46539209978E+03  0.11280817751E+04  0.99990979185E+03 0.  0.
        -13    1    3    3    0    0  0.64648168338E+02 -0.33977783609E+03 -0.34743897218E+03  0.49024709496E+03  0.10566000000E+00 0.  1.
          4    1    3    3  501    0 -0.73323541419E+02  0.57659808612E+03 -0.17843176070E+02  0.58151532532E+03  0.00000000000E+00 0.  1.
         13    1    4    4    0    0  0.37235821156E+03 -0.46619601364E+03 -0.24604070323E+03  0.64538779014E+03  0.10566000000E+00 0. -1.
         -4    1    4    4    0  502 -0.36368283848E+03  0.22937576361E+03 -0.21935139655E+03  0.48269398495E+03  0.00000000000E+00 0. -1.
<mgrwt>
<rscale>  2 0.10225675E+04</rscale>
<asrwt>0</asrwt>
<pdfrwt beam="1">  1       21 0.10532077E+00 0.10276082E+04</pdfrwt>
<pdfrwt beam="2">  1       21 0.23311680E+00 0.10276082E+04</pdfrwt>
<totfact> 0.27927009E+01</totfact>
</mgrwt>
</event>
<event>
 8    1  0.7631533E-006  0.1104942E+04  0.7818608E-02  0.8682887E-01
         21   -1    0    0  501  502  0.00000000000E+00  0.00000000000E+00  0.22170378139E+04  0.22170378139E+04  0.00000000000E+00 0.  1.
         21   -1    0    0  502  503 -0.00000000000E+00 -0.00000000000E+00 -0.65429416136E+03  0.65429416136E+03  0.00000000000E+00 0.  1.
    9000010    2    1    2  501    0 -0.47572760795E+02  0.45465192857E+03  0.13613062393E+04  0.17532973316E+04  0.10059449846E+04 0.  0.
   -9000010    2    1    2    0  503  0.47572760795E+02 -0.45465192857E+03  0.20143741320E+03  0.11180346436E+04  0.10002264190E+04 0.  0.
        -13    1    3    3    0    0 -0.42246462917E+02 -0.23768872465E+03  0.87376777944E+03  0.90650473634E+03  0.10566000000E+00 0.  1.
          4    1    3    3  501    0 -0.53262978784E+01  0.69234065322E+03  0.48753845988E+03  0.84679259528E+03  0.00000000000E+00 0.  1.
         13    1    4    4    0    0 -0.47544862439E+03 -0.23683563650E+03  0.13118933745E+03  0.54713176345E+03  0.10566000000E+00 0. -1.
         -4    1    4    4    0  503  0.52302138518E+03 -0.21781629206E+03  0.70248075750E+02  0.57090288018E+03  0.00000000000E+00 0. -1.
<mgrwt>
<rscale>  2 0.11036388E+04</rscale>
<asrwt>0</asrwt>
<pdfrwt beam="1">  1       21 0.34108274E+00 0.11049420E+04</pdfrwt>
<pdfrwt beam="2">  1       21 0.10066064E+00 0.11049420E+04</pdfrwt>
<totfact> 0.52487219E+00</totfact>
</mgrwt>
</event>
<event>
 8    1  0.7631533E-006  0.1023702E+04  0.7818608E-02  0.8752809E-01
         21   -1    0    0  501  502  0.00000000000E+00  0.00000000000E+00  0.25872316996E+04  0.25872316996E+04  0.00000000000E+00 0.  1.
         21   -1    0    0  502  503 -0.00000000000E+00 -0.00000000000E+00 -0.41950098479E+03  0.41950098479E+03  0.00000000000E+00 0.  1.
    9000010    2    1    2  501    0  0.13530861908E+03 -0.22310981852E+03  0.80235939494E+03  0.13006712505E+04  0.98988822087E+03 0.  0.
   -9000010    2    1    2    0  503 -0.13530861908E+03  0.22310981852E+03  0.13653713199E+04  0.17060614338E+04  0.98910078427E+03 0.  0.
        -13    1    3    3    0    0 -0.10998788357E+03 -0.25242503034E+03  0.96591494650E+03  0.10043940589E+04  0.10566000000E+00 0.  1.
          4    1    3    3  501    0  0.24529650265E+03  0.29315211813E+02 -0.16355555156E+03  0.29627719167E+03  0.00000000000E+00 0.  1.
         13    1    4    4    0    0 -0.18996158691E+03  0.29659115064E+03  0.15013557284E+04  0.15421156732E+04  0.10566000000E+00 0. -1.
         -4    1    4    4    0  503  0.54652967828E+02 -0.73481332116E+02 -0.13598440855E+03  0.16394576064E+03  0.00000000000E+00 0. -1.
<mgrwt>
<rscale>  2 0.10235113E+04</rscale>
<asrwt>0</asrwt>
<pdfrwt beam="1">  1       21 0.39803564E+00 0.10237017E+04</pdfrwt>
<pdfrwt beam="2">  1       21 0.64538615E-01 0.10237017E+04</pdfrwt>
<totfact> 0.63820947E+00</totfact>
</mgrwt>
</event>
<event>
 8    1  0.7631533E-006  0.1057879E+04  0.7818608E-02  0.8722692E-01
         21   -1    0    0  501  502  0.00000000000E+00  0.00000000000E+00  0.62933312000E+03  0.62933312000E+03  0.00000000000E+00 0.  1.
         21   -1    0    0  502  503 -0.00000000000E+00 -0.00000000000E+00 -0.20564086282E+04  0.20564086282E+04  0.00000000000E+00 0.  1.
    9000010    2    1    2  501    0  0.83523478652E+02  0.31347669005E+03 -0.21430735582E+03  0.10764203617E+04  0.10037476503E+04 0.  0.
   -9000010    2    1    2    0  503 -0.83523478652E+02 -0.31347669005E+03 -0.12127681524E+04  0.16093213865E+04  0.10069085991E+04 0.  0.
        -13    1    3    3    0    0 -0.19167352108E+03  0.55241129619E+03  0.10236386494E+03  0.59361212155E+03  0.10566000000E+00 0.  1.
          4    1    3    3  501    0  0.27519699973E+03 -0.23893460614E+03 -0.31667122076E+03  0.48280824012E+03  0.00000000000E+00 0.  1.
         13    1    4    4    0    0  0.12741784473E+03  0.34416703924E+03 -0.40468034441E+03  0.54630801785E+03  0.10566000000E+00 0. -1.
         -4    1    4    4    0  503 -0.21094132338E+03 -0.65764372929E+03 -0.80808780796E+03  0.10630133687E+04  0.00000000000E+00 0. -1.
<mgrwt>
<rscale>  2 0.10571265E+04</rscale>
<asrwt>0</asrwt>
<pdfrwt beam="1">  1       21 0.96820481E-01 0.10578794E+04</pdfrwt>
<pdfrwt beam="2">  1       21 0.31637056E+00 0.10578794E+04</pdfrwt>
<totfact> 0.87546273E+00</totfact>
</mgrwt>
</event>
<event>
 8    1  0.7631533E-006  0.1027489E+04  0.7818608E-02  0.8755938E-01
         21   -1    0    0  501  502  0.00000000000E+00  0.00000000000E+00  0.15597936435E+04  0.15597936435E+04  0.00000000000E+00 0.  1.
         21   -1    0    0  502  503 -0.00000000000E+00 -0.00000000000E+00 -0.76530422523E+03  0.76530422523E+03  0.00000000000E+00 0.  1.
    9000010    2    1    2  501    0  0.18632319932E+03 -0.41061864808E+02  0.83805539242E+03  0.13259225527E+04  0.10096194153E+04 0.  0.
   -9000010    2    1    2    0  503 -0.18632319932E+03  0.41061864808E+02 -0.43565974134E+02  0.99917531601E+03  0.97982187497E+03 0.  0.
        -13    1    3    3    0    0  0.39036071919E+03  0.16647653173E+03  0.92872232441E+03  0.10210881910E+04  0.10566000000E+00 0.  1.
          4    1    3    3  501    0 -0.20403751987E+03 -0.20753839654E+03 -0.90666931991E+02  0.30483436176E+03  0.00000000000E+00 0.  1.
         13    1    4    4    0    0 -0.61487953135E+02  0.48419284966E+03 -0.17807000246E+03  0.51955021026E+03  0.10566000000E+00 0. -1.
         -4    1    4    4    0  503 -0.12483524619E+03 -0.44313098486E+03  0.13450402832E+03  0.47962510575E+03  0.00000000000E+00 0. -1.
<mgrwt>
<rscale>  2 0.10200936E+04</rscale>
<asrwt>0</asrwt>
<pdfrwt beam="1">  1       21 0.23996825E+00 0.10274891E+04</pdfrwt>
<pdfrwt beam="2">  1       21 0.11773911E+00 0.10274891E+04</pdfrwt>
<totfact> 0.18359117E+01</totfact>
</mgrwt>
</event>
<event>
 8    1  0.7631533E-006  0.1044304E+04  0.7818608E-02  0.8735497E-01
         21   -1    0    0  503  502  0.00000000000E+00  0.00000000000E+00  0.10263747647E+04  0.10263747647E+04  0.00000000000E+00 0. -1.
         21   -1    0    0  501  503 -0.00000000000E+00 -0.00000000000E+00 -0.10732235068E+04  0.10732235068E+04  0.00000000000E+00 0.  1.
    9000010    2    1    2  501    0  0.26399404997E+03 -0.14760308319E+03 -0.15659180275E+03  0.10495434080E+04  0.99274409794E+03 0.  0.
   -9000010    2    1    2    0  502 -0.26399404997E+03  0.14760308319E+03  0.10974306065E+03  0.10500548635E+04  0.99954597109E+03 0.  0.
        -13    1    3    3    0    0  0.61016438410E+03  0.84514730405E+02 -0.42668371727E+02  0.61746572082E+03  0.10566000000E+00 0.  1.
          4    1    3    3  501    0 -0.34617033413E+03 -0.23211781359E+03 -0.11392343102E+03  0.43207768718E+03  0.00000000000E+00 0.  1.
         13    1    4    4    0    0 -0.11229749425E+03  0.30390994152E+02  0.55406192715E+03  0.56614394814E+03  0.10566000000E+00 0. -1.
         -4    1    4    4    0  502 -0.15169655572E+03  0.11721208904E+03 -0.44431886650E+03  0.48391091531E+03  0.00000000000E+00 0. -1.
<mgrwt>
<rscale>  2 0.10426735E+04</rscale>
<asrwt>0</asrwt>
<pdfrwt beam="1">  1       21 0.15790381E+00 0.10443044E+04</pdfrwt>
<pdfrwt beam="2">  1       21 0.16511131E+00 0.10443044E+04</pdfrwt>
<totfact> 0.29564172E+01</totfact>
</mgrwt>
</event>
<event>
 8    1  0.7631533E-006  0.1040012E+04  0.7818608E-02  0.8747512E-01
         21   -1    0    0  501  502  0.00000000000E+00  0.00000000000E+00  0.10879216366E+04  0.10879216366E+04  0.00000000000E+00 0. -1.
         21   -1    0    0  502  503 -0.00000000000E+00 -0.00000000000E+00 -0.96151143428E+03  0.96151143428E+03  0.00000000000E+00 0. -1.
    9000010    2    1    2  501    0 -0.21908920005E+03 -0.70948490170E+02  0.15262705333E+03  0.10511516356E+04  0.10141947435E+04 0.  0.
   -9000010    2    1    2    0  503  0.21908920005E+03  0.70948490170E+02 -0.26216851017E+02  0.99828143526E+03  0.97100192321E+03 0.  0.
        -13    1    3    3    0    0 -0.19644096891E+03  0.46103345827E+03  0.13225833821E+03  0.51829835337E+03  0.10566000000E+00 0.  1.
          4    1    3    3  501    0 -0.22648231137E+02 -0.53198194844E+03  0.20368715113E+02  0.53285328224E+03  0.00000000000E+00 0.  1.
         13    1    4    4    0    0 -0.13635490272E+03  0.12717735443E+03 -0.42320661090E+03  0.46246144233E+03  0.10566000000E+00 0. -1.
         -4    1    4    4    0  503  0.35544410277E+03 -0.56228864260E+02  0.39698975988E+03  0.53581999293E+03  0.00000000000E+00 0. -1.
<mgrwt>
<rscale>  2 0.10293297E+04</rscale>
<asrwt>0</asrwt>
<pdfrwt beam="1">  1       21 0.16737256E+00 0.10400119E+04</pdfrwt>
<pdfrwt beam="2">  1       21 0.14792484E+00 0.10400119E+04</pdfrwt>
<totfact> 0.34686398E+01</totfact>
</mgrwt>
</event>
<event>
 8    1  0.7631533E-006  0.1069248E+04  0.7818608E-02  0.8716878E-01
         21   -1    0    0  501  502  0.00000000000E+00  0.00000000000E+00  0.12873194215E+04  0.12873194215E+04  0.00000000000E+00 0.  1.
         21   -1    0    0  502  503 -0.00000000000E+00 -0.00000000000E+00 -0.11182643102E+04  0.11182643102E+04  0.00000000000E+00 0.  1.
    9000010    2    1    2  501    0  0.25149096134E+03 -0.12636553903E+03 -0.48268646386E+03  0.11533627706E+04  0.10089814196E+04 0.  0.
   -9000010    2    1    2    0  503 -0.25149096134E+03  0.12636553903E+03  0.65174157513E+03  0.12522209612E+04  0.10315397723E+04 0.  0.
        -13    1    3    3    0    0 -0.25118987143E+03  0.26543313959E+03 -0.34236564734E+03  0.50076476588E+03  0.10566000000E+00 0.  1.
          4    1    3    3  501    0  0.50268083277E+03 -0.39179867861E+03 -0.14032081652E+03  0.65259800471E+03  0.00000000000E+00 0.  1.
         13    1    4    4    0    0 -0.48970101649E+03  0.33907004511E+03  0.84957880711E+02  0.60165890145E+03  0.10566000000E+00 0. -1.
         -4    1    4    4    0  503  0.23821005515E+03 -0.21270450608E+03  0.56678369442E+03  0.65056205972E+03  0.00000000000E+00 0. -1.
<mgrwt>
<rscale>  2 0.10637691E+04</rscale>
<asrwt>0</asrwt>
<pdfrwt beam="1">  1       21 0.19804914E+00 0.10692475E+04</pdfrwt>
<pdfrwt beam="2">  1       21 0.17204066E+00 0.10692475E+04</pdfrwt>
<totfact> 0.12015665E+01</totfact>
</mgrwt>
</event>
<event>
 8    1  0.7631533E-006  0.1005907E+04  0.7818608E-02  0.8772574E-01
         21   -1    0    0  503  502  0.00000000000E+00  0.00000000000E+00  0.12534618963E+04  0.12534618963E+04  0.00000000000E+00 0.  1.
         21   -1    0    0  501  503 -0.00000000000E+00 -0.00000000000E+00 -0.80776602699E+03  0.80776602699E+03  0.00000000000E+00 0.  1.
    9000010    2    1    2  501    0 -0.88512832910E+02 -0.64449141680E+02  0.93146719300E+02  0.99532896703E+03  0.98489351091E+03 0.  0.
   -9000010    2    1    2    0  502  0.88512832910E+02  0.64449141680E+02  0.35254915005E+03  0.10658989563E+04  0.99993073181E+03 0.  0.
        -13    1    3    3    0    0 -0.49939287749E+03  0.15774993762E+03  0.41133019837E+02  0.52532868319E+03  0.10566000000E+00 0.  1.
          4    1    3    3  501    0  0.41088004458E+03 -0.22219907930E+03  0.52013699463E+02  0.47000028383E+03  0.00000000000E+00 0.  1.
         13    1    4    4    0    0 -0.10054865121E+03 -0.42063678897E+03 -0.80915560397E+01  0.43256308666E+03  0.10566000000E+00 0. -1.
         -4    1    4    4    0  502  0.18906148412E+03  0.48508593065E+03  0.36064070609E+03  0.63333586965E+03  0.00000000000E+00 0. -1.
<mgrwt>
<rscale>  2 0.10021498E+04</rscale>
<asrwt>0</asrwt>
<pdfrwt beam="1">  1       21 0.19284029E+00 0.10059074E+04</pdfrwt>
<pdfrwt beam="2">  1       21 0.12427170E+00 0.10059074E+04</pdfrwt>
<totfact> 0.36151548E+01</totfact>
</mgrwt>
</event>
<event>
 8    1  0.7631533E-006  0.1099195E+04  0.7818608E-02  0.8689648E-01
         21   -1    0    0  503  502  0.00000000000E+00  0.00000000000E+00  0.14724050665E+04  0.14724050665E+04  0.00000000000E+00 0.  1.
         21   -1    0    0  501  503 -0.00000000000E+00 -0.00000000000E+00 -0.84923084386E+03  0.84923084386E+03  0.00000000000E+00 0.  1.
    9000010    2    1    2  501    0  0.30869290441E+03 -0.29646441044E+03  0.59598476500E+02  0.10863842351E+04  0.99674283139E+03 0.  0.
   -9000010    2    1    2    0  502 -0.30869290441E+03  0.29646441044E+03  0.56357574613E+03  0.12352516753E+04  0.10124458621E+04 0.  0.
        -13    1    3    3    0    0  0.14327344668E+03  0.22793652201E+03 -0.32001652154E+03  0.41820201316E+03  0.10566000000E+00 0.  1.
          4    1    3    3  501    0  0.16541945773E+03 -0.52440093245E+03  0.37961499804E+03  0.66818222191E+03  0.00000000000E+00 0.  1.
         13    1    4    4    0    0 -0.29383358802E+02  0.15178183655E+03  0.81688135385E+03  0.83138214144E+03  0.10566000000E+00 0. -1.
         -4    1    4    4    0  502 -0.27930954561E+03  0.14468257390E+03 -0.25330560772E+03  0.40386953383E+03  0.00000000000E+00 0. -1.
<mgrwt>
<rscale>  2 0.10955652E+04</rscale>
<asrwt>0</asrwt>
<pdfrwt beam="1">  1       21 0.22652386E+00 0.10991947E+04</pdfrwt>
<pdfrwt beam="2">  1       21 0.13065090E+00 0.10991947E+04</pdfrwt>
<totfact> 0.16916538E+01</totfact>
</mgrwt>
</event>
<event>
 8    1  0.7631533E-006  0.1179006E+04  0.7818608E-02  0.8645267E-01
         21   -1    0    0  501  502  0.00000000000E+00  0.00000000000E+00  0.13094960217E+04  0.13094960217E+04  0.00000000000E+00 0.  1.
         21   -1    0    0  502  503 -0.00000000000E+00 -0.00000000000E+00 -0.15521492700E+04  0.15521492700E+04  0.00000000000E+00 0.  1.
    9000010    2    1    2  501    0 -0.28618618564E+03  0.20856813847E+03  0.75579099946E+03  0.14004556147E+04  0.11245677803E+04 0.  0.
   -9000010    2    1    2    0  503  0.28618618564E+03 -0.20856813847E+03 -0.99844424783E+03  0.14611896770E+04  0.10063702872E+04 0.  0.
        -13    1    3    3    0    0  0.19767409599E+03 -0.30498909517E+03  0.56104638303E+03  0.66848070389E+03  0.10566000000E+00 0.  1.
          4    1    3    3  501    0 -0.48386028163E+03  0.51355723364E+03  0.19474461643E+03  0.73197491076E+03  0.00000000000E+00 0.  1.
         13    1    4    4    0    0 -0.20111271952E+03 -0.31020436815E+03 -0.28280538271E+02  0.37077334853E+03  0.10566000000E+00 0. -1.
         -4    1    4    4    0  503  0.48729890516E+03  0.10163622967E+03 -0.97016370956E+03  0.10904163285E+04  0.00000000000E+00 0. -1.
<mgrwt>
<rscale>  2 0.11499095E+04</rscale>
<asrwt>0</asrwt>
<pdfrwt beam="1">  1       21 0.20146093E+00 0.11790063E+04</pdfrwt>
<pdfrwt beam="2">  1       21 0.23879219E+00 0.11790063E+04</pdfrwt>
<totfact> 0.33365395E+00</totfact>
</mgrwt>
</event>
<event>
 8    1  0.7631533E-006  0.1010315E+04  0.7818608E-02  0.8769738E-01
         21   -1    0    0  501  502  0.00000000000E+00  0.00000000000E+00  0.60704047399E+03  0.60704047399E+03  0.00000000000E+00 0.  1.
         21   -1    0    0  502  503 -0.00000000000E+00 -0.00000000000E+00 -0.16741072814E+04  0.16741072814E+04  0.00000000000E+00 0.  1.
    9000010    2    1    2  501    0  0.23086764391E+02 -0.13538595518E+02 -0.67127949906E+03  0.11960744736E+04  0.98957651971E+03 0.  0.
   -9000010    2    1    2    0  503 -0.23086764391E+02  0.13538595518E+02 -0.39578730838E+03  0.10850732818E+04  0.10099604651E+04 0.  0.
        -13    1    3    3    0    0  0.20723770706E+03  0.19735475105E+03 -0.82741264545E+03  0.87550446144E+03  0.10566000000E+00 0.  1.
          4    1    3    3  501    0 -0.18415094267E+03 -0.21089334657E+03  0.15613314639E+03  0.32057001219E+03  0.00000000000E+00 0.  1.
         13    1    4    4    0    0  0.48718984717E+03 -0.68122578710E+02 -0.16237218114E+03  0.51803413912E+03  0.10566000000E+00 0. -1.
         -4    1    4    4    0  503 -0.51027661156E+03  0.81661174229E+02 -0.23341512724E+03  0.56703914266E+03  0.00000000000E+00 0. -1.
<mgrwt>
<rscale>  2 0.10051819E+04</rscale>
<asrwt>0</asrwt>
<pdfrwt beam="1">  1       21 0.93390843E-01 0.10103150E+04</pdfrwt>
<pdfrwt beam="2">  1       21 0.25755496E+00 0.10103150E+04</pdfrwt>
<totfact> 0.25421176E+01</totfact>
</mgrwt>
</event>
<event>
 8    1  0.7631533E-006  0.1012257E+04  0.7818608E-02  0.8775592E-01
         21   -1    0    0  501  502  0.00000000000E+00  0.00000000000E+00  0.21462350915E+04  0.21462350915E+04  0.00000000000E+00 0.  1.
         21   -1    0    0  502  503 -0.00000000000E+00 -0.00000000000E+00 -0.49221957505E+03  0.49221957505E+03  0.00000000000E+00 0.  1.
    9000010    2    1    2  501    0  0.58718914321E+02  0.18333248583E+03  0.12189513362E+04  0.15844576252E+04  0.99378312266E+03 0.  0.
   -9000010    2    1    2    0  503 -0.58718914321E+02 -0.18333248583E+03  0.43506418028E+03  0.10539970414E+04  0.94051592807E+03 0.  0.
        -13    1    3    3    0    0  0.45983935406E+03 -0.13893292451E+03  0.44330230220E+03  0.65366010385E+03  0.10566000000E+00 0.  1.
          4    1    3    3  501    0 -0.40112043974E+03  0.32226541034E+03  0.77564903400E+03  0.93079752139E+03  0.00000000000E+00 0.  1.
         13    1    4    4    0    0  0.59689457637E+02 -0.51819224876E+03  0.40605954871E+02  0.52319680117E+03  0.10566000000E+00 0. -1.
         -4    1    4    4    0  503 -0.11840837196E+03  0.33485976292E+03  0.39445822541E+03  0.53080024018E+03  0.00000000000E+00 0. -1.
<mgrwt>
<rscale>  2 0.99893563E+03</rscale>
<asrwt>0</asrwt>
<pdfrwt beam="1">  1       21 0.33019001E+00 0.10122567E+04</pdfrwt>
<pdfrwt beam="2">  1       21 0.75726090E-01 0.10122567E+04</pdfrwt>
<totfact> 0.13093267E+01</totfact>
</mgrwt>
</event>
<event>
 8    1  0.7631533E-006  0.1096623E+04  0.7818608E-02  0.8712979E-01
         21   -1    0    0  501  502  0.00000000000E+00  0.00000000000E+00  0.10996723699E+04  0.10996723699E+04  0.00000000000E+00 0.  1.
         21   -1    0    0  502  503 -0.00000000000E+00 -0.00000000000E+00 -0.17173691803E+04  0.17173691803E+04  0.00000000000E+00 0.  1.
    9000010    2    1    2  501    0  0.69596303781E+02  0.40893312094E+03  0.59939986237E+03  0.12497446750E+04  0.10151411797E+04 0.  0.
   -9000010    2    1    2    0  503 -0.69596303781E+02 -0.40893312094E+03 -0.12170966728E+04  0.15672968751E+04  0.89611675637E+03 0.  0.
        -13    1    3    3    0    0  0.45474896843E+03  0.19431254677E+03  0.63791876970E+03  0.80715200429E+03  0.10566000000E+00 0.  1.
          4    1    3    3  501    0 -0.38515266465E+03  0.21462057417E+03 -0.38518907331E+02  0.44259267071E+03  0.00000000000E+00 0.  1.
         13    1    4    4    0    0 -0.42770663093E+03 -0.27712936228E+03 -0.34518378966E+03  0.61553676201E+03  0.10566000000E+00 0. -1.
         -4    1    4    4    0  503  0.35811032715E+03 -0.13180375867E+03 -0.87191288309E+03  0.95176011312E+03  0.00000000000E+00 0. -1.
<mgrwt>
<rscale>  2 0.10682523E+04</rscale>
<asrwt>0</asrwt>
<pdfrwt beam="1">  1       21 0.16918037E+00 0.10966228E+04</pdfrwt>
<pdfrwt beam="2">  1       21 0.26421064E+00 0.10966228E+04</pdfrwt>
<totfact> 0.40511348E+00</totfact>
</mgrwt>
</event>
<event>
 8    1  0.7631533E-006  0.1106579E+04  0.7818608E-02  0.8694816E-01
         21   -1    0    0  501  502  0.00000000000E+00  0.00000000000E+00  0.88394802302E+03  0.88394802302E+03  0.00000000000E+00 0. -1.
         21   -1    0    0  502  503 -0.00000000000E+00 -0.00000000000E+00 -0.13373974454E+04  0.13373974454E+04  0.00000000000E+00 0. -1.
    9000010    2    1    2  501    0 -0.18589804395E+03  0.21434341222E+03 -0.54837967341E+02  0.11079370267E+04  0.10695868695E+04 0.  0.
   -9000010    2    1    2    0  503  0.18589804395E+03 -0.21434341222E+03 -0.39861145499E+03  0.11134084417E+04  0.10001430322E+04 0.  0.
        -13    1    3    3    0    0 -0.96991727633E+02 -0.41363824933E+03  0.13517220431E+03  0.44584249743E+03  0.10566000000E+00 0.  1.
          4    1    3    3  501    0 -0.88906316317E+02  0.62798166155E+03 -0.19001017165E+03  0.66209452924E+03  0.00000000000E+00 0.  1.
         13    1    4    4    0    0 -0.53319105231E+02 -0.52136070125E+03  0.41699731794E+02  0.52573642311E+03  0.10566000000E+00 0. -1.
         -4    1    4    4    0  503  0.23921714918E+03  0.30701728903E+03 -0.44031118679E+03  0.58767201859E+03  0.00000000000E+00 0. -1.
<mgrwt>
<rscale>  2 0.10894426E+04</rscale>
<asrwt>0</asrwt>
<pdfrwt beam="1">  1       21 0.13599200E+00 0.11065791E+04</pdfrwt>
<pdfrwt beam="2">  1       21 0.20575345E+00 0.11065791E+04</pdfrwt>
<totfact> 0.21601518E+01</totfact>
</mgrwt>
</event>
<event>
 8    1  0.7631533E-006  0.1049165E+04  0.7818608E-02  0.8739102E-01
         21   -1    0    0  503  502  0.00000000000E+00  0.00000000000E+00  0.11969122884E+04  0.11969122884E+04  0.00000000000E+00 0.  1.
         21   -1    0    0  501  503 -0.00000000000E+00 -0.00000000000E+00 -0.91710311585E+03  0.91710311585E+03  0.00000000000E+00 0.  1.
    9000010    2    1    2  501    0 -0.27724011982E+03  0.75332128595E+02 -0.64517454929E+02  0.10097929459E+04  0.96591007756E+03 0.  0.
   -9000010    2    1    2    0  502  0.27724011982E+03 -0.75332128595E+02  0.34432662747E+03  0.11042224583E+04  0.10090636241E+04 0.  0.
        -13    1    3    3    0    0  0.19120406561E+03 -0.26513536708E+03 -0.23904168503E+03  0.40496505519E+03  0.10566000000E+00 0.  1.
          4    1    3    3  501    0 -0.46844418543E+03  0.34046749567E+03  0.17452423010E+03  0.60482789070E+03  0.00000000000E+00 0.  1.
         13    1    4    4    0    0 -0.30232778761E+03  0.22529774640E+03  0.26224026973E+02  0.37795353742E+03  0.10566000000E+00 0. -1.
         -4    1    4    4    0  502  0.57956790743E+03 -0.30062987499E+03  0.31810260050E+03  0.72626892093E+03  0.00000000000E+00 0. -1.
<mgrwt>
<rscale>  2 0.10386489E+04</rscale>
<asrwt>0</asrwt>
<pdfrwt beam="1">  1       21 0.18414035E+00 0.10491646E+04</pdfrwt>
<pdfrwt beam="2">  1       21 0.14109279E+00 0.10491646E+04</pdfrwt>
<totfact> 0.29038426E+01</totfact>
</mgrwt>
</event>
<event>
 8    1  0.7631533E-006  0.1009830E+04  0.7818608E-02  0.8767596E-01
         21   -1    0    0  501  502  0.00000000000E+00  0.00000000000E+00  0.12265363989E+04  0.12265363989E+04  0.00000000000E+00 0.  1.
         21   -1    0    0  502  503 -0.00000000000E+00 -0.00000000000E+00 -0.82589785431E+03  0.82589785431E+03  0.00000000000E+00 0.  1.
    9000010    2    1    2  501    0 -0.11877302848E+02  0.52160999336E+02  0.14660330546E+03  0.10111413624E+04  0.99902576811E+03 0.  0.
   -9000010    2    1    2    0  503  0.11877302848E+02 -0.52160999336E+02  0.25403523911E+03  0.10412928908E+04  0.10084121883E+04 0.  0.
        -13    1    3    3    0    0  0.42727362850E+03 -0.52778430445E+02 -0.16659869152E+03  0.46163129391E+03  0.10566000000E+00 0.  1.
          4    1    3    3  501    0 -0.43915093135E+03  0.10493942978E+03  0.31320199698E+03  0.54951006846E+03  0.00000000000E+00 0.  1.
         13    1    4    4    0    0 -0.40127267957E+03 -0.31519269066E+03  0.57243180679E+02  0.51346176928E+03  0.10566000000E+00 0. -1.
         -4    1    4    4    0  503  0.41314998241E+03  0.26303169132E+03  0.19679205843E+03  0.52783112154E+03  0.00000000000E+00 0. -1.
<mgrwt>
<rscale>  2 0.10074787E+04</rscale>
<asrwt>0</asrwt>
<pdfrwt beam="1">  1       21 0.18869791E+00 0.10098302E+04</pdfrwt>
<pdfrwt beam="2">  1       21 0.12706121E+00 0.10098302E+04</pdfrwt>
<totfact> 0.36575085E+01</totfact>
</mgrwt>
</event>
<event>
 8    1  0.7631533E-006  0.1023415E+04  0.7818608E-02  0.8756450E-01
         21   -1    0    0  503  502  0.00000000000E+00  0.00000000000E+00  0.12839220712E+04  0.12839220712E+04  0.00000000000E+00 0.  1.
         21   -1    0    0  501  503 -0.00000000000E+00 -0.00000000000E+00 -0.89302625059E+03  0.89302625059E+03  0.00000000000E+00 0.  1.
    9000010    2    1    2  501    0 -0.18456400252E+03 -0.34948599395E+02 -0.14782370157E+03  0.10340360142E+04  0.10060285067E+04 0.  0.
   -9000010    2    1    2    0  502  0.18456400252E+03  0.34948599395E+02  0.53871952217E+03  0.11429123076E+04  0.99032547355E+03 0.  0.
        -13    1    3    3    0    0  0.28391066874E+03 -0.53955664255E+02 -0.40634184303E+03  0.49862830454E+03  0.10566000000E+00 0.  1.
          4    1    3    3  501    0 -0.46847467126E+03  0.19007064860E+02  0.25851814145E+03  0.53540770968E+03  0.00000000000E+00 0.  1.
         13    1    4    4    0    0  0.51862312777E+03 -0.24364218111E+03  0.30643507355E+03  0.64979529587E+03  0.10566000000E+00 0. -1.
         -4    1    4    4    0  502 -0.33405912525E+03  0.27859078050E+03  0.23228444862E+03  0.49311701169E+03  0.00000000000E+00 0. -1.
<mgrwt>
<rscale>  2 0.10195351E+04</rscale>
<asrwt>0</asrwt>
<pdfrwt beam="1">  1       21 0.19752647E+00 0.10234152E+04</pdfrwt>
<pdfrwt beam="2">  1       21 0.13738865E+00 0.10234152E+04</pdfrwt>
<totfact> 0.24735382E+01</totfact>
</mgrwt>
</event>
<event>
 8    1  0.7631533E-006  0.1129014E+04  0.7818608E-02  0.8670213E-01
         21   -1    0    0  503  502  0.00000000000E+00  0.00000000000E+00  0.11118100634E+04  0.11118100634E+04  0.00000000000E+00 0. -1.
         21   -1    0    0  501  503 -0.00000000000E+00 -0.00000000000E+00 -0.11567675934E+04  0.11567675934E+04  0.00000000000E+00 0. -1.
    9000010    2    1    2  501    0  0.41976954550E+03  0.29116168083E+03 -0.25832819909E+03  0.11195779487E+04  0.96215369303E+03 0.  0.
   -9000010    2    1    2    0  502 -0.41976954550E+03 -0.29116168083E+03  0.21337066907E+03  0.11489997082E+04  0.10068225719E+04 0.  0.
        -13    1    3    3    0    0 -0.77481744522E+02 -0.20732523969E+03 -0.34528709770E+03  0.41013457151E+03  0.10566000000E+00 0.  1.
          4    1    3    3  501    0  0.49725129002E+03  0.49848692052E+03  0.86958898604E+02  0.70944337716E+03  0.00000000000E+00 0.  1.
         13    1    4    4    0    0 -0.83143143747E+02  0.26516467560E+03 -0.23104413136E+03  0.36139519828E+03  0.10566000000E+00 0. -1.
         -4    1    4    4    0  502 -0.33662640175E+03 -0.55632635643E+03  0.44441480043E+03  0.78760450993E+03  0.00000000000E+00 0. -1.
<mgrwt>
<rscale>  2 0.11189693E+04</rscale>
<asrwt>0</asrwt>
<pdfrwt beam="1">  1       21 0.17104770E+00 0.11290143E+04</pdfrwt>
<pdfrwt beam="2">  1       21 0.17796424E+00 0.11290143E+04</pdfrwt>
<totfact> 0.17514239E+01</totfact>
</mgrwt>
</event>
<event>
 8    1  0.7631533E-006  0.1428198E+04  0.7818608E-02  0.8457198E-01
         21   -1    0    0  501  502  0.00000000000E+00  0.00000000000E+00  0.18243454509E+04  0.18243454509E+04  0.00000000000E+00 0. -1.
         21   -1    0    0  502  503 -0.00000000000E+00 -0.00000000000E+00 -0.13866267165E+04  0.13866267165E+04  0.00000000000E+00 0. -1.
    9000010    2    1    2  501    0  0.96727155373E+03 -0.30865535548E+03 -0.51888843587E+03  0.15195380120E+04  0.10044242997E+04 0.  0.
   -9000010    2    1    2    0  503 -0.96727155373E+03  0.30865535548E+03  0.95660717033E+03  0.16914341555E+04  0.95654055679E+03 0.  0.
        -13    1    3    3    0    0  0.77539990899E+03  0.20373702179E+03 -0.57412793095E+02  0.80377237629E+03  0.10566000000E+00 0.  1.
          4    1    3    3  501    0  0.19187164474E+03 -0.51239237727E+03 -0.46147564277E+03  0.71576563567E+03  0.00000000000E+00 0.  1.
         13    1    4    4    0    0 -0.54659226856E+03  0.52947509922E+03  0.94877445010E+03  0.12162565342E+04  0.10566000000E+00 0. -1.
         -4    1    4    4    0  503 -0.42067928518E+03 -0.22081974374E+03  0.78327202314E+01  0.47517762122E+03  0.00000000000E+00 0. -1.
<mgrwt>
<rscale>  2 0.14198097E+04</rscale>
<asrwt>0</asrwt>
<pdfrwt beam="1">  1       21 0.28066853E+00 0.14281984E+04</pdfrwt>
<pdfrwt beam="2">  1       21 0.21332719E+00 0.14281984E+04</pdfrwt>
<totfact> 0.12767138E+00</totfact>
</mgrwt>
</event>
<event>
 8    1  0.7631533E-006  0.1024172E+04  0.7818608E-02  0.8754052E-01
         21   -1    0    0  501  502  0.00000000000E+00  0.00000000000E+00  0.86919202783E+03  0.86919202783E+03  0.00000000000E+00 0. -1.
         21   -1    0    0  502  503 -0.00000000000E+00 -0.00000000000E+00 -0.12594532747E+04  0.12594532747E+04  0.00000000000E+00 0. -1.
    9000010    2    1    2  501    0 -0.13920228962E+03 -0.88227894880E+02 -0.43081080147E+03  0.11036712858E+04  0.10026619178E+04 0.  0.
   -9000010    2    1    2    0  503  0.13920228962E+03  0.88227894880E+02  0.40549554607E+02  0.10249740168E+04  0.10108244307E+04 0.  0.
        -13    1    3    3    0    0 -0.36394164393E+03  0.20695622449E+03  0.12364051913E+03  0.43654482952E+03  0.10566000000E+00 0.  1.
          4    1    3    3  501    0  0.22473935431E+03 -0.29518411937E+03 -0.55445132061E+03  0.66712645625E+03  0.00000000000E+00 0.  1.
         13    1    4    4    0    0  0.49588210289E+03  0.31080430418E+03  0.11920481206E+03  0.59725051180E+03  0.10566000000E+00 0. -1.
         -4    1    4    4    0  503 -0.35667981326E+03 -0.22257640930E+03 -0.78655257453E+02  0.42772350496E+03  0.00000000000E+00 0. -1.
<mgrwt>
<rscale>  2 0.10221518E+04</rscale>
<asrwt>0</asrwt>
<pdfrwt beam="1">  1       21 0.13372185E+00 0.10241716E+04</pdfrwt>
<pdfrwt beam="2">  1       21 0.19376204E+00 0.10241716E+04</pdfrwt>
<totfact> 0.28673088E+01</totfact>
</mgrwt>
</event>
<event>
 8    1  0.7631533E-006  0.1175076E+04  0.7818608E-02  0.8628855E-01
         21   -1    0    0  501  502  0.00000000000E+00  0.00000000000E+00  0.13706747135E+04  0.13706747135E+04  0.00000000000E+00 0. -1.
         21   -1    0    0  502  503 -0.00000000000E+00 -0.00000000000E+00 -0.10780636249E+04  0.10780636249E+04  0.00000000000E+00 0. -1.
    9000010    2    1    2  501    0  0.18155724987E+02  0.58162997078E+03 -0.19668946757E+03  0.11914232521E+04  0.10208719634E+04 0.  0.
   -9000010    2    1    2    0  503 -0.18155724987E+02 -0.58162997078E+03  0.48930055622E+03  0.12573150863E+04  0.10014005884E+04 0.  0.
        -13    1    3    3    0    0 -0.44145492859E+03  0.34326182734E+03  0.13663741152E+03  0.57565695468E+03  0.10566000000E+00 0.  1.
          4    1    3    3  501    0  0.45961065358E+03  0.23836814345E+03 -0.33332687910E+03  0.61576629741E+03  0.00000000000E+00 0.  1.
         13    1    4    4    0    0 -0.11558682037E+03  0.11698792246E+03 -0.20819696840E+03  0.26531580402E+03  0.10566000000E+00 0. -1.
         -4    1    4    4    0  503  0.97431095383E+02 -0.69861789324E+03  0.69749752462E+03  0.99199928224E+03  0.00000000000E+00 0. -1.
<mgrwt>
<rscale>  2 0.11708337E+04</rscale>
<asrwt>0</asrwt>
<pdfrwt beam="1">  1       21 0.21087303E+00 0.11750756E+04</pdfrwt>
<pdfrwt beam="2">  1       21 0.16585594E+00 0.11750756E+04</pdfrwt>
<totfact> 0.10527709E+01</totfact>
</mgrwt>
</event>
<event>
 8    1  0.7631533E-006  0.1068894E+04  0.7818608E-02  0.8722343E-01
         21   -1    0    0  503  502  0.00000000000E+00  0.00000000000E+00  0.83320058788E+03  0.83320058788E+03  0.00000000000E+00 0. -1.
         21   -1    0    0  501  503 -0.00000000000E+00 -0.00000000000E+00 -0.13393823300E+04  0.13393823300E+04  0.00000000000E+00 0. -1.
    9000010    2    1    2  501    0  0.12976272884E+03 -0.15005627120E+03 -0.40661253552E+03  0.11436205965E+04  0.10503233142E+04 0.  0.
   -9000010    2    1    2    0  502 -0.12976272884E+03  0.15005627120E+03 -0.99569206567E+02  0.10289623214E+04  0.10047358765E+04 0.  0.
        -13    1    3    3    0    0  0.31309884964E+03 -0.12811857004E+03  0.27592124234E+03  0.43655217417E+03  0.10566000000E+00 0.  1.
          4    1    3    3  501    0 -0.18333612080E+03 -0.21937701160E+02 -0.68253377787E+03  0.70706842233E+03  0.00000000000E+00 0.  1.
         13    1    4    4    0    0  0.20125047412E+03 -0.36112096724E+03 -0.69619191508E+02  0.41923376451E+03  0.10566000000E+00 0. -1.
         -4    1    4    4    0  502 -0.33101320295E+03  0.51117723844E+03 -0.29950015059E+02  0.60972855685E+03  0.00000000000E+00 0. -1.
<mgrwt>
<rscale>  2 0.10575237E+04</rscale>
<asrwt>0</asrwt>
<pdfrwt beam="1">  1       21 0.12818471E+00 0.10688940E+04</pdfrwt>
<pdfrwt beam="2">  1       21 0.20605882E+00 0.10688940E+04</pdfrwt>
<totfact> 0.25723381E+01</totfact>
</mgrwt>
</event>
<event>
 8    1  0.7631533E-006  0.1027896E+04  0.7818608E-02  0.8756002E-01
         21   -1    0    0  501  502  0.00000000000E+00  0.00000000000E+00  0.14939199626E+04  0.14939199626E+04  0.00000000000E+00 0. -1.
         21   -1    0    0  502  503 -0.00000000000E+00 -0.00000000000E+00 -0.70467724536E+03  0.70467724536E+03  0.00000000000E+00 0. -1.
    9000010    2    1    2  501    0 -0.23456139388E+03 -0.62353497626E+02  0.20971534758E+03  0.10185878659E+04  0.96676455631E+03 0.  0.
   -9000010    2    1    2    0  503  0.23456139388E+03  0.62353497626E+02  0.57952736967E+03  0.11800093421E+04  0.99883085108E+03 0.  0.
        -13    1    3    3    0    0  0.31562036835E+03 -0.11788494867E+03 -0.13941072074E+03  0.36462095148E+03  0.10566000000E+00 0.  1.
          4    1    3    3  501    0 -0.55018176223E+03  0.55531451040E+02  0.34912606832E+03  0.65396691439E+03  0.00000000000E+00 0.  1.
         13    1    4    4    0    0  0.19982819622E+02 -0.43786409915E+03  0.88946798029E+02  0.44725364889E+03  0.10566000000E+00 0. -1.
         -4    1    4    4    0  503  0.21457857426E+03  0.50021759678E+03  0.49058057164E+03  0.73275569321E+03  0.00000000000E+00 0. -1.
<mgrwt>
<rscale>  2 0.10200233E+04</rscale>
<asrwt>0</asrwt>
<pdfrwt beam="1">  1       21 0.22983384E+00 0.10278959E+04</pdfrwt>
<pdfrwt beam="2">  1       21 0.10841188E+00 0.10278959E+04</pdfrwt>
<totfact> 0.27335671E+01</totfact>
</mgrwt>
</event>
<event>
 8    1  0.7631533E-006  0.1034285E+04  0.7818608E-02  0.8745581E-01
         21   -1    0    0  501  502  0.00000000000E+00  0.00000000000E+00  0.70623977278E+03  0.70623977278E+03  0.00000000000E+00 0.  1.
         21   -1    0    0  502  503 -0.00000000000E+00 -0.00000000000E+00 -0.20461511676E+04  0.20461511676E+04  0.00000000000E+00 0.  1.
    9000010    2    1    2  501    0 -0.23234960989E+03  0.69533328171E+02  0.39474731380E+02  0.10350380044E+04  0.10054472593E+04 0.  0.
   -9000010    2    1    2    0  503  0.23234960989E+03 -0.69533328171E+02 -0.13793861262E+04  0.17173529360E+04  0.99386809819E+03 0.  0.
        -13    1    3    3    0    0 -0.84293270165E+02 -0.28423308949E+03 -0.36993113162E+03  0.47407051992E+03  0.10566000000E+00 0.  1.
          4    1    3    3  501    0 -0.14805633972E+03  0.35376641766E+03  0.40940586300E+03  0.56096748449E+03  0.00000000000E+00 0.  1.
         13    1    4    4    0    0 -0.15658968989E+03  0.30247514683E+03 -0.10065672811E+04  0.10626331672E+04  0.10566000000E+00 0. -1.
         -4    1    4    4    0  503  0.38893929978E+03 -0.37200847500E+03 -0.37281884509E+03  0.65471976878E+03  0.00000000000E+00 0. -1.
<mgrwt>
<rscale>  2 0.10314602E+04</rscale>
<asrwt>0</asrwt>
<pdfrwt beam="1">  1       21 0.10865227E+00 0.10342850E+04</pdfrwt>
<pdfrwt beam="2">  1       21 0.31479249E+00 0.10342850E+04</pdfrwt>
<totfact> 0.66601073E+00</totfact>
</mgrwt>
</event>
<event>
 8    1  0.7631533E-006  0.1089861E+04  0.7818608E-02  0.8714598E-01
         21   -1    0    0  501  502  0.00000000000E+00  0.00000000000E+00  0.17925701968E+04  0.17925701968E+04  0.00000000000E+00 0. -1.
         21   -1    0    0  502  503 -0.00000000000E+00 -0.00000000000E+00 -0.72324464299E+03  0.72324464299E+03  0.00000000000E+00 0. -1.
    9000010    2    1    2  501    0 -0.23601210613E+03  0.96773453878E+02  0.10548664680E+04  0.15167533676E+04  0.10595898721E+04 0.  0.
   -9000010    2    1    2    0  503  0.23601210613E+03 -0.96773453878E+02  0.14459085768E+02  0.99906147221E+03  0.96584053781E+03 0.  0.
        -13    1    3    3    0    0 -0.16001339629E+03  0.55094789583E+03  0.34146905072E+03  0.66764436242E+03  0.10566000000E+00 0.  1.
          4    1    3    3  501    0 -0.75998709839E+02 -0.45417444195E+03  0.71339741732E+03  0.84910900517E+03  0.00000000000E+00 0.  1.
         13    1    4    4    0    0  0.36946411699E+02 -0.35109245431E+03  0.37499393735E+03  0.51502564308E+03  0.10566000000E+00 0. -1.
         -4    1    4    4    0  503  0.19906569443E+03  0.25431900044E+03 -0.36053485158E+03  0.48403582914E+03  0.00000000000E+00 0. -1.
<mgrwt>
<rscale>  2 0.10663876E+04</rscale>
<asrwt>0</asrwt>
<pdfrwt beam="1">  1       21 0.27578003E+00 0.10898612E+04</pdfrwt>
<pdfrwt beam="2">  1       21 0.11126841E+00 0.10898612E+04</pdfrwt>
<totfact> 0.11647633E+01</totfact>
</mgrwt>
</event>
<event>
 8    1  0.7631533E-006  0.9925423E+03  0.7818608E-02  0.8790227E-01
         21   -1    0    0  501  502  0.00000000000E+00  0.00000000000E+00  0.42134874193E+03  0.42134874193E+03  0.00000000000E+00 0.  1.
         21   -1    0    0  502  503 -0.00000000000E+00 -0.00000000000E+00 -0.27653566206E+04  0.27653566206E+04  0.00000000000E+00 0.  1.
    9000010    2    1    2  501    0 -0.32655621486E+01 -0.59255840826E+01 -0.47015431158E+03  0.10662178111E+04  0.95693759862E+03 0.  0.
   -9000010    2    1    2    0  503  0.32655621486E+01  0.59255840826E+01 -0.18738535671E+04  0.21204875514E+04  0.99251926342E+03 0.  0.
        -13    1    3    3    0    0 -0.23282426908E+02  0.30087469942E+03 -0.64530083822E+03  0.71237689402E+03  0.10566000000E+00 0.  1.
          4    1    3    3  501    0  0.20016864759E+02 -0.30680028351E+03  0.17514652664E+03  0.35384091712E+03  0.00000000000E+00 0.  1.
         13    1    4    4    0    0  0.32654817134E+03  0.37371527399E+03 -0.82119845200E+03  0.95951223179E+03  0.10566000000E+00 0. -1.
         -4    1    4    4    0  503 -0.32328260919E+03 -0.36778968990E+03 -0.10526551151E+04  0.11609753196E+04  0.00000000000E+00 0. -1.
<mgrwt>
<rscale>  2 0.98352498E+03</rscale>
<asrwt>0</asrwt>
<pdfrwt beam="1">  1       21 0.64822885E-01 0.99254232E+03</pdfrwt>
<pdfrwt beam="2">  1       21 0.42543947E+00 0.99254232E+03</pdfrwt>
<totfact> 0.41134996E+00</totfact>
</mgrwt>
</event>
<event>
 8    1  0.7631533E-006  0.1024667E+04  0.7818608E-02  0.8753489E-01
         21   -1    0    0  503  502  0.00000000000E+00  0.00000000000E+00  0.14375870942E+04  0.14375870942E+04  0.00000000000E+00 0. -1.
         21   -1    0    0  501  503 -0.00000000000E+00 -0.00000000000E+00 -0.82055606594E+03  0.82055606594E+03  0.00000000000E+00 0. -1.
    9000010    2    1    2  501    0  0.54785707030E+02 -0.15726236636E+03  0.69490116694E+03  0.12380754861E+04  0.10110441889E+04 0.  0.
   -9000010    2    1    2    0  502 -0.54785707030E+02  0.15726236636E+03 -0.77870138717E+02  0.10200676740E+04  0.10033650260E+04 0.  0.
        -13    1    3    3    0    0 -0.41718863966E+03 -0.16746760423E+03  0.61105305532E+03  0.75860240384E+03  0.10566000000E+00 0.  1.
          4    1    3    3  501    0  0.47197434669E+03  0.10205237872E+02  0.83848111624E+02  0.47947308228E+03  0.00000000000E+00 0.  1.
         13    1    4    4    0    0  0.12149663018E+03 -0.28730096192E+03 -0.35079987377E+03  0.46942926673E+03  0.10566000000E+00 0. -1.
         -4    1    4    4    0  502 -0.17628233721E+03  0.44456332828E+03  0.27292973506E+03  0.55063840725E+03  0.00000000000E+00 0. -1.
<mgrwt>
<rscale>  2 0.10227680E+04</rscale>
<asrwt>0</asrwt>
<pdfrwt beam="1">  1       21 0.22116724E+00 0.10246674E+04</pdfrwt>
<pdfrwt beam="2">  1       21 0.12623940E+00 0.10246674E+04</pdfrwt>
<totfact> 0.20825471E+01</totfact>
</mgrwt>
</event>
<event>
 8    1  0.7631533E-006  0.1038527E+04  0.7818608E-02  0.8741575E-01
         21   -1    0    0  501  502  0.00000000000E+00  0.00000000000E+00  0.81300189890E+03  0.81300189890E+03  0.00000000000E+00 0. -1.
         21   -1    0    0  502  503 -0.00000000000E+00 -0.00000000000E+00 -0.13292424971E+04  0.13292424971E+04  0.00000000000E+00 0. -1.
    9000010    2    1    2  501    0  0.67217196208E+02 -0.46515001241E+02 -0.37427504641E+03  0.10940587484E+04  0.10247931195E+04 0.  0.
   -9000010    2    1    2    0  503 -0.67217196208E+02  0.46515001241E+02 -0.14196555178E+03  0.10481856476E+04  0.10353053352E+04 0.  0.
        -13    1    3    3    0    0 -0.84765754755E+02  0.47619951489E+03 -0.17512193157E+03  0.51441122970E+03  0.10566000000E+00 0.  1.
          4    1    3    3  501    0  0.15198295096E+03 -0.52271451614E+03 -0.19915311485E+03  0.57964751868E+03  0.00000000000E+00 0.  1.
         13    1    4    4    0    0 -0.19628633202E+03  0.85690391669E+02 -0.56496614025E+03  0.60420023019E+03  0.10566000000E+00 0. -1.
         -4    1    4    4    0  503  0.12906913581E+03 -0.39175390428E+02  0.42300058847E+03  0.44398541742E+03  0.00000000000E+00 0. -1.
<mgrwt>
<rscale>  2 0.10358975E+04</rscale>
<asrwt>0</asrwt>
<pdfrwt beam="1">  1       21 0.12507722E+00 0.10385273E+04</pdfrwt>
<pdfrwt beam="2">  1       21 0.20449884E+00 0.10385273E+04</pdfrwt>
<totfact> 0.28559201E+01</totfact>
</mgrwt>
</event>
<event>
 8    1  0.7631533E-006  0.9520881E+03  0.7818608E-02  0.8831495E-01
         21   -1    0    0  501  502  0.00000000000E+00  0.00000000000E+00  0.73332850384E+03  0.73332850384E+03  0.00000000000E+00 0. -1.
         21   -1    0    0  502  503 -0.00000000000E+00 -0.00000000000E+00 -0.11868287396E+04  0.11868287396E+04  0.00000000000E+00 0. -1.
    9000010    2    1    2  501    0  0.15967869753E+03  0.10028836347E+03 -0.17772866012E+03  0.96853456275E+03  0.93322916817E+03 0.  0.
   -9000010    2    1    2    0  503 -0.15967869753E+03 -0.10028836347E+03 -0.27577157560E+03  0.95162268065E+03  0.89105595903E+03 0.  0.
        -13    1    3    3    0    0  0.20402204134E+03  0.35360601867E+03 -0.44068946175E+03  0.60072408197E+03  0.10566000000E+00 0.  1.
          4    1    3    3  501    0 -0.44343343818E+02 -0.25331765521E+03  0.26296080163E+03  0.36781048078E+03  0.00000000000E+00 0.  1.
         13    1    4    4    0    0 -0.24236342152E+03  0.26885847415E+03  0.14127404869E+03  0.38856566396E+03  0.10566000000E+00 0. -1.
         -4    1    4    4    0  503  0.82684723997E+02 -0.36914683762E+03 -0.41704562429E+03  0.56305701669E+03  0.00000000000E+00 0. -1.
<mgrwt>
<rscale>  2 0.94159087E+03</rscale>
<asrwt>0</asrwt>
<pdfrwt beam="1">  1       21 0.11281977E+00 0.95208809E+03</pdfrwt>
<pdfrwt beam="2">  1       21 0.18258903E+00 0.95208809E+03</pdfrwt>
<totfact> 0.57843210E+01</totfact>
</mgrwt>
</event>
<event>
 8    1  0.7631533E-006  0.1078451E+04  0.7818608E-02  0.8721924E-01
         21   -1    0    0  503  502  0.00000000000E+00  0.00000000000E+00  0.15355921613E+04  0.15355921613E+04  0.00000000000E+00 0. -1.
         21   -1    0    0  501  503 -0.00000000000E+00 -0.00000000000E+00 -0.78346998116E+03  0.78346998116E+03  0.00000000000E+00 0. -1.
    9000010    2    1    2  501    0  0.35430875194E+02 -0.17340338989E+03 -0.91496570606E+01  0.99898949334E+03  0.98314404287E+03 0.  0.
   -9000010    2    1    2    0  502 -0.35430875194E+02  0.17340338989E+03  0.76127183718E+03  0.13200726491E+04  0.10638293596E+04 0.  0.
        -13    1    3    3    0    0 -0.32507559350E+02  0.16929540092E+03  0.41505860312E+03  0.44943445504E+03  0.10566000000E+00 0.  1.
          4    1    3    3  501    0  0.67938434544E+02 -0.34269879081E+03 -0.42420826018E+03  0.54955503830E+03  0.00000000000E+00 0.  1.
         13    1    4    4    0    0  0.13396425474E+02  0.80069259921E+02  0.10290886946E+04  0.10322858631E+04  0.10566000000E+00 0. -1.
         -4    1    4    4    0  502 -0.48827300668E+02  0.93334129973E+02 -0.26781685740E+03  0.28778678603E+03  0.00000000000E+00 0. -1.
<mgrwt>
<rscale>  2 0.10580009E+04</rscale>
<asrwt>0</asrwt>
<pdfrwt beam="1">  1       21 0.23624495E+00 0.10784512E+04</pdfrwt>
<pdfrwt beam="2">  1       21 0.12053384E+00 0.10784512E+04</pdfrwt>
<totfact> 0.18107983E+01</totfact>
</mgrwt>
</event>
<event>
 8    1  0.7631533E-006  0.1040762E+04  0.7818608E-02  0.8739978E-01
         21   -1    0    0  503  502  0.00000000000E+00  0.00000000000E+00  0.66061811451E+03  0.66061811451E+03  0.00000000000E+00 0. -1.
         21   -1    0    0  501  503 -0.00000000000E+00 -0.00000000000E+00 -0.16450032781E+04  0.16450032781E+04  0.00000000000E+00 0. -1.
    9000010    2    1    2  501    0  0.96373242251E+01 -0.28160659246E+03 -0.35389213476E+03  0.10992839011E+04  0.10018933582E+04 0.  0.
   -9000010    2    1    2    0  502 -0.96373242251E+01  0.28160659246E+03 -0.63049302886E+03  0.12063374915E+04  0.98910744264E+03 0.  0.
        -13    1    3    3    0    0 -0.39089354523E+03  0.13665749563E+03  0.12001870806E+02  0.41426693192E+03  0.10566000000E+00 0.  1.
          4    1    3    3  501    0  0.40053086946E+03 -0.41826408810E+03 -0.36589400557E+03  0.68501696920E+03  0.00000000000E+00 0.  1.
         13    1    4    4    0    0  0.35954907186E+03  0.34345677459E+03 -0.29252442843E+02  0.49809016018E+03  0.10566000000E+00 0. -1.
         -4    1    4    4    0  502 -0.36918639609E+03 -0.61850182126E+02 -0.60124058602E+03  0.70824733135E+03  0.00000000000E+00 0. -1.
<mgrwt>
<rscale>  2 0.10376726E+04</rscale>
<asrwt>0</asrwt>
<pdfrwt beam="1">  1       21 0.10163356E+00 0.10407620E+04</pdfrwt>
<pdfrwt beam="2">  1       21 0.25307743E+00 0.10407620E+04</pdfrwt>
<totfact> 0.21856002E+01</totfact>
</mgrwt>
</event>
<event>
 8    1  0.7631533E-006  0.1053847E+04  0.7818608E-02  0.8728522E-01
         21   -1    0    0  501  502  0.00000000000E+00  0.00000000000E+00  0.21578455435E+04  0.21578455435E+04  0.00000000000E+00 0.  1.
         21   -1    0    0  502  503 -0.00000000000E+00 -0.00000000000E+00 -0.53467955341E+03  0.53467955341E+03  0.00000000000E+00 0.  1.
    9000010    2    1    2  501    0 -0.12645599208E+02 -0.29621971452E+03  0.11159280441E+04  0.15348904075E+04  0.10112799479E+04 0.  0.
   -9000010    2    1    2    0  503  0.12645599208E+02  0.29621971452E+03  0.50723794597E+03  0.11576346893E+04  0.99745762301E+03 0.  0.
        -13    1    3    3    0    0  0.10014105856E+03 -0.89027531168E+00 -0.17727568814E+03  0.20360674097E+03  0.10566000000E+00 0.  1.
          4    1    3    3  501    0 -0.11278665776E+03 -0.29532943921E+03  0.12932037322E+04  0.13312836666E+04  0.00000000000E+00 0.  1.
         13    1    4    4    0    0 -0.13359453481E+02  0.59055976299E+03  0.60581473409E+03  0.84613876632E+03  0.10566000000E+00 0. -1.
         -4    1    4    4    0  503  0.26005052689E+02 -0.29434004848E+03 -0.98576788125E+02  0.31149592302E+03  0.00000000000E+00 0. -1.
<mgrwt>
<rscale>  2 0.10505169E+04</rscale>
<asrwt>0</asrwt>
<pdfrwt beam="1">  1       21 0.33197623E+00 0.10538468E+04</pdfrwt>
<pdfrwt beam="2">  1       21 0.82258394E-01 0.10538468E+04</pdfrwt>
<totfact> 0.10303798E+01</totfact>
</mgrwt>
</event>
<event>
 8    1  0.7631533E-006  0.1127570E+04  0.7818608E-02  0.8664135E-01
         21   -1    0    0  503  502  0.00000000000E+00  0.00000000000E+00  0.19659889932E+04  0.19659889932E+04  0.00000000000E+00 0. -1.
         21   -1    0    0  501  503 -0.00000000000E+00 -0.00000000000E+00 -0.10074624784E+04  0.10074624784E+04  0.00000000000E+00 0. -1.
    9000010    2    1    2  501    0 -0.13442207351E+02 -0.51920638100E+03 -0.41302319107E+03  0.12008339598E+04  0.10008286985E+04 0.  0.
   -9000010    2    1    2    0  502  0.13442207351E+02  0.51920638100E+03  0.13715497058E+04  0.17726175117E+04  0.99562457196E+03 0.  0.
        -13    1    3    3    0    0 -0.21531522880E+03 -0.61940502668E+03 -0.61438851421E+03  0.89860808609E+03  0.10566000000E+00 0.  1.
          4    1    3    3  501    0  0.20187302145E+03  0.10019864567E+03  0.20136532314E+03  0.30222587372E+03  0.00000000000E+00 0.  1.
         13    1    4    4    0    0  0.20102985451E+03  0.77579236436E+03  0.91529588788E+03  0.12165662204E+04  0.10566000000E+00 0. -1.
         -4    1    4    4    0  502 -0.18758764716E+03 -0.25658598336E+03  0.45625381797E+03  0.55605129137E+03  0.00000000000E+00 0. -1.
<mgrwt>
<rscale>  2 0.11264140E+04</rscale>
<asrwt>0</asrwt>
<pdfrwt beam="1">  1       21 0.30245985E+00 0.11275700E+04</pdfrwt>
<pdfrwt beam="2">  1       21 0.15499423E+00 0.11275700E+04</pdfrwt>
<totfact> 0.28430139E+00</totfact>
</mgrwt>
</event>
<event>
 8    1  0.7631533E-006  0.1109080E+04  0.7818608E-02  0.8688745E-01
         21   -1    0    0  503  502  0.00000000000E+00  0.00000000000E+00  0.42985661741E+03  0.42985661741E+03  0.00000000000E+00 0. -1.
         21   -1    0    0  501  503 -0.00000000000E+00 -0.00000000000E+00 -0.31273673166E+04  0.31273673166E+04  0.00000000000E+00 0. -1.
    9000010    2    1    2  501    0 -0.11820485951E+03  0.30759032901E+03 -0.20038740954E+04  0.22903207010E+04  0.10589963756E+04 0.  0.
   -9000010    2    1    2    0  502  0.11820485951E+03 -0.30759032901E+03 -0.69363660375E+03  0.12669032330E+04  0.10076347873E+04 0.  0.
        -13    1    3    3    0    0  0.64857373208E+02  0.46642122397E+03 -0.19928249174E+04  0.20477075963E+04  0.10566000000E+00 0.  1.
          4    1    3    3  501    0 -0.18306223272E+03 -0.15883089496E+03 -0.11049177995E+02  0.24261310470E+03  0.00000000000E+00 0.  1.
         13    1    4    4    0    0 -0.40461966124E+03  0.55940790803E+02 -0.16986362722E+03  0.44238004629E+03  0.10566000000E+00 0. -1.
         -4    1    4    4    0  502  0.52282452075E+03 -0.36353111981E+03 -0.52377297653E+03  0.82452318676E+03  0.00000000000E+00 0. -1.
<mgrwt>
<rscale>  2 0.10966387E+04</rscale>
<asrwt>0</asrwt>
<pdfrwt beam="1">  1       21 0.66131791E-01 0.11090796E+04</pdfrwt>
<pdfrwt beam="2">  1       21 0.48113340E+00 0.11090796E+04</pdfrwt>
<totfact> 0.15712076E+00</totfact>
</mgrwt>
</event>
<event>
 8    1  0.7631533E-006  0.1038301E+04  0.7818608E-02  0.8739791E-01
         21   -1    0    0  501  502  0.00000000000E+00  0.00000000000E+00  0.93086250172E+03  0.93086250172E+03  0.00000000000E+00 0. -1.
         21   -1    0    0  502  503 -0.00000000000E+00 -0.00000000000E+00 -0.12117173426E+04  0.12117173426E+04  0.00000000000E+00 0. -1.
    9000010    2    1    2  501    0 -0.22049156835E+02  0.27953997092E+03 -0.36948656709E+03  0.11005031491E+04  0.99797700239E+03 0.  0.
   -9000010    2    1    2    0  503  0.22049156835E+02 -0.27953997092E+03  0.88631726237E+02  0.10420766952E+04  0.99971970825E+03 0.  0.
        -13    1    3    3    0    0 -0.21864150589E+03  0.37801726289E+03  0.20717437880E+03  0.48334500467E+03  0.10566000000E+00 0.  1.
          4    1    3    3  501    0  0.19659234906E+03 -0.98477291978E+02 -0.57666094589E+03  0.61715814445E+03  0.00000000000E+00 0.  1.
         13    1    4    4    0    0  0.35357548388E+03 -0.38275957215E+03 -0.23114017409E+03  0.57004061620E+03  0.10566000000E+00 0. -1.
         -4    1    4    4    0  503 -0.33152632705E+03  0.10321960124E+03  0.31977190033E+03  0.47203607897E+03  0.00000000000E+00 0. -1.
<mgrwt>
<rscale>  2 0.10378809E+04</rscale>
<asrwt>0</asrwt>
<pdfrwt beam="1">  1       21 0.14320962E+00 0.10383007E+04</pdfrwt>
<pdfrwt beam="2">  1       21 0.18641805E+00 0.10383007E+04</pdfrwt>
<totfact> 0.26683074E+01</totfact>
</mgrwt>
</event>
<event>
 8    1  0.7631533E-006  0.1022787E+04  0.7818608E-02  0.8757157E-01
         21   -1    0    0  503  502  0.00000000000E+00  0.00000000000E+00  0.12082056180E+04  0.12082056180E+04  0.00000000000E+00 0. -1.
         21   -1    0    0  501  503 -0.00000000000E+00 -0.00000000000E+00 -0.92495942965E+03  0.92495942965E+03  0.00000000000E+00 0. -1.
    9000010    2    1    2  501    0 -0.12662492856E+03 -0.11839903704E+03 -0.15824803338E+03  0.10191587699E+04  0.99176103660E+03 0.  0.
   -9000010    2    1    2    0  502  0.12662492856E+03  0.11839903704E+03  0.44149422171E+03  0.11140062777E+04  0.10079884099E+04 0.  0.
        -13    1    3    3    0    0 -0.12821973042E+03 -0.34174301461E+03  0.32376964142E+03  0.48790919152E+03  0.10566000000E+00 0.  1.
          4    1    3    3  501    0  0.15948018622E+01  0.22334397757E+03 -0.48201767480E+03  0.53124957839E+03  0.00000000000E+00 0.  1.
         13    1    4    4    0    0 -0.12202700089E+03  0.10214417530E+03  0.72169618374E+03  0.73903275589E+03  0.10566000000E+00 0. -1.
         -4    1    4    4    0  502  0.24865192945E+03  0.16254861733E+02 -0.28020196202E+03  0.37497352183E+03  0.00000000000E+00 0. -1.
<mgrwt>
<rscale>  2 0.10187659E+04</rscale>
<asrwt>0</asrwt>
<pdfrwt beam="1">  1       21 0.18587779E+00 0.10227868E+04</pdfrwt>
<pdfrwt beam="2">  1       21 0.14230145E+00 0.10227868E+04</pdfrwt>
<totfact> 0.27568426E+01</totfact>
</mgrwt>
</event>
<event>
 8    1  0.7631533E-006  0.1066943E+04  0.7818608E-02  0.8719511E-01
         21   -1    0    0  503  502  0.00000000000E+00  0.00000000000E+00  0.10773786313E+04  0.10773786313E+04  0.00000000000E+00 0. -1.
         21   -1    0    0  501  503 -0.00000000000E+00 -0.00000000000E+00 -0.11394837509E+04  0.11394837509E+04  0.00000000000E+00 0. -1.
    9000010    2    1    2  501    0  0.37235125283E+03 -0.18609811839E+02 -0.37042550230E+03  0.11062642511E+04  0.97345454945E+03 0.  0.
   -9000010    2    1    2    0  502 -0.37235125283E+03  0.18609811839E+02  0.30832038270E+03  0.11105981311E+04  0.99968743607E+03 0.  0.
        -13    1    3    3    0    0 -0.14871729965E+03 -0.22261365811E+03  0.17899862647E+03  0.32204688391E+03  0.10566000000E+00 0.  1.
          4    1    3    3  501    0  0.52106855248E+03  0.20400384627E+03 -0.54942412877E+03  0.78421736716E+03  0.00000000000E+00 0.  1.
         13    1    4    4    0    0 -0.21262826565E+03  0.68012733423E+02  0.67319434097E+03  0.70924406458E+03  0.10566000000E+00 0. -1.
         -4    1    4    4    0  502 -0.15972298718E+03 -0.49402921584E+02 -0.36487395827E+03  0.40135406652E+03  0.00000000000E+00 0. -1.
<mgrwt>
<rscale>  2 0.10607543E+04</rscale>
<asrwt>0</asrwt>
<pdfrwt beam="1">  1       21 0.16575056E+00 0.10669427E+04</pdfrwt>
<pdfrwt beam="2">  1       21 0.17530519E+00 0.10669427E+04</pdfrwt>
<totfact> 0.20689761E+01</totfact>
</mgrwt>
</event>
<event>
 8    1  0.7631533E-006  0.1136049E+04  0.7818608E-02  0.8660015E-01
         21   -1    0    0  503  502  0.00000000000E+00  0.00000000000E+00  0.92650121373E+03  0.92650121373E+03  0.00000000000E+00 0. -1.
         21   -1    0    0  501  503 -0.00000000000E+00 -0.00000000000E+00 -0.18196550539E+04  0.18196550539E+04  0.00000000000E+00 0. -1.
    9000010    2    1    2  501    0 -0.25047357933E+03 -0.45567107561E+03 -0.11257553990E+04  0.15865392608E+04  0.98965067805E+03 0.  0.
   -9000010    2    1    2    0  502  0.25047357933E+03  0.45567107561E+03  0.23260155876E+03  0.11596170069E+04  0.10100668168E+04 0.  0.
        -13    1    3    3    0    0 -0.11158483968E+03  0.24783156944E+03 -0.25167128880E+02  0.27295614812E+03  0.10566000000E+00 0.  1.
          4    1    3    3  501    0 -0.13888873965E+03 -0.70350264505E+03 -0.11005882701E+04  0.13135831126E+04  0.00000000000E+00 0.  1.
         13    1    4    4    0    0  0.24864177068E+03 -0.79217293223E+01  0.54601797401E+03  0.60001760226E+03  0.10566000000E+00 0. -1.
         -4    1    4    4    0  502  0.18318086513E+01  0.46359280493E+03 -0.31341641524E+03  0.55959940462E+03  0.00000000000E+00 0. -1.
<mgrwt>
<rscale>  2 0.11314938E+04</rscale>
<asrwt>0</asrwt>
<pdfrwt beam="1">  1       21 0.14253865E+00 0.11360493E+04</pdfrwt>
<pdfrwt beam="2">  1       21 0.27994693E+00 0.11360493E+04</pdfrwt>
<totfact> 0.53027708E+00</totfact>
</mgrwt>
</event>
<event>
 8    1  0.7631533E-006  0.1020407E+04  0.7818608E-02  0.8758893E-01
         21   -1    0    0  503  502  0.00000000000E+00  0.00000000000E+00  0.10980424215E+04  0.10980424215E+04  0.00000000000E+00 0. -1.
         21   -1    0    0  501  503 -0.00000000000E+00 -0.00000000000E+00 -0.94153519656E+03  0.94153519656E+03  0.00000000000E+00 0. -1.
    9000010    2    1    2  501    0  0.15308815748E+03 -0.13171014125E+03 -0.44857216069E+01  0.10204171221E+04  0.10002236931E+04 0.  0.
   -9000010    2    1    2    0  502 -0.15308815748E+03  0.13171014125E+03  0.16099294659E+03  0.10191604960E+04  0.98589342346E+03 0.  0.
        -13    1    3    3    0    0  0.15632594303E+03 -0.29321301599E+03  0.43776390296E+03  0.54958977348E+03  0.10566000000E+00 0.  1.
          4    1    3    3  501    0 -0.32377855540E+01  0.16150287474E+03 -0.44224962457E+03  0.47082734865E+03  0.00000000000E+00 0.  1.
         13    1    4    4    0    0 -0.54712677745E+03  0.79883534213E+02  0.25785182485E+03  0.61009561905E+03  0.10566000000E+00 0. -1.
         -4    1    4    4    0  502  0.39403861997E+03  0.51826607039E+02 -0.96858878261E+02  0.40906487691E+03  0.00000000000E+00 0. -1.
<mgrwt>
<rscale>  2 0.10168783E+04</rscale>
<asrwt>0</asrwt>
<pdfrwt beam="1">  1       21 0.16892960E+00 0.10204073E+04</pdfrwt>
<pdfrwt beam="2">  1       21 0.14485157E+00 0.10204073E+04</pdfrwt>
<totfact> 0.36033048E+01</totfact>
</mgrwt>
</event>
<event>
 8    1  0.7631533E-006  0.1055558E+04  0.7818608E-02  0.8724873E-01
         21   -1    0    0  503  502  0.00000000000E+00  0.00000000000E+00  0.10564247366E+04  0.10564247366E+04  0.00000000000E+00 0. -1.
         21   -1    0    0  501  503 -0.00000000000E+00 -0.00000000000E+00 -0.10606104613E+04  0.10606104613E+04  0.00000000000E+00 0. -1.
    9000010    2    1    2  501    0  0.10046091388E+03 -0.31609102814E+03  0.98358962450E+02  0.10565074714E+04  0.99826229933E+03 0.  0.
   -9000010    2    1    2    0  502 -0.10046091388E+03  0.31609102814E+03 -0.10254468708E+03  0.10605277265E+04  0.10020966583E+04 0.  0.
        -13    1    3    3    0    0 -0.35580455518E+02  0.30483340348E+03  0.25819619206E+03  0.40106689897E+03  0.10566000000E+00 0.  1.
          4    1    3    3  501    0  0.13604136940E+03 -0.62092443162E+03 -0.15983722961E+03  0.65544057240E+03  0.00000000000E+00 0.  1.
         13    1    4    4    0    0 -0.13076708386E+03  0.50712576468E+03 -0.43172804031E+03  0.67872356920E+03  0.10566000000E+00 0. -1.
         -4    1    4    4    0  502  0.30306169976E+02 -0.19103473654E+03  0.32918335324E+03  0.38180415732E+03  0.00000000000E+00 0. -1.
<mgrwt>
<rscale>  2 0.10546474E+04</rscale>
<asrwt>0</asrwt>
<pdfrwt beam="1">  1       21 0.16252688E+00 0.10555585E+04</pdfrwt>
<pdfrwt beam="2">  1       21 0.16317084E+00 0.10555585E+04</pdfrwt>
<totfact> 0.27945142E+01</totfact>
</mgrwt>
</event>
<event>
 8    1  0.7631533E-006  0.1051780E+04  0.7818608E-02  0.8735644E-01
         21   -1    0    0  503  502  0.00000000000E+00  0.00000000000E+00  0.12670664790E+04  0.12670664790E+04  0.00000000000E+00 0. -1.
         21   -1    0    0  501  503 -0.00000000000E+00 -0.00000000000E+00 -0.84381880473E+03  0.84381880473E+03  0.00000000000E+00 0. -1.
    9000010    2    1    2  501    0 -0.43376583484E+02 -0.76244045531E+02  0.18172260351E+03  0.10673628108E+04  0.10481152527E+04 0.  0.
   -9000010    2    1    2    0  502  0.43376583484E+02  0.76244045531E+02  0.24152507073E+03  0.10435224729E+04  0.10113901864E+04 0.  0.
        -13    1    3    3    0    0  0.70065630641E+02  0.46643218825E+03 -0.33020862005E+02  0.47281980429E+03  0.10566000000E+00 0.  1.
          4    1    3    3  501    0 -0.11344221412E+03 -0.54267623378E+03  0.21474346552E+03  0.59454300655E+03  0.00000000000E+00 0.  1.
         13    1    4    4    0    0 -0.40155145684E+03 -0.14102248441E+03 -0.10599595273E+03  0.43859556171E+03  0.10566000000E+00 0. -1.
         -4    1    4    4    0  502  0.44492804032E+03  0.21726652994E+03  0.34752102345E+03  0.60492691115E+03  0.00000000000E+00 0. -1.
<mgrwt>
<rscale>  2 0.10425096E+04</rscale>
<asrwt>0</asrwt>
<pdfrwt beam="1">  1       21 0.19493331E+00 0.10517796E+04</pdfrwt>
<pdfrwt beam="2">  1       21 0.12981828E+00 0.10517796E+04</pdfrwt>
<totfact> 0.30401818E+01</totfact>
</mgrwt>
</event>
<event>
 8    1  0.7631533E-006  0.1031688E+04  0.7818608E-02  0.8750249E-01
         21   -1    0    0  501  502  0.00000000000E+00  0.00000000000E+00  0.18852984503E+04  0.18852984503E+04  0.00000000000E+00 0.  1.
         21   -1    0    0  502  503 -0.00000000000E+00 -0.00000000000E+00 -0.58063986873E+03  0.58063986873E+03  0.00000000000E+00 0.  1.
    9000010    2    1    2  501    0 -0.13978344255E+02 -0.23210439544E+03  0.91500039791E+03  0.13631173864E+04  0.98325756367E+03 0.  0.
   -9000010    2    1    2    0  503  0.13978344255E+02  0.23210439544E+03  0.38965818370E+03  0.11028209326E+04  0.10051431067E+04 0.  0.
        -13    1    3    3    0    0  0.12632089518E+03 -0.20997773278E+01  0.10529041609E+04  0.10604567699E+04  0.10566000000E+00 0.  1.
          4    1    3    3  501    0 -0.14029923943E+03 -0.23000461811E+03 -0.13790376300E+03  0.30266061651E+03  0.00000000000E+00 0.  1.
         13    1    4    4    0    0 -0.34064511710E+03  0.78638540367E+02 -0.19628569073E+03  0.40093789966E+03  0.10566000000E+00 0. -1.
         -4    1    4    4    0  503  0.35462346135E+03  0.15346585507E+03  0.58594387443E+03  0.70188303299E+03  0.00000000000E+00 0. -1.
<mgrwt>
<rscale>  2 0.10263188E+04</rscale>
<asrwt>0</asrwt>
<pdfrwt beam="1">  1       21 0.29004591E+00 0.10316882E+04</pdfrwt>
<pdfrwt beam="2">  1       21 0.89329211E-01 0.10316882E+04</pdfrwt>
<totfact> 0.16604224E+01</totfact>
</mgrwt>
</event>
<event>
 8    1  0.7631533E-006  0.1094507E+04  0.7818608E-02  0.8706404E-01
         21   -1    0    0  501  502  0.00000000000E+00  0.00000000000E+00  0.13013901124E+04  0.13013901124E+04  0.00000000000E+00 0. -1.
         21   -1    0    0  502  503 -0.00000000000E+00 -0.00000000000E+00 -0.89676617358E+03  0.89676617358E+03  0.00000000000E+00 0. -1.
    9000010    2    1    2  501    0 -0.60328803412E+02  0.35862716604E+03  0.41686288802E+03  0.11035807891E+04  0.95491511764E+03 0.  0.
   -9000010    2    1    2    0  503  0.60328803412E+02 -0.35862716604E+03 -0.12238949192E+02  0.10945754969E+04  0.10323239403E+04 0.  0.
        -13    1    3    3    0    0 -0.45189809236E+02  0.12423960914E+03 -0.31144173824E+03  0.33833942546E+03  0.10566000000E+00 0.  1.
          4    1    3    3  501    0 -0.15138994176E+02  0.23438755691E+03  0.72830462626E+03  0.76524136363E+03  0.00000000000E+00 0.  1.
         13    1    4    4    0    0  0.31702200261E+02  0.25718755316E+03 -0.31489399998E+03  0.40780964847E+03  0.10566000000E+00 0. -1.
         -4    1    4    4    0  503  0.28626603151E+02 -0.61581471920E+03  0.30265505079E+03  0.68676584842E+03  0.00000000000E+00 0. -1.
<mgrwt>
<rscale>  2 0.10758643E+04</rscale>
<asrwt>0</asrwt>
<pdfrwt beam="1">  1       21 0.20021386E+00 0.10945071E+04</pdfrwt>
<pdfrwt beam="2">  1       21 0.13796403E+00 0.10945071E+04</pdfrwt>
<totfact> 0.22911946E+01</totfact>
</mgrwt>
</event>
<event>
 8    1  0.7631533E-006  0.1044981E+04  0.7818608E-02  0.8736943E-01
         21   -1    0    0  501  502  0.00000000000E+00  0.00000000000E+00  0.87553581527E+03  0.87553581527E+03  0.00000000000E+00 0.  1.
         21   -1    0    0  502  503 -0.00000000000E+00 -0.00000000000E+00 -0.13794953460E+04  0.13794953460E+04  0.00000000000E+00 0.  1.
    9000010    2    1    2  501    0 -0.26816869014E+03  0.63969631770E+02  0.11915251851E+03  0.10517522438E+04  0.10079577865E+04 0.  0.
   -9000010    2    1    2    0  503  0.26816869014E+03 -0.63969631770E+02 -0.62311204927E+03  0.12032789175E+04  0.99176860573E+03 0.  0.
        -13    1    3    3    0    0  0.29477874466E+03  0.17561860262E+03  0.29393847020E+03  0.45181438370E+03  0.10566000000E+00 0.  1.
          4    1    3    3  501    0 -0.56294743480E+03 -0.11164897085E+03 -0.17478595169E+03  0.59993786007E+03  0.00000000000E+00 0.  1.
         13    1    4    4    0    0  0.31615035433E+03  0.15172352827E+03 -0.82971214873E+03  0.90077374323E+03  0.10566000000E+00 0. -1.
         -4    1    4    4    0  503 -0.47981664197E+02 -0.21569316004E+03  0.20660009946E+03  0.30250517431E+03  0.00000000000E+00 0. -1.
<mgrwt>
<rscale>  2 0.10410574E+04</rscale>
<asrwt>0</asrwt>
<pdfrwt beam="1">  1       21 0.13469782E+00 0.10449811E+04</pdfrwt>
<pdfrwt beam="2">  1       21 0.21223005E+00 0.10449811E+04</pdfrwt>
<totfact> 0.20082909E+01</totfact>
</mgrwt>
</event>
<event>
 8    1  0.7631533E-006  0.1091731E+04  0.7818608E-02  0.8697331E-01
         21   -1    0    0  503  502  0.00000000000E+00  0.00000000000E+00  0.15929599727E+04  0.15929599727E+04  0.00000000000E+00 0. -1.
         21   -1    0    0  501  503 -0.00000000000E+00 -0.00000000000E+00 -0.10694424458E+04  0.10694424458E+04  0.00000000000E+00 0. -1.
    9000010    2    1    2  501    0  0.39186889474E+03 -0.16926615662E+03 -0.48551278530E+03  0.11757892507E+04  0.98211274042E+03 0.  0.
   -9000010    2    1    2    0  502 -0.39186889474E+03  0.16926615662E+03  0.10090303122E+04  0.14866131677E+04  0.10048205198E+04 0.  0.
        -13    1    3    3    0    0  0.55212134235E+03  0.28953586810E+02 -0.66442494938E+03  0.86437076038E+03  0.10566000000E+00 0.  1.
          4    1    3    3  501    0 -0.16025244761E+03 -0.19821974343E+03  0.17891216408E+03  0.31141849031E+03  0.00000000000E+00 0.  1.
         13    1    4    4    0    0 -0.58465794803E+03  0.28507344574E+03  0.10712538681E+04  0.12532663910E+04  0.10566000000E+00 0. -1.
         -4    1    4    4    0  502  0.19278905329E+03 -0.11580728912E+03 -0.62223555954E+02  0.23334677671E+03  0.00000000000E+00 0. -1.
<mgrwt>
<rscale>  2 0.10864774E+04</rscale>
<asrwt>0</asrwt>
<pdfrwt beam="1">  1       21 0.24507076E+00 0.10917310E+04</pdfrwt>
<pdfrwt beam="2">  1       21 0.16452961E+00 0.10917310E+04</pdfrwt>
<totfact> 0.61122434E+00</totfact>
</mgrwt>
</event>
<event>
 8    1  0.7631533E-006  0.1032144E+04  0.7818608E-02  0.8744987E-01
         21   -1    0    0  503  502  0.00000000000E+00  0.00000000000E+00  0.25117193639E+04  0.25117193639E+04  0.00000000000E+00 0.  1.
         21   -1    0    0  501  503 -0.00000000000E+00 -0.00000000000E+00 -0.45827871501E+03  0.45827871501E+03  0.00000000000E+00 0.  1.
    9000010    2    1    2  501    0 -0.31001177863E+02 -0.25579463194E+03  0.62108954860E+03  0.12045089629E+04  0.99934861160E+03 0.  0.
   -9000010    2    1    2    0  502  0.31001177863E+02  0.25579463194E+03  0.14323511003E+04  0.17654891160E+04  0.99946494564E+03 0.  0.
        -13    1    3    3    0    0 -0.31343052814E+02  0.14163834382E+03 -0.22615380459E+03  0.26868078066E+03  0.10566000000E+00 0.  1.
          4    1    3    3  501    0  0.34187495087E+00 -0.39743297576E+03  0.84724335319E+03  0.93582818222E+03  0.00000000000E+00 0.  1.
         13    1    4    4    0    0 -0.60124877108E+02  0.41234411867E+01  0.14903900248E+04  0.14916080051E+04  0.10566000000E+00 0. -1.
         -4    1    4    4    0  502  0.91126054971E+02  0.25167119075E+03 -0.58038924558E+02  0.27388111091E+03  0.00000000000E+00 0. -1.
<mgrwt>
<rscale>  2 0.10321163E+04</rscale>
<asrwt>0</asrwt>
<pdfrwt beam="1">  1       21 0.38641836E+00 0.10321444E+04</pdfrwt>
<pdfrwt beam="2">  1       21 0.70504419E-01 0.10321444E+04</pdfrwt>
<totfact> 0.62343747E+00</totfact>
</mgrwt>
</event>
<event>
 8    1  0.7631533E-006  0.1074237E+04  0.7818608E-02  0.8712820E-01
         21   -1    0    0  503  502  0.00000000000E+00  0.00000000000E+00  0.11766342196E+04  0.11766342196E+04  0.00000000000E+00 0.  1.
         21   -1    0    0  501  503 -0.00000000000E+00 -0.00000000000E+00 -0.11606808282E+04  0.11606808282E+04  0.00000000000E+00 0.  1.
    9000010    2    1    2  501    0 -0.18588826495E+02 -0.27249366327E+03  0.49400887680E+03  0.11615080536E+04  0.10151146966E+04 0.  0.
   -9000010    2    1    2    0  502  0.18588826495E+02  0.27249366327E+03 -0.47805548538E+03  0.11758069942E+04  0.10389353683E+04 0.  0.
        -13    1    3    3    0    0  0.19044229497E+03  0.34767698360E+03  0.20086860823E+03  0.44440495224E+03  0.10566000000E+00 0.  1.
          4    1    3    3  501    0 -0.20903112146E+03 -0.62017064687E+03  0.29314026857E+03  0.71710310140E+03  0.00000000000E+00 0.  1.
         13    1    4    4    0    0  0.70225460825E+02  0.15467575153E+03  0.32275605624E+03  0.36472960733E+03  0.10566000000E+00 0. -1.
         -4    1    4    4    0  502 -0.51636634330E+02  0.11781791174E+03 -0.80081154163E+03  0.81107738690E+03  0.00000000000E+00 0. -1.
<mgrwt>
<rscale>  2 0.10684350E+04</rscale>
<asrwt>0</asrwt>
<pdfrwt beam="1">  1       21 0.18102065E+00 0.10742370E+04</pdfrwt>
<pdfrwt beam="2">  1       21 0.17856628E+00 0.10742370E+04</pdfrwt>
<totfact> 0.14498501E+01</totfact>
</mgrwt>
</event>
<event>
 8    1  0.7631533E-006  0.1094002E+04  0.7818608E-02  0.8692011E-01
         21   -1    0    0  503  502  0.00000000000E+00  0.00000000000E+00  0.12677137118E+04  0.12677137118E+04  0.00000000000E+00 0. -1.
         21   -1    0    0  501  503 -0.00000000000E+00 -0.00000000000E+00 -0.14552703899E+04  0.14552703899E+04  0.00000000000E+00 0. -1.
    9000010    2    1    2  501    0 -0.30877979765E+03 -0.34108544592E+03 -0.90392114875E+03  0.14153075719E+04  0.98708552576E+03 0.  0.
   -9000010    2    1    2    0  502  0.30877979765E+03  0.34108544592E+03  0.71636447073E+03  0.13076765298E+04  0.99255005250E+03 0.  0.
        -13    1    3    3    0    0 -0.20326619477E+03 -0.47625659567E+03 -0.23510786479E+02  0.51835341139E+03  0.10566000000E+00 0.  1.
          4    1    3    3  501    0 -0.10551360288E+03  0.13517114976E+03 -0.88041036228E+03  0.89695416055E+03  0.00000000000E+00 0.  1.
         13    1    4    4    0    0 -0.14083057134E+03 -0.17610241260E+02 -0.18821355836E+03  0.23572807456E+03  0.10566000000E+00 0. -1.
         -4    1    4    4    0  502  0.44961036898E+03  0.35869568718E+03  0.90457802909E+03  0.10719484552E+04  0.00000000000E+00 0. -1.
<mgrwt>
<rscale>  2 0.10927608E+04</rscale>
<asrwt>0</asrwt>
<pdfrwt beam="1">  1       21 0.19503288E+00 0.10940018E+04</pdfrwt>
<pdfrwt beam="2">  1       21 0.22388775E+00 0.10940018E+04</pdfrwt>
<totfact> 0.49323215E+00</totfact>
</mgrwt>
</event>
<event>
 8    1  0.7631533E-006  0.1052664E+04  0.7818608E-02  0.8739646E-01
         21   -1    0    0  501  502  0.00000000000E+00  0.00000000000E+00  0.16186806836E+04  0.16186806836E+04  0.00000000000E+00 0. -1.
         21   -1    0    0  502  503 -0.00000000000E+00 -0.00000000000E+00 -0.69591631062E+03  0.69591631062E+03  0.00000000000E+00 0. -1.
    9000010    2    1    2  501    0  0.48777211368E+01 -0.19621178207E+03  0.77750609902E+03  0.13086702428E+04  0.10342046291E+04 0.  0.
   -9000010    2    1    2    0  503 -0.48777211368E+01  0.19621178207E+03  0.14525827399E+03  0.10059267515E+04  0.97584107700E+03 0.  0.
        -13    1    3    3    0    0  0.49316211891E+03 -0.24656841389E+03  0.50257537813E+03  0.74604750527E+03  0.10566000000E+00 0.  1.
          4    1    3    3  501    0 -0.48828439778E+03  0.50356631814E+02  0.27493072089E+03  0.56262273752E+03  0.00000000000E+00 0.  1.
         13    1    4    4    0    0 -0.27826729552E+03  0.12174325775E+03  0.47958645904E+03  0.56767710137E+03  0.10566000000E+00 0. -1.
         -4    1    4    4    0  503  0.27338957438E+03  0.74468524320E+02 -0.33432818504E+03  0.43824965009E+03  0.00000000000E+00 0. -1.
<mgrwt>
<rscale>  2 0.10380423E+04</rscale>
<asrwt>0</asrwt>
<pdfrwt beam="1">  1       21 0.24902780E+00 0.10526643E+04</pdfrwt>
<pdfrwt beam="2">  1       21 0.10706405E+00 0.10526643E+04</pdfrwt>
<totfact> 0.20313309E+01</totfact>
</mgrwt>
</event>
<event>
 8    1  0.7631533E-006  0.1182908E+04  0.7818608E-02  0.8623701E-01
         21   -1    0    0  501  502  0.00000000000E+00  0.00000000000E+00  0.16861388331E+04  0.16861388331E+04  0.00000000000E+00 0. -1.
         21   -1    0    0  502  503 -0.00000000000E+00 -0.00000000000E+00 -0.16846553953E+04  0.16846553953E+04  0.00000000000E+00 0. -1.
    9000010    2    1    2  501    0 -0.60309222083E+03 -0.12387040574E+03  0.12117443353E+04  0.16784576776E+04  0.98480035398E+03 0.  0.
   -9000010    2    1    2    0  503  0.60309222083E+03  0.12387040574E+03 -0.12102608974E+04  0.16923365507E+04  0.10100531951E+04 0.  0.
        -13    1    3    3    0    0 -0.69722332214E+03 -0.11067502083E+03  0.30882106763E+03  0.77054512143E+03  0.10566000000E+00 0.  1.
          4    1    3    3  501    0  0.94131101314E+02 -0.13195384907E+02  0.90292326764E+03  0.90791255618E+03  0.00000000000E+00 0.  1.
         13    1    4    4    0    0 -0.36626300655E+01 -0.80491979417E+02  0.16040830399E+03  0.17950824149E+03  0.10566000000E+00 0. -1.
         -4    1    4    4    0  503  0.60675485090E+03  0.20436238515E+03 -0.13706692014E+04  0.15128283093E+04  0.00000000000E+00 0. -1.
<mgrwt>
<rscale>  2 0.11774990E+04</rscale>
<asrwt>0</asrwt>
<pdfrwt beam="1">  1       21 0.25940597E+00 0.11829081E+04</pdfrwt>
<pdfrwt beam="2">  1       21 0.25917775E+00 0.11829081E+04</pdfrwt>
<totfact> 0.87409177E-01</totfact>
</mgrwt>
</event>
<event>
 8    1  0.7631533E-006  0.1085241E+04  0.7818608E-02  0.8703251E-01
         21   -1    0    0  501  502  0.00000000000E+00  0.00000000000E+00  0.13938877208E+04  0.13938877208E+04  0.00000000000E+00 0.  1.
         21   -1    0    0  502  503 -0.00000000000E+00 -0.00000000000E+00 -0.10096344610E+04  0.10096344610E+04  0.00000000000E+00 0.  1.
    9000010    2    1    2  501    0  0.46461679155E+02 -0.37094859705E+03  0.70099816057E+03  0.12730022423E+04  0.99467318179E+03 0.  0.
   -9000010    2    1    2    0  503 -0.46461679155E+02  0.37094859705E+03 -0.31674490081E+03  0.11305199394E+04  0.10188162013E+04 0.  0.
        -13    1    3    3    0    0 -0.10054262677E+03 -0.43589145447E+03  0.90724427151E+03  0.10115346555E+04  0.10566000000E+00 0.  1.
          4    1    3    3  501    0  0.14700430593E+03  0.64942857422E+02 -0.20624611095E+03  0.26146758685E+03  0.00000000000E+00 0.  1.
         13    1    4    4    0    0 -0.50776299406E+03  0.13156383020E+03 -0.51546896845E+01  0.52455588982E+03  0.10566000000E+00 0. -1.
         -4    1    4    4    0  503  0.46130131491E+03  0.23938476685E+03 -0.31159021113E+03  0.60596404960E+03  0.00000000000E+00 0. -1.
<mgrwt>
<rscale>  2 0.10795380E+04</rscale>
<asrwt>0</asrwt>
<pdfrwt beam="1">  1       21 0.21444427E+00 0.10852410E+04</pdfrwt>
<pdfrwt beam="2">  1       21 0.15532838E+00 0.10852410E+04</pdfrwt>
<totfact> 0.12428361E+01</totfact>
</mgrwt>
</event>
<event>
 8    1  0.7631533E-006  0.1015499E+04  0.7818608E-02  0.8775376E-01
         21   -1    0    0  501  502  0.00000000000E+00  0.00000000000E+00  0.41780010714E+03  0.41780010714E+03  0.00000000000E+00 0.  1.
         21   -1    0    0  502  503 -0.00000000000E+00 -0.00000000000E+00 -0.27403294215E+04  0.27403294215E+04  0.00000000000E+00 0.  1.
    9000010    2    1    2  501    0 -0.75559008250E+02 -0.24394558205E+02 -0.57174902655E+03  0.11653903889E+04  0.10123900192E+04 0.  0.
   -9000010    2    1    2    0  503  0.75559008250E+02  0.24394558205E+02 -0.17507802878E+04  0.19927391397E+04  0.94840571726E+03 0.  0.
        -13    1    3    3    0    0  0.32430846749E+03  0.58084373358E+02  0.12944896710E+03  0.35398703756E+03  0.10566000000E+00 0.  1.
          4    1    3    3  501    0 -0.39986747574E+03 -0.82478931563E+02 -0.70119799364E+03  0.81140335136E+03  0.00000000000E+00 0.  1.
         13    1    4    4    0    0  0.33919169936E+03  0.10219661348E+03 -0.16686770314E+04  0.17058658221E+04  0.10566000000E+00 0. -1.
         -4    1    4    4    0  503 -0.26363269111E+03 -0.77802055273E+02 -0.82103256375E+02  0.28687331757E+03  0.00000000000E+00 0. -1.
<mgrwt>
<rscale>  2 0.99916511E+03</rscale>
<asrwt>0</asrwt>
<pdfrwt beam="1">  1       21 0.64276941E-01 0.10154988E+04</pdfrwt>
<pdfrwt beam="2">  1       21 0.42158913E+00 0.10154988E+04</pdfrwt>
<totfact> 0.44368393E+00</totfact>
</mgrwt>
</event>
<event>
 8    1  0.7631533E-006  0.1060156E+04  0.7818608E-02  0.8727812E-01
         21   -1    0    0  501  502  0.00000000000E+00  0.00000000000E+00  0.13201987420E+04  0.13201987420E+04  0.00000000000E+00 0.  1.
         21   -1    0    0  502  503 -0.00000000000E+00 -0.00000000000E+00 -0.88826473060E+03  0.88826473060E+03  0.00000000000E+00 0.  1.
    9000010    2    1    2  501    0  0.11778896910E+03 -0.30219081023E+03 -0.85436125187E+02  0.10288013091E+04  0.97259409573E+03 0.  0.
   -9000010    2    1    2    0  503 -0.11778896910E+03  0.30219081023E+03  0.51737013659E+03  0.11796621635E+04  0.10093252374E+04 0.  0.
        -13    1    3    3    0    0 -0.76495530046E+02  0.82315347007E+02  0.37901000224E+03  0.39531756277E+03  0.10566000000E+00 0.  1.
          4    1    3    3  501    0  0.19428449915E+03 -0.38450615724E+03 -0.46444612743E+03  0.63348374631E+03  0.00000000000E+00 0.  1.
         13    1    4    4    0    0  0.31420909985E+03  0.41505899599E+03  0.34087365241E+02  0.52169271436E+03  0.10566000000E+00 0. -1.
         -4    1    4    4    0  503 -0.43199806895E+03 -0.11286818576E+03  0.48328277135E+03  0.65796944915E+03  0.00000000000E+00 0. -1.
<mgrwt>
<rscale>  2 0.10513191E+04</rscale>
<asrwt>0</asrwt>
<pdfrwt beam="1">  1       21 0.20310750E+00 0.10601561E+04</pdfrwt>
<pdfrwt beam="2">  1       21 0.13665611E+00 0.10601561E+04</pdfrwt>
<totfact> 0.22545765E+01</totfact>
</mgrwt>
</event>
<event>
 8    1  0.7631533E-006  0.1013201E+04  0.7818608E-02  0.8786926E-01
         21   -1    0    0  501  502  0.00000000000E+00  0.00000000000E+00  0.13430341202E+04  0.13430341202E+04  0.00000000000E+00 0. -1.
         21   -1    0    0  502  503 -0.00000000000E+00 -0.00000000000E+00 -0.23430853055E+04  0.23430853055E+04  0.00000000000E+00 0. -1.
    9000010    2    1    2  501    0 -0.10761623702E+03  0.11137298448E+03  0.10396408495E+04  0.14516987158E+04  0.10012945967E+04 0.  0.
   -9000010    2    1    2    0  503  0.10761623702E+03 -0.11137298448E+03 -0.20396920348E+04  0.22344207099E+04  0.89905901685E+03 0.  0.
        -13    1    3    3    0    0 -0.16441662106E+03 -0.68335844312E+00  0.12204794191E+04  0.12315044928E+04  0.10566000000E+00 0.  1.
          4    1    3    3  501    0  0.56800384040E+02  0.11205634292E+03 -0.18083856955E+03  0.22019422302E+03  0.00000000000E+00 0.  1.
         13    1    4    4    0    0 -0.17017862645E+03 -0.59135020935E+02 -0.50428729585E+01  0.18023084456E+03  0.10566000000E+00 0. -1.
         -4    1    4    4    0  503  0.27779486347E+03 -0.52237963542E+02 -0.20346491618E+04  0.20541898653E+04  0.00000000000E+00 0. -1.
<mgrwt>
<rscale>  2 0.98697502E+03</rscale>
<asrwt>0</asrwt>
<pdfrwt beam="1">  1       21 0.20662064E+00 0.10132009E+04</pdfrwt>
<pdfrwt beam="2">  1       21 0.36047466E+00 0.10132009E+04</pdfrwt>
<totfact> 0.43321259E-01</totfact>
</mgrwt>
</event>
<event>
 8    1  0.7631533E-006  0.1094684E+04  0.7818608E-02  0.8691001E-01
         21   -1    0    0  501  502  0.00000000000E+00  0.00000000000E+00  0.81770134730E+03  0.81770134730E+03  0.00000000000E+00 0.  1.
         21   -1    0    0  502  503 -0.00000000000E+00 -0.00000000000E+00 -0.15326434856E+04  0.15326434856E+04  0.00000000000E+00 0.  1.
    9000010    2    1    2  501    0  0.40338563374E+03 -0.95542140774E+02 -0.10492429193E+03  0.10997005128E+04  0.10131553882E+04 0.  0.
   -9000010    2    1    2    0  503 -0.40338563374E+03  0.95542140774E+02 -0.61001784640E+03  0.12506443201E+04  0.10100203821E+04 0.  0.
        -13    1    3    3    0    0  0.15859637892E+03 -0.52963759521E+03  0.98218694363E+02  0.56152980041E+03  0.10566000000E+00 0.  1.
          4    1    3    3  501    0  0.24478925482E+03  0.43409545443E+03 -0.20314298629E+03  0.53817071243E+03  0.00000000000E+00 0.  1.
         13    1    4    4    0    0  0.29569874118E+03  0.21887368859E+03 -0.30553165631E+03  0.47821861242E+03  0.10566000000E+00 0. -1.
         -4    1    4    4    0  503 -0.69908437491E+03 -0.12333154782E+03 -0.30448619009E+03  0.77242570768E+03  0.00000000000E+00 0. -1.
<mgrwt>
<rscale>  2 0.10939576E+04</rscale>
<asrwt>0</asrwt>
<pdfrwt beam="1">  1       21 0.12580021E+00 0.10946836E+04</pdfrwt>
<pdfrwt beam="2">  1       21 0.23579131E+00 0.10946836E+04</pdfrwt>
<totfact> 0.16110316E+01</totfact>
</mgrwt>
</event>
<event>
 8    1  0.7631533E-006  0.1053544E+04  0.7818608E-02  0.8730187E-01
         21   -1    0    0  501  502  0.00000000000E+00  0.00000000000E+00  0.10338825143E+04  0.10338825143E+04  0.00000000000E+00 0. -1.
         21   -1    0    0  502  503 -0.00000000000E+00 -0.00000000000E+00 -0.10753437942E+04  0.10753437942E+04  0.00000000000E+00 0. -1.
    9000010    2    1    2  501    0 -0.24995330980E+03 -0.52015166956E+02  0.12830564867E+03  0.10613277981E+04  0.10221409496E+04 0.  0.
   -9000010    2    1    2    0  503  0.24995330980E+03  0.52015166956E+02 -0.16976692853E+03  0.10478985104E+04  0.10020420367E+04 0.  0.
        -13    1    3    3    0    0 -0.43900530103E+02 -0.42993288669E+03  0.36890449189E+03  0.56820777793E+03  0.10566000000E+00 0.  1.
          4    1    3    3  501    0 -0.20605277970E+03  0.37791771974E+03 -0.24059884323E+03  0.49312002015E+03  0.00000000000E+00 0.  1.
         13    1    4    4    0    0 -0.26684149894E+03 -0.28570868069E+03  0.46629390622E+02  0.39371074028E+03  0.10566000000E+00 0. -1.
         -4    1    4    4    0  503  0.51679480874E+03  0.33772384764E+03 -0.21639631915E+03  0.65418777010E+03  0.00000000000E+00 0. -1.
<mgrwt>
<rscale>  2 0.10486375E+04</rscale>
<asrwt>0</asrwt>
<pdfrwt beam="1">  1       21 0.15905885E+00 0.10535437E+04</pdfrwt>
<pdfrwt beam="2">  1       21 0.16543751E+00 0.10535437E+04</pdfrwt>
<totfact> 0.28647870E+01</totfact>
</mgrwt>
</event>
<event>
 8    1  0.7631533E-006  0.1030150E+04  0.7818608E-02  0.8753671E-01
         21   -1    0    0  501  502  0.00000000000E+00  0.00000000000E+00  0.31045626556E+03  0.31045626556E+03  0.00000000000E+00 0. -1.
         21   -1    0    0  502  503 -0.00000000000E+00 -0.00000000000E+00 -0.40108394767E+04  0.40108394767E+04  0.00000000000E+00 0. -1.
    9000010    2    1    2  501    0  0.98978617702E+02  0.93224041203E+02 -0.27698184651E+04  0.29551825681E+04  0.10211376952E+04 0.  0.
   -9000010    2    1    2    0  503 -0.98978617702E+02 -0.93224041203E+02 -0.93056474596E+03  0.13661131741E+04  0.99087182286E+03 0.  0.
        -13    1    3    3    0    0 -0.54225597947E+01  0.51976208102E+03 -0.20240922139E+04  0.20897682471E+04  0.10566000000E+00 0.  1.
          4    1    3    3  501    0  0.10440117750E+03 -0.42653803982E+03 -0.74572625121E+03  0.86541432102E+03  0.00000000000E+00 0.  1.
         13    1    4    4    0    0  0.37247460174E+02  0.18857049968E+03 -0.10220933669E+04  0.10400101290E+04  0.10566000000E+00 0. -1.
         -4    1    4    4    0  503 -0.13622607788E+03 -0.28179454088E+03  0.91528620918E+02  0.32610304508E+03  0.00000000000E+00 0. -1.
<mgrwt>
<rscale>  2 0.10225688E+04</rscale>
<asrwt>0</asrwt>
<pdfrwt beam="1">  1       21 0.47762502E-01 0.10301503E+04</pdfrwt>
<pdfrwt beam="2">  1       21 0.61705223E+00 0.10301503E+04</pdfrwt>
<totfact> 0.33987275E-01</totfact>
</mgrwt>
</event>
<event>
 8    1  0.7631533E-006  0.1156256E+04  0.7818608E-02  0.8668775E-01
         21   -1    0    0  503  502  0.00000000000E+00  0.00000000000E+00  0.70544624495E+03  0.70544624495E+03  0.00000000000E+00 0.  1.
         21   -1    0    0  501  503 -0.00000000000E+00 -0.00000000000E+00 -0.17288215658E+04  0.17288215658E+04  0.00000000000E+00 0.  1.
    9000010    2    1    2  501    0 -0.13375809682E+03  0.17259542859E+03 -0.74837004346E+03  0.13773106820E+04  0.11354499471E+04 0.  0.
   -9000010    2    1    2    0  502  0.13375809682E+03 -0.17259542859E+03 -0.27500527738E+03  0.10569571287E+04  0.99692028715E+03 0.  0.
        -13    1    3    3    0    0 -0.29906671264E+03 -0.29498252281E+03 -0.77407150214E+03  0.88070556315E+03  0.10566000000E+00 0.  1.
          4    1    3    3  501    0  0.16530861583E+03  0.46757795139E+03  0.25701458686E+02  0.49660511886E+03  0.00000000000E+00 0.  1.
         13    1    4    4    0    0 -0.85584030401E+01  0.39585877339E+02  0.36531229872E+03  0.36755050634E+03  0.10566000000E+00 0. -1.
         -4    1    4    4    0  502  0.14231649986E+03 -0.21218130592E+03 -0.64031757610E+03  0.68940662238E+03  0.00000000000E+00 0. -1.
<mgrwt>
<rscale>  2 0.11207258E+04</rscale>
<asrwt>0</asrwt>
<pdfrwt beam="1">  1       21 0.10853019E+00 0.11562556E+04</pdfrwt>
<pdfrwt beam="2">  1       21 0.26597254E+00 0.11562556E+04</pdfrwt>
<totfact> 0.14446649E+01</totfact>
</mgrwt>
</event>
<event>
 8    1  0.7631533E-006  0.1037057E+04  0.7818608E-02  0.8741380E-01
         21   -1    0    0  503  502  0.00000000000E+00  0.00000000000E+00  0.51770368542E+03  0.51770368542E+03  0.00000000000E+00 0.  1.
         21   -1    0    0  501  503 -0.00000000000E+00 -0.00000000000E+00 -0.24256078822E+04  0.24256078822E+04  0.00000000000E+00 0.  1.
    9000010    2    1    2  501    0  0.26020466853E+03  0.38157393228E+01 -0.15160482554E+04  0.18346914190E+04  0.99998463034E+03 0.  0.
   -9000010    2    1    2    0  502 -0.26020466853E+03 -0.38157393228E+01 -0.39185594135E+03  0.11086201486E+04  0.10038757521E+04 0.  0.
        -13    1    3    3    0    0 -0.17854287410E+03 -0.35171847936E+03 -0.97861123520E+03  0.10551129833E+04  0.10566000000E+00 0.  1.
          4    1    3    3  501    0  0.43874754263E+03  0.35553421868E+03 -0.53743702018E+03  0.77957843575E+03  0.00000000000E+00 0.  1.
         13    1    4    4    0    0 -0.54750264359E+02 -0.22902372839E+02 -0.71921417966E+03  0.72165861564E+03  0.10566000000E+00 0. -1.
         -4    1    4    4    0  502 -0.20545440417E+03  0.19086633516E+02  0.32735823832E+03  0.38696153293E+03  0.00000000000E+00 0. -1.
<mgrwt>
<rscale>  2 0.10361143E+04</rscale>
<asrwt>0</asrwt>
<pdfrwt beam="1">  1       21 0.79646721E-01 0.10370572E+04</pdfrwt>
<pdfrwt beam="2">  1       21 0.37317044E+00 0.10370572E+04</pdfrwt>
<totfact> 0.57549094E+00</totfact>
</mgrwt>
</event>
<event>
 8    1  0.7631533E-006  0.1160253E+04  0.7818608E-02  0.8637890E-01
         21   -1    0    0  501  502  0.00000000000E+00  0.00000000000E+00  0.10050470298E+04  0.10050470298E+04  0.00000000000E+00 0. -1.
         21   -1    0    0  502  503 -0.00000000000E+00 -0.00000000000E+00 -0.17500124219E+04  0.17500124219E+04  0.00000000000E+00 0. -1.
    9000010    2    1    2  501    0 -0.20854157269E+03 -0.54553400957E+03  0.29895607402E+03  0.11943038153E+04  0.99794284702E+03 0.  0.
   -9000010    2    1    2    0  503  0.20854157269E+03  0.54553400957E+03 -0.10439214661E+04  0.15607556364E+04  0.10025413637E+04 0.  0.
        -13    1    3    3    0    0 -0.45163166563E+03 -0.24973518804E+03 -0.21020885735E+03  0.55724913676E+03  0.10566000000E+00 0.  1.
          4    1    3    3  501    0  0.24309009295E+03 -0.29579882153E+03  0.50916493137E+03  0.63705467854E+03  0.00000000000E+00 0.  1.
         13    1    4    4    0    0  0.57550169789E+03  0.23485378699E+03 -0.82369325223E+03  0.10319055628E+04  0.10566000000E+00 0. -1.
         -4    1    4    4    0  503 -0.36696012520E+03  0.31068022258E+03 -0.22022821389E+03  0.52885007363E+03  0.00000000000E+00 0. -1.
<mgrwt>
<rscale>  2 0.11592586E+04</rscale>
<asrwt>0</asrwt>
<pdfrwt beam="1">  1       21 0.15462262E+00 0.11602526E+04</pdfrwt>
<pdfrwt beam="2">  1       21 0.26923268E+00 0.11602526E+04</pdfrwt>
<totfact> 0.49009206E+00</totfact>
</mgrwt>
</event>
<event>
 8    1  0.7631533E-006  0.1047682E+04  0.7818608E-02  0.8733558E-01
         21   -1    0    0  501  502  0.00000000000E+00  0.00000000000E+00  0.77004592654E+03  0.77004592654E+03  0.00000000000E+00 0. -1.
         21   -1    0    0  502  503 -0.00000000000E+00 -0.00000000000E+00 -0.15671581425E+04  0.15671581425E+04  0.00000000000E+00 0. -1.
    9000010    2    1    2  501    0  0.26817876411E+03  0.30084571137E+02 -0.26661286783E+02  0.10367298336E+04  0.10006362939E+04 0.  0.
   -9000010    2    1    2    0  503 -0.26817876411E+03 -0.30084571137E+02 -0.77045092915E+03  0.13004742355E+04  0.10123308115E+04 0.  0.
        -13    1    3    3    0    0  0.25313396203E+03  0.50204888897E+03  0.17002572156E+02  0.56251132279E+03  0.10566000000E+00 0.  1.
          4    1    3    3  501    0  0.15044802080E+02 -0.47196431783E+03 -0.43663858939E+02  0.47421851076E+03  0.00000000000E+00 0.  1.
         13    1    4    4    0    0 -0.35787269342E+03 -0.14861824091E+03  0.11375814587E+03  0.40385786255E+03  0.10566000000E+00 0. -1.
         -4    1    4    4    0  503  0.89693929307E+02  0.11853366977E+03 -0.88420907503E+03  0.89661637292E+03  0.00000000000E+00 0. -1.
<mgrwt>
<rscale>  2 0.10448471E+04</rscale>
<asrwt>0</asrwt>
<pdfrwt beam="1">  1       21 0.11846860E+00 0.10476825E+04</pdfrwt>
<pdfrwt beam="2">  1       21 0.24110125E+00 0.10476825E+04</pdfrwt>
<totfact> 0.17623283E+01</totfact>
</mgrwt>
</event>
<event>
 8    1  0.7631533E-006  0.1086059E+04  0.7818608E-02  0.8714661E-01
         21   -1    0    0  503  502  0.00000000000E+00  0.00000000000E+00  0.51486692025E+03  0.51486692025E+03  0.00000000000E+00 0. -1.
         21   -1    0    0  501  503 -0.00000000000E+00 -0.00000000000E+00 -0.22459581114E+04  0.22459581114E+04  0.00000000000E+00 0. -1.
    9000010    2    1    2  501    0  0.23086581685E+03  0.94292682645E+02 -0.11465732505E+04  0.15274619285E+04  0.97791594170E+03 0.  0.
   -9000010    2    1    2    0  502 -0.23086581685E+03 -0.94292682645E+02 -0.58451794072E+03  0.12333631032E+04  0.10570398222E+04 0.  0.
        -13    1    3    3    0    0 -0.22318731641E+03  0.36531691163E+03 -0.27754360161E+03  0.51019553711E+03  0.10566000000E+00 0.  1.
          4    1    3    3  501    0  0.45405313326E+03 -0.27102422898E+03 -0.86902964885E+03  0.10172663914E+04  0.00000000000E+00 0.  1.
         13    1    4    4    0    0  0.35318987244E+03  0.17523995558E+03 -0.40569343657E+03  0.56572016374E+03  0.10566000000E+00 0. -1.
         -4    1    4    4    0  502 -0.58405568930E+03 -0.26953263822E+03 -0.17882450415E+03  0.66764293942E+03  0.00000000000E+00 0. -1.
<mgrwt>
<rscale>  2 0.10663152E+04</rscale>
<asrwt>0</asrwt>
<pdfrwt beam="1">  1       21 0.79210294E-01 0.10860586E+04</pdfrwt>
<pdfrwt beam="2">  1       21 0.34553202E+00 0.10860586E+04</pdfrwt>
<totfact> 0.90169247E+00</totfact>
</mgrwt>
</event>
<event>
 8    1  0.7631533E-006  0.1020810E+04  0.7818608E-02  0.8758860E-01
         21   -1    0    0  503  502  0.00000000000E+00  0.00000000000E+00  0.87433221586E+03  0.87433221586E+03  0.00000000000E+00 0. -1.
         21   -1    0    0  501  503 -0.00000000000E+00 -0.00000000000E+00 -0.12336912984E+04  0.12336912984E+04  0.00000000000E+00 0. -1.
    9000010    2    1    2  501    0 -0.15231149527E+03 -0.43437436238E+02 -0.41059439237E+03  0.10859282697E+04  0.99275719562E+03 0.  0.
   -9000010    2    1    2    0  502  0.15231149527E+03  0.43437436238E+02  0.51235309862E+02  0.10220952445E+04  0.10084483276E+04 0.  0.
        -13    1    3    3    0    0 -0.32016522810E+03  0.17513236109E+03 -0.63375674029E+03  0.73131712288E+03  0.10566000000E+00 0.  1.
          4    1    3    3  501    0  0.16785373283E+03 -0.21856979733E+03  0.22316234792E+03  0.35461114683E+03  0.00000000000E+00 0.  1.
         13    1    4    4    0    0 -0.10973659866E+02 -0.47243519962E+03  0.84153973008E+02  0.47999723060E+03  0.10566000000E+00 0. -1.
         -4    1    4    4    0  502  0.16328515513E+03  0.51587263586E+03 -0.32918663146E+02  0.54209801392E+03  0.00000000000E+00 0. -1.
<mgrwt>
<rscale>  2 0.10169135E+04</rscale>
<asrwt>0</asrwt>
<pdfrwt beam="1">  1       21 0.13451265E+00 0.10208103E+04</pdfrwt>
<pdfrwt beam="2">  1       21 0.18979866E+00 0.10208103E+04</pdfrwt>
<totfact> 0.30321436E+01</totfact>
</mgrwt>
</event>
<event>
 8    1  0.7631533E-006  0.1017942E+04  0.7818608E-02  0.8771453E-01
         21   -1    0    0  501  502  0.00000000000E+00  0.00000000000E+00  0.71964272716E+03  0.71964272716E+03  0.00000000000E+00 0.  1.
         21   -1    0    0  502  503 -0.00000000000E+00 -0.00000000000E+00 -0.14892495459E+04  0.14892495459E+04  0.00000000000E+00 0.  1.
    9000010    2    1    2  501    0 -0.17774105134E+03  0.10987126487E+03 -0.71993545868E+03  0.12468007099E+04  0.99626370475E+03 0.  0.
   -9000010    2    1    2    0  503  0.17774105134E+03 -0.10987126487E+03 -0.49671360076E+02  0.96209156317E+03  0.93781093816E+03 0.  0.
        -13    1    3    3    0    0 -0.40737321772E+03 -0.19478238481E+03 -0.22819805705E+02  0.45212152199E+03  0.10566000000E+00 0.  1.
          4    1    3    3  501    0  0.22963216638E+03  0.30465364968E+03 -0.69711565298E+03  0.79467918793E+03  0.00000000000E+00 0.  1.
         13    1    4    4    0    0  0.40356869076E+03 -0.12678118087E+03  0.31873109389E+03  0.52965146781E+03  0.10566000000E+00 0. -1.
         -4    1    4    4    0  503 -0.22582763942E+03  0.16909916003E+02 -0.36840245396E+03  0.43244009536E+03  0.00000000000E+00 0. -1.
<mgrwt>
<rscale>  2 0.10033474E+04</rscale>
<asrwt>0</asrwt>
<pdfrwt beam="1">  1       21 0.11071427E+00 0.10179415E+04</pdfrwt>
<pdfrwt beam="2">  1       21 0.22911531E+00 0.10179415E+04</pdfrwt>
<totfact> 0.26204341E+01</totfact>
</mgrwt>
</event>
<event>
 8    1  0.7631533E-006  0.1085040E+04  0.7818608E-02  0.8699827E-01
         21   -1    0    0  503  502  0.00000000000E+00  0.00000000000E+00  0.13831458992E+04  0.13831458992E+04  0.00000000000E+00 0. -1.
         21   -1    0    0  501  503 -0.00000000000E+00 -0.00000000000E+00 -0.10138903137E+04  0.10138903137E+04  0.00000000000E+00 0. -1.
    9000010    2    1    2  501    0 -0.40220839589E+03 -0.12736035074E+03  0.67117299885E+03  0.12707740776E+04  0.99317738058E+03 0.  0.
   -9000010    2    1    2    0  502  0.40220839589E+03  0.12736035074E+03 -0.30191741333E+03  0.11262621353E+04  0.99965995232E+03 0.  0.
        -13    1    3    3    0    0  0.27442551497E+03 -0.15911710472E+03  0.35052701110E-01  0.31721858185E+03  0.10566000000E+00 0.  1.
          4    1    3    3  501    0 -0.67663391086E+03  0.31756753984E+02  0.67113794614E+03  0.95355549576E+03  0.00000000000E+00 0.  1.
         13    1    4    4    0    0 -0.23905789356E+03 -0.23304164916E+03 -0.18421012855E+03  0.38130102195E+03  0.10566000000E+00 0. -1.
         -4    1    4    4    0  502  0.64126628945E+03  0.36040199990E+03 -0.11770728478E+03  0.74496111335E+03  0.00000000000E+00 0. -1.
<mgrwt>
<rscale>  2 0.10835447E+04</rscale>
<asrwt>0</asrwt>
<pdfrwt beam="1">  1       21 0.21279168E+00 0.10850402E+04</pdfrwt>
<pdfrwt beam="2">  1       21 0.15598312E+00 0.10850402E+04</pdfrwt>
<totfact> 0.12626586E+01</totfact>
</mgrwt>
</event>
<event>
 8    1  0.7631533E-006  0.1028390E+04  0.7818608E-02  0.8751357E-01
         21   -1    0    0  501  502  0.00000000000E+00  0.00000000000E+00  0.26525061775E+04  0.26525061775E+04  0.00000000000E+00 0. -1.
         21   -1    0    0  502  503 -0.00000000000E+00 -0.00000000000E+00 -0.44693724276E+03  0.44693724276E+03  0.00000000000E+00 0. -1.
    9000010    2    1    2  501    0 -0.16733345620E+02 -0.17709112948E+03  0.16316430893E+04  0.19217436380E+04  0.99959900276E+03 0.  0.
   -9000010    2    1    2    0  503  0.16733345620E+02  0.17709112948E+03  0.57392584541E+03  0.11776997822E+04  0.10128892477E+04 0.  0.
        -13    1    3    3    0    0 -0.30407153698E+03 -0.49819628397E+03  0.90206928069E+03  0.10744245135E+04  0.10566000000E+00 0.  1.
          4    1    3    3  501    0  0.28733819136E+03  0.32110515449E+03  0.72957380862E+03  0.84731912446E+03  0.00000000000E+00 0.  1.
         13    1    4    4    0    0 -0.35526839890E+03  0.33843917028E+03  0.19811495913E+02  0.49106945921E+03  0.10566000000E+00 0. -1.
         -4    1    4    4    0  503  0.37200174452E+03 -0.16134804079E+03  0.55411434950E+03  0.68663032304E+03  0.00000000000E+00 0. -1.
<mgrwt>
<rscale>  2 0.10251024E+04</rscale>
<asrwt>0</asrwt>
<pdfrwt beam="1">  1       21 0.40807787E+00 0.10283900E+04</pdfrwt>
<pdfrwt beam="2">  1       21 0.68759577E-01 0.10283900E+04</pdfrwt>
<totfact> 0.46801434E+00</totfact>
</mgrwt>
</event>
<event>
 8    1  0.7631533E-006  0.1073476E+04  0.7818608E-02  0.8708581E-01
         21   -1    0    0  501  502  0.00000000000E+00  0.00000000000E+00  0.12683026958E+04  0.12683026958E+04  0.00000000000E+00 0.  1.
         21   -1    0    0  502  503 -0.00000000000E+00 -0.00000000000E+00 -0.12525024984E+04  0.12525024984E+04  0.00000000000E+00 0.  1.
    9000010    2    1    2  501    0  0.19423525498E+03 -0.32824126332E+03  0.66882191508E+03  0.12647817816E+04  0.10034343724E+04 0.  0.
   -9000010    2    1    2    0  503 -0.19423525498E+03  0.32824126332E+03 -0.65302171768E+03  0.12560234125E+04  0.10028398615E+04 0.  0.
        -13    1    3    3    0    0  0.26473467983E+03 -0.52034299804E+03  0.82266577568E+03  0.10087716669E+04  0.10566000000E+00 0.  1.
          4    1    3    3  501    0 -0.70499424850E+02  0.19210173472E+03 -0.15384386060E+03  0.25601011471E+03  0.00000000000E+00 0.  1.
         13    1    4    4    0    0 -0.46892160381E+02  0.67818255741E+03 -0.32162239531E+03  0.75204483390E+03  0.10566000000E+00 0. -1.
         -4    1    4    4    0  503 -0.14734309460E+03 -0.34994129408E+03 -0.33139932238E+03  0.50397857862E+03  0.00000000000E+00 0. -1.
<mgrwt>
<rscale>  2 0.10733368E+04</rscale>
<asrwt>0</asrwt>
<pdfrwt beam="1">  1       21 0.19512349E+00 0.10734758E+04</pdfrwt>
<pdfrwt beam="2">  1       21 0.19269269E+00 0.10734758E+04</pdfrwt>
<totfact> 0.86011794E+00</totfact>
</mgrwt>
</event>
<event>
 8    1  0.7631533E-006  0.1055048E+04  0.7818608E-02  0.8725037E-01
         21   -1    0    0  501  502  0.00000000000E+00  0.00000000000E+00  0.13905709684E+04  0.13905709684E+04  0.00000000000E+00 0.  1.
         21   -1    0    0  502  503 -0.00000000000E+00 -0.00000000000E+00 -0.89535241604E+03  0.89535241604E+03  0.00000000000E+00 0.  1.
    9000010    2    1    2  501    0  0.29297250087E+03 -0.15300988161E+03 -0.12815092204E+03  0.10604784402E+04  0.99947333788E+03 0.  0.
   -9000010    2    1    2    0  503 -0.29297250087E+03  0.15300988161E+03  0.62336947436E+03  0.12254449442E+04  0.10019385708E+04 0.  0.
        -13    1    3    3    0    0  0.37874173823E+03  0.30081326365E+03 -0.29832185185E+03  0.56826918122E+03  0.10566000000E+00 0.  1.
          4    1    3    3  501    0 -0.85769237362E+02 -0.45382314526E+03  0.17017092981E+03  0.49220925896E+03  0.00000000000E+00 0.  1.
         13    1    4    4    0    0 -0.21439374733E+03  0.44989534283E+03  0.74400178286E+03  0.89549380928E+03  0.10566000000E+00 0. -1.
         -4    1    4    4    0  503 -0.78578753538E+02 -0.29688546122E+03 -0.12063230850E+03  0.32995113493E+03  0.00000000000E+00 0. -1.
<mgrwt>
<rscale>  2 0.10544621E+04</rscale>
<asrwt>0</asrwt>
<pdfrwt beam="1">  1       21 0.21393400E+00 0.10550478E+04</pdfrwt>
<pdfrwt beam="2">  1       21 0.13774652E+00 0.10550478E+04</pdfrwt>
<totfact> 0.18203837E+01</totfact>
</mgrwt>
</event>
<event>
 8    1  0.7631533E-006  0.1033838E+04  0.7818608E-02  0.8745025E-01
         21   -1    0    0  501  502  0.00000000000E+00  0.00000000000E+00  0.21726389222E+04  0.21726389222E+04  0.00000000000E+00 0.  1.
         21   -1    0    0  502  503 -0.00000000000E+00 -0.00000000000E+00 -0.52802153100E+03  0.52802153100E+03  0.00000000000E+00 0.  1.
    9000010    2    1    2  501    0  0.95106276539E+02  0.16485070279E+03  0.45596642983E+03  0.11299234431E+04  0.10161695942E+04 0.  0.
   -9000010    2    1    2    0  503 -0.95106276539E+02 -0.16485070279E+03  0.11886509614E+04  0.15707370101E+04  0.10090107476E+04 0.  0.
        -13    1    3    3    0    0 -0.44187345648E+03 -0.57987759496E+02  0.13414360517E+03  0.46541298839E+03  0.10566000000E+00 0.  1.
          4    1    3    3  501    0  0.53697973302E+03  0.22283846228E+03  0.32182282466E+03  0.66451045471E+03  0.00000000000E+00 0.  1.
         13    1    4    4    0    0 -0.36228284832E+03 -0.26556419568E+03  0.12048813887E+03  0.46507053979E+03  0.10566000000E+00 0. -1.
         -4    1    4    4    0  503  0.26717657178E+03  0.10071349289E+03  0.10681628225E+04  0.11056664703E+04  0.00000000000E+00 0. -1.
<mgrwt>
<rscale>  2 0.10320749E+04</rscale>
<asrwt>0</asrwt>
<pdfrwt beam="1">  1       21 0.33425214E+00 0.10338383E+04</pdfrwt>
<pdfrwt beam="2">  1       21 0.81234083E-01 0.10338383E+04</pdfrwt>
<totfact> 0.10288933E+01</totfact>
</mgrwt>
</event>
<event>
 8    1  0.7631533E-006  0.1020409E+04  0.7818608E-02  0.8757446E-01
         21   -1    0    0  501  502  0.00000000000E+00  0.00000000000E+00  0.81930573876E+03  0.81930573876E+03  0.00000000000E+00 0.  1.
         21   -1    0    0  502  503 -0.00000000000E+00 -0.00000000000E+00 -0.12784583709E+04  0.12784583709E+04  0.00000000000E+00 0.  1.
    9000010    2    1    2  501    0 -0.10435260835E+03 -0.97326227776E+02 -0.10847344633E+03  0.10261579644E+04  0.10103820158E+04 0.  0.
   -9000010    2    1    2    0  503  0.10435260835E+03  0.97326227776E+02 -0.35067918582E+03  0.10716061452E+04  0.10024978692E+04 0.  0.
        -13    1    3    3    0    0  0.37074309163E+03  0.21957357122E+03 -0.14308444295E+03  0.45402220447E+03  0.10566000000E+00 0.  1.
          4    1    3    3  501    0 -0.47509569998E+03 -0.31689979900E+03  0.34610996623E+02  0.57213575997E+03  0.00000000000E+00 0.  1.
         13    1    4    4    0    0  0.20215784479E+03  0.16035674280E+03 -0.67734847408E+03  0.72483311574E+03  0.10566000000E+00 0. -1.
         -4    1    4    4    0  503 -0.97805236436E+02 -0.63030515021E+02  0.32666928826E+03  0.34677302950E+03  0.00000000000E+00 0. -1.
<mgrwt>
<rscale>  2 0.10184514E+04</rscale>
<asrwt>0</asrwt>
<pdfrwt beam="1">  1       21 0.12604704E+00 0.10204086E+04</pdfrwt>
<pdfrwt beam="2">  1       21 0.19668590E+00 0.10204086E+04</pdfrwt>
<totfact> 0.32272718E+01</totfact>
</mgrwt>
</event>
<event>
 8    1  0.7631533E-006  0.1190661E+04  0.7818608E-02  0.8615260E-01
         21   -1    0    0  501  502  0.00000000000E+00  0.00000000000E+00  0.15604712044E+04  0.15604712044E+04  0.00000000000E+00 0. -1.
         21   -1    0    0  502  503 -0.00000000000E+00 -0.00000000000E+00 -0.97636894046E+03  0.97636894046E+03  0.00000000000E+00 0. -1.
    9000010    2    1    2  501    0  0.26046948886E+03  0.59851101174E+03  0.64315246488E+03  0.13532625398E+04  0.99579848507E+03 0.  0.
   -9000010    2    1    2    0  503 -0.26046948886E+03 -0.59851101174E+03 -0.59050200983E+02  0.11835776050E+04  0.98555021939E+03 0.  0.
        -13    1    3    3    0    0  0.46209822490E+03  0.35596407418E+03  0.80864608284E+03  0.99707256005E+03  0.10566000000E+00 0.  1.
          4    1    3    3  501    0 -0.20162873604E+03  0.24254693757E+03 -0.16549361795E+03  0.35618997979E+03  0.00000000000E+00 0.  1.
         13    1    4    4    0    0  0.20394523770E+03 -0.49549662697E+03  0.27502484701E+03  0.60228668004E+03  0.10566000000E+00 0. -1.
         -4    1    4    4    0  503 -0.46441472656E+03 -0.10301438477E+03 -0.33407504799E+03  0.58129092493E+03  0.00000000000E+00 0. -1.
<mgrwt>
<rscale>  2 0.11885161E+04</rscale>
<asrwt>0</asrwt>
<pdfrwt beam="1">  1       21 0.24007249E+00 0.11906613E+04</pdfrwt>
<pdfrwt beam="2">  1       21 0.15021061E+00 0.11906613E+04</pdfrwt>
<totfact> 0.86739718E+00</totfact>
</mgrwt>
</event>
<event>
 8    1  0.7631533E-006  0.1084936E+04  0.7818608E-02  0.8706297E-01
         21   -1    0    0  501  502  0.00000000000E+00  0.00000000000E+00  0.43717385508E+03  0.43717385508E+03  0.00000000000E+00 0.  1.
         21   -1    0    0  502  503 -0.00000000000E+00 -0.00000000000E+00 -0.31692736536E+04  0.31692736536E+04  0.00000000000E+00 0.  1.
    9000010    2    1    2  501    0  0.21518372188E+03 -0.26442665944E+03 -0.58698388544E+03  0.12025737615E+04  0.99267722737E+03 0.  0.
   -9000010    2    1    2    0  503 -0.21518372188E+03  0.26442665944E+03 -0.21451159131E+04  0.24038737471E+04  0.10299811743E+04 0.  0.
        -13    1    3    3    0    0 -0.15379032184E+03 -0.27963035132E+03  0.16907156005E+03  0.36115066115E+03  0.10566000000E+00 0.  1.
          4    1    3    3  501    0  0.36897404372E+03  0.15203691871E+02 -0.75605544548E+03  0.84142310037E+03  0.00000000000E+00 0.  1.
         13    1    4    4    0    0 -0.60006124024E+03  0.12276159390E+03 -0.16555886056E+04  0.17652528269E+04  0.10566000000E+00 0. -1.
         -4    1    4    4    0  503  0.38487751836E+03  0.14166506555E+03 -0.48952730751E+03  0.63862092021E+03  0.00000000000E+00 0. -1.
<mgrwt>
<rscale>  2 0.10759890E+04</rscale>
<asrwt>0</asrwt>
<pdfrwt beam="1">  1       21 0.67257516E-01 0.10849363E+04</pdfrwt>
<pdfrwt beam="2">  1       21 0.48758057E+00 0.10849363E+04</pdfrwt>
<totfact> 0.13689203E+00</totfact>
</mgrwt>
</event>
<event>
 8    1  0.7631533E-006  0.1013040E+04  0.7818608E-02  0.8764169E-01
         21   -1    0    0  503  502  0.00000000000E+00  0.00000000000E+00  0.52183444325E+03  0.52183444325E+03  0.00000000000E+00 0. -1.
         21   -1    0    0  501  503 -0.00000000000E+00 -0.00000000000E+00 -0.19601172981E+04  0.19601172981E+04  0.00000000000E+00 0. -1.
    9000010    2    1    2  501    0 -0.16450020725E+03 -0.12518004209E+02 -0.64267999193E+03  0.11997028851E+04  0.99951609385E+03 0.  0.
   -9000010    2    1    2    0  502  0.16450020725E+03  0.12518004209E+02 -0.79560286290E+03  0.12822488562E+04  0.99194818172E+03 0.  0.
        -13    1    3    3    0    0  0.40886339705E+03 -0.12288379847E+03 -0.31087286869E+03  0.52812087350E+03  0.10566000000E+00 0.  1.
          4    1    3    3  501    0 -0.57336360429E+03  0.11036579426E+03 -0.33180712324E+03  0.67158201160E+03  0.00000000000E+00 0.  1.
         13    1    4    4    0    0  0.49743007576E+03  0.19737645944E+03 -0.71484571312E+03  0.89297175305E+03  0.10566000000E+00 0. -1.
         -4    1    4    4    0  502 -0.33292986851E+03 -0.18485845523E+03 -0.80757149778E+02  0.38927710318E+03  0.00000000000E+00 0. -1.
<mgrwt>
<rscale>  2 0.10111680E+04</rscale>
<asrwt>0</asrwt>
<pdfrwt beam="1">  1       21 0.80282223E-01 0.10130397E+04</pdfrwt>
<pdfrwt beam="2">  1       21 0.30155650E+00 0.10130397E+04</pdfrwt>
<totfact> 0.18070118E+01</totfact>
</mgrwt>
</event>
<event>
 8    1  0.7631533E-006  0.1060527E+04  0.7818608E-02  0.8734269E-01
         21   -1    0    0  503  502  0.00000000000E+00  0.00000000000E+00  0.75521965335E+03  0.75521965335E+03  0.00000000000E+00 0. -1.
         21   -1    0    0  501  503 -0.00000000000E+00 -0.00000000000E+00 -0.15466314050E+04  0.15466314050E+04  0.00000000000E+00 0. -1.
    9000010    2    1    2  501    0  0.79458409064E+02 -0.17045018645E+03 -0.76088879997E+03  0.13052464376E+04  0.10437191155E+04 0.  0.
   -9000010    2    1    2    0  502 -0.79458409064E+02  0.17045018645E+03 -0.30522951688E+02  0.99660462079E+03  0.97822401053E+03 0.  0.
        -13    1    3    3    0    0 -0.28253138075E+03 -0.56813191563E+02  0.14536767050E+03  0.32277467471E+03  0.10566000000E+00 0.  1.
          4    1    3    3  501    0  0.36198978982E+03 -0.11363699489E+03 -0.90625647046E+03  0.98247176285E+03  0.00000000000E+00 0.  1.
         13    1    4    4    0    0  0.39175544316E+02  0.26809990647E+03 -0.46365926277E+03  0.53702160686E+03  0.10566000000E+00 0. -1.
         -4    1    4    4    0  502 -0.11863395338E+03 -0.97649720013E+02  0.43313631108E+03  0.45958301393E+03  0.00000000000E+00 0. -1.
<mgrwt>
<rscale>  2 0.10440491E+04</rscale>
<asrwt>0</asrwt>
<pdfrwt beam="1">  1       21 0.11618764E+00 0.10605265E+04</pdfrwt>
<pdfrwt beam="2">  1       21 0.23794329E+00 0.10605265E+04</pdfrwt>
<totfact> 0.19562073E+01</totfact>
</mgrwt>
</event>
<event>
 8    1  0.7631533E-006  0.1102382E+04  0.7818608E-02  0.8689166E-01
         21   -1    0    0  501  502  0.00000000000E+00  0.00000000000E+00  0.14348889178E+04  0.14348889178E+04  0.00000000000E+00 0.  1.
         21   -1    0    0  502  503 -0.00000000000E+00 -0.00000000000E+00 -0.91264659300E+03  0.91264659300E+03  0.00000000000E+00 0.  1.
    9000010    2    1    2  501    0  0.40564292033E+03  0.83241273749E+02  0.62123693209E+03  0.12653775808E+04  0.10216505312E+04 0.  0.
   -9000010    2    1    2    0  503 -0.40564292033E+03 -0.83241273749E+02 -0.98994607267E+02  0.10821579300E+04  0.99488218632E+03 0.  0.
        -13    1    3    3    0    0  0.28509138637E+03  0.33827476356E+03  0.81210508601E+03  0.92478191815E+03  0.10566000000E+00 0.  1.
          4    1    3    3  501    0  0.12055153396E+03 -0.25503348981E+03 -0.19086815392E+03  0.34059566270E+03  0.00000000000E+00 0.  1.
         13    1    4    4    0    0 -0.24485034208E+03  0.45383486714E+03 -0.74175888903E+02  0.52097970239E+03  0.10566000000E+00 0. -1.
         -4    1    4    4    0  503 -0.16079257825E+03 -0.53707614088E+03 -0.24818718363E+02  0.56117822758E+03  0.00000000000E+00 0. -1.
<mgrwt>
<rscale>  2 0.10961384E+04</rscale>
<asrwt>0</asrwt>
<pdfrwt beam="1">  1       21 0.22075214E+00 0.11023816E+04</pdfrwt>
<pdfrwt beam="2">  1       21 0.14040717E+00 0.11023816E+04</pdfrwt>
<totfact> 0.15109962E+01</totfact>
</mgrwt>
</event>
<event>
 8    1  0.7631533E-006  0.1024996E+04  0.7818608E-02  0.8752780E-01
         21   -1    0    0  501  502  0.00000000000E+00  0.00000000000E+00  0.14630802842E+04  0.14630802842E+04  0.00000000000E+00 0. -1.
         21   -1    0    0  502  503 -0.00000000000E+00 -0.00000000000E+00 -0.91984505325E+03  0.91984505325E+03  0.00000000000E+00 0. -1.
    9000010    2    1    2  501    0  0.20769446433E+03 -0.50083950348E+02  0.83580205265E+03  0.13225663752E+04  0.10024825948E+04 0.  0.
   -9000010    2    1    2    0  503 -0.20769446433E+03  0.50083950348E+02 -0.29256682170E+03  0.10603589623E+04  0.99655425897E+03 0.  0.
        -13    1    3    3    0    0 -0.38277003459E+03 -0.11384906544E+03  0.50139618185E+03  0.64099348781E+03  0.10566000000E+00 0.  1.
          4    1    3    3  501    0  0.59046449891E+03  0.63765115094E+02  0.33440587080E+03  0.68157288737E+03  0.00000000000E+00 0.  1.
         13    1    4    4    0    0 -0.44139074958E+03 -0.27192478169E+03  0.68675559672E+02  0.52295814782E+03  0.10566000000E+00 0. -1.
         -4    1    4    4    0  503  0.23369628525E+03  0.32200873204E+03 -0.36124238138E+03  0.53740081443E+03  0.00000000000E+00 0. -1.
<mgrwt>
<rscale>  2 0.10235435E+04</rscale>
<asrwt>0</asrwt>
<pdfrwt beam="1">  1       21 0.22508928E+00 0.10249960E+04</pdfrwt>
<pdfrwt beam="2">  1       21 0.14151462E+00 0.10249960E+04</pdfrwt>
<totfact> 0.13936146E+01</totfact>
</mgrwt>
</event>
<event>
 8    1  0.7631533E-006  0.9549671E+03  0.7818608E-02  0.8837294E-01
         21   -1    0    0  503  502  0.00000000000E+00  0.00000000000E+00  0.11321957756E+04  0.11321957756E+04  0.00000000000E+00 0.  1.
         21   -1    0    0  501  503 -0.00000000000E+00 -0.00000000000E+00 -0.74626563571E+03  0.74626563571E+03  0.00000000000E+00 0.  1.
    9000010    2    1    2  501    0 -0.25267758024E+03 -0.40176747489E+02  0.25032908288E+03  0.98723186624E+03  0.92005542082E+03 0.  0.
   -9000010    2    1    2    0  502  0.25267758024E+03  0.40176747489E+02  0.13560105701E+03  0.89122954507E+03  0.84287740790E+03 0.  0.
        -13    1    3    3    0    0 -0.60079785598E+02 -0.46516112579E+03  0.22434804521E+03  0.51991971508E+03  0.10566000000E+00 0.  1.
          4    1    3    3  501    0 -0.19259779465E+03  0.42498437830E+03  0.25981037670E+02  0.46731215116E+03  0.00000000000E+00 0.  1.
         13    1    4    4    0    0  0.58808221892E+02 -0.86981416751E+02 -0.34338624275E+03  0.35907979155E+03  0.10566000000E+00 0. -1.
         -4    1    4    4    0  502  0.19386935835E+03  0.12715816424E+03  0.47898729976E+03  0.53214975352E+03  0.00000000000E+00 0. -1.
<mgrwt>
<rscale>  2 0.93587358E+03</rscale>
<asrwt>0</asrwt>
<pdfrwt beam="1">  1       21 0.17418397E+00 0.95496707E+03</pdfrwt>
<pdfrwt beam="2">  1       21 0.11481010E+00 0.95496707E+03</pdfrwt>
<totfact> 0.64553011E+01</totfact>
</mgrwt>
</event>
<event>
 8    1  0.7631533E-006  0.1167841E+04  0.7818608E-02  0.8635831E-01
         21   -1    0    0  503  502  0.00000000000E+00  0.00000000000E+00  0.13695423479E+04  0.13695423479E+04  0.00000000000E+00 0.  1.
         21   -1    0    0  501  503 -0.00000000000E+00 -0.00000000000E+00 -0.10705146432E+04  0.10705146432E+04  0.00000000000E+00 0.  1.
    9000010    2    1    2  501    0 -0.41236137660E+03  0.42917876773E+03  0.51103375734E+03  0.12531282410E+04  0.97720958229E+03 0.  0.
   -9000010    2    1    2    0  502  0.41236137660E+03 -0.42917876773E+03 -0.21200605259E+03  0.11869287501E+04  0.10047969805E+04 0.  0.
        -13    1    3    3    0    0  0.26634221033E+03  0.14967390726E+03  0.41133628043E+03  0.51238461949E+03  0.10566000000E+00 0.  1.
          4    1    3    3  501    0 -0.67870358693E+03  0.27950486047E+03  0.99697476906E+02  0.74074362153E+03  0.00000000000E+00 0.  1.
         13    1    4    4    0    0 -0.23114956340E+03  0.96546667264E+02  0.13715540651E+03  0.28559236040E+03  0.10566000000E+00 0. -1.
         -4    1    4    4    0  502  0.64351094000E+03 -0.52572543500E+03 -0.34916145911E+03  0.90133638971E+03  0.00000000000E+00 0. -1.
<mgrwt>
<rscale>  2 0.11618835E+04</rscale>
<asrwt>0</asrwt>
<pdfrwt beam="1">  1       21 0.21069882E+00 0.11678413E+04</pdfrwt>
<pdfrwt beam="2">  1       21 0.16469456E+00 0.11678413E+04</pdfrwt>
<totfact> 0.10819537E+01</totfact>
</mgrwt>
</event>
<event>
 8    1  0.7631533E-006  0.1056033E+04  0.7818608E-02  0.8724996E-01
         21   -1    0    0  503  502  0.00000000000E+00  0.00000000000E+00  0.11283314577E+04  0.11283314577E+04  0.00000000000E+00 0. -1.
         21   -1    0    0  501  503 -0.00000000000E+00 -0.00000000000E+00 -0.10271994943E+04  0.10271994943E+04  0.00000000000E+00 0. -1.
    9000010    2    1    2  501    0 -0.13052363833E+03 -0.31403901045E+03 -0.17366617585E+03  0.10702175599E+04  0.99977435688E+03 0.  0.
   -9000010    2    1    2    0  502  0.13052363833E+03  0.31403901045E+03  0.27479813926E+03  0.10853133921E+04  0.99334496596E+03 0.  0.
        -13    1    3    3    0    0 -0.35296680270E+03 -0.35931871380E+03  0.27026705545E+03  0.57161157644E+03  0.10566000000E+00 0.  1.
          4    1    3    3  501    0  0.22244316437E+03  0.45279703352E+02 -0.44393323129E+03  0.49860598348E+03  0.00000000000E+00 0.  1.
         13    1    4    4    0    0 -0.99363079047E+02 -0.32048839272E+03  0.23423364899E+03  0.40920807033E+03  0.10566000000E+00 0. -1.
         -4    1    4    4    0  502  0.22988671737E+03  0.63452740317E+03  0.40564490273E+02  0.67610532173E+03  0.00000000000E+00 0. -1.
<mgrwt>
<rscale>  2 0.10545085E+04</rscale>
<asrwt>0</asrwt>
<pdfrwt beam="1">  1       21 0.17358946E+00 0.10560330E+04</pdfrwt>
<pdfrwt beam="2">  1       21 0.15803069E+00 0.10560330E+04</pdfrwt>
<totfact> 0.24965194E+01</totfact>
</mgrwt>
</event>
<event>
 8    1  0.7631533E-006  0.1082636E+04  0.7818608E-02  0.8705757E-01
         21   -1    0    0  503  502  0.00000000000E+00  0.00000000000E+00  0.26968415983E+04  0.26968415983E+04  0.00000000000E+00 0.  1.
         21   -1    0    0  501  503 -0.00000000000E+00 -0.00000000000E+00 -0.43704914738E+03  0.43704914738E+03  0.00000000000E+00 0.  1.
    9000010    2    1    2  501    0  0.33518745063E+03  0.14164147713E+03  0.13768507967E+04  0.17368628730E+04  0.99426434527E+03 0.  0.
   -9000010    2    1    2    0  502 -0.33518745063E+03 -0.14164147713E+03  0.88294165417E+03  0.13970278726E+04  0.10196509094E+04 0.  0.
        -13    1    3    3    0    0  0.53102135573E+03 -0.16437041035E+03  0.37335202096E+03  0.66962157578E+03  0.10566000000E+00 0.  1.
          4    1    3    3  501    0 -0.19583390510E+03  0.30601188747E+03  0.10034987757E+04  0.10672412973E+04  0.00000000000E+00 0.  1.
         13    1    4    4    0    0 -0.65844064724E+03 -0.29422618331E+03  0.64568748948E+03  0.96800076349E+03  0.10566000000E+00 0. -1.
         -4    1    4    4    0  502  0.32325319661E+03  0.15258470618E+03  0.23725416470E+03  0.42902710910E+03  0.00000000000E+00 0. -1.
<mgrwt>
<rscale>  2 0.10766173E+04</rscale>
<asrwt>0</asrwt>
<pdfrwt beam="1">  1       21 0.41489870E+00 0.10826361E+04</pdfrwt>
<pdfrwt beam="2">  1       21 0.67238332E-01 0.10826361E+04</pdfrwt>
<totfact> 0.43777293E+00</totfact>
</mgrwt>
</event>
<event>
 8    1  0.7631533E-006  0.1212424E+04  0.7818608E-02  0.8597671E-01
         21   -1    0    0  503  502  0.00000000000E+00  0.00000000000E+00  0.15565007853E+04  0.15565007853E+04  0.00000000000E+00 0.  1.
         21   -1    0    0  501  503 -0.00000000000E+00 -0.00000000000E+00 -0.98698053875E+03  0.98698053875E+03  0.00000000000E+00 0.  1.
    9000010    2    1    2  501    0 -0.58294163045E+03  0.32332229929E+03  0.15177131440E+02  0.12103391518E+04  0.10101149753E+04 0.  0.
   -9000010    2    1    2    0  502  0.58294163045E+03 -0.32332229929E+03  0.55434311510E+03  0.13331421723E+04  0.10127257815E+04 0.  0.
        -13    1    3    3    0    0 -0.21858287886E+03 -0.31858279094E+03 -0.20857603629E+03  0.43906428197E+03  0.10566000000E+00 0.  1.
          4    1    3    3  501    0 -0.36435875158E+03  0.64190509023E+03  0.22375316773E+03  0.77127486981E+03  0.00000000000E+00 0.  1.
         13    1    4    4    0    0  0.70321373855E+03 -0.14846639811E+03  0.75406767179E+03  0.10417148834E+04  0.10566000000E+00 0. -1.
         -4    1    4    4    0  502 -0.12027210810E+03 -0.17485590118E+03 -0.19972455669E+03  0.29142728889E+03  0.00000000000E+00 0. -1.
<mgrwt>
<rscale>  2 0.12118786E+04</rscale>
<asrwt>0</asrwt>
<pdfrwt beam="1">  1       21 0.23946166E+00 0.12124239E+04</pdfrwt>
<pdfrwt beam="2">  1       21 0.15184316E+00 0.12124239E+04</pdfrwt>
<totfact> 0.84375268E+00</totfact>
</mgrwt>
</event>
<event>
 8    1  0.7631533E-006  0.1013043E+04  0.7818608E-02  0.8766740E-01
         21   -1    0    0  503  502  0.00000000000E+00  0.00000000000E+00  0.26145630384E+04  0.26145630384E+04  0.00000000000E+00 0. -1.
         21   -1    0    0  501  503 -0.00000000000E+00 -0.00000000000E+00 -0.39246378499E+03  0.39246378499E+03  0.00000000000E+00 0. -1.
    9000010    2    1    2  501    0  0.69156677985E+02 -0.67183939992E+02  0.89932176706E+03  0.13408944397E+04  0.98991006145E+03 0.  0.
   -9000010    2    1    2    0  502 -0.69156677985E+02  0.67183939992E+02  0.13227774864E+04  0.16661323837E+04  0.10084446012E+04 0.  0.
        -13    1    3    3    0    0 -0.23024554040E+03 -0.70457529568E+02  0.99721887513E+03  0.10258765854E+04  0.10566000000E+00 0.  1.
          4    1    3    3  501    0  0.29940221838E+03  0.32735895759E+01 -0.97897108070E+02  0.31501785430E+03  0.00000000000E+00 0.  1.
         13    1    4    4    0    0 -0.33536418416E+02 -0.29834978394E+03  0.72666086628E+01  0.30031666570E+03  0.10566000000E+00 0. -1.
         -4    1    4    4    0  502 -0.35620259569E+02  0.36553372393E+03  0.13155108777E+04  0.13658157180E+04  0.00000000000E+00 0. -1.
<mgrwt>
<rscale>  2 0.10083993E+04</rscale>
<asrwt>0</asrwt>
<pdfrwt beam="1">  1       21 0.40224046E+00 0.10130434E+04</pdfrwt>
<pdfrwt beam="2">  1       21 0.60379045E-01 0.10130434E+04</pdfrwt>
<totfact> 0.69762189E+00</totfact>
</mgrwt>
</event>
<event>
 8    1  0.7631533E-006  0.1071059E+04  0.7818608E-02  0.8711911E-01
         21   -1    0    0  503  502  0.00000000000E+00  0.00000000000E+00  0.51207004904E+03  0.51207004904E+03  0.00000000000E+00 0. -1.
         21   -1    0    0  501  503 -0.00000000000E+00 -0.00000000000E+00 -0.26086237590E+04  0.26086237590E+04  0.00000000000E+00 0. -1.
    9000010    2    1    2  501    0 -0.18425185036E+03  0.31318306135E+03 -0.16476178503E+04  0.19651492929E+04  0.10075389762E+04 0.  0.
   -9000010    2    1    2    0  502  0.18425185036E+03 -0.31318306135E+03 -0.44893585963E+03  0.11555445151E+04  0.10008533090E+04 0.  0.
        -13    1    3    3    0    0 -0.21938323973E+03  0.16534807769E+03  0.33881945149E+02  0.27679774212E+03  0.10566000000E+00 0.  1.
          4    1    3    3  501    0  0.35131389366E+02  0.14783498366E+03 -0.16814997955E+04  0.16883515508E+04  0.00000000000E+00 0.  1.
         13    1    4    4    0    0 -0.14611312785E+03  0.31397544822E+03 -0.75894773485E+02  0.35452736991E+03  0.10566000000E+00 0. -1.
         -4    1    4    4    0  502  0.33036497821E+03 -0.62715850957E+03 -0.37304108615E+03  0.80101714520E+03  0.00000000000E+00 0. -1.
<mgrwt>
<rscale>  2 0.10694837E+04</rscale>
<asrwt>0</asrwt>
<pdfrwt beam="1">  1       21 0.78780008E-01 0.10710589E+04</pdfrwt>
<pdfrwt beam="2">  1       21 0.40132673E+00 0.10710589E+04</pdfrwt>
<totfact> 0.37281862E+00</totfact>
</mgrwt>
</event>
<event>
 8    1  0.7631533E-006  0.1161912E+04  0.7818608E-02  0.8660497E-01
         21   -1    0    0  503  502  0.00000000000E+00  0.00000000000E+00  0.19358063058E+04  0.19358063058E+04  0.00000000000E+00 0.  1.
         21   -1    0    0  501  503 -0.00000000000E+00 -0.00000000000E+00 -0.63331459238E+03  0.63331459238E+03  0.00000000000E+00 0.  1.
    9000010    2    1    2  501    0 -0.13596930662E+03  0.65287335953E+02  0.73706434661E+03  0.12769335624E+04  0.10317680860E+04 0.  0.
   -9000010    2    1    2    0  502  0.13596930662E+03 -0.65287335953E+02  0.56542736682E+03  0.12921873357E+04  0.11520806894E+04 0.  0.
        -13    1    3    3    0    0 -0.56428449406E+03  0.64256810493E+02  0.22886266167E+03  0.61231042536E+03  0.10566000000E+00 0.  1.
          4    1    3    3  501    0  0.42831518744E+03  0.10305254605E+01  0.50820168494E+03  0.66462313708E+03  0.00000000000E+00 0.  1.
         13    1    4    4    0    0  0.14031054570E+02  0.26581034999E+03  0.81672555163E+03  0.85900678141E+03  0.10566000000E+00 0. -1.
         -4    1    4    4    0  502  0.12193825205E+03 -0.33109768594E+03 -0.25129818482E+03  0.43318055432E+03  0.00000000000E+00 0. -1.
<mgrwt>
<rscale>  2 0.11308980E+04</rscale>
<asrwt>0</asrwt>
<pdfrwt beam="1">  1       21 0.29781635E+00 0.11619122E+04</pdfrwt>
<pdfrwt beam="2">  1       21 0.97433015E-01 0.11619122E+04</pdfrwt>
<totfact> 0.11385856E+01</totfact>
</mgrwt>
</event>
<event>
 8    1  0.7631533E-006  0.1013014E+04  0.7818608E-02  0.8769308E-01
         21   -1    0    0  501  502  0.00000000000E+00  0.00000000000E+00  0.18202466304E+04  0.18202466304E+04  0.00000000000E+00 0. -1.
         21   -1    0    0  502  503 -0.00000000000E+00 -0.00000000000E+00 -0.73978777612E+03  0.73978777612E+03  0.00000000000E+00 0. -1.
    9000010    2    1    2  501    0 -0.84612143310E+02 -0.29621636949E+02 -0.10620314159E+03  0.10185663378E+04  0.10090399502E+04 0.  0.
   -9000010    2    1    2    0  503  0.84612143310E+02  0.29621636949E+02  0.11866619959E+04  0.15414680687E+04  0.97975530529E+03 0.  0.
        -13    1    3    3    0    0  0.32463564812E+03 -0.88442807046E+00 -0.39911772649E+03  0.51447454457E+03  0.10566000000E+00 0.  1.
          4    1    3    3  501    0 -0.40924779143E+03 -0.28737208878E+02  0.29291458490E+03  0.50409179324E+03  0.00000000000E+00 0.  1.
         13    1    4    4    0    0 -0.11447989151E+03  0.40065104786E+03  0.18695747895E+03  0.45670561395E+03  0.10566000000E+00 0. -1.
         -4    1    4    4    0  503  0.19909203482E+03 -0.37102941091E+03  0.99970451695E+03  0.10847624548E+04  0.00000000000E+00 0. -1.
<mgrwt>
<rscale>  2 0.10056428E+04</rscale>
<asrwt>0</asrwt>
<pdfrwt beam="1">  1       21 0.28003794E+00 0.10130145E+04</pdfrwt>
<pdfrwt beam="2">  1       21 0.11381350E+00 0.10130145E+04</pdfrwt>
<totfact> 0.10392432E+01</totfact>
</mgrwt>
</event>
<event>
 8    1  0.7631533E-006  0.1026463E+04  0.7818608E-02  0.8753734E-01
         21   -1    0    0  501  502  0.00000000000E+00  0.00000000000E+00  0.63916931571E+03  0.63916931571E+03  0.00000000000E+00 0.  1.
         21   -1    0    0  502  503 -0.00000000000E+00 -0.00000000000E+00 -0.16331430770E+04  0.16331430770E+04  0.00000000000E+00 0.  1.
    9000010    2    1    2  501    0  0.10926727772E+03 -0.17085414086E+03 -0.58175985997E+03  0.11661719345E+04  0.99014239926E+03 0.  0.
   -9000010    2    1    2    0  503 -0.10926727772E+03  0.17085414086E+03 -0.41221390136E+03  0.11061404582E+04  0.10062285711E+04 0.  0.
        -13    1    3    3    0    0 -0.35538350214E+03  0.20710859525E+03 -0.25317010392E+03  0.48299742909E+03  0.10566000000E+00 0.  1.
          4    1    3    3  501    0  0.46465077986E+03 -0.37796273611E+03 -0.32858975605E+03  0.68317450545E+03  0.00000000000E+00 0.  1.
         13    1    4    4    0    0 -0.22692880577E+03  0.66367187885E+02 -0.72143111578E+03  0.75918650705E+03  0.10566000000E+00 0. -1.
         -4    1    4    4    0  503  0.11766152806E+03  0.10448695298E+03  0.30921721442E+03  0.34695395115E+03  0.00000000000E+00 0. -1.
<mgrwt>
<rscale>  2 0.10224991E+04</rscale>
<asrwt>0</asrwt>
<pdfrwt beam="1">  1       21 0.98333741E-01 0.10264631E+04</pdfrwt>
<pdfrwt beam="2">  1       21 0.25125278E+00 0.10264631E+04</pdfrwt>
<totfact> 0.24647195E+01</totfact>
</mgrwt>
</event>
<event>
 8    1  0.7631533E-006  0.1195063E+04  0.7818608E-02  0.8611198E-01
         21   -1    0    0  503  502  0.00000000000E+00  0.00000000000E+00  0.12728438299E+04  0.12728438299E+04  0.00000000000E+00 0.  1.
         21   -1    0    0  501  503 -0.00000000000E+00 -0.00000000000E+00 -0.14126504620E+04  0.14126504620E+04  0.00000000000E+00 0.  1.
    9000010    2    1    2  501    0  0.20156612373E+02 -0.65904033147E+03  0.54370083024E+03  0.13129300233E+04  0.99671169643E+03 0.  0.
   -9000010    2    1    2    0  502 -0.20156612373E+02  0.65904033147E+03 -0.68350746229E+03  0.13725642686E+04  0.99096406231E+03 0.  0.
        -13    1    3    3    0    0 -0.31981121414E+03 -0.35835973205E+03 -0.13275880671E+03  0.49832300988E+03  0.10566000000E+00 0.  1.
          4    1    3    3  501    0  0.33996782651E+03 -0.30068059942E+03  0.67645963695E+03  0.81460701344E+03  0.00000000000E+00 0.  1.
         13    1    4    4    0    0 -0.27608178920E+03  0.66323098864E+03 -0.81365452972E+03  0.10854170643E+04  0.10566000000E+00 0. -1.
         -4    1    4    4    0  502  0.25592517683E+03 -0.41906571631E+01  0.13014706743E+03  0.28714720424E+03  0.00000000000E+00 0. -1.
<mgrwt>
<rscale>  2 0.11938635E+04</rscale>
<asrwt>0</asrwt>
<pdfrwt beam="1">  1       21 0.19582213E+00 0.11950626E+04</pdfrwt>
<pdfrwt beam="2">  1       21 0.21733084E+00 0.11950626E+04</pdfrwt>
<totfact> 0.53254284E+00</totfact>
</mgrwt>
</event>
<event>
 8    1  0.7631533E-006  0.1019819E+04  0.7818608E-02  0.8761697E-01
         21   -1    0    0  501  502  0.00000000000E+00  0.00000000000E+00  0.62686588445E+03  0.62686588445E+03  0.00000000000E+00 0.  1.
         21   -1    0    0  502  503 -0.00000000000E+00 -0.00000000000E+00 -0.20380703327E+04  0.20380703327E+04  0.00000000000E+00 0.  1.
    9000010    2    1    2  501    0  0.20234783970E+03  0.74450903638E+02 -0.10928042798E+03  0.10256574115E+04  0.99676643632E+03 0.  0.
   -9000010    2    1    2    0  503 -0.20234783970E+03 -0.74450903638E+02 -0.13019240203E+04  0.16392788057E+04  0.97249229446E+03 0.  0.
        -13    1    3    3    0    0  0.30282173822E+03 -0.30965657906E+03 -0.35390261147E+03  0.55931679008E+03  0.10566000000E+00 0.  1.
          4    1    3    3  501    0 -0.10047389852E+03  0.38410748270E+03  0.24462218349E+03  0.46634062144E+03  0.00000000000E+00 0.  1.
         13    1    4    4    0    0 -0.87713676907E+02 -0.25208375640E+03 -0.13862201853E+04  0.14116820898E+04  0.10566000000E+00 0. -1.
         -4    1    4    4    0  503 -0.11463416280E+03  0.17763285276E+03  0.84296164968E+02  0.22759671590E+03  0.00000000000E+00 0. -1.
<mgrwt>
<rscale>  2 0.10138386E+04</rscale>
<asrwt>0</asrwt>
<pdfrwt beam="1">  1       21 0.96440906E-01 0.10198191E+04</pdfrwt>
<pdfrwt beam="2">  1       21 0.31354928E+00 0.10198191E+04</pdfrwt>
<totfact> 0.93379609E+00</totfact>
</mgrwt>
</event>
<event>
 8    1  0.7631533E-006  0.1199127E+04  0.7818608E-02  0.8609723E-01
         21   -1    0    0  503  502  0.00000000000E+00  0.00000000000E+00  0.99916823393E+03  0.99916823393E+03  0.00000000000E+00 0.  1.
         21   -1    0    0  501  503 -0.00000000000E+00 -0.00000000000E+00 -0.18655194355E+04  0.18655194355E+04  0.00000000000E+00 0.  1.
    9000010    2    1    2  501    0  0.63483921499E+03  0.84853589744E+02  0.26602644256E+03  0.12153893524E+04  0.99808829735E+03 0.  0.
   -9000010    2    1    2    0  502 -0.63483921499E+03 -0.84853589744E+02 -0.11323776441E+04  0.16492983169E+04  0.10137479218E+04 0.  0.
        -13    1    3    3    0    0  0.22668567004E+03  0.13789679518E+02  0.62639567025E+03  0.66629430069E+03  0.10566000000E+00 0.  1.
          4    1    3    3  501    0  0.40815354495E+03  0.71063910226E+02 -0.36036922769E+03  0.54909505175E+03  0.00000000000E+00 0.  1.
         13    1    4    4    0    0  0.24556481592E+03 -0.15589398645E+03 -0.43792891477E+03  0.52572498456E+03  0.10566000000E+00 0. -1.
         -4    1    4    4    0  502 -0.88040403091E+03  0.71040396710E+02 -0.69444872931E+03  0.11235733324E+04  0.00000000000E+00 0. -1.
<mgrwt>
<rscale>  2 0.11958111E+04</rscale>
<asrwt>0</asrwt>
<pdfrwt beam="1">  1       21 0.15371819E+00 0.11991271E+04</pdfrwt>
<pdfrwt beam="2">  1       21 0.28700299E+00 0.11991271E+04</pdfrwt>
<totfact> 0.36952565E+00</totfact>
</mgrwt>
</event>
<event>
 8    1  0.7631533E-006  0.1068550E+04  0.7818608E-02  0.8714496E-01
         21   -1    0    0  501  502  0.00000000000E+00  0.00000000000E+00  0.11228757830E+04  0.11228757830E+04  0.00000000000E+00 0.  1.
         21   -1    0    0  502  503 -0.00000000000E+00 -0.00000000000E+00 -0.17275879268E+04  0.17275879268E+04  0.00000000000E+00 0.  1.
    9000010    2    1    2  501    0  0.34475753332E+03  0.70500986198E+02  0.61743969531E+03  0.12270552780E+04  0.10003023203E+04 0.  0.
   -9000010    2    1    2    0  503 -0.34475753332E+03 -0.70500986198E+02 -0.12221518391E+04  0.16234084319E+04  0.10089458226E+04 0.  0.
        -13    1    3    3    0    0  0.61636465844E+03 -0.13534017170E+03  0.62223444396E+03  0.88622687200E+03  0.10566000000E+00 0.  1.
          4    1    3    3  501    0 -0.27160712512E+03  0.20584115790E+03 -0.47947486495E+01  0.34082840597E+03  0.00000000000E+00 0.  1.
         13    1    4    4    0    0  0.28491652521E+03 -0.10999562918E+03 -0.82049429662E+03  0.87549264230E+03  0.10566000000E+00 0. -1.
         -4    1    4    4    0  503 -0.62967405853E+03  0.39494642981E+02 -0.40165754253E+03  0.74791578956E+03  0.00000000000E+00 0. -1.
<mgrwt>
<rscale>  2 0.10665051E+04</rscale>
<asrwt>0</asrwt>
<pdfrwt beam="1">  1       21 0.17275012E+00 0.10685503E+04</pdfrwt>
<pdfrwt beam="2">  1       21 0.26578276E+00 0.10685503E+04</pdfrwt>
<totfact> 0.37100891E+00</totfact>
</mgrwt>
</event>
<event>
 8    1  0.7631533E-006  0.1024174E+04  0.7818608E-02  0.8755260E-01
         21   -1    0    0  501  502  0.00000000000E+00  0.00000000000E+00  0.97322872481E+03  0.97322872481E+03  0.00000000000E+00 0.  1.
         21   -1    0    0  502  503 -0.00000000000E+00 -0.00000000000E+00 -0.11272260262E+04  0.11272260262E+04  0.00000000000E+00 0.  1.
    9000010    2    1    2  501    0 -0.21062641536E+03  0.13017796509E+02 -0.32651513880E+03  0.10749621557E+04  0.10021968621E+04 0.  0.
   -9000010    2    1    2    0  503  0.21062641536E+03 -0.13017796509E+02  0.17251783744E+03  0.10254925953E+04  0.98860493064E+03 0.  0.
        -13    1    3    3    0    0  0.18815639513E+03 -0.32135835080E+03  0.11790073317E+03  0.39060800389E+03  0.10566000000E+00 0.  1.
          4    1    3    3  501    0 -0.39878281049E+03  0.33437614731E+03 -0.44441587198E+03  0.68435415181E+03  0.00000000000E+00 0.  1.
         13    1    4    4    0    0 -0.10312645096E+03  0.30833582556E+03 -0.24902216977E+03  0.40953400154E+03  0.10566000000E+00 0. -1.
         -4    1    4    4    0  503  0.31375286632E+03 -0.32135362207E+03  0.42154000721E+03  0.61595859376E+03  0.00000000000E+00 0. -1.
<mgrwt>
<rscale>  2 0.10208332E+04</rscale>
<asrwt>0</asrwt>
<pdfrwt beam="1">  1       21 0.14972750E+00 0.10241736E+04</pdfrwt>
<pdfrwt beam="2">  1       21 0.17341939E+00 0.10241736E+04</pdfrwt>
<totfact> 0.29846958E+01</totfact>
</mgrwt>
</event>
<event>
 8    1  0.7631533E-006  0.1151092E+04  0.7818608E-02  0.8655455E-01
         21   -1    0    0  501  502  0.00000000000E+00  0.00000000000E+00  0.11626902990E+04  0.11626902990E+04  0.00000000000E+00 0.  1.
         21   -1    0    0  502  503 -0.00000000000E+00 -0.00000000000E+00 -0.11248888993E+04  0.11248888993E+04  0.00000000000E+00 0.  1.
    9000010    2    1    2  501    0 -0.42858332650E+03 -0.87643073185E+02  0.23185527633E+03  0.11742107018E+04  0.10647295089E+04 0.  0.
   -9000010    2    1    2    0  503  0.42858332650E+03  0.87643073185E+02 -0.19405387658E+03  0.11133684965E+04  0.10052698772E+04 0.  0.
        -13    1    3    3    0    0 -0.37440076395E+03 -0.62673977100E+02 -0.39306639586E+03  0.54644776710E+03  0.10566000000E+00 0.  1.
          4    1    3    3  501    0 -0.54182562557E+02 -0.24969096086E+02  0.62492167218E+03  0.62776293472E+03  0.00000000000E+00 0.  1.
         13    1    4    4    0    0  0.21065128085E+02 -0.61399123763E+02  0.38463094657E+03  0.39006995301E+03  0.10566000000E+00 0. -1.
         -4    1    4    4    0  503  0.40751819842E+03  0.14904219695E+03 -0.57868482315E+03  0.72329854352E+03  0.00000000000E+00 0. -1.
<mgrwt>
<rscale>  2 0.11371498E+04</rscale>
<asrwt>0</asrwt>
<pdfrwt beam="1">  1       21 0.17887543E+00 0.11510925E+04</pdfrwt>
<pdfrwt beam="2">  1       21 0.17305983E+00 0.11510925E+04</pdfrwt>
<totfact> 0.16485198E+01</totfact>
</mgrwt>
</event>
<event>
 8    1  0.7631533E-006  0.1071866E+04  0.7818608E-02  0.8709859E-01
         21   -1    0    0  501  502  0.00000000000E+00  0.00000000000E+00  0.11082883654E+04  0.11082883654E+04  0.00000000000E+00 0. -1.
         21   -1    0    0  502  503 -0.00000000000E+00 -0.00000000000E+00 -0.14951537773E+04  0.14951537773E+04  0.00000000000E+00 0. -1.
    9000010    2    1    2  501    0  0.35236150940E+03  0.19066533027E+03  0.52745714479E+03  0.11946163276E+04  0.99417565308E+03 0.  0.
   -9000010    2    1    2    0  503 -0.35236150940E+03 -0.19066533027E+03 -0.91432255672E+03  0.14088258150E+04  0.99412903484E+03 0.  0.
        -13    1    3    3    0    0  0.25102957632E+03  0.45974390124E+03  0.68846364930E+03  0.86507948218E+03  0.10566000000E+00 0.  1.
          4    1    3    3  501    0  0.10133193308E+03 -0.26907857097E+03 -0.16100650451E+03  0.32953684545E+03  0.00000000000E+00 0.  1.
         13    1    4    4    0    0  0.23114505124E+03 -0.31910131060E+03 -0.11419470489E+03  0.41023666697E+03  0.10566000000E+00 0. -1.
         -4    1    4    4    0  503 -0.58350656064E+03  0.12843598033E+03 -0.80012785184E+03  0.99858914807E+03  0.00000000000E+00 0. -1.
<mgrwt>
<rscale>  2 0.10718554E+04</rscale>
<asrwt>0</asrwt>
<pdfrwt beam="1">  1       21 0.17050590E+00 0.10718662E+04</pdfrwt>
<pdfrwt beam="2">  1       21 0.23002366E+00 0.10718662E+04</pdfrwt>
<totfact> 0.70584429E+00</totfact>
</mgrwt>
</event>
<event>
 8    1  0.7631533E-006  0.1013123E+04  0.7818608E-02  0.8763398E-01
         21   -1    0    0  503  502  0.00000000000E+00  0.00000000000E+00  0.59388829356E+03  0.59388829356E+03  0.00000000000E+00 0. -1.
         21   -1    0    0  501  503 -0.00000000000E+00 -0.00000000000E+00 -0.17461775243E+04  0.17461775243E+04  0.00000000000E+00 0. -1.
    9000010    2    1    2  501    0  0.82594528591E+02 -0.93053579722E+02 -0.71633272927E+03  0.12371259407E+04  0.10009331592E+04 0.  0.
   -9000010    2    1    2    0  502 -0.82594528591E+02  0.93053579722E+02 -0.43595650142E+03  0.11029398771E+04  0.10054538660E+04 0.  0.
        -13    1    3    3    0    0 -0.30806823333E+03  0.95142496611E+02 -0.73550438901E+03  0.80307213155E+03  0.10566000000E+00 0.  1.
          4    1    3    3  501    0  0.39066276192E+03 -0.18819607633E+03  0.19171659742E+02  0.43405380915E+03  0.00000000000E+00 0.  1.
         13    1    4    4    0    0  0.24103912455E+02  0.54165167167E+03 -0.31161382806E+03  0.62535647515E+03  0.10566000000E+00 0. -1.
         -4    1    4    4    0  502 -0.10669844105E+03 -0.44859809194E+03 -0.12434267337E+03  0.47758340197E+03  0.00000000000E+00 0. -1.
<mgrwt>
<rscale>  2 0.10119996E+04</rscale>
<asrwt>0</asrwt>
<pdfrwt beam="1">  1       21 0.91367429E-01 0.10131230E+04</pdfrwt>
<pdfrwt beam="2">  1       21 0.26864270E+00 0.10131230E+04</pdfrwt>
<totfact> 0.22358748E+01</totfact>
</mgrwt>
</event>
<event>
 8    1  0.7631533E-006  0.1035394E+04  0.7818608E-02  0.8746419E-01
         21   -1    0    0  501  502  0.00000000000E+00  0.00000000000E+00  0.14714886003E+04  0.14714886003E+04  0.00000000000E+00 0. -1.
         21   -1    0    0  502  503 -0.00000000000E+00 -0.00000000000E+00 -0.76295614991E+03  0.76295614991E+03  0.00000000000E+00 0. -1.
    9000010    2    1    2  501    0  0.15483423883E+03  0.85140520365E+02  0.63115940464E+03  0.11961635568E+04  0.10006110687E+04 0.  0.
   -9000010    2    1    2    0  503 -0.15483423883E+03 -0.85140520365E+02  0.77373045781E+02  0.10382811935E+04  0.10202052239E+04 0.  0.
        -13    1    3    3    0    0  0.22744509224E+03 -0.43435059808E+03  0.33464938331E+03  0.59361766563E+03  0.10566000000E+00 0.  1.
          4    1    3    3  501    0 -0.72610853412E+02  0.51949111844E+03  0.29651002133E+03  0.60254589113E+03  0.00000000000E+00 0.  1.
         13    1    4    4    0    0 -0.13579122834E+02  0.45347147798E+03 -0.77663063736E+02  0.46027419714E+03  0.10566000000E+00 0. -1.
         -4    1    4    4    0  503 -0.14125511599E+03 -0.53861199835E+03  0.15503610952E+03  0.57800699634E+03  0.00000000000E+00 0. -1.
<mgrwt>
<rscale>  2 0.10305348E+04</rscale>
<asrwt>0</asrwt>
<pdfrwt beam="1">  1       21 0.22638286E+00 0.10353942E+04</pdfrwt>
<pdfrwt beam="2">  1       21 0.11737787E+00 0.10353942E+04</pdfrwt>
<totfact> 0.23298831E+01</totfact>
</mgrwt>
</event>
<event>
 8    1  0.7631533E-006  0.1053681E+04  0.7818608E-02  0.8736387E-01
         21   -1    0    0  503  502  0.00000000000E+00  0.00000000000E+00  0.10020812835E+04  0.10020812835E+04  0.00000000000E+00 0.  1.
         21   -1    0    0  501  503 -0.00000000000E+00 -0.00000000000E+00 -0.12108632312E+04  0.12108632312E+04  0.00000000000E+00 0.  1.
    9000010    2    1    2  501    0  0.25829442173E+03 -0.16045350176E+03  0.28545007541E+03  0.10916621184E+04  0.10088523681E+04 0.  0.
   -9000010    2    1    2    0  502 -0.25829442173E+03  0.16045350176E+03 -0.49423202310E+03  0.11212823964E+04  0.95945171071E+03 0.  0.
        -13    1    3    3    0    0  0.48616089728E+02 -0.19973044889E+03  0.64313815705E+03  0.67519069648E+03  0.10566000000E+00 0.  1.
          4    1    3    3  501    0  0.20967833200E+03  0.39276947129E+02 -0.35768808164E+03  0.41647142187E+03  0.00000000000E+00 0.  1.
         13    1    4    4    0    0 -0.12008433724E+03  0.49979160226E+03 -0.10082599925E+02  0.51411434888E+03  0.10566000000E+00 0. -1.
         -4    1    4    4    0  502 -0.13821008449E+03 -0.33933810050E+03 -0.48414942318E+03  0.60716804747E+03  0.00000000000E+00 0. -1.
<mgrwt>
<rscale>  2 0.10416783E+04</rscale>
<asrwt>0</asrwt>
<pdfrwt beam="1">  1       21 0.15416635E+00 0.10536814E+04</pdfrwt>
<pdfrwt beam="2">  1       21 0.18628665E+00 0.10536814E+04</pdfrwt>
<totfact> 0.21261288E+01</totfact>
</mgrwt>
</event>
<event>
 8    1  0.7631533E-006  0.1042540E+04  0.7818608E-02  0.8741705E-01
         21   -1    0    0  503  502  0.00000000000E+00  0.00000000000E+00  0.98500011189E+03  0.98500011189E+03  0.00000000000E+00 0.  1.
         21   -1    0    0  501  503 -0.00000000000E+00 -0.00000000000E+00 -0.13551187314E+04  0.13551187314E+04  0.00000000000E+00 0.  1.
    9000010    2    1    2  501    0 -0.22446733647E+03 -0.77342171194E+02 -0.71875182563E+03  0.12662913611E+04  0.10151464071E+04 0.  0.
   -9000010    2    1    2    0  502  0.22446733647E+03  0.77342171194E+02  0.34863320611E+03  0.10738274822E+04  0.98751858335E+03 0.  0.
        -13    1    3    3    0    0 -0.22803133870E+03  0.18682804820E+03  0.16917956022E+03  0.33988931401E+03  0.10566000000E+00 0.  1.
          4    1    3    3  501    0  0.35640022278E+01 -0.26417021939E+03 -0.88793138584E+03  0.92640204711E+03  0.00000000000E+00 0.  1.
         13    1    4    4    0    0  0.39275648388E+03 -0.19966247428E+03  0.54038418998E+03  0.69723585910E+03  0.10566000000E+00 0. -1.
         -4    1    4    4    0  502 -0.16828914741E+03  0.27700464547E+03 -0.19175098387E+03  0.37659162307E+03  0.00000000000E+00 0. -1.
<mgrwt>
<rscale>  2 0.10357534E+04</rscale>
<asrwt>0</asrwt>
<pdfrwt beam="1">  1       21 0.15153848E+00 0.10425400E+04</pdfrwt>
<pdfrwt beam="2">  1       21 0.20847980E+00 0.10425400E+04</pdfrwt>
<totfact> 0.15054610E+01</totfact>
</mgrwt>
</event>
<event>
 8    1  0.7631533E-006  0.1073788E+04  0.7818608E-02  0.8716806E-01
         21   -1    0    0  501  502  0.00000000000E+00  0.00000000000E+00  0.12577779078E+04  0.12577779078E+04  0.00000000000E+00 0.  1.
         21   -1    0    0  502  503 -0.00000000000E+00 -0.00000000000E+00 -0.98138291629E+03  0.98138291629E+03  0.00000000000E+00 0.  1.
    9000010    2    1    2  501    0 -0.15944164568E+03 -0.29335153978E+03  0.48931243091E+03  0.11444668271E+04  0.97923485385E+03 0.  0.
   -9000010    2    1    2    0  503  0.15944164568E+03  0.29335153978E+03 -0.21291743938E+03  0.10946939970E+04  0.10205608002E+04 0.  0.
        -13    1    3    3    0    0  0.31600427262E+02  0.62380392158E+02 -0.27300251799E+03  0.28181605050E+03  0.10566000000E+00 0.  1.
          4    1    3    3  501    0 -0.19104207294E+03 -0.35573193194E+03  0.76231494890E+03  0.86265077659E+03  0.00000000000E+00 0.  1.
         13    1    4    4    0    0 -0.74314882295E+02 -0.36394710671E+03 -0.25502858693E+02  0.37233131104E+03  0.10566000000E+00 0. -1.
         -4    1    4    4    0  503  0.23375652798E+03  0.65729864649E+03 -0.18741458069E+03  0.72236268599E+03  0.00000000000E+00 0. -1.
<mgrwt>
<rscale>  2 0.10638517E+04</rscale>
<asrwt>0</asrwt>
<pdfrwt beam="1">  1       21 0.19350429E+00 0.10737882E+04</pdfrwt>
<pdfrwt beam="2">  1       21 0.15098199E+00 0.10737882E+04</pdfrwt>
<totfact> 0.19780232E+01</totfact>
</mgrwt>
</event>
<event>
 8    1  0.7631533E-006  0.1047360E+04  0.7818608E-02  0.8733179E-01
         21   -1    0    0  501  502  0.00000000000E+00  0.00000000000E+00  0.11975559119E+04  0.11975559119E+04  0.00000000000E+00 0.  1.
         21   -1    0    0  502  503 -0.00000000000E+00 -0.00000000000E+00 -0.16594366041E+04  0.16594366041E+04  0.00000000000E+00 0.  1.
    9000010    2    1    2  501    0 -0.22054336645E+03  0.20590389338E+03  0.72934985524E+03  0.12762894607E+04  0.10029595138E+04 0.  0.
   -9000010    2    1    2    0  503  0.22054336645E+03 -0.20590389338E+03 -0.11912305474E+04  0.15807030553E+04  0.99426160659E+03 0.  0.
        -13    1    3    3    0    0  0.85202260623E+02 -0.20078301996E+03  0.73580446246E+03  0.76745127823E+03  0.10566000000E+00 0.  1.
          4    1    3    3  501    0 -0.30574562707E+03  0.40668691334E+03 -0.64546072265E+01  0.50883818244E+03  0.00000000000E+00 0.  1.
         13    1    4    4    0    0  0.58076743985E+03 -0.26286477135E+03 -0.54514573784E+03  0.83879234251E+03  0.10566000000E+00 0. -1.
         -4    1    4    4    0  503 -0.36022407340E+03  0.56960877973E+02 -0.64608480952E+03  0.74191071280E+03  0.00000000000E+00 0. -1.
<mgrwt>
<rscale>  2 0.10452725E+04</rscale>
<asrwt>0</asrwt>
<pdfrwt beam="1">  1       21 0.18423937E+00 0.10473603E+04</pdfrwt>
<pdfrwt beam="2">  1       21 0.25529794E+00 0.10473603E+04</pdfrwt>
<totfact> 0.35737909E+00</totfact>
</mgrwt>
</event>
<event>
 8    1  0.7631533E-006  0.1034136E+04  0.7818608E-02  0.8758678E-01
         21   -1    0    0  501  502  0.00000000000E+00  0.00000000000E+00  0.17703336102E+04  0.17703336102E+04  0.00000000000E+00 0. -1.
         21   -1    0    0  502  503 -0.00000000000E+00 -0.00000000000E+00 -0.64515335022E+03  0.64515335022E+03  0.00000000000E+00 0. -1.
    9000010    2    1    2  501    0  0.20228529621E+03  0.32477664325E+02  0.10020543277E+04  0.14399829362E+04  0.10136389106E+04 0.  0.
   -9000010    2    1    2    0  503 -0.20228529621E+03 -0.32477664325E+02  0.12312593231E+03  0.97550402425E+03  0.94576633815E+03 0.  0.
        -13    1    3    3    0    0  0.53540456312E+03  0.24620827002E+03  0.37510633640E+03  0.69855660702E+03  0.10566000000E+00 0.  1.
          4    1    3    3  501    0 -0.33311926691E+03 -0.21373060570E+03  0.62694799130E+03  0.74142632917E+03  0.00000000000E+00 0.  1.
         13    1    4    4    0    0 -0.44854610070E+02 -0.21175462305E+03  0.49125090472E+03  0.53682345234E+03  0.10566000000E+00 0. -1.
         -4    1    4    4    0  503 -0.15743068614E+03  0.17927695873E+03 -0.36812497241E+03  0.43868057192E+03  0.00000000000E+00 0. -1.
<mgrwt>
<rscale>  2 0.10171121E+04</rscale>
<asrwt>0</asrwt>
<pdfrwt beam="1">  1       21 0.27235901E+00 0.10341363E+04</pdfrwt>
<pdfrwt beam="2">  1       21 0.99254363E-01 0.10341363E+04</pdfrwt>
<totfact> 0.16921053E+01</totfact>
</mgrwt>
</event>
<event>
 8    1  0.7631533E-006  0.1041195E+04  0.7818608E-02  0.8739764E-01
         21   -1    0    0  503  502  0.00000000000E+00  0.00000000000E+00  0.11847890014E+04  0.11847890014E+04  0.00000000000E+00 0. -1.
         21   -1    0    0  501  503 -0.00000000000E+00 -0.00000000000E+00 -0.10198273611E+04  0.10198273611E+04  0.00000000000E+00 0. -1.
    9000010    2    1    2  501    0 -0.11887629083E+03  0.24679977403E+03 -0.29018168747E+03  0.10682880823E+04  0.99095525329E+03 0.  0.
   -9000010    2    1    2    0  502  0.11887629083E+03 -0.24679977403E+03  0.45514332781E+03  0.11363282802E+04  0.10045122252E+04 0.  0.
        -13    1    3    3    0    0  0.26221070722E+03 -0.27630653030E+03 -0.10858580430E+03  0.39609423339E+03  0.10566000000E+00 0.  1.
          4    1    3    3  501    0 -0.38108699805E+03  0.52310630433E+03 -0.18159588317E+03  0.67219384890E+03  0.00000000000E+00 0.  1.
         13    1    4    4    0    0  0.34513866180E+03 -0.38247017157E+03  0.63450376639E+03  0.81731216113E+03  0.10566000000E+00 0. -1.
         -4    1    4    4    0  502 -0.22626237097E+03  0.13567039754E+03 -0.17936043858E+03  0.31901611905E+03  0.00000000000E+00 0. -1.
<mgrwt>
<rscale>  2 0.10379110E+04</rscale>
<asrwt>0</asrwt>
<pdfrwt beam="1">  1       21 0.18227523E+00 0.10411948E+04</pdfrwt>
<pdfrwt beam="2">  1       21 0.15689652E+00 0.10411948E+04</pdfrwt>
<totfact> 0.21746009E+01</totfact>
</mgrwt>
</event>
<event>
 8    1  0.7631533E-006  0.1023011E+04  0.7818608E-02  0.8754872E-01
         21   -1    0    0  503  502  0.00000000000E+00  0.00000000000E+00  0.72112977086E+03  0.72112977086E+03  0.00000000000E+00 0.  1.
         21   -1    0    0  501  503 -0.00000000000E+00 -0.00000000000E+00 -0.14822434344E+04  0.14822434344E+04  0.00000000000E+00 0.  1.
    9000010    2    1    2  501    0 -0.39422588058E+02  0.20337257819E+03 -0.56481201146E+03  0.11685732800E+04  0.10018165284E+04 0.  0.
   -9000010    2    1    2    0  502  0.39422588058E+02 -0.20337257819E+03 -0.19630165209E+03  0.10347999252E+04  0.99466677870E+03 0.  0.
        -13    1    3    3    0    0 -0.43937624566E+03  0.42250382098E+02 -0.58977604147E+03  0.73666299642E+03  0.10566000000E+00 0.  1.
          4    1    3    3  501    0  0.39995365760E+03  0.16112219610E+03  0.24964030013E+02  0.43191028362E+03  0.00000000000E+00 0.  1.
         13    1    4    4    0    0 -0.39679768515E+03 -0.35570030627E+02 -0.36261903505E+03  0.53870790394E+03  0.10566000000E+00 0. -1.
         -4    1    4    4    0  502  0.43622027321E+03 -0.16780254757E+03  0.16631738296E+03  0.49609202130E+03  0.00000000000E+00 0. -1.
<mgrwt>
<rscale>  2 0.10212560E+04</rscale>
<asrwt>0</asrwt>
<pdfrwt beam="1">  1       21 0.11094304E+00 0.10230107E+04</pdfrwt>
<pdfrwt beam="2">  1       21 0.22803745E+00 0.10230107E+04</pdfrwt>
<totfact> 0.26512791E+01</totfact>
</mgrwt>
</event>
<event>
 8    1  0.7631533E-006  0.1185337E+04  0.7818608E-02  0.8635161E-01
         21   -1    0    0  503  502  0.00000000000E+00  0.00000000000E+00  0.15213180332E+04  0.15213180332E+04  0.00000000000E+00 0.  1.
         21   -1    0    0  501  503 -0.00000000000E+00 -0.00000000000E+00 -0.13608649626E+04  0.13608649626E+04  0.00000000000E+00 0.  1.
    9000010    2    1    2  501    0 -0.10679945271E+03  0.48054843709E+03 -0.79872239670E+03  0.13573739756E+04  0.98090454131E+03 0.  0.
   -9000010    2    1    2    0  502  0.10679945271E+03 -0.48054843709E+03  0.95917546732E+03  0.15248090202E+04  0.10782819888E+04 0.  0.
        -13    1    3    3    0    0 -0.39607460786E+03  0.20714753292E+03  0.19581134052E+02  0.44740208690E+03  0.10566000000E+00 0.  1.
          4    1    3    3  501    0  0.28927515515E+03  0.27340090417E+03 -0.81830353075E+03  0.90997188870E+03  0.00000000000E+00 0.  1.
         13    1    4    4    0    0 -0.44355690613E+03 -0.42580184351E+03  0.37421598154E+03  0.71978298877E+03  0.10566000000E+00 0. -1.
         -4    1    4    4    0  502  0.55035635884E+03 -0.54746593582E+02  0.58495948578E+03  0.80502603140E+03  0.00000000000E+00 0. -1.
<mgrwt>
<rscale>  2 0.11627401E+04</rscale>
<asrwt>0</asrwt>
<pdfrwt beam="1">  1       21 0.23404893E+00 0.11853375E+04</pdfrwt>
<pdfrwt beam="2">  1       21 0.20936384E+00 0.11853375E+04</pdfrwt>
<totfact> 0.31374972E+00</totfact>
</mgrwt>
</event>
<event>
 8    1  0.7631533E-006  0.1039329E+04  0.7818608E-02  0.8739182E-01
         21   -1    0    0  501  502  0.00000000000E+00  0.00000000000E+00  0.12668454323E+04  0.12668454323E+04  0.00000000000E+00 0. -1.
         21   -1    0    0  502  503 -0.00000000000E+00 -0.00000000000E+00 -0.15482390236E+04  0.15482390236E+04  0.00000000000E+00 0. -1.
    9000010    2    1    2  501    0  0.15400203704E+03 -0.22268016610E+03  0.80432982393E+03  0.13142111338E+04  0.10034447442E+04 0.  0.
   -9000010    2    1    2    0  503 -0.15400203704E+03  0.22268016610E+03 -0.10857234153E+04  0.15008733221E+04  0.10002611213E+04 0.  0.
        -13    1    3    3    0    0  0.99543055008E+02 -0.48558214614E+03  0.32188918832E+02  0.49672424755E+03  0.10566000000E+00 0.  1.
          4    1    3    3  501    0  0.54458982028E+02  0.26290198003E+03  0.77214090510E+03  0.81748688623E+03  0.00000000000E+00 0.  1.
         13    1    4    4    0    0  0.69143068326E+02 -0.38113602512E+03 -0.33669271578E+03  0.51323233488E+03  0.10566000000E+00 0. -1.
         -4    1    4    4    0  503 -0.22314510536E+03  0.60381619123E+03 -0.74903069952E+03  0.98764098723E+03  0.00000000000E+00 0. -1.
<mgrwt>
<rscale>  2 0.10385596E+04</rscale>
<asrwt>0</asrwt>
<pdfrwt beam="1">  1       21 0.19489930E+00 0.10393288E+04</pdfrwt>
<pdfrwt beam="2">  1       21 0.23819062E+00 0.10393288E+04</pdfrwt>
<totfact> 0.39242539E+00</totfact>
</mgrwt>
</event>
<event>
 8    1  0.7631533E-006  0.1051242E+04  0.7818608E-02  0.8743881E-01
         21   -1    0    0  501  502  0.00000000000E+00  0.00000000000E+00  0.38210323651E+03  0.38210323651E+03  0.00000000000E+00 0.  1.
         21   -1    0    0  502  503 -0.00000000000E+00 -0.00000000000E+00 -0.27431593553E+04  0.27431593553E+04  0.00000000000E+00 0.  1.
    9000010    2    1    2  501    0 -0.81831244228E+02 -0.13782855171E+03 -0.14086520138E+04  0.17576716685E+04  0.10389495348E+04 0.  0.
   -9000010    2    1    2    0  503  0.81831244228E+02  0.13782855171E+03 -0.95240410494E+03  0.13675909233E+04  0.96826561040E+03 0.  0.
        -13    1    3    3    0    0  0.39911618550E+03 -0.34465780514E+03 -0.68351430078E+03  0.86329284875E+03  0.10566000000E+00 0.  1.
          4    1    3    3  501    0 -0.48094742973E+03  0.20682925344E+03 -0.72513771307E+03  0.89437881972E+03  0.00000000000E+00 0.  1.
         13    1    4    4    0    0  0.27580025852E+03 -0.21642750342E+02  0.93456659292E+02  0.29200744780E+03  0.10566000000E+00 0. -1.
         -4    1    4    4    0  503 -0.19396901429E+03  0.15947130205E+03 -0.10458607642E+04  0.10755834755E+04  0.00000000000E+00 0. -1.
<mgrwt>
<rscale>  2 0.10333401E+04</rscale>
<asrwt>0</asrwt>
<pdfrwt beam="1">  1       21 0.58785111E-01 0.10512417E+04</pdfrwt>
<pdfrwt beam="2">  1       21 0.42202453E+00 0.10512417E+04</pdfrwt>
<totfact> 0.53715997E+00</totfact>
</mgrwt>
</event>
<event>
 8    1  0.7631533E-006  0.1098141E+04  0.7818608E-02  0.8689977E-01
         21   -1    0    0  503  502  0.00000000000E+00  0.00000000000E+00  0.19975915339E+04  0.19975915339E+04  0.00000000000E+00 0. -1.
         21   -1    0    0  501  503 -0.00000000000E+00 -0.00000000000E+00 -0.67301610482E+03  0.67301610482E+03  0.00000000000E+00 0. -1.
    9000010    2    1    2  501    0 -0.63880123531E+02  0.38718044789E+03  0.21730948159E+03  0.11194363281E+04  0.10256339076E+04 0.  0.
   -9000010    2    1    2    0  502  0.63880123531E+02 -0.38718044789E+03  0.11072659475E+04  0.15511713107E+04  0.10129685025E+04 0.  0.
        -13    1    3    3    0    0  0.40518489047E+03  0.23902477260E+03  0.37635835499E+03  0.60245602322E+03  0.10566000000E+00 0.  1.
          4    1    3    3  501    0 -0.46906501400E+03  0.14815567529E+03 -0.15904887340E+03  0.51698030486E+03  0.00000000000E+00 0.  1.
         13    1    4    4    0    0  0.22963966992E+03 -0.67810616185E+03  0.92579006295E+03  0.11703202966E+04  0.10566000000E+00 0. -1.
         -4    1    4    4    0  502 -0.16575954639E+03  0.29092571396E+03  0.18147588457E+03  0.38085101410E+03  0.00000000000E+00 0. -1.
<mgrwt>
<rscale>  2 0.10951744E+04</rscale>
<asrwt>0</asrwt>
<pdfrwt beam="1">  1       21 0.30732177E+00 0.10981413E+04</pdfrwt>
<pdfrwt beam="2">  1       21 0.10354094E+00 0.10981413E+04</pdfrwt>
<totfact> 0.84245517E+00</totfact>
</mgrwt>
</event>
<event>
 8    1  0.7631533E-006  0.1131713E+04  0.7818608E-02  0.8665050E-01
         21   -1    0    0  503  502  0.00000000000E+00  0.00000000000E+00  0.90755682456E+03  0.90755682456E+03  0.00000000000E+00 0. -1.
         21   -1    0    0  501  503 -0.00000000000E+00 -0.00000000000E+00 -0.14193988686E+04  0.14193988686E+04  0.00000000000E+00 0. -1.
    9000010    2    1    2  501    0  0.48819560852E+03  0.42944320259E+02 -0.58384450606E+02  0.11077763957E+04  0.99175633699E+03 0.  0.
   -9000010    2    1    2    0  502 -0.48819560852E+03 -0.42944320259E+02 -0.45345759342E+03  0.12191792974E+04  0.10200956835E+04 0.  0.
        -13    1    3    3    0    0  0.55492033435E+03  0.19905994786E+03 -0.40947132694E+03  0.71779399487E+03  0.10566000000E+00 0.  1.
          4    1    3    3  501    0 -0.66724725834E+02 -0.15611562760E+03  0.35108687633E+03  0.38998240082E+03  0.00000000000E+00 0.  1.
         13    1    4    4    0    0  0.17150258663E+03  0.26315825123E+03 -0.37276341269E+03  0.48746074243E+03  0.10566000000E+00 0. -1.
         -4    1    4    4    0  502 -0.65969819515E+03 -0.30610257149E+03 -0.80694180730E+02  0.73171855502E+03  0.00000000000E+00 0. -1.
<mgrwt>
<rscale>  2 0.11252895E+04</rscale>
<asrwt>0</asrwt>
<pdfrwt beam="1">  1       21 0.13962413E+00 0.11317130E+04</pdfrwt>
<pdfrwt beam="2">  1       21 0.21836906E+00 0.11317130E+04</pdfrwt>
<totfact> 0.15913874E+01</totfact>
</mgrwt>
</event>
<event>
 8    1  0.7631533E-006  0.1161320E+04  0.7818608E-02  0.8654674E-01
         21   -1    0    0  503  502  0.00000000000E+00  0.00000000000E+00  0.74756670426E+03  0.74756670426E+03  0.00000000000E+00 0.  1.
         21   -1    0    0  501  503 -0.00000000000E+00 -0.00000000000E+00 -0.17503253511E+04  0.17503253511E+04  0.00000000000E+00 0.  1.
    9000010    2    1    2  501    0 -0.22170803171E+03 -0.31468282631E+03 -0.24817158565E+03  0.11875408842E+04  0.10956662280E+04 0.  0.
   -9000010    2    1    2    0  502  0.22170803171E+03  0.31468282631E+03 -0.75458706123E+03  0.13103511712E+04  0.99971937382E+03 0.  0.
        -13    1    3    3    0    0 -0.28779663164E+02  0.13306086858E+03 -0.58131895755E+03  0.59704707128E+03  0.10566000000E+00 0.  1.
          4    1    3    3  501    0 -0.19292836855E+03 -0.44774369488E+03  0.33314737189E+03  0.59049381292E+03  0.00000000000E+00 0.  1.
         13    1    4    4    0    0 -0.99552613997E+02  0.25962084374E+03 -0.90835254599E+03  0.94995687503E+03  0.10566000000E+00 0. -1.
         -4    1    4    4    0  502  0.32126064571E+03  0.55061982568E+02  0.15376548476E+03  0.36039429616E+03  0.00000000000E+00 0. -1.
<mgrwt>
<rscale>  2 0.11381215E+04</rscale>
<asrwt>0</asrwt>
<pdfrwt beam="1">  1       21 0.11501026E+00 0.11613200E+04</pdfrwt>
<pdfrwt beam="2">  1       21 0.26928082E+00 0.11613200E+04</pdfrwt>
<totfact> 0.11661159E+01</totfact>
</mgrwt>
</event>
<event>
 8    1  0.7631533E-006  0.1064331E+04  0.7818608E-02  0.8717149E-01
         21   -1    0    0  503  502  0.00000000000E+00  0.00000000000E+00  0.23751876829E+04  0.23751876829E+04  0.00000000000E+00 0. -1.
         21   -1    0    0  501  503 -0.00000000000E+00 -0.00000000000E+00 -0.51526664871E+03  0.51526664871E+03  0.00000000000E+00 0. -1.
    9000010    2    1    2  501    0  0.26330168979E+03 -0.20886626299E+03  0.52921564609E+03  0.11886417463E+04  0.10098747968E+04 0.  0.
   -9000010    2    1    2    0  502 -0.26330168979E+03  0.20886626299E+03  0.13307053881E+04  0.17018125854E+04  0.10061989615E+04 0.  0.
        -13    1    3    3    0    0  0.61504299147E+03  0.18774073634E+02  0.44980807008E+03  0.76220578473E+03  0.10566000000E+00 0.  1.
          4    1    3    3  501    0 -0.35174130168E+03 -0.22764033663E+03  0.79407576007E+02  0.42643596154E+03  0.00000000000E+00 0.  1.
         13    1    4    4    0    0 -0.55936999062E+03  0.10317412745E+03  0.34056883033E+03  0.66296819406E+03  0.10566000000E+00 0. -1.
         -4    1    4    4    0  502  0.29606830083E+03  0.10569213554E+03  0.99013655780E+03  0.10388443913E+04  0.00000000000E+00 0. -1.
<mgrwt>
<rscale>  2 0.10634579E+04</rscale>
<asrwt>0</asrwt>
<pdfrwt beam="1">  1       21 0.36541348E+00 0.10643308E+04</pdfrwt>
<pdfrwt beam="2">  1       21 0.79271793E-01 0.10643308E+04</pdfrwt>
<totfact> 0.65591474E+00</totfact>
</mgrwt>
</event>
<event>
 8    1  0.7631533E-006  0.1054809E+04  0.7818608E-02  0.8727999E-01
         21   -1    0    0  503  502  0.00000000000E+00  0.00000000000E+00  0.12319611244E+04  0.12319611244E+04  0.00000000000E+00 0.  1.
         21   -1    0    0  501  503 -0.00000000000E+00 -0.00000000000E+00 -0.89417831202E+03  0.89417831202E+03  0.00000000000E+00 0.  1.
    9000010    2    1    2  501    0 -0.24706500618E+03 -0.19512104033E+03  0.23768046366E+03  0.10812558947E+04  0.10067318259E+04 0.  0.
   -9000010    2    1    2    0  502  0.24706500618E+03  0.19512104033E+03  0.10010234872E+03  0.10448835417E+04  0.99128593146E+03 0.  0.
        -13    1    3    3    0    0 -0.46397834147E+02  0.37774927472E+03 -0.90527510475E+02  0.39120648625E+03  0.10566000000E+00 0.  1.
          4    1    3    3  501    0 -0.20066717203E+03 -0.57287031505E+03  0.32820797414E+03  0.69004940843E+03  0.00000000000E+00 0.  1.
         13    1    4    4    0    0 -0.25337284747E+03 -0.24757699318E+03  0.12665538727E+03  0.37620973628E+03  0.10566000000E+00 0. -1.
         -4    1    4    4    0  502  0.50043785365E+03  0.44269803350E+03 -0.26553038547E+02  0.66867380545E+03  0.00000000000E+00 0. -1.
<mgrwt>
<rscale>  2 0.10511068E+04</rscale>
<asrwt>0</asrwt>
<pdfrwt beam="1">  1       21 0.18953248E+00 0.10548091E+04</pdfrwt>
<pdfrwt beam="2">  1       21 0.13756589E+00 0.10548091E+04</pdfrwt>
<totfact> 0.28302928E+01</totfact>
</mgrwt>
</event>
<event>
 8    1  0.7631533E-006  0.1017966E+04  0.7818608E-02  0.8767737E-01
         21   -1    0    0  501  502  0.00000000000E+00  0.00000000000E+00  0.15027291226E+04  0.15027291226E+04  0.00000000000E+00 0.  1.
         21   -1    0    0  502  503 -0.00000000000E+00 -0.00000000000E+00 -0.87138014982E+03  0.87138014982E+03  0.00000000000E+00 0.  1.
    9000010    2    1    2  501    0 -0.99883323859E+02 -0.90459179593E+02  0.89312213671E+03  0.13230241631E+04  0.96672966408E+03 0.  0.
   -9000010    2    1    2    0  503  0.99883323859E+02  0.90459179593E+02 -0.26177316393E+03  0.10510851094E+04  0.10090070249E+04 0.  0.
        -13    1    3    3    0    0  0.48248243740E+02 -0.24882402617E+03  0.10338829035E+04  0.10644976085E+04  0.10566000000E+00 0.  1.
          4    1    3    3  501    0 -0.14813156760E+03  0.15836484657E+03 -0.14076076684E+03  0.25852655459E+03  0.00000000000E+00 0.  1.
         13    1    4    4    0    0 -0.41614710467E+03  0.18568119063E+03  0.18725611286E+02  0.45607738046E+03  0.10566000000E+00 0. -1.
         -4    1    4    4    0  503  0.51603042853E+03 -0.95222011040E+02 -0.28049877521E+03  0.59500772890E+03  0.00000000000E+00 0. -1.
<mgrwt>
<rscale>  2 0.10073281E+04</rscale>
<asrwt>0</asrwt>
<pdfrwt beam="1">  1       21 0.23118909E+00 0.10179660E+04</pdfrwt>
<pdfrwt beam="2">  1       21 0.13405849E+00 0.10179660E+04</pdfrwt>
<totfact> 0.14760193E+01</totfact>
</mgrwt>
</event>
<event>
 8    1  0.7631533E-006  0.1029994E+04  0.7818608E-02  0.8749366E-01
         21   -1    0    0  501  502  0.00000000000E+00  0.00000000000E+00  0.10448510907E+04  0.10448510907E+04  0.00000000000E+00 0. -1.
         21   -1    0    0  502  503 -0.00000000000E+00 -0.00000000000E+00 -0.10122523255E+04  0.10122523255E+04  0.00000000000E+00 0. -1.
    9000010    2    1    2  501    0  0.20544533816E+03 -0.61735134296E+02 -0.72158403446E+02  0.10325180386E+04  0.10074063981E+04 0.  0.
   -9000010    2    1    2    0  503 -0.20544533816E+03  0.61735134296E+02  0.10475716865E+03  0.10245853777E+04  0.99638452319E+03 0.  0.
        -13    1    3    3    0    0  0.26447628403E+03 -0.49237422311E+03 -0.17534935769E+03  0.58577085008E+03  0.10566000000E+00 0.  1.
          4    1    3    3  501    0 -0.59030945866E+02  0.43063908882E+03  0.10319095424E+03  0.44674718849E+03  0.00000000000E+00 0.  1.
         13    1    4    4    0    0  0.13764558973E+03 -0.32898932820E+03  0.30313543647E+03  0.46805062808E+03  0.10566000000E+00 0. -1.
         -4    1    4    4    0  503 -0.34309092790E+03  0.39072446249E+03 -0.19837826782E+03  0.55653474963E+03  0.00000000000E+00 0. -1.
<mgrwt>
<rscale>  2 0.10272885E+04</rscale>
<asrwt>0</asrwt>
<pdfrwt beam="1">  1       21 0.16074632E+00 0.10299935E+04</pdfrwt>
<pdfrwt beam="2">  1       21 0.15573113E+00 0.10299935E+04</pdfrwt>
<totfact> 0.33761793E+01</totfact>
</mgrwt>
</event>
<event>
 8    1  0.7631533E-006  0.1058963E+04  0.7818608E-02  0.8721274E-01
         21   -1    0    0  503  502  0.00000000000E+00  0.00000000000E+00  0.52663079836E+03  0.52663079836E+03  0.00000000000E+00 0. -1.
         21   -1    0    0  501  503 -0.00000000000E+00 -0.00000000000E+00 -0.25445569818E+04  0.25445569818E+04  0.00000000000E+00 0. -1.
    9000010    2    1    2  501    0  0.28675574154E+03 -0.92509280765E+02 -0.16302101580E+04  0.19434794472E+04  0.10142683964E+04 0.  0.
   -9000010    2    1    2    0  502 -0.28675574154E+03  0.92509280765E+02 -0.38771602544E+03  0.11277083330E+04  0.10151923688E+04 0.  0.
        -13    1    3    3    0    0  0.55990915281E+03  0.20342221093E+03 -0.63917220010E+03  0.87373907309E+03  0.10566000000E+00 0.  1.
          4    1    3    3  501    0 -0.27315341127E+03 -0.29593149170E+03 -0.99103795792E+03  0.10697403741E+04  0.00000000000E+00 0.  1.
         13    1    4    4    0    0  0.36738172658E+03  0.15803204729E+03 -0.17706073094E+03  0.43737166644E+03  0.10566000000E+00 0. -1.
         -4    1    4    4    0  502 -0.65413746812E+03 -0.65522766524E+02 -0.21065529450E+03  0.69033666659E+03  0.00000000000E+00 0. -1.
<mgrwt>
<rscale>  2 0.10587414E+04</rscale>
<asrwt>0</asrwt>
<pdfrwt beam="1">  1       21 0.81020123E-01 0.10589629E+04</pdfrwt>
<pdfrwt beam="2">  1       21 0.39147030E+00 0.10589629E+04</pdfrwt>
<totfact> 0.40878467E+00</totfact>
</mgrwt>
</event>
<event>
 8    1  0.7631533E-006  0.1067934E+04  0.7818608E-02  0.8714439E-01
         21   -1    0    0  503  502  0.00000000000E+00  0.00000000000E+00  0.94598098545E+03  0.94598098545E+03  0.00000000000E+00 0.  1.
         21   -1    0    0  501  503 -0.00000000000E+00 -0.00000000000E+00 -0.20394318335E+04  0.20394318335E+04  0.00000000000E+00 0.  1.
    9000010    2    1    2  501    0  0.23404017197E+03 -0.27648494594E+03 -0.15038669716E+04  0.18413305046E+04  0.99883103251E+03 0.  0.
   -9000010    2    1    2    0  502 -0.23404017197E+03  0.27648494594E+03  0.41041612353E+03  0.11440823144E+04  0.10046214313E+04 0.  0.
        -13    1    3    3    0    0  0.11728102383E+03 -0.20724510416E+03  0.80341550112E+02  0.25131682711E+03  0.10566000000E+00 0.  1.
          4    1    3    3  501    0  0.11675914814E+03 -0.69239841774E+02 -0.15842085217E+04  0.15900136775E+04  0.00000000000E+00 0.  1.
         13    1    4    4    0    0 -0.59509585966E+03 -0.22006831619E+02  0.18061604041E+03  0.62229056560E+03  0.10566000000E+00 0. -1.
         -4    1    4    4    0  502  0.36105568768E+03  0.29849177756E+03  0.22980008312E+03  0.52179174877E+03  0.00000000000E+00 0. -1.
<mgrwt>
<rscale>  2 0.10665700E+04</rscale>
<asrwt>0</asrwt>
<pdfrwt beam="1">  1       21 0.14553554E+00 0.10679340E+04</pdfrwt>
<pdfrwt beam="2">  1       21 0.31375874E+00 0.10679340E+04</pdfrwt>
<totfact> 0.29155127E+00</totfact>
</mgrwt>
</event>
<event>
 8    1  0.7631533E-006  0.1054913E+04  0.7818608E-02  0.8733923E-01
         21   -1    0    0  501  502  0.00000000000E+00  0.00000000000E+00  0.65636038028E+03  0.65636038028E+03  0.00000000000E+00 0.  1.
         21   -1    0    0  502  503 -0.00000000000E+00 -0.00000000000E+00 -0.26500165126E+04  0.26500165126E+04  0.00000000000E+00 0.  1.
    9000010    2    1    2  501    0 -0.12486344665E+03  0.21724133092E+03  0.41052580529E+02  0.10144604953E+04  0.98217111847E+03 0.  0.
   -9000010    2    1    2    0  503  0.12486344665E+03 -0.21724133092E+03 -0.20347087129E+04  0.22919163976E+04  0.10247226704E+04 0.  0.
        -13    1    3    3    0    0  0.31096913671E+02 -0.79736639688E+02 -0.42874301132E+03  0.43720193351E+03  0.10566000000E+00 0.  1.
          4    1    3    3  501    0 -0.15596036032E+03  0.29697797061E+03  0.46979559185E+03  0.57725856177E+03  0.00000000000E+00 0.  1.
         13    1    4    4    0    0 -0.69911808369E+02 -0.18932097948E+03 -0.20801942147E+04  0.20899612619E+04  0.10566000000E+00 0. -1.
         -4    1    4    4    0  503  0.19477525502E+03 -0.27920351441E+02  0.45485501772E+02  0.20195513577E+03  0.00000000000E+00 0. -1.
<mgrwt>
<rscale>  2 0.10444370E+04</rscale>
<asrwt>0</asrwt>
<pdfrwt beam="1">  1       21 0.10097852E+00 0.10549129E+04</pdfrwt>
<pdfrwt beam="2">  1       21 0.40769485E+00 0.10549129E+04</pdfrwt>
<totfact> 0.17999462E+00</totfact>
</mgrwt>
</event>
<event>
 8    1  0.7631533E-006  0.1000271E+04  0.7818608E-02  0.8808941E-01
         21   -1    0    0  501  502  0.00000000000E+00  0.00000000000E+00  0.14730160931E+04  0.14730160931E+04  0.00000000000E+00 0.  1.
         21   -1    0    0  502  503 -0.00000000000E+00 -0.00000000000E+00 -0.60834338650E+03  0.60834338650E+03  0.00000000000E+00 0.  1.
    9000010    2    1    2  501    0 -0.55258527146E+02 -0.18844154300E+03  0.28127881933E+03  0.10390671688E+04  0.98080532584E+03 0.  0.
   -9000010    2    1    2    0  503  0.55258527146E+02  0.18844154300E+03  0.58339388723E+03  0.10422923107E+04  0.84110707606E+03 0.  0.
        -13    1    3    3    0    0  0.11360923220E+03 -0.42856559102E+03  0.50349937145E+03  0.67088534912E+03  0.10566000000E+00 0.  1.
          4    1    3    3  501    0 -0.16886775935E+03  0.24012404802E+03 -0.22222055212E+03  0.36818181972E+03  0.00000000000E+00 0.  1.
         13    1    4    4    0    0  0.30184448438E+03  0.32549408491E+03  0.61493569930E+03  0.75842100281E+03  0.10566000000E+00 0. -1.
         -4    1    4    4    0  503 -0.24658595724E+03 -0.13705254191E+03 -0.31541812069E+02  0.28387130792E+03  0.00000000000E+00 0. -1.
<mgrwt>
<rscale>  2 0.96423422E+03</rscale>
<asrwt>0</asrwt>
<pdfrwt beam="1">  1       21 0.22661786E+00 0.10002714E+04</pdfrwt>
<pdfrwt beam="2">  1       21 0.93591291E-01 0.10002714E+04</pdfrwt>
<totfact> 0.42716690E+01</totfact>
</mgrwt>
</event>
<event>
 8    1  0.7631533E-006  0.1022222E+04  0.7818608E-02  0.8758178E-01
         21   -1    0    0  501  502  0.00000000000E+00  0.00000000000E+00  0.14461786606E+04  0.14461786606E+04  0.00000000000E+00 0. -1.
         21   -1    0    0  502  503 -0.00000000000E+00 -0.00000000000E+00 -0.81256534533E+03  0.81256534533E+03  0.00000000000E+00 0. -1.
    9000010    2    1    2  501    0  0.65424840647E+02  0.11572278909E+03 -0.82370094674E+02  0.10255353578E+04  0.10135411999E+04 0.  0.
   -9000010    2    1    2    0  503 -0.65424840647E+02 -0.11572278909E+03  0.71598340998E+03  0.12332086481E+04  0.99523823920E+03 0.  0.
        -13    1    3    3    0    0 -0.42292223010E+03  0.22019558129E+03 -0.19239040081E+03  0.51416279934E+03  0.10566000000E+00 0.  1.
          4    1    3    3  501    0  0.48834707075E+03 -0.10447279220E+03  0.11002030614E+03  0.51137255850E+03  0.00000000000E+00 0.  1.
         13    1    4    4    0    0  0.27994049844E+02 -0.14362164863E+03  0.95966011984E+03  0.97075146230E+03  0.10566000000E+00 0. -1.
         -4    1    4    4    0  503 -0.93418890491E+02  0.27898859534E+02 -0.24367670986E+03  0.26245718583E+03  0.00000000000E+00 0. -1.
<mgrwt>
<rscale>  2 0.10176554E+04</rscale>
<asrwt>0</asrwt>
<pdfrwt beam="1">  1       21 0.22248903E+00 0.10222221E+04</pdfrwt>
<pdfrwt beam="2">  1       21 0.12501005E+00 0.10222221E+04</pdfrwt>
<totfact> 0.20941627E+01</totfact>
</mgrwt>
</event>
<event>
 8    1  0.7631533E-006  0.1109471E+04  0.7818608E-02  0.8687091E-01
         21   -1    0    0  501  502  0.00000000000E+00  0.00000000000E+00  0.91765615753E+03  0.91765615753E+03  0.00000000000E+00 0. -1.
         21   -1    0    0  502  503 -0.00000000000E+00 -0.00000000000E+00 -0.17976282334E+04  0.17976282334E+04  0.00000000000E+00 0. -1.
    9000010    2    1    2  501    0 -0.11607909707E+03  0.46422469742E+03 -0.11550410017E+04  0.15722235811E+04  0.95330391113E+03 0.  0.
   -9000010    2    1    2    0  503  0.11607909707E+03 -0.46422469742E+03  0.27506892585E+03  0.11430608098E+04  0.10009726142E+04 0.  0.
        -13    1    3    3    0    0  0.68384022540E+02  0.72306627845E+03 -0.94244218611E+03  0.11898312918E+04  0.10566000000E+00 0.  1.
          4    1    3    3  501    0 -0.18446311961E+03 -0.25884158102E+03 -0.21259881558E+03  0.38239228934E+03  0.00000000000E+00 0.  1.
         13    1    4    4    0    0  0.15137667616E+03  0.29399459292E+03 -0.13662175969E+02  0.33095979358E+03  0.10566000000E+00 0. -1.
         -4    1    4    4    0  503 -0.35297579090E+02 -0.75821929034E+03  0.28873110182E+03  0.81210101619E+03  0.00000000000E+00 0. -1.
<mgrwt>
<rscale>  2 0.10986100E+04</rscale>
<asrwt>0</asrwt>
<pdfrwt beam="1">  1       21 0.14117787E+00 0.11094706E+04</pdfrwt>
<pdfrwt beam="2">  1       21 0.27655818E+00 0.11094706E+04</pdfrwt>
<totfact> 0.58049199E+00</totfact>
</mgrwt>
</event>
<event>
 8    1  0.7631533E-006  0.1008847E+04  0.7818608E-02  0.8766764E-01
         21   -1    0    0  503  502  0.00000000000E+00  0.00000000000E+00  0.16127872495E+04  0.16127872495E+04  0.00000000000E+00 0. -1.
         21   -1    0    0  501  503 -0.00000000000E+00 -0.00000000000E+00 -0.77153272185E+03  0.77153272185E+03  0.00000000000E+00 0. -1.
    9000010    2    1    2  501    0 -0.11708327441E+03  0.46170585070E+02 -0.90519395974E+02  0.10110117887E+04  0.99905498339E+03 0.  0.
   -9000010    2    1    2    0  502  0.11708327441E+03 -0.46170585070E+02  0.93177392367E+03  0.13733081827E+04  0.10009657855E+04 0.  0.
        -13    1    3    3    0    0  0.10486749080E+03 -0.44339635629E+03 -0.12473552880E+03  0.47239441434E+03  0.10566000000E+00 0.  1.
          4    1    3    3  501    0 -0.22195076521E+03  0.48956694136E+03  0.34216132823E+02  0.53861737439E+03  0.00000000000E+00 0.  1.
         13    1    4    4    0    0  0.18077066234E+03 -0.86002351299E+02 -0.17384830113E+03  0.26513709616E+03  0.10566000000E+00 0. -1.
         -4    1    4    4    0  502 -0.63687387929E+02  0.39831766229E+02  0.11056222248E+04  0.11081710865E+04  0.00000000000E+00 0. -1.
<mgrwt>
<rscale>  2 0.10083729E+04</rscale>
<asrwt>0</asrwt>
<pdfrwt beam="1">  1       21 0.24812111E+00 0.10088472E+04</pdfrwt>
<pdfrwt beam="2">  1       21 0.11869734E+00 0.10088472E+04</pdfrwt>
<totfact> 0.15716527E+01</totfact>
</mgrwt>
</event>
<event>
 8    1  0.7631533E-006  0.1033880E+04  0.7818608E-02  0.8783265E-01
         21   -1    0    0  501  502  0.00000000000E+00  0.00000000000E+00  0.27169909176E+04  0.27169909176E+04  0.00000000000E+00 0.  1.
         21   -1    0    0  502  503 -0.00000000000E+00 -0.00000000000E+00 -0.37298815392E+03  0.37298815392E+03  0.00000000000E+00 0.  1.
    9000010    2    1    2  501    0  0.30934875479E+02  0.15182281107E+03  0.17573523098E+04  0.20389198833E+04  0.10222035107E+04 0.  0.
   -9000010    2    1    2    0  503 -0.30934875479E+02 -0.15182281107E+03  0.58665045385E+03  0.10510591882E+04  0.85823046413E+03 0.  0.
        -13    1    3    3    0    0  0.11276368465E+03 -0.24730882826E+03  0.15648843812E+04  0.15883137104E+04  0.10566000000E+00 0.  1.
          4    1    3    3  501    0 -0.81828809174E+02  0.39913163933E+03  0.19246792866E+03  0.45060617293E+03  0.00000000000E+00 0.  1.
         13    1    4    4    0    0  0.35605728864E+03  0.12883643547E+03  0.16278592271E+03  0.41215881369E+03  0.10566000000E+00 0. -1.
         -4    1    4    4    0  503 -0.38699216412E+03 -0.28065924654E+03  0.42386453114E+03  0.63890037448E+03  0.00000000000E+00 0. -1.
<mgrwt>
<rscale>  2 0.99081975E+03</rscale>
<asrwt>0</asrwt>
<pdfrwt beam="1">  1       21 0.41799859E+00 0.10338797E+04</pdfrwt>
<pdfrwt beam="2">  1       21 0.57382795E-01 0.10338797E+04</pdfrwt>
<totfact> 0.60719210E+00</totfact>
</mgrwt>
</event>
<event>
 8    1  0.7631533E-006  0.1039256E+04  0.7818608E-02  0.8740868E-01
         21   -1    0    0  503  502  0.00000000000E+00  0.00000000000E+00  0.14479150736E+04  0.14479150736E+04  0.00000000000E+00 0. -1.
         21   -1    0    0  501  503 -0.00000000000E+00 -0.00000000000E+00 -0.77003151950E+03  0.77003151950E+03  0.00000000000E+00 0. -1.
    9000010    2    1    2  501    0  0.22111533576E+03 -0.11190585512E+03  0.11648891061E+03  0.10457644811E+04  0.10092763603E+04 0.  0.
   -9000010    2    1    2    0  502 -0.22111533576E+03  0.11190585512E+03  0.56139464349E+03  0.11721821120E+04  0.99871519755E+03 0.  0.
        -13    1    3    3    0    0  0.13178455461E+02  0.25555863911E+03  0.44328894791E+03  0.51184860283E+03  0.10566000000E+00 0.  1.
          4    1    3    3  501    0  0.20793688029E+03 -0.36746449423E+03 -0.32680003730E+03  0.53391587828E+03  0.00000000000E+00 0.  1.
         13    1    4    4    0    0  0.26720260686E+03  0.38139154029E+03  0.31643635514E+03  0.56301751139E+03  0.10566000000E+00 0. -1.
         -4    1    4    4    0  502 -0.48831794262E+03 -0.26948568517E+03  0.24495828836E+03  0.60916460060E+03  0.00000000000E+00 0. -1.
<mgrwt>
<rscale>  2 0.10366834E+04</rscale>
<asrwt>0</asrwt>
<pdfrwt beam="1">  1       21 0.22275616E+00 0.10392563E+04</pdfrwt>
<pdfrwt beam="2">  1       21 0.11846639E+00 0.10392563E+04</pdfrwt>
<totfact> 0.24153918E+01</totfact>
</mgrwt>
</event>
<event>
 8    1  0.7631533E-006  0.1037816E+04  0.7818608E-02  0.8811443E-01
         21   -1    0    0  501  502  0.00000000000E+00  0.00000000000E+00  0.10394343020E+04  0.10394343020E+04  0.00000000000E+00 0. -1.
         21   -1    0    0  502  503 -0.00000000000E+00 -0.00000000000E+00 -0.82317856434E+03  0.82317856434E+03  0.00000000000E+00 0. -1.
    9000010    2    1    2  501    0  0.27100690667E+03 -0.92897488042E+02 -0.82637788343E+02  0.10411012199E+04  0.99749088176E+03 0.  0.
   -9000010    2    1    2    0  503 -0.27100690667E+03  0.92897488042E+02  0.29889352603E+03  0.82151164650E+03  0.70955574741E+03 0.  0.
        -13    1    3    3    0    0 -0.13143343429E+03  0.32397493988E+02 -0.45745157278E+03  0.47706005687E+03  0.10566000000E+00 0.  1.
          4    1    3    3  501    0  0.40244034096E+03 -0.12529498203E+03  0.37481378443E+03  0.56404116299E+03  0.00000000000E+00 0.  1.
         13    1    4    4    0    0  0.16226758527E+03 -0.18838510845E+03  0.96594208170E+02  0.26673989302E+03  0.10566000000E+00 0. -1.
         -4    1    4    4    0  503 -0.43327449193E+03  0.28128259649E+03  0.20229931786E+03  0.55477175348E+03  0.00000000000E+00 0. -1.
<mgrwt>
<rscale>  2 0.96169049E+03</rscale>
<asrwt>0</asrwt>
<pdfrwt beam="1">  1       21 0.15991297E+00 0.10378163E+04</pdfrwt>
<pdfrwt beam="2">  1       21 0.12664286E+00 0.10378163E+04</pdfrwt>
<totfact> 0.63583002E+01</totfact>
</mgrwt>
</event>
<event>
 8    1  0.7631533E-006  0.1037209E+04  0.7818608E-02  0.8747729E-01
         21   -1    0    0  503  502  0.00000000000E+00  0.00000000000E+00  0.71302326962E+03  0.71302326962E+03  0.00000000000E+00 0.  1.
         21   -1    0    0  501  503 -0.00000000000E+00 -0.00000000000E+00 -0.24925926364E+04  0.24925926364E+04  0.00000000000E+00 0.  1.
    9000010    2    1    2  501    0 -0.11550933159E+03  0.23062594582E+03 -0.19283029411E+04  0.21895557368E+04  0.10046249844E+04 0.  0.
   -9000010    2    1    2    0  502  0.11550933159E+03 -0.23062594582E+03  0.14873357434E+03  0.10160601692E+04  0.97145553620E+03 0.  0.
        -13    1    3    3    0    0 -0.94168401643E+02  0.62812114050E+03 -0.12771916788E+04  0.14264019247E+04  0.10566000000E+00 0.  1.
          4    1    3    3  501    0 -0.21340929946E+02 -0.39749519469E+03 -0.65111126230E+03  0.76315381214E+03  0.00000000000E+00 0.  1.
         13    1    4    4    0    0 -0.41912681923E+03 -0.10484764100E+03 -0.43341762731E+02  0.43421059174E+03  0.10566000000E+00 0. -1.
         -4    1    4    4    0  502  0.53463615082E+03 -0.12577830482E+03  0.19207533707E+03  0.58184957750E+03  0.00000000000E+00 0. -1.
<mgrwt>
<rscale>  2 0.10290906E+04</rscale>
<asrwt>0</asrwt>
<pdfrwt beam="1">  1       21 0.10969589E+00 0.10372088E+04</pdfrwt>
<pdfrwt beam="2">  1       21 0.38347579E+00 0.10372088E+04</pdfrwt>
<totfact> 0.21377129E+00</totfact>
</mgrwt>
</event>
<event>
 8    1  0.7631533E-006  0.1031725E+04  0.7818608E-02  0.8746686E-01
         21   -1    0    0  503  502  0.00000000000E+00  0.00000000000E+00  0.13055145364E+04  0.13055145364E+04  0.00000000000E+00 0.  1.
         21   -1    0    0  501  503 -0.00000000000E+00 -0.00000000000E+00 -0.85829919061E+03  0.85829919061E+03  0.00000000000E+00 0.  1.
    9000010    2    1    2  501    0 -0.16332053495E+03 -0.17552905892E+03  0.47906008962E+03  0.11375215417E+04  0.10034802642E+04 0.  0.
   -9000010    2    1    2    0  502  0.16332053495E+03  0.17552905892E+03 -0.31844743839E+02  0.10262921853E+04  0.99738533890E+03 0.  0.
        -13    1    3    3    0    0  0.10308566247E+02  0.35315612775E+03  0.46092976353E+03  0.58075965353E+03  0.10566000000E+00 0.  1.
          4    1    3    3  501    0 -0.17362910120E+03 -0.52868518667E+03  0.18130326089E+02  0.55676188816E+03  0.00000000000E+00 0.  1.
         13    1    4    4    0    0 -0.29722128019E+03  0.38611987886E+03 -0.14302685819E+03  0.50782452046E+03  0.10566000000E+00 0. -1.
         -4    1    4    4    0  502  0.46054181514E+03 -0.21059081994E+03  0.11118211435E+03  0.51846766484E+03  0.00000000000E+00 0. -1.
<mgrwt>
<rscale>  2 0.10302401E+04</rscale>
<asrwt>0</asrwt>
<pdfrwt beam="1">  1       21 0.20084839E+00 0.10317251E+04</pdfrwt>
<pdfrwt beam="2">  1       21 0.13204603E+00 0.10317251E+04</pdfrwt>
<totfact> 0.26124941E+01</totfact>
</mgrwt>
</event>
<event>
 8    1  0.7631533E-006  0.1171862E+04  0.7818608E-02  0.8629461E-01
         21   -1    0    0  501  502  0.00000000000E+00  0.00000000000E+00  0.92392747152E+03  0.92392747152E+03  0.00000000000E+00 0.  1.
         21   -1    0    0  502  503 -0.00000000000E+00 -0.00000000000E+00 -0.15246695855E+04  0.15246695855E+04  0.00000000000E+00 0.  1.
    9000010    2    1    2  501    0  0.10018105130E+02 -0.60370124886E+03 -0.51552493139E+03  0.12736403729E+04  0.99591078124E+03 0.  0.
   -9000010    2    1    2    0  503 -0.10018105130E+02  0.60370124886E+03 -0.85217182598E+02  0.11749566842E+04  0.10043434080E+04 0.  0.
        -13    1    3    3    0    0 -0.44433182753E+03 -0.35465567212E+03 -0.39253330864E+02  0.56987038340E+03  0.10566000000E+00 0.  1.
          4    1    3    3  501    0  0.45434993266E+03 -0.24904557673E+03 -0.47627160053E+03  0.70376998946E+03  0.00000000000E+00 0.  1.
         13    1    4    4    0    0  0.32694904132E+03 -0.26603958533E+02 -0.28314777518E+03  0.43333142049E+03  0.10566000000E+00 0. -1.
         -4    1    4    4    0  503 -0.33696714645E+03  0.63030520739E+03  0.19793059258E+03  0.74162526368E+03  0.00000000000E+00 0. -1.
<mgrwt>
<rscale>  2 0.11700533E+04</rscale>
<asrwt>0</asrwt>
<pdfrwt beam="1">  1       21 0.14214269E+00 0.11718623E+04</pdfrwt>
<pdfrwt beam="2">  1       21 0.23456455E+00 0.11718623E+04</pdfrwt>
<totfact> 0.11315791E+01</totfact>
</mgrwt>
</event>
<event>
 8    1  0.7631533E-006  0.1021753E+04  0.7818608E-02  0.8755550E-01
         21   -1    0    0  503  502  0.00000000000E+00  0.00000000000E+00  0.28501232249E+04  0.28501232249E+04  0.00000000000E+00 0. -1.
         21   -1    0    0  501  503 -0.00000000000E+00 -0.00000000000E+00 -0.48652396083E+03  0.48652396083E+03  0.00000000000E+00 0. -1.
    9000010    2    1    2  501    0  0.15018659044E+03 -0.12070216720E+03  0.34423623433E+03  0.10735063126E+04  0.99839480816E+03 0.  0.
   -9000010    2    1    2    0  502 -0.15018659044E+03  0.12070216720E+03  0.20193630298E+04  0.22631408732E+04  0.10034214174E+04 0.  0.
        -13    1    3    3    0    0 -0.22911408505E+03 -0.44849268961E+03  0.25430561254E+03  0.56418996122E+03  0.10566000000E+00 0.  1.
          4    1    3    3  501    0  0.37930067549E+03  0.32779052242E+03  0.89930621793E+02  0.50931635135E+03  0.00000000000E+00 0.  1.
         13    1    4    4    0    0  0.29123667000E+03 -0.29077918267E+02  0.13561786098E+03  0.32257795750E+03  0.10566000000E+00 0. -1.
         -4    1    4    4    0  502 -0.44142326044E+03  0.14978008546E+03  0.18837451688E+04  0.19405629157E+04  0.00000000000E+00 0. -1.
<mgrwt>
<rscale>  2 0.10205169E+04</rscale>
<asrwt>0</asrwt>
<pdfrwt beam="1">  1       21 0.43848049E+00 0.10217532E+04</pdfrwt>
<pdfrwt beam="2">  1       21 0.74849841E-01 0.10217532E+04</pdfrwt>
<totfact> 0.23615601E+00</totfact>
</mgrwt>
</event>
<event>
 8    1  0.7631533E-006  0.1186388E+04  0.7818608E-02  0.8626951E-01
         21   -1    0    0  503  502  0.00000000000E+00  0.00000000000E+00  0.16574900157E+04  0.16574900157E+04  0.00000000000E+00 0.  1.
         21   -1    0    0  501  503 -0.00000000000E+00 -0.00000000000E+00 -0.11508134000E+04  0.11508134000E+04  0.00000000000E+00 0.  1.
    9000010    2    1    2  501    0  0.40649695573E+03  0.37002940391E+03 -0.50365662695E+03  0.12888700240E+04  0.10513583623E+04 0.  0.
   -9000010    2    1    2    0  502 -0.40649695573E+03 -0.37002940391E+03  0.10103332426E+04  0.15194333917E+04  0.99284592760E+03 0.  0.
        -13    1    3    3    0    0  0.73368317458E+03  0.43005636202E+03 -0.40468481898E+03  0.94181170573E+03  0.10566000000E+00 0.  1.
          4    1    3    3  501    0 -0.32718621884E+03 -0.60026958106E+02 -0.98971807969E+02  0.34705831826E+03  0.00000000000E+00 0.  1.
         13    1    4    4    0    0  0.77670762662E+00 -0.35403436322E+02 -0.19799544292E+03  0.20113729928E+03  0.10566000000E+00 0. -1.
         -4    1    4    4    0  502 -0.40727366336E+03 -0.33462596759E+03  0.12083286855E+04  0.13182960924E+04  0.00000000000E+00 0. -1.
<mgrwt>
<rscale>  2 0.11732902E+04</rscale>
<asrwt>0</asrwt>
<pdfrwt beam="1">  1       21 0.25499846E+00 0.11863878E+04</pdfrwt>
<pdfrwt beam="2">  1       21 0.17704822E+00 0.11863878E+04</pdfrwt>
<totfact> 0.39780519E+00</totfact>
</mgrwt>
</event>
<event>
 8    1  0.7631533E-006  0.1171575E+04  0.7818608E-02  0.8631703E-01
         21   -1    0    0  503  502  0.00000000000E+00  0.00000000000E+00  0.13717475943E+04  0.13717475943E+04  0.00000000000E+00 0.  1.
         21   -1    0    0  501  503 -0.00000000000E+00 -0.00000000000E+00 -0.10608046876E+04  0.10608046876E+04  0.00000000000E+00 0.  1.
    9000010    2    1    2  501    0  0.30499932670E+03  0.50881438987E+03 -0.16705292442E+03  0.11834252786E+04  0.10102831473E+04 0.  0.
   -9000010    2    1    2    0  502 -0.30499932670E+03 -0.50881438987E+03  0.47799583109E+03  0.12491270034E+04  0.98990988650E+03 0.  0.
        -13    1    3    3    0    0  0.34697650223E+03 -0.22618392769E+03 -0.16870229797E+03  0.44722739043E+03  0.10566000000E+00 0.  1.
          4    1    3    3  501    0 -0.41977175535E+02  0.73499831756E+03  0.16493735457E+01  0.73619788815E+03  0.00000000000E+00 0.  1.
         13    1    4    4    0    0  0.20674687569E+03  0.19390160917E+03  0.14333535753E+03  0.31762736111E+03  0.10566000000E+00 0. -1.
         -4    1    4    4    0  502 -0.51174620239E+03 -0.70271599904E+03  0.33466047356E+03  0.93149964226E+03  0.00000000000E+00 0. -1.
<mgrwt>
<rscale>  2 0.11671699E+04</rscale>
<asrwt>0</asrwt>
<pdfrwt beam="1">  1       21 0.21103809E+00 0.11715753E+04</pdfrwt>
<pdfrwt beam="2">  1       21 0.16320072E+00 0.11715753E+04</pdfrwt>
<totfact> 0.11067045E+01</totfact>
</mgrwt>
</event>
<event>
 8    1  0.7631533E-006  0.1024090E+04  0.7818608E-02  0.8754259E-01
         21   -1    0    0  503  502  0.00000000000E+00  0.00000000000E+00  0.79707273599E+03  0.79707273599E+03  0.00000000000E+00 0.  1.
         21   -1    0    0  501  503 -0.00000000000E+00 -0.00000000000E+00 -0.13270749903E+04  0.13270749903E+04  0.00000000000E+00 0.  1.
    9000010    2    1    2  501    0  0.19020719764E+03 -0.14726707857E+03 -0.12820347313E+03  0.10320836053E+04  0.99543662142E+03 0.  0.
   -9000010    2    1    2    0  502 -0.19020719764E+03  0.14726707857E+03 -0.40179878119E+03  0.10920641210E+04  0.98655735436E+03 0.  0.
        -13    1    3    3    0    0  0.29951333932E+03  0.32707811391E+03  0.15393717727E+03  0.46945180662E+03  0.10566000000E+00 0.  1.
          4    1    3    3  501    0 -0.10930614168E+03 -0.47434519248E+03 -0.28214065040E+03  0.56263179865E+03  0.00000000000E+00 0.  1.
         13    1    4    4    0    0 -0.10425502572E+03  0.51686196855E+03 -0.47022150263E+03  0.70648685594E+03  0.10566000000E+00 0. -1.
         -4    1    4    4    0  502 -0.85952171923E+02 -0.36959488998E+03  0.68422721441E+02  0.38557726510E+03  0.00000000000E+00 0. -1.
<mgrwt>
<rscale>  2 0.10219260E+04</rscale>
<asrwt>0</asrwt>
<pdfrwt beam="1">  1       21 0.12262658E+00 0.10240901E+04</pdfrwt>
<pdfrwt beam="2">  1       21 0.20416538E+00 0.10240901E+04</pdfrwt>
<totfact> 0.30486101E+01</totfact>
</mgrwt>
</event>
<event>
 8    1  0.7631533E-006  0.1043883E+04  0.7818608E-02  0.8737276E-01
         21   -1    0    0  503  502  0.00000000000E+00  0.00000000000E+00  0.64939428452E+03  0.64939428452E+03  0.00000000000E+00 0. -1.
         21   -1    0    0  501  503 -0.00000000000E+00 -0.00000000000E+00 -0.19323096214E+04  0.19323096214E+04  0.00000000000E+00 0. -1.
    9000010    2    1    2  501    0  0.54493560136E+02 -0.25922032412E+03 -0.11247857147E+04  0.15259114869E+04  0.99654314380E+03 0.  0.
   -9000010    2    1    2    0  502 -0.54493560136E+02  0.25922032412E+03 -0.15812962219E+03  0.10557924190E+04  0.10097167573E+04 0.  0.
        -13    1    3    3    0    0  0.33381527865E+03 -0.46149552636E+03 -0.32697487879E+03  0.65675211734E+03  0.10566000000E+00 0.  1.
          4    1    3    3  501    0 -0.27932171851E+03  0.20227520224E+03 -0.79781083590E+03  0.86915936960E+03  0.00000000000E+00 0.  1.
         13    1    4    4    0    0  0.45192865880E+03  0.18662918297E+03 -0.22791155967E+03  0.53945681456E+03  0.10566000000E+00 0. -1.
         -4    1    4    4    0  502 -0.50642221893E+03  0.72591141150E+02  0.69781937484E+02  0.51633560443E+03  0.00000000000E+00 0. -1.
<mgrwt>
<rscale>  2 0.10406845E+04</rscale>
<asrwt>0</asrwt>
<pdfrwt beam="1">  1       21 0.99906813E-01 0.10438834E+04</pdfrwt>
<pdfrwt beam="2">  1       21 0.29727840E+00 0.10438834E+04</pdfrwt>
<totfact> 0.11037775E+01</totfact>
</mgrwt>
</event>
<event>
 8    1  0.7631533E-006  0.1032410E+04  0.7818608E-02  0.8753544E-01
         21   -1    0    0  503  502  0.00000000000E+00  0.00000000000E+00  0.10757322054E+04  0.10757322054E+04  0.00000000000E+00 0.  1.
         21   -1    0    0  501  503 -0.00000000000E+00 -0.00000000000E+00 -0.12581763266E+04  0.12581763266E+04  0.00000000000E+00 0.  1.
    9000010    2    1    2  501    0 -0.66247466757E+02  0.93572429122E+02 -0.66580913001E+03  0.12284837338E+04  0.10260243468E+04 0.  0.
   -9000010    2    1    2    0  502  0.66247466757E+02 -0.93572429122E+02  0.48336500884E+03  0.11054247983E+04  0.98751087411E+03 0.  0.
        -13    1    3    3    0    0  0.21108700251E+03 -0.29487994844E+03  0.52122866710E+02  0.36637236661E+03  0.10566000000E+00 0.  1.
          4    1    3    3  501    0 -0.27733446927E+03  0.38845237756E+03 -0.71793199672E+03  0.86211136716E+03  0.00000000000E+00 0.  1.
         13    1    4    4    0    0 -0.17078487391E+03  0.40615743926E+03  0.23078436689E+03  0.49738594048E+03  0.10566000000E+00 0. -1.
         -4    1    4    4    0  502  0.23703234067E+03 -0.49972986838E+03  0.25258064195E+03  0.60803885777E+03  0.00000000000E+00 0. -1.
<mgrwt>
<rscale>  2 0.10227076E+04</rscale>
<asrwt>0</asrwt>
<pdfrwt beam="1">  1       21 0.16549726E+00 0.10324100E+04</pdfrwt>
<pdfrwt beam="2">  1       21 0.19356559E+00 0.10324100E+04</pdfrwt>
<totfact> 0.14922158E+01</totfact>
</mgrwt>
</event>
<event>
 8    1  0.7631533E-006  0.1100241E+04  0.7818608E-02  0.8688598E-01
         21   -1    0    0  501  502  0.00000000000E+00  0.00000000000E+00  0.18600926988E+04  0.18600926988E+04  0.00000000000E+00 0. -1.
         21   -1    0    0  502  503 -0.00000000000E+00 -0.00000000000E+00 -0.13670670509E+04  0.13670670509E+04  0.00000000000E+00 0. -1.
    9000010    2    1    2  501    0 -0.39948557222E+03  0.26437315216E+02  0.14203006133E+04  0.17882822039E+04  0.10101543221E+04 0.  0.
   -9000010    2    1    2    0  503  0.39948557222E+03 -0.26437315216E+02 -0.92727496539E+03  0.14388775458E+04  0.10248131910E+04 0.  0.
        -13    1    3    3    0    0 -0.47692830838E+03 -0.37789975593E+03  0.11336335698E+04  0.12866211247E+04  0.10566000000E+00 0.  1.
          4    1    3    3  501    0  0.77442736152E+02  0.40433707115E+03  0.28666704353E+03  0.50166107915E+03  0.00000000000E+00 0.  1.
         13    1    4    4    0    0  0.62800048550E+03  0.24830715162E+03 -0.82704996841E+03  0.10677325099E+04  0.10566000000E+00 0. -1.
         -4    1    4    4    0  503 -0.22851491328E+03 -0.27474446684E+03 -0.10022499697E+03  0.37114503589E+03  0.00000000000E+00 0. -1.
<mgrwt>
<rscale>  2 0.10968146E+04</rscale>
<asrwt>0</asrwt>
<pdfrwt beam="1">  1       21 0.28616811E+00 0.11002408E+04</pdfrwt>
<pdfrwt beam="2">  1       21 0.21031801E+00 0.11002408E+04</pdfrwt>
<totfact> 0.13215602E+00</totfact>
</mgrwt>
</event>
<event>
 8    1  0.7631533E-006  0.1015132E+04  0.7818608E-02  0.8764074E-01
         21   -1    0    0  501  502  0.00000000000E+00  0.00000000000E+00  0.89186125972E+03  0.89186125972E+03  0.00000000000E+00 0.  1.
         21   -1    0    0  502  503 -0.00000000000E+00 -0.00000000000E+00 -0.11693232968E+04  0.11693232968E+04  0.00000000000E+00 0.  1.
    9000010    2    1    2  501    0  0.82957361946E+01 -0.68717772081E+02  0.28839436859E+02  0.10155415460E+04  0.10127694541E+04 0.  0.
   -9000010    2    1    2    0  503 -0.82957361946E+01  0.68717772081E+02 -0.30630147392E+03  0.10456430105E+04  0.99737543634E+03 0.  0.
        -13    1    3    3    0    0 -0.16834172180E+03 -0.91637587219E+02 -0.45835092063E+03  0.49681179565E+03  0.10566000000E+00 0.  1.
          4    1    3    3  501    0  0.17663745800E+03  0.22919815138E+02  0.48719035749E+03  0.51872975037E+03  0.00000000000E+00 0.  1.
         13    1    4    4    0    0  0.76194955976E+02 -0.22475403121E+03 -0.58555783127E+03  0.63182120160E+03  0.10566000000E+00 0. -1.
         -4    1    4    4    0  503 -0.84490692170E+02  0.29347180329E+03  0.27925635735E+03  0.41382180889E+03  0.00000000000E+00 0. -1.
<mgrwt>
<rscale>  2 0.10112706E+04</rscale>
<asrwt>0</asrwt>
<pdfrwt beam="1">  1       21 0.13720943E+00 0.10151320E+04</pdfrwt>
<pdfrwt beam="2">  1       21 0.17989589E+00 0.10151320E+04</pdfrwt>
<totfact> 0.34418380E+01</totfact>
</mgrwt>
</event>
<event>
 8    1  0.7631533E-006  0.1008101E+04  0.7818608E-02  0.8769523E-01
         21   -1    0    0  501  502  0.00000000000E+00  0.00000000000E+00  0.92666143095E+03  0.92666143095E+03  0.00000000000E+00 0.  1.
         21   -1    0    0  502  503 -0.00000000000E+00 -0.00000000000E+00 -0.10909990079E+04  0.10909990079E+04  0.00000000000E+00 0.  1.
    9000010    2    1    2  501    0  0.19549013073E+02  0.15118999119E+03 -0.73881858522E+01  0.99741528694E+03  0.98566834786E+03 0.  0.
   -9000010    2    1    2    0  503 -0.19549013073E+02 -0.15118999119E+03 -0.15694939112E+03  0.10202451519E+04  0.99650714063E+03 0.  0.
        -13    1    3    3    0    0 -0.26942796850E+02  0.29991514691E+02 -0.49305463401E+03  0.49470020067E+03  0.10566000000E+00 0.  1.
          4    1    3    3  501    0  0.46491809923E+02  0.12119847650E+03  0.48566644816E+03  0.50271508627E+03  0.00000000000E+00 0.  1.
         13    1    4    4    0    0  0.92365246983E+02 -0.56079956589E+03 -0.23681240216E+01  0.56836001894E+03  0.10566000000E+00 0. -1.
         -4    1    4    4    0  503 -0.11191426006E+03  0.40960957469E+03 -0.15458126710E+03  0.45188513300E+03  0.00000000000E+00 0. -1.
<mgrwt>
<rscale>  2 0.10054118E+04</rscale>
<asrwt>0</asrwt>
<pdfrwt beam="1">  1       21 0.14256330E+00 0.10081007E+04</pdfrwt>
<pdfrwt beam="2">  1       21 0.16784600E+00 0.10081007E+04</pdfrwt>
<totfact> 0.38712766E+01</totfact>
</mgrwt>
</event>
<event>
 8    1  0.7631533E-006  0.1051388E+04  0.7818608E-02  0.8729631E-01
         21   -1    0    0  501  502  0.00000000000E+00  0.00000000000E+00  0.62826630505E+03  0.62826630505E+03  0.00000000000E+00 0.  1.
         21   -1    0    0  502  503 -0.00000000000E+00 -0.00000000000E+00 -0.17917071094E+04  0.17917071094E+04  0.00000000000E+00 0.  1.
    9000010    2    1    2  501    0 -0.22863739516E+03 -0.18062436096E+03 -0.38476012851E+03  0.11116310766E+04  0.10013905710E+04 0.  0.
   -9000010    2    1    2    0  503  0.22863739516E+03  0.18062436096E+03 -0.77868067585E+03  0.13083423378E+04  0.10102058502E+04 0.  0.
        -13    1    3    3    0    0  0.16308004668E+03 -0.45017324059E+03 -0.41714821682E+03  0.63503046708E+03  0.10566000000E+00 0.  1.
          4    1    3    3  501    0 -0.39171744184E+03  0.26954887963E+03  0.32388088305E+02  0.47660060954E+03  0.00000000000E+00 0.  1.
         13    1    4    4    0    0 -0.22926163857E+03  0.10596369695E+03  0.13296896675E+03  0.28542943309E+03  0.10566000000E+00 0. -1.
         -4    1    4    4    0  503  0.45789903373E+03  0.74660664011E+02 -0.91164964259E+03  0.10229129047E+04  0.00000000000E+00 0. -1.
<mgrwt>
<rscale>  2 0.10492645E+04</rscale>
<asrwt>0</asrwt>
<pdfrwt beam="1">  1       21 0.96656355E-01 0.10513877E+04</pdfrwt>
<pdfrwt beam="2">  1       21 0.27564725E+00 0.10513877E+04</pdfrwt>
<totfact> 0.17103286E+01</totfact>
</mgrwt>
</event>
<event>
 8    1  0.7631533E-006  0.1054162E+04  0.7818608E-02  0.8729554E-01
         21   -1    0    0  503  502  0.00000000000E+00  0.00000000000E+00  0.84993921930E+03  0.84993921930E+03  0.00000000000E+00 0.  1.
         21   -1    0    0  501  503 -0.00000000000E+00 -0.00000000000E+00 -0.14395983783E+04  0.14395983783E+04  0.00000000000E+00 0.  1.
    9000010    2    1    2  501    0  0.26173133504E+03 -0.71455778142E+02 -0.66893475932E+03  0.12323989876E+04  0.99886151816E+03 0.  0.
   -9000010    2    1    2    0  502 -0.26173133504E+03  0.71455778142E+02  0.79275600287E+02  0.10571386100E+04  0.10186501853E+04 0.  0.
        -13    1    3    3    0    0  0.21343749900E+03  0.48962200667E+02 -0.92219644931E+03  0.94783920859E+03  0.10566000000E+00 0.  1.
          4    1    3    3  501    0  0.48293836046E+02 -0.12041797881E+03  0.25326168998E+03  0.28455977901E+03  0.00000000000E+00 0.  1.
         13    1    4    4    0    0 -0.10497641265E+03  0.14583092355E+03  0.53772663221E+03  0.56695383200E+03  0.10566000000E+00 0. -1.
         -4    1    4    4    0  502 -0.15675492239E+03 -0.74375145412E+02 -0.45845103192E+03  0.49018477803E+03  0.00000000000E+00 0. -1.
<mgrwt>
<rscale>  2 0.10493517E+04</rscale>
<asrwt>0</asrwt>
<pdfrwt beam="1">  1       21 0.13075988E+00 0.10541620E+04</pdfrwt>
<pdfrwt beam="2">  1       21 0.22147667E+00 0.10541620E+04</pdfrwt>
<totfact> 0.18597009E+01</totfact>
</mgrwt>
</event>
<event>
 8    1  0.7631533E-006  0.1015009E+04  0.7818608E-02  0.8762608E-01
         21   -1    0    0  503  502  0.00000000000E+00  0.00000000000E+00  0.52515425660E+03  0.52515425660E+03  0.00000000000E+00 0. -1.
         21   -1    0    0  501  503 -0.00000000000E+00 -0.00000000000E+00 -0.21274906490E+04  0.21274906490E+04  0.00000000000E+00 0. -1.
    9000010    2    1    2  501    0 -0.10675681788E+03  0.56335201830E+02 -0.41606072554E+03  0.10969734552E+04  0.10078063112E+04 0.  0.
   -9000010    2    1    2    0  502  0.10675681788E+03 -0.56335201830E+02 -0.11862756668E+04  0.15556714504E+04  0.99914615087E+03 0.  0.
        -13    1    3    3    0    0  0.80987124238E+02  0.46755786670E+03  0.11629584474E+02  0.47466254477E+03  0.10566000000E+00 0.  1.
          4    1    3    3  501    0 -0.18774394212E+03 -0.41122266487E+03 -0.42769031001E+03  0.62231091039E+03  0.00000000000E+00 0.  1.
         13    1    4    4    0    0  0.46439867424E+03 -0.15884910269E+03 -0.10507169905E+04  0.11597005525E+04  0.10566000000E+00 0. -1.
         -4    1    4    4    0  502 -0.35764185636E+03  0.10251390086E+03 -0.13555867628E+03  0.39597089792E+03  0.00000000000E+00 0. -1.
<mgrwt>
<rscale>  2 0.10128531E+04</rscale>
<asrwt>0</asrwt>
<pdfrwt beam="1">  1       21 0.80792962E-01 0.10150095E+04</pdfrwt>
<pdfrwt beam="2">  1       21 0.32730626E+00 0.10150095E+04</pdfrwt>
<totfact> 0.11717860E+01</totfact>
</mgrwt>
</event>
<event>
 8    1  0.7631533E-006  0.1005109E+04  0.7818608E-02  0.8770557E-01
         21   -1    0    0  503  502  0.00000000000E+00  0.00000000000E+00  0.66840494623E+03  0.66840494623E+03  0.00000000000E+00 0.  1.
         21   -1    0    0  501  503 -0.00000000000E+00 -0.00000000000E+00 -0.15074077586E+04  0.15074077586E+04  0.00000000000E+00 0.  1.
    9000010    2    1    2  501    0 -0.67754517321E+02 -0.23603379144E+02 -0.44538679393E+03  0.10993694515E+04  0.10025447624E+04 0.  0.
   -9000010    2    1    2    0  502  0.67754517321E+02  0.23603379144E+02 -0.39361601839E+03  0.10764432533E+04  0.99932412832E+03 0.  0.
        -13    1    3    3    0    0 -0.25714026414E+03  0.34868596323E+03  0.66900446825E+02  0.43838190809E+03  0.10566000000E+00 0.  1.
          4    1    3    3  501    0  0.18938574681E+03 -0.37228934237E+03 -0.51228724076E+03  0.66098754344E+03  0.00000000000E+00 0.  1.
         13    1    4    4    0    0  0.40333292766E+03  0.28453818399E+03 -0.42340010431E+03  0.65031306936E+03  0.10566000000E+00 0. -1.
         -4    1    4    4    0  502 -0.33557841034E+03 -0.26093480484E+03  0.29784085919E+02  0.42613018391E+03  0.00000000000E+00 0. -1.
<mgrwt>
<rscale>  2 0.10043048E+04</rscale>
<asrwt>0</asrwt>
<pdfrwt beam="1">  1       21 0.10283153E+00 0.10051088E+04</pdfrwt>
<pdfrwt beam="2">  1       21 0.23190888E+00 0.10051088E+04</pdfrwt>
<totfact> 0.30530498E+01</totfact>
</mgrwt>
</event>
<event>
 8    1  0.7631533E-006  0.1032781E+04  0.7818608E-02  0.8744866E-01
         21   -1    0    0  503  502  0.00000000000E+00  0.00000000000E+00  0.72436260294E+03  0.72436260294E+03  0.00000000000E+00 0.  1.
         21   -1    0    0  501  503 -0.00000000000E+00 -0.00000000000E+00 -0.17584282944E+04  0.17584282944E+04  0.00000000000E+00 0.  1.
    9000010    2    1    2  501    0  0.47773337758E+02  0.25108371734E+03 -0.10197957152E+04  0.14499112225E+04  0.99846578680E+03 0.  0.
   -9000010    2    1    2    0  502 -0.47773337758E+02 -0.25108371734E+03 -0.14269976249E+02  0.10328796749E+04  0.10006555179E+04 0.  0.
        -13    1    3    3    0    0  0.85691291752E+02 -0.18746380689E+03  0.11267016319E+03  0.23490477478E+03  0.10566000000E+00 0.  1.
          4    1    3    3  501    0 -0.37917953994E+02  0.43854752423E+03 -0.11324658784E+04  0.12150064477E+04  0.00000000000E+00 0.  1.
         13    1    4    4    0    0 -0.41074657867E+03 -0.52574034285E+01 -0.30082198936E+03  0.50915054024E+03  0.10566000000E+00 0. -1.
         -4    1    4    4    0  502  0.36297324092E+03 -0.24582631391E+03  0.28655201311E+03  0.52372913462E+03  0.00000000000E+00 0. -1.
<mgrwt>
<rscale>  2 0.10322503E+04</rscale>
<asrwt>0</asrwt>
<pdfrwt beam="1">  1       21 0.11144040E+00 0.10327811E+04</pdfrwt>
<pdfrwt beam="2">  1       21 0.27052743E+00 0.10327811E+04</pdfrwt>
<totfact> 0.12812112E+01</totfact>
</mgrwt>
</event>
<event>
 8    1  0.7631533E-006  0.1023295E+04  0.7818608E-02  0.8758287E-01
         21   -1    0    0  501  502  0.00000000000E+00  0.00000000000E+00  0.82890001797E+03  0.82890001797E+03  0.00000000000E+00 0. -1.
         21   -1    0    0  502  503 -0.00000000000E+00 -0.00000000000E+00 -0.14143587091E+04  0.14143587091E+04  0.00000000000E+00 0. -1.
    9000010    2    1    2  501    0 -0.23098180357E+03  0.99930208342E+02  0.10351533494E+03  0.10285177683E+04  0.99186427250E+03 0.  0.
   -9000010    2    1    2    0  503  0.23098180357E+03 -0.99930208342E+02 -0.68897402611E+03  0.12147409588E+04  0.96828288645E+03 0.  0.
        -13    1    3    3    0    0 -0.41707925735E+03 -0.22190804081E+03  0.34518119565E+03  0.58510542168E+03  0.10566000000E+00 0.  1.
          4    1    3    3  501    0  0.18609745378E+03  0.32183824916E+03 -0.24166586071E+03  0.44341234664E+03  0.00000000000E+00 0.  1.
         13    1    4    4    0    0  0.10313721268E+03  0.43557197243E+03 -0.34995574491E+03  0.56818065997E+03  0.10566000000E+00 0. -1.
         -4    1    4    4    0  503  0.12784459089E+03 -0.53550218077E+03 -0.33901828120E+03  0.64656029882E+03  0.00000000000E+00 0. -1.
<mgrwt>
<rscale>  2 0.10175369E+04</rscale>
<asrwt>0</asrwt>
<pdfrwt beam="1">  1       21 0.12752308E+00 0.10232954E+04</pdfrwt>
<pdfrwt beam="2">  1       21 0.21759364E+00 0.10232954E+04</pdfrwt>
<totfact> 0.21533810E+01</totfact>
</mgrwt>
</event>
<event>
 8    1  0.7631533E-006  0.1069956E+04  0.7818608E-02  0.8722277E-01
         21   -1    0    0  503  502  0.00000000000E+00  0.00000000000E+00  0.76870932886E+03  0.76870932886E+03  0.00000000000E+00 0. -1.
         21   -1    0    0  501  503 -0.00000000000E+00 -0.00000000000E+00 -0.19634196026E+04  0.19634196026E+04  0.00000000000E+00 0. -1.
    9000010    2    1    2  501    0  0.15040654773E+03  0.14353890619E+03 -0.13042440328E+04  0.16565812335E+04  0.99999166932E+03 0.  0.
   -9000010    2    1    2    0  502 -0.15040654773E+03 -0.14353890619E+03  0.10953375913E+03  0.10755476980E+04  0.10495616509E+04 0.  0.
        -13    1    3    3    0    0 -0.21656142158E+03  0.45475555991E+03 -0.88544752596E+03  0.10186848389E+04  0.10566000000E+00 0.  1.
          4    1    3    3  501    0  0.36696796931E+03 -0.31121665372E+03 -0.41879650686E+03  0.63789639457E+03  0.00000000000E+00 0.  1.
         13    1    4    4    0    0  0.18415812809E+03 -0.57200694630E+02 -0.40914859255E+03  0.45231484339E+03  0.10566000000E+00 0. -1.
         -4    1    4    4    0  502 -0.33456467582E+03 -0.86338211557E+02  0.51868235167E+03  0.62323285457E+03  0.00000000000E+00 0. -1.
<mgrwt>
<rscale>  2 0.10575983E+04</rscale>
<asrwt>0</asrwt>
<pdfrwt beam="1">  1       21 0.11826297E+00 0.10699557E+04</pdfrwt>
<pdfrwt beam="2">  1       21 0.30206455E+00 0.10699557E+04</pdfrwt>
<totfact> 0.64366376E+00</totfact>
</mgrwt>
</event>
<event>
 8    1  0.7631533E-006  0.1024184E+04  0.7818608E-02  0.8753293E-01
         21   -1    0    0  501  502  0.00000000000E+00  0.00000000000E+00  0.13472130676E+04  0.13472130676E+04  0.00000000000E+00 0.  1.
         21   -1    0    0  502  503 -0.00000000000E+00 -0.00000000000E+00 -0.90126623241E+03  0.90126623241E+03  0.00000000000E+00 0.  1.
    9000010    2    1    2  501    0  0.18829261591E+03  0.10468844458E+03  0.64427967702E+03  0.12099791567E+04  0.10012689337E+04 0.  0.
   -9000010    2    1    2    0  503 -0.18829261591E+03 -0.10468844458E+03 -0.19833284183E+03  0.10385001433E+04  0.99635980045E+03 0.  0.
        -13    1    3    3    0    0  0.50701303141E+03  0.23882059984E+03  0.65748120555E+03  0.86393231202E+03  0.10566000000E+00 0.  1.
          4    1    3    3  501    0 -0.31872041550E+03 -0.13413215525E+03 -0.13201528530E+02  0.34604684464E+03  0.00000000000E+00 0.  1.
         13    1    4    4    0    0  0.21171605660E+03  0.95680073325E+02  0.29304169700E+03  0.37396766223E+03  0.10566000000E+00 0. -1.
         -4    1    4    4    0  503 -0.40000867251E+03 -0.20036851791E+03 -0.49137453882E+03  0.66453248111E+03  0.00000000000E+00 0. -1.
<mgrwt>
<rscale>  2 0.10229824E+04</rscale>
<asrwt>0</asrwt>
<pdfrwt beam="1">  1       21 0.20726355E+00 0.10241842E+04</pdfrwt>
<pdfrwt beam="2">  1       21 0.13865634E+00 0.10241842E+04</pdfrwt>
<totfact> 0.20221614E+01</totfact>
</mgrwt>
</event>
<event>
 8    1  0.7631533E-006  0.1042316E+04  0.7818608E-02  0.8736098E-01
         21   -1    0    0  503  502  0.00000000000E+00  0.00000000000E+00  0.15971518249E+04  0.15971518249E+04  0.00000000000E+00 0. -1.
         21   -1    0    0  501  503 -0.00000000000E+00 -0.00000000000E+00 -0.72927759817E+03  0.72927759817E+03  0.00000000000E+00 0. -1.
    9000010    2    1    2  501    0  0.26387773441E+03  0.12342721674E+03  0.12999204074E+03  0.10503905261E+04  0.10007779925E+04 0.  0.
   -9000010    2    1    2    0  502 -0.26387773441E+03 -0.12342721674E+03  0.73788218599E+03  0.12760388969E+04  0.99946956410E+03 0.  0.
        -13    1    3    3    0    0  0.50939264236E+03  0.76542289287E+02  0.42208222318E+03  0.66595270134E+03  0.10566000000E+00 0.  1.
          4    1    3    3  501    0 -0.24551490795E+03  0.46884927455E+02 -0.29209018244E+03  0.38443782479E+03  0.00000000000E+00 0.  1.
         13    1    4    4    0    0  0.19216861932E+03 -0.41497913113E+03  0.16061535922E+03  0.48469966196E+03  0.10566000000E+00 0. -1.
         -4    1    4    4    0  502 -0.45604635372E+03  0.29155191439E+03  0.57726682677E+03  0.79133923498E+03  0.00000000000E+00 0. -1.
<mgrwt>
<rscale>  2 0.10420017E+04</rscale>
<asrwt>0</asrwt>
<pdfrwt beam="1">  1       21 0.24571566E+00 0.10423158E+04</pdfrwt>
<pdfrwt beam="2">  1       21 0.11219655E+00 0.10423158E+04</pdfrwt>
<totfact> 0.18964182E+01</totfact>
</mgrwt>
</event>
<event>
 8    1  0.7631533E-006  0.1045605E+04  0.7818608E-02  0.8736142E-01
         21   -1    0    0  501  502  0.00000000000E+00  0.00000000000E+00  0.53188086018E+03  0.53188086018E+03  0.00000000000E+00 0.  1.
         21   -1    0    0  502  503 -0.00000000000E+00 -0.00000000000E+00 -0.20781572570E+04  0.20781572570E+04  0.00000000000E+00 0. -1.
    9000010    2    1    2  501    0  0.72208069404E+01 -0.27953151979E+03 -0.56319375581E+03  0.11748585093E+04  0.99242898974E+03 0.  0.
   -9000010    2    1    2    0  503 -0.72208069404E+01  0.27953151979E+03 -0.98308264096E+03  0.14351796078E+04  0.10075212242E+04 0.  0.
        -13    1    3    3    0    0 -0.46650953125E+02  0.36827509653E+03 -0.28399568402E+03  0.46739321546E+03  0.10566000000E+00 0.  1.
          4    1    3    3  501    0  0.53871760066E+02 -0.64780661633E+03 -0.27919807179E+03  0.70746529383E+03  0.00000000000E+00 0.  1.
         13    1    4    4    0    0 -0.17313057607E+03  0.22924215317E+03  0.12523523249E+03  0.31338480464E+03  0.10566000000E+00 0. -1.
         -4    1    4    4    0  503  0.16590976913E+03  0.50289366629E+02 -0.11083178735E+04  0.11217948032E+04  0.00000000000E+00 0. -1.
<mgrwt>
<rscale>  2 0.10419519E+04</rscale>
<asrwt>0</asrwt>
<pdfrwt beam="1">  1       21 0.81827826E-01 0.10456046E+04</pdfrwt>
<pdfrwt beam="2">  1       21 0.31971650E+00 0.10456046E+04</pdfrwt>
<totfact> 0.12752358E+01</totfact>
</mgrwt>
</event>
<event>
 8    1  0.7631533E-006  0.1058263E+04  0.7818608E-02  0.8726777E-01
         21   -1    0    0  503  502  0.00000000000E+00  0.00000000000E+00  0.14627652679E+04  0.14627652679E+04  0.00000000000E+00 0. -1.
         21   -1    0    0  501  503 -0.00000000000E+00 -0.00000000000E+00 -0.15789062774E+04  0.15789062774E+04  0.00000000000E+00 0. -1.
    9000010    2    1    2  501    0 -0.27561200009E+03 -0.15350143101E+03 -0.11608520916E+04  0.15708273838E+04  0.10101467355E+04 0.  0.
   -9000010    2    1    2    0  502  0.27561200009E+03  0.15350143101E+03  0.10447110821E+04  0.14708441615E+04  0.98612202007E+03 0.  0.
        -13    1    3    3    0    0 -0.91379073121E+02 -0.82902099983E+02  0.17851681900E+03  0.21700497463E+03  0.10566000000E+00 0.  1.
          4    1    3    3  501    0 -0.18423292697E+03 -0.70599331030E+02 -0.13393689106E+04  0.13538224092E+04  0.00000000000E+00 0.  1.
         13    1    4    4    0    0  0.41779913110E+03  0.36669768527E+03  0.20433303367E+03  0.59226286913E+03  0.10566000000E+00 0. -1.
         -4    1    4    4    0  502 -0.14218713102E+03 -0.21319625426E+03  0.84037804839E+03  0.87858129235E+03  0.00000000000E+00 0. -1.
<mgrwt>
<rscale>  2 0.10524893E+04</rscale>
<asrwt>0</asrwt>
<pdfrwt beam="1">  1       21 0.22504081E+00 0.10582632E+04</pdfrwt>
<pdfrwt beam="2">  1       21 0.24290866E+00 0.10582632E+04</pdfrwt>
<totfact> 0.21176150E+00</totfact>
</mgrwt>
</event>
<event>
 8    1  0.7631533E-006  0.1020650E+04  0.7818608E-02  0.8757858E-01
         21   -1    0    0  501  502  0.00000000000E+00  0.00000000000E+00  0.22597224370E+04  0.22597224370E+04  0.00000000000E+00 0. -1.
         21   -1    0    0  502  503 -0.00000000000E+00 -0.00000000000E+00 -0.55956219847E+03  0.55956219847E+03  0.00000000000E+00 0. -1.
    9000010    2    1    2  501    0  0.11002550741E+03 -0.44306446985E+02  0.14521889590E+04  0.17689431829E+04  0.10031144194E+04 0.  0.
   -9000010    2    1    2    0  503 -0.11002550741E+03  0.44306446985E+02  0.24797127961E+03  0.10503414526E+04  0.10137350433E+04 0.  0.
        -13    1    3    3    0    0 -0.36654138281E+03 -0.26206980366E+03  0.44324608317E+03  0.63206033629E+03  0.10566000000E+00 0.  1.
          4    1    3    3  501    0  0.47656689022E+03  0.21776335668E+03  0.10089428758E+04  0.11368828466E+04  0.00000000000E+00 0.  1.
         13    1    4    4    0    0 -0.54456103341E+03 -0.30198338337E+02  0.27069511722E+03  0.60887972243E+03  0.10566000000E+00 0. -1.
         -4    1    4    4    0  503  0.43453552600E+03  0.74504785322E+02 -0.22723837603E+02  0.44146173015E+03  0.00000000000E+00 0. -1.
<mgrwt>
<rscale>  2 0.10180032E+04</rscale>
<asrwt>0</asrwt>
<pdfrwt beam="1">  1       21 0.34764960E+00 0.10206505E+04</pdfrwt>
<pdfrwt beam="2">  1       21 0.86086493E-01 0.10206505E+04</pdfrwt>
<totfact> 0.71933505E+00</totfact>
</mgrwt>
</event>
<event>
 8    1  0.7631533E-006  0.1041802E+04  0.7818608E-02  0.8743857E-01
         21   -1    0    0  501  502  0.00000000000E+00  0.00000000000E+00  0.87775257588E+03  0.87775257588E+03  0.00000000000E+00 0. -1.
         21   -1    0    0  502  503 -0.00000000000E+00 -0.00000000000E+00 -0.12040505131E+04  0.12040505131E+04  0.00000000000E+00 0. -1.
    9000010    2    1    2  501    0  0.93423423300E+02  0.88017704655E+02 -0.23865457647E+03  0.10363207223E+04  0.10002647550E+04 0.  0.
   -9000010    2    1    2    0  503 -0.93423423300E+02 -0.88017704655E+02 -0.87643360761E+02  0.10454823667E+04  0.10338650628E+04 0.  0.
        -13    1    3    3    0    0 -0.22967239404E+03  0.14362750584E+02 -0.54089130551E+03  0.58780873822E+03  0.10566000000E+00 0.  1.
          4    1    3    3  501    0  0.32309581734E+03  0.73654954071E+02  0.30223672904E+03  0.44851198404E+03  0.00000000000E+00 0.  1.
         13    1    4    4    0    0 -0.11579241205E+03  0.40602985016E+03 -0.28884643552E+03  0.51156660992E+03  0.10566000000E+00 0. -1.
         -4    1    4    4    0  503  0.22368988752E+02 -0.49404755481E+03  0.20120307476E+03  0.53391575680E+03  0.00000000000E+00 0. -1.
<mgrwt>
<rscale>  2 0.10333664E+04</rscale>
<asrwt>0</asrwt>
<pdfrwt beam="1">  1       21 0.13503886E+00 0.10418023E+04</pdfrwt>
<pdfrwt beam="2">  1       21 0.18523854E+00 0.10418023E+04</pdfrwt>
<totfact> 0.32456795E+01</totfact>
</mgrwt>
</event>
<event>
 8    1  0.7631533E-006  0.1089988E+04  0.7818608E-02  0.8702028E-01
         21   -1    0    0  501  502  0.00000000000E+00  0.00000000000E+00  0.26121789622E+04  0.26121789622E+04  0.00000000000E+00 0.  1.
         21   -1    0    0  502  503 -0.00000000000E+00 -0.00000000000E+00 -0.49676524091E+03  0.49676524091E+03  0.00000000000E+00 0.  1.
    9000010    2    1    2  501    0  0.35753881071E+03 -0.20661052657E+02  0.51706253438E+03  0.11743124976E+04  0.99166289495E+03 0.  0.
   -9000010    2    1    2    0  503 -0.35753881071E+03  0.20661052657E+02  0.15983511869E+04  0.19346317055E+04  0.10294719224E+04 0.  0.
        -13    1    3    3    0    0  0.49993578470E+03  0.25508665422E+03 -0.11504982932E+02  0.56137096984E+03  0.10566000000E+00 0.  1.
          4    1    3    3  501    0 -0.14239697399E+03 -0.27574770688E+03  0.52856751731E+03  0.61294152772E+03  0.00000000000E+00 0.  1.
         13    1    4    4    0    0 -0.89936131618E+02 -0.78024822099E+02  0.16418089301E+04  0.16461205772E+04  0.10566000000E+00 0. -1.
         -4    1    4    4    0  503 -0.26760267910E+03  0.98685874756E+02 -0.43457743166E+02  0.28851112834E+03  0.00000000000E+00 0. -1.
<mgrwt>
<rscale>  2 0.10809672E+04</rscale>
<asrwt>0</asrwt>
<pdfrwt beam="1">  1       21 0.40187368E+00 0.10899878E+04</pdfrwt>
<pdfrwt beam="2">  1       21 0.76425423E-01 0.10899878E+04</pdfrwt>
<totfact> 0.39614628E+00</totfact>
</mgrwt>
</event>
<event>
 8    1  0.7631533E-006  0.1064786E+04  0.7818608E-02  0.8716701E-01
         21   -1    0    0  501  502  0.00000000000E+00  0.00000000000E+00  0.96415808066E+03  0.96415808066E+03  0.00000000000E+00 0. -1.
         21   -1    0    0  502  503 -0.00000000000E+00 -0.00000000000E+00 -0.16682657926E+04  0.16682657926E+04  0.00000000000E+00 0. -1.
    9000010    2    1    2  501    0 -0.62100549384E+02 -0.25860720791E+03  0.36596458286E+03  0.11228462405E+04  0.10276767184E+04 0.  0.
   -9000010    2    1    2    0  503  0.62100549384E+02  0.25860720791E+03 -0.10700722948E+04  0.15095776328E+04  0.10310362492E+04 0.  0.
        -13    1    3    3    0    0  0.13455537776E+03 -0.19609650159E+03  0.69494097780E+03  0.73450797232E+03  0.10566000000E+00 0.  1.
          4    1    3    3  501    0 -0.19665592714E+03 -0.62510706327E+02 -0.32897639494E+03  0.38833826816E+03  0.00000000000E+00 0.  1.
         13    1    4    4    0    0  0.31367187870E+03 -0.29307682142E+03 -0.27549677366E+03  0.51008092907E+03  0.10566000000E+00 0. -1.
         -4    1    4    4    0  503 -0.25157132931E+03  0.55168402933E+03 -0.79457552116E+03  0.99949670373E+03  0.00000000000E+00 0. -1.
<mgrwt>
<rscale>  2 0.10639722E+04</rscale>
<asrwt>0</asrwt>
<pdfrwt beam="1">  1       21 0.14833201E+00 0.10647863E+04</pdfrwt>
<pdfrwt beam="2">  1       21 0.25665627E+00 0.10647863E+04</pdfrwt>
<totfact> 0.70190697E+00</totfact>
</mgrwt>
</event>
<event>
 8    1  0.7631533E-006  0.1062695E+04  0.7818608E-02  0.8722732E-01
         21   -1    0    0  501  502  0.00000000000E+00  0.00000000000E+00  0.69029872580E+03  0.69029872580E+03  0.00000000000E+00 0. -1.
         21   -1    0    0  502  503 -0.00000000000E+00 -0.00000000000E+00 -0.19506530040E+04  0.19506530040E+04  0.00000000000E+00 0. -1.
    9000010    2    1    2  501    0 -0.31659349546E+03  0.10433577728E+03 -0.77320199981E+02  0.10655040090E+04  0.10090604462E+04 0.  0.
   -9000010    2    1    2    0  503  0.31659349546E+03 -0.10433577728E+03 -0.11830340782E+04  0.15754477208E+04  0.98557013697E+03 0.  0.
        -13    1    3    3    0    0  0.20403713684E+03  0.39711208998E+03 -0.13235444772E+03  0.46566820399E+03  0.10566000000E+00 0.  1.
          4    1    3    3  501    0 -0.52063063230E+03 -0.29277631270E+03  0.55034247734E+02  0.59983580503E+03  0.00000000000E+00 0.  1.
         13    1    4    4    0    0  0.49118220305E+03 -0.31729371085E+03 -0.31378847565E+03  0.66362525129E+03  0.10566000000E+00 0. -1.
         -4    1    4    4    0  503 -0.17458870758E+03  0.21295793357E+03 -0.86924560255E+03  0.91182246947E+03  0.00000000000E+00 0. -1.
<mgrwt>
<rscale>  2 0.10570809E+04</rscale>
<asrwt>0</asrwt>
<pdfrwt beam="1">  1       21 0.10619981E+00 0.10626949E+04</pdfrwt>
<pdfrwt beam="2">  1       21 0.30010046E+00 0.10626949E+04</pdfrwt>
<totfact> 0.89285283E+00</totfact>
</mgrwt>
</event>
<event>
 8    1  0.7631533E-006  0.1075426E+04  0.7818608E-02  0.8736202E-01
         21   -1    0    0  503  502  0.00000000000E+00  0.00000000000E+00  0.15282143475E+04  0.15282143475E+04  0.00000000000E+00 0.  1.
         21   -1    0    0  501  503 -0.00000000000E+00 -0.00000000000E+00 -0.88537006939E+03  0.88537006939E+03  0.00000000000E+00 0.  1.
    9000010    2    1    2  501    0  0.39710773948E+03 -0.49031135417E+02 -0.25834080496E+03  0.11060200349E+04  0.99821928309E+03 0.  0.
   -9000010    2    1    2    0  502 -0.39710773948E+03  0.49031135417E+02  0.90118508302E+03  0.13075643819E+04  0.85877322387E+03 0.  0.
        -13    1    3    3    0    0  0.19482111587E+03  0.57509624852E+00 -0.64121628546E+03  0.67015963309E+03  0.10566000000E+00 0.  1.
          4    1    3    3  501    0  0.20228662361E+03 -0.49606231666E+02  0.38287548050E+03  0.43586040182E+03  0.00000000000E+00 0.  1.
         13    1    4    4    0    0 -0.39082648286E+03  0.92618432912E+01 -0.14296812149E+02  0.39119756063E+03  0.10566000000E+00 0. -1.
         -4    1    4    4    0  502 -0.62812566190E+01  0.39769292126E+02  0.91548189517E+03  0.91636682130E+03  0.00000000000E+00 0. -1.
<mgrwt>
<rscale>  2 0.10418856E+04</rscale>
<asrwt>0</asrwt>
<pdfrwt beam="1">  1       21 0.23510990E+00 0.10754257E+04</pdfrwt>
<pdfrwt beam="2">  1       21 0.13621078E+00 0.10754257E+04</pdfrwt>
<totfact> 0.12998604E+01</totfact>
</mgrwt>
</event>
<event>
 8    1  0.7631533E-006  0.1001910E+04  0.7818608E-02  0.8773856E-01
         21   -1    0    0  501  502  0.00000000000E+00  0.00000000000E+00  0.16057006710E+04  0.16057006710E+04  0.00000000000E+00 0.  1.
         21   -1    0    0  502  503 -0.00000000000E+00 -0.00000000000E+00 -0.74247977317E+03  0.74247977317E+03  0.00000000000E+00 0.  1.
    9000010    2    1    2  501    0 -0.29058216379E+02 -0.26341617467E+02 -0.39823850388E+02  0.10027012912E+04  0.10011421875E+04 0.  0.
   -9000010    2    1    2    0  503  0.29058216379E+02  0.26341617467E+02  0.90304474818E+03  0.13454791530E+04  0.99663738295E+03 0.  0.
        -13    1    3    3    0    0  0.46023187315E+03  0.14430123248E+03 -0.45616609849E+02  0.48447611810E+03  0.10566000000E+00 0.  1.
          4    1    3    3  501    0 -0.48929008953E+03 -0.17064284994E+03  0.57927594609E+01  0.51822517307E+03  0.00000000000E+00 0.  1.
         13    1    4    4    0    0 -0.97162690981E+01  0.37052031502E+03 -0.80874698292E+01  0.37073592766E+03  0.10566000000E+00 0. -1.
         -4    1    4    4    0  503  0.38774485477E+02 -0.34417869755E+03  0.91113221801E+03  0.97474322530E+03  0.00000000000E+00 0. -1.
<mgrwt>
<rscale>  2 0.10007829E+04</rscale>
<asrwt>0</asrwt>
<pdfrwt beam="1">  1       21 0.24703087E+00 0.10019101E+04</pdfrwt>
<pdfrwt beam="2">  1       21 0.11422766E+00 0.10019101E+04</pdfrwt>
<totfact> 0.17825829E+01</totfact>
</mgrwt>
</event>
<event>
 8    1  0.7631533E-006  0.1015420E+04  0.7818608E-02  0.8820491E-01
         21   -1    0    0  501  502  0.00000000000E+00  0.00000000000E+00  0.11836842777E+04  0.11836842777E+04  0.00000000000E+00 0. -1.
         21   -1    0    0  502  503 -0.00000000000E+00 -0.00000000000E+00 -0.90691640111E+03  0.90691640111E+03  0.00000000000E+00 0. -1.
    9000010    2    1    2  501    0 -0.57773298779E+01  0.58614572368E+02  0.66481532091E+03  0.12136955260E+04  0.10137102018E+04 0.  0.
   -9000010    2    1    2    0  503  0.57773298779E+01 -0.58614572368E+02 -0.38804744435E+03  0.87690515280E+03  0.78416374713E+03 0.  0.
        -13    1    3    3    0    0 -0.18220800829E+03 -0.23170058264E+03 -0.15011786131E+03  0.33078739656E+03  0.10566000000E+00 0.  1.
          4    1    3    3  501    0  0.17643067841E+03  0.29031515500E+03  0.81493318222E+03  0.88290812942E+03  0.00000000000E+00 0.  1.
         13    1    4    4    0    0 -0.19293042373E+03 -0.35784661430E+03 -0.10580604897E+03  0.42008484730E+03  0.10566000000E+00 0. -1.
         -4    1    4    4    0  503  0.19870775360E+03  0.29923204193E+03 -0.28224139538E+03  0.45682030551E+03  0.00000000000E+00 0. -1.
<mgrwt>
<rscale>  2 0.95255776E+03</rscale>
<asrwt>0</asrwt>
<pdfrwt beam="1">  1       21 0.18210527E+00 0.10154198E+04</pdfrwt>
<pdfrwt beam="2">  1       21 0.13952560E+00 0.10154198E+04</pdfrwt>
<totfact> 0.31420642E+01</totfact>
</mgrwt>
</event>
<event>
 8    1  0.7631533E-006  0.1016124E+04  0.7818608E-02  0.8760813E-01
         21   -1    0    0  501  502  0.00000000000E+00  0.00000000000E+00  0.17371103421E+04  0.17371103421E+04  0.00000000000E+00 0.  1.
         21   -1    0    0  502  503 -0.00000000000E+00 -0.00000000000E+00 -0.64075678606E+03  0.64075678606E+03  0.00000000000E+00 0.  1.
    9000010    2    1    2  501    0 -0.10291757153E+03  0.72395757611E+02  0.87985984320E+03  0.13441207892E+04  0.10083026232E+04 0.  0.
   -9000010    2    1    2    0  503  0.10291757153E+03 -0.72395757611E+02  0.21649371284E+03  0.10337463390E+04  0.10029600158E+04 0.  0.
        -13    1    3    3    0    0  0.33097901183E+03  0.35326164306E+03  0.31032002417E+03  0.57501254186E+03  0.10566000000E+00 0.  1.
          4    1    3    3  501    0 -0.43389658336E+03 -0.28086588545E+03  0.56953981903E+03  0.76910824734E+03  0.00000000000E+00 0.  1.
         13    1    4    4    0    0 -0.24858443570E+03  0.13345147601E+03  0.47415928503E+03  0.55175226041E+03  0.10566000000E+00 0. -1.
         -4    1    4    4    0  503  0.35150200723E+03 -0.20584723362E+03 -0.25766557219E+03  0.48199407856E+03  0.00000000000E+00 0. -1.
<mgrwt>
<rscale>  2 0.10147958E+04</rscale>
<asrwt>0</asrwt>
<pdfrwt beam="1">  1       21 0.26724774E+00 0.10161237E+04</pdfrwt>
<pdfrwt beam="2">  1       21 0.98577968E-01 0.10161237E+04</pdfrwt>
<totfact> 0.18818896E+01</totfact>
</mgrwt>
</event>
<event>
 8    1  0.7631533E-006  0.1020450E+04  0.7818608E-02  0.8756151E-01
         21   -1    0    0  503  502  0.00000000000E+00  0.00000000000E+00  0.99153014685E+03  0.99153014685E+03  0.00000000000E+00 0.  1.
         21   -1    0    0  501  503 -0.00000000000E+00 -0.00000000000E+00 -0.11971700086E+04  0.11971700086E+04  0.00000000000E+00 0.  1.
    9000010    2    1    2  501    0  0.18039530698E+03  0.14805850421E+03 -0.48948562193E+03  0.11317749980E+04  0.99340559922E+03 0.  0.
   -9000010    2    1    2    0  502 -0.18039530698E+03 -0.14805850421E+03  0.28384576014E+03  0.10569251575E+04  0.99098869093E+03 0.  0.
        -13    1    3    3    0    0  0.11780874571E+02  0.35058041750E+03 -0.70754733698E+03  0.78972695495E+03  0.10566000000E+00 0.  1.
          4    1    3    3  501    0  0.16861443241E+03 -0.20252191329E+03  0.21806171505E+03  0.34204804304E+03  0.00000000000E+00 0.  1.
         13    1    4    4    0    0 -0.63559779162E+02  0.42308790689E+03  0.18283256226E+03  0.46526441888E+03  0.10566000000E+00 0. -1.
         -4    1    4    4    0  502 -0.11683552782E+03 -0.57114641110E+03  0.10101319788E+03  0.59166073862E+03  0.00000000000E+00 0. -1.
<mgrwt>
<rscale>  2 0.10198614E+04</rscale>
<asrwt>0</asrwt>
<pdfrwt beam="1">  1       21 0.15254310E+00 0.10204501E+04</pdfrwt>
<pdfrwt beam="2">  1       21 0.18418000E+00 0.10204501E+04</pdfrwt>
<totfact> 0.23024403E+01</totfact>
</mgrwt>
</event>
<event>
 8    1  0.7631533E-006  0.1043139E+04  0.7818608E-02  0.8743429E-01
         21   -1    0    0  503  502  0.00000000000E+00  0.00000000000E+00  0.11942721487E+04  0.11942721487E+04  0.00000000000E+00 0. -1.
         21   -1    0    0  501  503 -0.00000000000E+00 -0.00000000000E+00 -0.91354734077E+03  0.91354734077E+03  0.00000000000E+00 0. -1.
    9000010    2    1    2  501    0  0.21074019190E+03  0.23383793228E+03  0.34179490824E+03  0.10628941776E+04  0.95594386159E+03 0.  0.
   -9000010    2    1    2    0  502 -0.21074019190E+03 -0.23383793228E+03 -0.61070100287E+02  0.10449253118E+04  0.99450879490E+03 0.  0.
        -13    1    3    3    0    0 -0.13730224213E+03 -0.16792829884E+03  0.46864793235E+03  0.51641331790E+03  0.10566000000E+00 0.  1.
          4    1    3    3  501    0  0.34804243402E+03  0.40176623111E+03 -0.12685302411E+03  0.54648085975E+03  0.00000000000E+00 0.  1.
         13    1    4    4    0    0  0.32824173873E+03  0.84291726922E+02 -0.21379550196E+03  0.40069472431E+03  0.10566000000E+00 0. -1.
         -4    1    4    4    0  502 -0.53898193062E+03 -0.31812965920E+03  0.15272540167E+03  0.64423058753E+03  0.00000000000E+00 0. -1.
<mgrwt>
<rscale>  2 0.10338406E+04</rscale>
<asrwt>0</asrwt>
<pdfrwt beam="1">  1       21 0.18373418E+00 0.10431392E+04</pdfrwt>
<pdfrwt beam="2">  1       21 0.14054574E+00 0.10431392E+04</pdfrwt>
<totfact> 0.29640157E+01</totfact>
</mgrwt>
</event>
<event>
 8    1  0.7631533E-006  0.9999636E+03  0.7818608E-02  0.8778465E-01
         21   -1    0    0  503  502  0.00000000000E+00  0.00000000000E+00  0.44176311055E+03  0.44176311055E+03  0.00000000000E+00 0.  1.
         21   -1    0    0  501  503 -0.00000000000E+00 -0.00000000000E+00 -0.24870186147E+04  0.24870186147E+04  0.00000000000E+00 0.  1.
    9000010    2    1    2  501    0 -0.19497347098E+02 -0.12868376141E+03 -0.14886695324E+04  0.17843538282E+04  0.97511125029E+03 0.  0.
   -9000010    2    1    2    0  502  0.19497347098E+02  0.12868376141E+03 -0.55658597180E+03  0.11444278971E+04  0.99145731662E+03 0.  0.
        -13    1    3    3    0    0  0.11286727542E+02  0.26084594842E+03 -0.16943082791E+02  0.26163921389E+03  0.10566000000E+00 0.  1.
          4    1    3    3  501    0 -0.30784074639E+02 -0.38952970983E+03 -0.14717264496E+04  0.15227146143E+04  0.00000000000E+00 0.  1.
         13    1    4    4    0    0 -0.17599033255E+03 -0.39601922701E+03 -0.17788148612E+03  0.46845027439E+03  0.10566000000E+00 0. -1.
         -4    1    4    4    0  502  0.19548767964E+03  0.52470298842E+03 -0.37870448568E+03  0.67597762272E+03  0.00000000000E+00 0. -1.
<mgrwt>
<rscale>  2 0.99588760E+03</rscale>
<asrwt>0</asrwt>
<pdfrwt beam="1">  1       21 0.67963556E-01 0.99996363E+03</pdfrwt>
<pdfrwt beam="2">  1       21 0.38261824E+00 0.99996363E+03</pdfrwt>
<totfact> 0.72841170E+00</totfact>
</mgrwt>
</event>
<event>
 8    1  0.7631533E-006  0.1010176E+04  0.7818608E-02  0.8766430E-01
         21   -1    0    0  501  502  0.00000000000E+00  0.00000000000E+00  0.13205434786E+04  0.13205434786E+04  0.00000000000E+00 0. -1.
         21   -1    0    0  502  503 -0.00000000000E+00 -0.00000000000E+00 -0.84034439518E+03  0.84034439518E+03  0.00000000000E+00 0. -1.
    9000010    2    1    2  501    0 -0.80745633296E+02  0.47898626575E+02  0.55696335045E+03  0.11535438651E+04  0.10058037280E+04 0.  0.
   -9000010    2    1    2    0  503  0.80745633296E+02 -0.47898626575E+02 -0.76764267006E+02  0.10073440087E+04  0.10000175316E+04 0.  0.
        -13    1    3    3    0    0 -0.87493223401E+02  0.30408653037E+03 -0.18639981154E+03  0.36724458199E+03  0.10566000000E+00 0.  1.
          4    1    3    3  501    0  0.67475901054E+01 -0.25618790379E+03  0.74336316199E+03  0.78629928311E+03  0.00000000000E+00 0.  1.
         13    1    4    4    0    0 -0.22573688431E+03 -0.42427894294E+03  0.99802766004E+02  0.49084658054E+03  0.10566000000E+00 0. -1.
         -4    1    4    4    0  503  0.30648251761E+03  0.37638031637E+03 -0.17656703301E+03  0.51649742816E+03  0.00000000000E+00 0. -1.
<mgrwt>
<rscale>  2 0.10087325E+04</rscale>
<asrwt>0</asrwt>
<pdfrwt beam="1">  1       21 0.20316054E+00 0.10101759E+04</pdfrwt>
<pdfrwt beam="2">  1       21 0.12928375E+00 0.10101759E+04</pdfrwt>
<totfact> 0.26777826E+01</totfact>
</mgrwt>
</event>
<event>
 8    1  0.7631533E-006  0.1046370E+04  0.7818608E-02  0.8762155E-01
         21   -1    0    0  503  502  0.00000000000E+00  0.00000000000E+00  0.13269623055E+04  0.13269623055E+04  0.00000000000E+00 0. -1.
         21   -1    0    0  501  503 -0.00000000000E+00 -0.00000000000E+00 -0.86344489230E+03  0.86344489230E+03  0.00000000000E+00 0. -1.
    9000010    2    1    2  501    0 -0.64338183565E+02 -0.27683821328E+03  0.65103647244E+03  0.11273674417E+04  0.87540279982E+03 0.  0.
   -9000010    2    1    2    0  502  0.64338183565E+02  0.27683821328E+03 -0.18751905925E+03  0.10630397561E+04  0.10070309465E+04 0.  0.
        -13    1    3    3    0    0 -0.11941681768E+03  0.30640725773E+03  0.29528113828E+03  0.44196916829E+03  0.10566000000E+00 0.  1.
          4    1    3    3  501    0  0.55078634120E+02 -0.58324547101E+03  0.35575533416E+03  0.68539827339E+03  0.00000000000E+00 0.  1.
         13    1    4    4    0    0  0.49203889771E+03  0.35940599828E+03 -0.81730842886E+02  0.61478035940E+03  0.10566000000E+00 0. -1.
         -4    1    4    4    0  502 -0.42770071415E+03 -0.82567785001E+02 -0.10578821637E+03  0.44825939670E+03  0.00000000000E+00 0. -1.
<mgrwt>
<rscale>  2 0.10133427E+04</rscale>
<asrwt>0</asrwt>
<pdfrwt beam="1">  1       21 0.20414805E+00 0.10463700E+04</pdfrwt>
<pdfrwt beam="2">  1       21 0.13283768E+00 0.10463700E+04</pdfrwt>
<totfact> 0.24125303E+01</totfact>
</mgrwt>
</event>
<event>
 8    1  0.7631533E-006  0.1023360E+04  0.7818608E-02  0.8756311E-01
         21   -1    0    0  501  502  0.00000000000E+00  0.00000000000E+00  0.13631441876E+04  0.13631441876E+04  0.00000000000E+00 0.  1.
         21   -1    0    0  502  503 -0.00000000000E+00 -0.00000000000E+00 -0.78618435057E+03  0.78618435057E+03  0.00000000000E+00 0.  1.
    9000010    2    1    2  501    0 -0.58005937206E+02  0.18019260448E+03  0.49232590157E+03  0.11224744173E+04  0.99082287053E+03 0.  0.
   -9000010    2    1    2    0  503  0.58005937206E+02 -0.18019260448E+03  0.84633935441E+02  0.10268541208E+04  0.10056999647E+04 0.  0.
        -13    1    3    3    0    0 -0.12876299724E+03  0.36422985439E+03  0.72255971985E+03  0.81935087490E+03  0.10566000000E+00 0.  1.
          4    1    3    3  501    0  0.70757060037E+02 -0.18403724991E+03 -0.23023381828E+03  0.30312354244E+03  0.00000000000E+00 0.  1.
         13    1    4    4    0    0 -0.35887273118E+03  0.23681636499E+03  0.79089181418E+02  0.43718044066E+03  0.10566000000E+00 0. -1.
         -4    1    4    4    0  503  0.41687866839E+03 -0.41700896947E+03  0.55447540239E+01  0.58967368015E+03  0.00000000000E+00 0. -1.
<mgrwt>
<rscale>  2 0.10196865E+04</rscale>
<asrwt>0</asrwt>
<pdfrwt beam="1">  1       21 0.20971449E+00 0.10233604E+04</pdfrwt>
<pdfrwt beam="2">  1       21 0.12095144E+00 0.10233604E+04</pdfrwt>
<totfact> 0.28723847E+01</totfact>
</mgrwt>
</event>
<event>
 8    1  0.7631533E-006  0.1011191E+04  0.7818608E-02  0.8767275E-01
         21   -1    0    0  501  502  0.00000000000E+00  0.00000000000E+00  0.66299393450E+03  0.66299393450E+03  0.00000000000E+00 0. -1.
         21   -1    0    0  502  503 -0.00000000000E+00 -0.00000000000E+00 -0.18542787219E+04  0.18542787219E+04  0.00000000000E+00 0. -1.
    9000010    2    1    2  501    0  0.59480026358E+02 -0.77111860091E+01 -0.59495919859E+02  0.99955915866E+03  0.99598263602E+03 0.  0.
   -9000010    2    1    2    0  503 -0.59480026358E+02  0.77111860091E+01 -0.11317888675E+04  0.15177134977E+04  0.10094111574E+04 0.  0.
        -13    1    3    3    0    0 -0.44947788157E+02  0.43824336829E+03 -0.24652219504E+03  0.50482745302E+03  0.10566000000E+00 0.  1.
          4    1    3    3  501    0  0.10442781451E+03 -0.44595455430E+03  0.18702627518E+03  0.49473170563E+03  0.00000000000E+00 0.  1.
         13    1    4    4    0    0 -0.44162877375E+03 -0.25948337374E+03 -0.78192743241E+03  0.93476099393E+03  0.10566000000E+00 0. -1.
         -4    1    4    4    0  503  0.38214874739E+03  0.26719455975E+03 -0.34986143511E+03  0.58295250379E+03  0.00000000000E+00 0. -1.
<mgrwt>
<rscale>  2 0.10078236E+04</rscale>
<asrwt>0</asrwt>
<pdfrwt beam="1">  1       21 0.10199907E+00 0.10111915E+04</pdfrwt>
<pdfrwt beam="2">  1       21 0.28527365E+00 0.10111915E+04</pdfrwt>
<totfact> 0.12810390E+01</totfact>
</mgrwt>
</event>
<event>
 8    1  0.7631533E-006  0.1041088E+04  0.7818608E-02  0.8752980E-01
         21   -1    0    0  501  502  0.00000000000E+00  0.00000000000E+00  0.14189677055E+04  0.14189677055E+04  0.00000000000E+00 0. -1.
         21   -1    0    0  502  503 -0.00000000000E+00 -0.00000000000E+00 -0.92515585291E+03  0.92515585291E+03  0.00000000000E+00 0. -1.
    9000010    2    1    2  501    0  0.24240776755E+03  0.13559051991E+03  0.80020939357E+03  0.12588849490E+04  0.93129475806E+03 0.  0.
   -9000010    2    1    2    0  503 -0.24240776755E+03 -0.13559051991E+03 -0.30639754095E+03  0.10852386094E+04  0.10033529147E+04 0.  0.
        -13    1    3    3    0    0  0.49235485470E+02  0.48865475996E+03  0.18725421771E+03  0.52561560163E+03  0.10566000000E+00 0.  1.
          4    1    3    3  501    0  0.19317228208E+03 -0.35306424005E+03  0.61295517587E+03  0.73326934737E+03  0.00000000000E+00 0.  1.
         13    1    4    4    0    0 -0.36521535372E+03 -0.24913542267E+03 -0.60122573507E+03  0.74627281145E+03  0.10566000000E+00 0. -1.
         -4    1    4    4    0  503  0.12280758617E+03  0.11354490276E+03  0.29482819412E+03  0.33896579800E+03  0.00000000000E+00 0. -1.
<mgrwt>
<rscale>  2 0.10233241E+04</rscale>
<asrwt>0</asrwt>
<pdfrwt beam="1">  1       21 0.21830272E+00 0.10410876E+04</pdfrwt>
<pdfrwt beam="2">  1       21 0.14233167E+00 0.10410876E+04</pdfrwt>
<totfact> 0.15347711E+01</totfact>
</mgrwt>
</event>
<event>
 8    1  0.7631533E-006  0.1068732E+04  0.7818608E-02  0.8713735E-01
         21   -1    0    0  503  502  0.00000000000E+00  0.00000000000E+00  0.11319449721E+04  0.11319449721E+04  0.00000000000E+00 0. -1.
         21   -1    0    0  501  503 -0.00000000000E+00 -0.00000000000E+00 -0.20147148820E+04  0.20147148820E+04  0.00000000000E+00 0. -1.
    9000010    2    1    2  501    0  0.38844675539E+03 -0.87317766019E+02 -0.15552112954E+04  0.18839783895E+04  0.98599042844E+03 0.  0.
   -9000010    2    1    2    0  502 -0.38844675539E+03  0.87317766019E+02  0.67244138546E+03  0.12626814646E+04  0.99180229381E+03 0.  0.
        -13    1    3    3    0    0 -0.24116570796E+03 -0.30394970607E+03 -0.69750499446E+03  0.79816010360E+03  0.10566000000E+00 0.  1.
          4    1    3    3  501    0  0.62961246335E+03  0.21663194005E+03 -0.85770630092E+03  0.10858182859E+04  0.00000000000E+00 0.  1.
         13    1    4    4    0    0 -0.32245954002E+03  0.33470821541E+03  0.83766311891E+03  0.95796098895E+03  0.10566000000E+00 0. -1.
         -4    1    4    4    0  502 -0.65987215373E+02 -0.24739044939E+03 -0.16522173345E+03  0.30472047560E+03  0.00000000000E+00 0. -1.
<mgrwt>
<rscale>  2 0.10673811E+04</rscale>
<asrwt>0</asrwt>
<pdfrwt beam="1">  1       21 0.17414538E+00 0.10687315E+04</pdfrwt>
<pdfrwt beam="2">  1       21 0.30995613E+00 0.10687315E+04</pdfrwt>
<totfact> 0.17529516E+00</totfact>
</mgrwt>
</event>
<event>
 8    1  0.7631533E-006  0.1031724E+04  0.7818608E-02  0.8754098E-01
         21   -1    0    0  501  502  0.00000000000E+00  0.00000000000E+00  0.25332644901E+04  0.25332644901E+04  0.00000000000E+00 0. -1.
         21   -1    0    0  502  503 -0.00000000000E+00 -0.00000000000E+00 -0.41713178475E+03  0.41713178475E+03  0.00000000000E+00 0. -1.
    9000010    2    1    2  501    0 -0.43916864637E+02  0.23595497586E+02  0.12916513231E+04  0.16297053758E+04  0.99251752273E+03 0.  0.
   -9000010    2    1    2    0  503  0.43916864637E+02 -0.23595497586E+02  0.82448138229E+03  0.13206908991E+04  0.10305190259E+04 0.  0.
        -13    1    3    3    0    0  0.96744704420E+02  0.14407340853E+03 -0.11676332542E+03  0.20916589159E+03  0.10566000000E+00 0.  1.
          4    1    3    3  501    0 -0.14066156906E+03 -0.12047791094E+03  0.14084146485E+04  0.14205394842E+04  0.00000000000E+00 0.  1.
         13    1    4    4    0    0 -0.45257709496E+03 -0.12872951464E+03  0.60835055164E+03  0.76908238809E+03  0.10566000000E+00 0. -1.
         -4    1    4    4    0  503  0.49649395960E+03  0.10513401705E+03  0.21613083065E+03  0.55160851101E+03  0.00000000000E+00 0. -1.
<mgrwt>
<rscale>  2 0.10221016E+04</rscale>
<asrwt>0</asrwt>
<pdfrwt beam="1">  1       21 0.38973299E+00 0.10317242E+04</pdfrwt>
<pdfrwt beam="2">  1       21 0.64174122E-01 0.10317242E+04</pdfrwt>
<totfact> 0.73766621E+00</totfact>
</mgrwt>
</event>
<event>
 8    1  0.7631533E-006  0.1038588E+04  0.7818608E-02  0.8741902E-01
         21   -1    0    0  503  502  0.00000000000E+00  0.00000000000E+00  0.11627838937E+04  0.11627838937E+04  0.00000000000E+00 0.  1.
         21   -1    0    0  501  503 -0.00000000000E+00 -0.00000000000E+00 -0.99937973240E+03  0.99937973240E+03  0.00000000000E+00 0.  1.
    9000010    2    1    2  501    0  0.21505456672E+03  0.12541274991E+03 -0.22855991725E+03  0.10634396521E+04  0.10083091954E+04 0.  0.
   -9000010    2    1    2    0  502 -0.21505456672E+03 -0.12541274991E+03  0.39196407859E+03  0.10987239740E+04  0.99578195788E+03 0.  0.
        -13    1    3    3    0    0  0.12885209651E+03 -0.40816921705E+03 -0.29359543979E+03  0.51904071705E+03  0.10566000000E+00 0.  1.
          4    1    3    3  501    0  0.86202470202E+02  0.53358196696E+03  0.65035522545E+02  0.54439893509E+03  0.00000000000E+00 0.  1.
         13    1    4    4    0    0 -0.56698198654E+03 -0.27477058286E+03  0.15467799281E+03  0.64876246723E+03  0.10566000000E+00 0. -1.
         -4    1    4    4    0  502  0.35192741982E+03  0.14935783294E+03  0.23728608578E+03  0.44996150678E+03  0.00000000000E+00 0. -1.
<mgrwt>
<rscale>  2 0.10355348E+04</rscale>
<asrwt>0</asrwt>
<pdfrwt beam="1">  1       21 0.17888983E+00 0.10385876E+04</pdfrwt>
<pdfrwt beam="2">  1       21 0.15375073E+00 0.10385876E+04</pdfrwt>
<totfact> 0.24702429E+01</totfact>
</mgrwt>
</event>
<event>
 8    1  0.7631533E-006  0.1090915E+04  0.7818608E-02  0.8695273E-01
         21   -1    0    0  501  502  0.00000000000E+00  0.00000000000E+00  0.11388998043E+04  0.11388998043E+04  0.00000000000E+00 0.  1.
         21   -1    0    0  502  503 -0.00000000000E+00 -0.00000000000E+00 -0.11766831534E+04  0.11766831534E+04  0.00000000000E+00 0.  1.
    9000010    2    1    2  501    0 -0.27927523793E+03 -0.31887577454E+03  0.37967986496E+03  0.11475203615E+04  0.99647868116E+03 0.  0.
   -9000010    2    1    2    0  503  0.27927523793E+03  0.31887577454E+03 -0.41746321411E+03  0.11680625963E+04  0.10051956405E+04 0.  0.
        -13    1    3    3    0    0 -0.46814320126E+03 -0.16747758605E+02 -0.16500037400E+03  0.49665247295E+03  0.10566000000E+00 0.  1.
          4    1    3    3  501    0  0.18886796333E+03 -0.30212801594E+03  0.54468023896E+03  0.65086788851E+03  0.00000000000E+00 0.  1.
         13    1    4    4    0    0 -0.12339645921E+03 -0.30377982918E+03 -0.24351963752E+02  0.32878853396E+03  0.10566000000E+00 0. -1.
         -4    1    4    4    0  503  0.40267169714E+03  0.62265560372E+03 -0.39311125036E+03  0.83927406232E+03  0.00000000000E+00 0. -1.
<mgrwt>
<rscale>  2 0.10889024E+04</rscale>
<asrwt>0</asrwt>
<pdfrwt beam="1">  1       21 0.17521535E+00 0.10909146E+04</pdfrwt>
<pdfrwt beam="2">  1       21 0.18102818E+00 0.10909146E+04</pdfrwt>
<totfact> 0.15389160E+01</totfact>
</mgrwt>
</event>
<event>
 8    1  0.7631533E-006  0.1018552E+04  0.7818608E-02  0.8760354E-01
         21   -1    0    0  503  502  0.00000000000E+00  0.00000000000E+00  0.14032251471E+04  0.14032251471E+04  0.00000000000E+00 0.  1.
         21   -1    0    0  501  503 -0.00000000000E+00 -0.00000000000E+00 -0.96096331790E+03  0.96096331790E+03  0.00000000000E+00 0.  1.
    9000010    2    1    2  501    0 -0.16130338763E+03  0.15303092986E+03 -0.35952788791E+03  0.10679192175E+04  0.98069052432E+03 0.  0.
   -9000010    2    1    2    0  502  0.16130338763E+03 -0.15303092986E+03  0.80178971711E+03  0.12962692475E+04  0.99398690296E+03 0.  0.
        -13    1    3    3    0    0 -0.21700414542E+03  0.22884735148E+03 -0.67160660297E+03  0.74196856384E+03  0.10566000000E+00 0.  1.
          4    1    3    3  501    0  0.55700757789E+02 -0.75816421621E+02  0.31207871506E+03  0.32595065363E+03  0.00000000000E+00 0.  1.
         13    1    4    4    0    0 -0.37204718224E+03 -0.20904279363E+02  0.66770140647E+02  0.37856882803E+03  0.10566000000E+00 0. -1.
         -4    1    4    4    0  502  0.53335056987E+03 -0.13212665050E+03  0.73501957646E+03  0.91770041949E+03  0.00000000000E+00 0. -1.
<mgrwt>
<rscale>  2 0.10152930E+04</rscale>
<asrwt>0</asrwt>
<pdfrwt beam="1">  1       21 0.21588079E+00 0.10185515E+04</pdfrwt>
<pdfrwt beam="2">  1       21 0.14784051E+00 0.10185515E+04</pdfrwt>
<totfact> 0.14345190E+01</totfact>
</mgrwt>
</event>
<event>
 8    1  0.7631533E-006  0.1279505E+04  0.7818608E-02  0.8557237E-01
         21   -1    0    0  501  502  0.00000000000E+00  0.00000000000E+00  0.17464643571E+04  0.17464643571E+04  0.00000000000E+00 0.  1.
         21   -1    0    0  502  503 -0.00000000000E+00 -0.00000000000E+00 -0.12158839918E+04  0.12158839918E+04  0.00000000000E+00 0.  1.
    9000010    2    1    2  501    0 -0.65007084819E+03  0.43725914339E+03  0.10121217541E+04  0.15952291701E+04  0.95214389354E+03 0.  0.
   -9000010    2    1    2    0  503  0.65007084819E+03 -0.43725914339E+03 -0.48154138881E+03  0.13671191788E+04  0.10116051966E+04 0.  0.
        -13    1    3    3    0    0 -0.65526821552E+03  0.55342460889E+03  0.11372400803E+04  0.14244192653E+04  0.10566000000E+00 0.  1.
          4    1    3    3  501    0  0.51973673333E+01 -0.11616546550E+03 -0.12511832627E+03  0.17080990478E+03  0.00000000000E+00 0.  1.
         13    1    4    4    0    0  0.37298565313E+03  0.27383777521E+03  0.37257922753E+01  0.46273028566E+03  0.10566000000E+00 0. -1.
         -4    1    4    4    0  503  0.27708519506E+03 -0.71109691860E+03 -0.48526718109E+03  0.90438889313E+03  0.00000000000E+00 0. -1.
<mgrwt>
<rscale>  2 0.12677247E+04</rscale>
<asrwt>0</asrwt>
<pdfrwt beam="1">  1       21 0.26868682E+00 0.12795049E+04</pdfrwt>
<pdfrwt beam="2">  1       21 0.18705908E+00 0.12795049E+04</pdfrwt>
<totfact> 0.25745316E+00</totfact>
</mgrwt>
</event>
<event>
 8    1  0.7631533E-006  0.9781761E+03  0.7818608E-02  0.8816604E-01
         21   -1    0    0  501  502  0.00000000000E+00  0.00000000000E+00  0.11840883783E+04  0.11840883783E+04  0.00000000000E+00 0. -1.
         21   -1    0    0  502  503 -0.00000000000E+00 -0.00000000000E+00 -0.74092303477E+03  0.74092303477E+03  0.00000000000E+00 0. -1.
    9000010    2    1    2  501    0  0.83270265058E+02  0.37445778251E+02  0.18123496037E+03  0.91237325237E+03  0.88951825020E+03 0.  0.
   -9000010    2    1    2    0  503 -0.83270265058E+02 -0.37445778251E+02  0.26193038312E+03  0.10126381607E+04  0.97390574261E+03 0.  0.
        -13    1    3    3    0    0 -0.23002043646E+03 -0.24743011290E+03  0.32144036527E+03  0.46632068531E+03  0.10566000000E+00 0.  1.
          4    1    3    3  501    0  0.31329070152E+03  0.28487589115E+03 -0.14020540490E+03  0.44605256706E+03  0.00000000000E+00 0.  1.
         13    1    4    4    0    0  0.33154541761E+03 -0.13455610228E+03 -0.17850889208E+03  0.39986640808E+03  0.10566000000E+00 0. -1.
         -4    1    4    4    0  503 -0.41481568266E+03  0.97110324033E+02  0.44043927521E+03  0.61277175258E+03  0.00000000000E+00 0. -1.
<mgrwt>
<rscale>  2 0.95646802E+03</rscale>
<asrwt>0</asrwt>
<pdfrwt beam="1">  1       21 0.18216744E+00 0.97817612E+03</pdfrwt>
<pdfrwt beam="2">  1       21 0.11398816E+00 0.97817612E+03</pdfrwt>
<totfact> 0.56342182E+01</totfact>
</mgrwt>
</event>
<event>
 8    1  0.7631533E-006  0.1014488E+04  0.7818608E-02  0.8761590E-01
         21   -1    0    0  503  502  0.00000000000E+00  0.00000000000E+00  0.67723040346E+03  0.67723040346E+03  0.00000000000E+00 0.  1.
         21   -1    0    0  501  503 -0.00000000000E+00 -0.00000000000E+00 -0.16680883921E+04  0.16680883921E+04  0.00000000000E+00 0.  1.
    9000010    2    1    2  501    0 -0.16089178818E+03 -0.27487162981E+02 -0.84845353620E+03  0.13208846220E+04  0.99911013910E+03 0.  0.
   -9000010    2    1    2    0  502  0.16089178818E+03  0.27487162981E+02 -0.14240445243E+03  0.10244341735E+04  0.10012715097E+04 0.  0.
        -13    1    3    3    0    0  0.23520487701E+03 -0.25235175852E+02  0.12670329858E+03  0.26835030335E+03  0.10566000000E+00 0.  1.
          4    1    3    3  501    0 -0.39609666520E+03 -0.22519871283E+01 -0.97515683478E+03  0.10525343187E+04  0.00000000000E+00 0.  1.
         13    1    4    4    0    0  0.40837920313E+03 -0.56175901495E+02 -0.45703915828E+03  0.61547876391E+03  0.10566000000E+00 0. -1.
         -4    1    4    4    0  502 -0.24748741495E+03  0.83663064476E+02  0.31463470585E+03  0.40895540960E+03  0.00000000000E+00 0. -1.
<mgrwt>
<rscale>  2 0.10139545E+04</rscale>
<asrwt>0</asrwt>
<pdfrwt beam="1">  1       21 0.10418929E+00 0.10144882E+04</pdfrwt>
<pdfrwt beam="2">  1       21 0.25662898E+00 0.10144882E+04</pdfrwt>
<totfact> 0.19405665E+01</totfact>
</mgrwt>
</event>
<event>
 8    1  0.7631533E-006  0.1046125E+04  0.7818608E-02  0.8746462E-01
         21   -1    0    0  503  502  0.00000000000E+00  0.00000000000E+00  0.82373708578E+03  0.82373708578E+03  0.00000000000E+00 0. -1.
         21   -1    0    0  501  503 -0.00000000000E+00 -0.00000000000E+00 -0.12720360625E+04  0.12720360625E+04  0.00000000000E+00 0. -1.
    9000010    2    1    2  501    0  0.17327002109E+03 -0.21331437999E+03 -0.99378088014E+02  0.10508341963E+04  0.10093814833E+04 0.  0.
   -9000010    2    1    2    0  502 -0.17327002109E+03  0.21331437999E+03 -0.34892088869E+03  0.10449389519E+04  0.94584676443E+03 0.  0.
        -13    1    3    3    0    0  0.43135343588E+03  0.30458788082E+01 -0.40820845712E+03  0.59389327295E+03  0.10566000000E+00 0.  1.
          4    1    3    3  501    0 -0.25808341480E+03 -0.21636025879E+03  0.30883036911E+03  0.45694092338E+03  0.00000000000E+00 0.  1.
         13    1    4    4    0    0  0.95915662293E+02  0.27985928350E+03  0.24846407833E+03  0.38633591888E+03  0.10566000000E+00 0. -1.
         -4    1    4    4    0  502 -0.26918568338E+03 -0.66544903515E+02 -0.59738496701E+03  0.65860303304E+03  0.00000000000E+00 0. -1.
<mgrwt>
<rscale>  2 0.10304869E+04</rscale>
<asrwt>0</asrwt>
<pdfrwt beam="1">  1       21 0.12672878E+00 0.10461245E+04</pdfrwt>
<pdfrwt beam="2">  1       21 0.19569786E+00 0.10461245E+04</pdfrwt>
<totfact> 0.32169540E+01</totfact>
</mgrwt>
</event>
<event>
 8    1  0.7631533E-006  0.1034194E+04  0.7818608E-02  0.8745189E-01
         21   -1    0    0  501  502  0.00000000000E+00  0.00000000000E+00  0.38954574022E+03  0.38954574022E+03  0.00000000000E+00 0.  1.
         21   -1    0    0  502  503 -0.00000000000E+00 -0.00000000000E+00 -0.35097741385E+04  0.35097741385E+04  0.00000000000E+00 0.  1.
    9000010    2    1    2  501    0  0.10914503749E+03 -0.19341805831E+03 -0.64145557368E+03  0.12169725630E+04  0.10100662264E+04 0.  0.
   -9000010    2    1    2    0  503 -0.10914503749E+03  0.19341805831E+03 -0.24787728246E+04  0.26823473157E+04  0.10006743834E+04 0.  0.
        -13    1    3    3    0    0 -0.93482072457E+02  0.23471504518E+03 -0.69575711517E+03  0.74020809559E+03  0.10566000000E+00 0.  1.
          4    1    3    3  501    0  0.20262710995E+03 -0.42813310349E+03  0.54301541492E+02  0.47676446742E+03  0.00000000000E+00 0.  1.
         13    1    4    4    0    0  0.33903807583E+03 -0.40224109576E+02 -0.32963800249E+03  0.47457983491E+03  0.10566000000E+00 0. -1.
         -4    1    4    4    0  503 -0.44818311332E+03  0.23364216789E+03 -0.21491348221E+04  0.22077674808E+04  0.00000000000E+00 0. -1.
<mgrwt>
<rscale>  2 0.10318935E+04</rscale>
<asrwt>0</asrwt>
<pdfrwt beam="1">  1       21 0.59930115E-01 0.10341939E+04</pdfrwt>
<pdfrwt beam="2">  1       21 0.53996524E+00 0.10341939E+04</pdfrwt>
<totfact> 0.77373456E-01</totfact>
</mgrwt>
</event>
<event>
 8    1  0.7631533E-006  0.9984498E+03  0.7818608E-02  0.8779011E-01
         21   -1    0    0  503  502  0.00000000000E+00  0.00000000000E+00  0.12239924421E+04  0.12239924421E+04  0.00000000000E+00 0. -1.
         21   -1    0    0  501  503 -0.00000000000E+00 -0.00000000000E+00 -0.85815798827E+03  0.85815798827E+03  0.00000000000E+00 0. -1.
    9000010    2    1    2  501    0  0.55963062910E+02  0.13824861547E+02 -0.78963376224E+02  0.98910555433E+03  0.98426195274E+03 0.  0.
   -9000010    2    1    2    0  502 -0.55963062910E+02 -0.13824861547E+02  0.44479783003E+03  0.10930448760E+04  0.99678432983E+03 0.  0.
        -13    1    3    3    0    0  0.37383095464E+03  0.33415803924E+03 -0.16862624801E+03  0.52900472636E+03  0.10566000000E+00 0.  1.
          4    1    3    3  501    0 -0.31786789173E+03 -0.32033317769E+03  0.89662871785E+02  0.46010082797E+03  0.00000000000E+00 0.  1.
         13    1    4    4    0    0  0.28937070932E+02  0.33184829219E+03 -0.17652189109E+03  0.37698890210E+03  0.10566000000E+00 0. -1.
         -4    1    4    4    0  502 -0.84900133842E+02 -0.34567315374E+03  0.62131972113E+03  0.71605597393E+03  0.00000000000E+00 0. -1.
<mgrwt>
<rscale>  2 0.99530971E+03</rscale>
<asrwt>0</asrwt>
<pdfrwt beam="1">  1       21 0.18830653E+00 0.99844979E+03</pdfrwt>
<pdfrwt beam="2">  1       21 0.13202431E+00 0.99844979E+03</pdfrwt>
<totfact> 0.33076628E+01</totfact>
</mgrwt>
</event>
<event>
 8    1  0.7631533E-006  0.1043923E+04  0.7818608E-02  0.8734681E-01
         21   -1    0    0  503  502  0.00000000000E+00  0.00000000000E+00  0.10364528950E+04  0.10364528950E+04  0.00000000000E+00 0.  1.
         21   -1    0    0  501  503 -0.00000000000E+00 -0.00000000000E+00 -0.17920026130E+04  0.17920026130E+04  0.00000000000E+00 0.  1.
    9000010    2    1    2  501    0 -0.41920619175E+02 -0.28637948128E+03 -0.12878801488E+04  0.16578329401E+04  0.10029976241E+04 0.  0.
   -9000010    2    1    2    0  502  0.41920619175E+02  0.28637948128E+03  0.53233043091E+03  0.11706225678E+04  0.10016041948E+04 0.  0.
        -13    1    3    3    0    0  0.92659818793E+01  0.37721637833E+03 -0.50162204315E+03  0.62769637552E+03  0.10566000000E+00 0.  1.
          4    1    3    3  501    0 -0.51186601054E+02 -0.66359585961E+03 -0.78625810569E+03  0.10301365646E+04  0.00000000000E+00 0.  1.
         13    1    4    4    0    0  0.42548198003E+03  0.28210113911E+02  0.56415095241E+03  0.70717539135E+03  0.10566000000E+00 0. -1.
         -4    1    4    4    0  502 -0.38356136086E+03  0.25816936737E+03 -0.31820521505E+02  0.46344717648E+03  0.00000000000E+00 0. -1.
<mgrwt>
<rscale>  2 0.10435879E+04</rscale>
<asrwt>0</asrwt>
<pdfrwt beam="1">  1       21 0.15945429E+00 0.10439228E+04</pdfrwt>
<pdfrwt beam="2">  1       21 0.27569271E+00 0.10439228E+04</pdfrwt>
<totfact> 0.41098019E+00</totfact>
</mgrwt>
</event>
<event>
 8    1  0.7631533E-006  0.9720838E+03  0.7818608E-02  0.8810002E-01
         21   -1    0    0  503  502  0.00000000000E+00  0.00000000000E+00  0.74548003216E+03  0.74548003216E+03  0.00000000000E+00 0. -1.
         21   -1    0    0  501  503 -0.00000000000E+00 -0.00000000000E+00 -0.13606595327E+04  0.13606595327E+04  0.00000000000E+00 0. -1.
    9000010    2    1    2  501    0 -0.91397477026E+02 -0.17320719382E+02  0.23372246847E+02  0.97236469708E+03  0.96762251734E+03 0.  0.
   -9000010    2    1    2    0  502  0.91397477026E+02  0.17320719382E+02 -0.63855174735E+03  0.11337748678E+04  0.93222508579E+03 0.  0.
        -13    1    3    3    0    0 -0.37200320286E+03 -0.36506684184E+03  0.56684479073E+02  0.52428362866E+03  0.10566000000E+00 0.  1.
          4    1    3    3  501    0  0.28060572584E+03  0.34774612246E+03 -0.33312232226E+02  0.44808106842E+03  0.00000000000E+00 0.  1.
         13    1    4    4    0    0  0.28175002423E+03 -0.37967337264E+03 -0.20321705887E+03  0.51461843168E+03  0.10566000000E+00 0. -1.
         -4    1    4    4    0  502 -0.19035254721E+03  0.39699409202E+03 -0.43533468848E+03  0.61915643607E+03  0.00000000000E+00 0. -1.
<mgrwt>
<rscale>  2 0.96315426E+03</rscale>
<asrwt>0</asrwt>
<pdfrwt beam="1">  1       21 0.11468924E+00 0.97208376E+03</pdfrwt>
<pdfrwt beam="2">  1       21 0.20933223E+00 0.97208376E+03</pdfrwt>
<totfact> 0.33908766E+01</totfact>
</mgrwt>
</event>
<event>
 8    1  0.7631533E-006  0.1049670E+04  0.7818608E-02  0.8729780E-01
         21   -1    0    0  501  502  0.00000000000E+00  0.00000000000E+00  0.73750450180E+03  0.73750450180E+03  0.00000000000E+00 0. -1.
         21   -1    0    0  502  503 -0.00000000000E+00 -0.00000000000E+00 -0.15246975566E+04  0.15246975566E+04  0.00000000000E+00 0. -1.
    9000010    2    1    2  501    0 -0.17373680704E+03  0.21232860300E+03 -0.22513107855E+03  0.10735411697E+04  0.10131824746E+04 0.  0.
   -9000010    2    1    2    0  503  0.17373680704E+03 -0.21232860300E+03 -0.56206197626E+03  0.11886608887E+04  0.10108081566E+04 0.  0.
        -13    1    3    3    0    0  0.19067064560E+03  0.35044092905E+03  0.24090006580E+03  0.46604398152E+03  0.10566000000E+00 0.  1.
          4    1    3    3  501    0 -0.36440745264E+03 -0.13811232604E+03 -0.46603114436E+03  0.60749718819E+03  0.00000000000E+00 0.  1.
         13    1    4    4    0    0  0.19828732449E+03  0.34888850089E+03 -0.47232651976E+03  0.61978496395E+03  0.10566000000E+00 0. -1.
         -4    1    4    4    0  503 -0.24550517442E+02 -0.56121710389E+03 -0.89735456496E+02  0.56887592475E+03  0.00000000000E+00 0. -1.
<mgrwt>
<rscale>  2 0.10490964E+04</rscale>
<asrwt>0</asrwt>
<pdfrwt beam="1">  1       21 0.11346223E+00 0.10496698E+04</pdfrwt>
<pdfrwt beam="2">  1       21 0.23456885E+00 0.10496698E+04</pdfrwt>
<totfact> 0.22168148E+01</totfact>
</mgrwt>
</event>
<event>
 8    1  0.7631533E-006  0.1024259E+04  0.7818608E-02  0.8755234E-01
         21   -1    0    0  503  502  0.00000000000E+00  0.00000000000E+00  0.53051427076E+03  0.53051427076E+03  0.00000000000E+00 0. -1.
         21   -1    0    0  501  503 -0.00000000000E+00 -0.00000000000E+00 -0.23545853117E+04  0.23545853117E+04  0.00000000000E+00 0. -1.
    9000010    2    1    2  501    0 -0.11884936286E+03  0.15482936061E+03 -0.15038582776E+04  0.18119535034E+04  0.99170987556E+03 0.  0.
   -9000010    2    1    2    0  502  0.11884936286E+03 -0.15482936061E+03 -0.32021276333E+03  0.10731460791E+04  0.10054894287E+04 0.  0.
        -13    1    3    3    0    0 -0.51498531124E+03 -0.94548455006E+02 -0.61764626305E+03  0.80971365221E+03  0.10566000000E+00 0.  1.
          4    1    3    3  501    0  0.39613594838E+03  0.24937781561E+03 -0.88621201456E+03  0.10022398512E+04  0.00000000000E+00 0.  1.
         13    1    4    4    0    0  0.17475324636E+03  0.38926668858E+03 -0.30765629731E+03  0.52604150064E+03  0.10566000000E+00 0. -1.
         -4    1    4    4    0  502 -0.55903883500E+02 -0.54409604919E+03 -0.12556466024E+02  0.54710457846E+03  0.00000000000E+00 0. -1.
<mgrwt>
<rscale>  2 0.10208611E+04</rscale>
<asrwt>0</asrwt>
<pdfrwt beam="1">  1       21 0.81617579E-01 0.10242589E+04</pdfrwt>
<pdfrwt beam="2">  1       21 0.36224390E+00 0.10242589E+04</pdfrwt>
<totfact> 0.64860555E+00</totfact>
</mgrwt>
</event>
<event>
 8    1  0.7631533E-006  0.1082855E+04  0.7818608E-02  0.8706486E-01
         21   -1    0    0  501  502  0.00000000000E+00  0.00000000000E+00  0.80564434737E+03  0.80564434737E+03  0.00000000000E+00 0. -1.
         21   -1    0    0  502  503 -0.00000000000E+00 -0.00000000000E+00 -0.16867208497E+04  0.16867208497E+04  0.00000000000E+00 0. -1.
    9000010    2    1    2  501    0 -0.30386904496E+03 -0.19957144392E+03  0.51995470141E+02  0.10841022620E+04  0.10200044254E+04 0.  0.
   -9000010    2    1    2    0  503  0.30386904496E+03  0.19957144392E+03 -0.93307197245E+03  0.14082629351E+04  0.99015959868E+03 0.  0.
        -13    1    3    3    0    0 -0.59128704591E+03 -0.36705916007E+03  0.19387112973E+03  0.72245333674E+03  0.10566000000E+00 0.  1.
          4    1    3    3  501    0  0.28741800095E+03  0.16748771615E+03 -0.14187565958E+03  0.36164892522E+03  0.00000000000E+00 0.  1.
         13    1    4    4    0    0 -0.78177999704E+02  0.31165214857E+03 -0.95689829306E+03  0.10094024053E+04  0.10566000000E+00 0. -1.
         -4    1    4    4    0  503  0.38204704466E+03 -0.11208070464E+03  0.23826320611E+02  0.39886052981E+03  0.00000000000E+00 0. -1.
<mgrwt>
<rscale>  2 0.10757692E+04</rscale>
<asrwt>0</asrwt>
<pdfrwt beam="1">  1       21 0.12394529E+00 0.10828546E+04</pdfrwt>
<pdfrwt beam="2">  1       21 0.25949551E+00 0.10828546E+04</pdfrwt>
<totfact> 0.11315300E+01</totfact>
</mgrwt>
</event>
<event>
 8    1  0.7631533E-006  0.1043804E+04  0.7818608E-02  0.8736129E-01
         21   -1    0    0  503  502  0.00000000000E+00  0.00000000000E+00  0.11052609059E+04  0.11052609059E+04  0.00000000000E+00 0. -1.
         21   -1    0    0  501  503 -0.00000000000E+00 -0.00000000000E+00 -0.14175250738E+04  0.14175250738E+04  0.00000000000E+00 0. -1.
    9000010    2    1    2  501    0  0.82442955795E+02  0.28924118018E+03 -0.85821540062E+03  0.13513183727E+04  0.99953507661E+03 0.  0.
   -9000010    2    1    2    0  502 -0.82442955795E+02 -0.28924118018E+03  0.54595123275E+03  0.11714676070E+04  0.99187514561E+03 0.  0.
        -13    1    3    3    0    0  0.33331436627E+03  0.13812443050E+03 -0.97224486570E+03  0.10370327454E+04  0.10566000000E+00 0.  1.
          4    1    3    3  501    0 -0.25087141047E+03  0.15111674968E+03  0.11402946508E+03  0.31428562731E+03  0.00000000000E+00 0.  1.
         13    1    4    4    0    0  0.33382441666E+03  0.19354968408E+03  0.11740334655E+03  0.40334077194E+03  0.10566000000E+00 0. -1.
         -4    1    4    4    0  502 -0.41626737246E+03 -0.48279086427E+03  0.42854788620E+03  0.76812683508E+03  0.00000000000E+00 0. -1.
<mgrwt>
<rscale>  2 0.10419664E+04</rscale>
<asrwt>0</asrwt>
<pdfrwt beam="1">  1       21 0.17004014E+00 0.10438044E+04</pdfrwt>
<pdfrwt beam="2">  1       21 0.21808078E+00 0.10438044E+04</pdfrwt>
<totfact> 0.88117133E+00</totfact>
</mgrwt>
</event>
<event>
 8    1  0.7631533E-006  0.1017898E+04  0.7818608E-02  0.8761882E-01
         21   -1    0    0  501  502  0.00000000000E+00  0.00000000000E+00  0.21903601353E+04  0.21903601353E+04  0.00000000000E+00 0.  1.
         21   -1    0    0  502  503 -0.00000000000E+00 -0.00000000000E+00 -0.48138632732E+03  0.48138632732E+03  0.00000000000E+00 0.  1.
    9000010    2    1    2  501    0  0.15608517879E+03  0.42462180744E+01  0.11063762982E+04  0.15033908849E+04  0.10058503994E+04 0.  0.
   -9000010    2    1    2    0  503 -0.15608517879E+03 -0.42462180744E+01  0.60259750982E+03  0.11683555778E+04  0.98871147660E+03 0.  0.
        -13    1    3    3    0    0 -0.39387784062E+03 -0.18533241713E+03  0.44285392502E+03  0.62097300122E+03  0.10566000000E+00 0.  1.
          4    1    3    3  501    0  0.54996301941E+03  0.18957863521E+03  0.66352237318E+03  0.88241788364E+03  0.00000000000E+00 0.  1.
         13    1    4    4    0    0  0.25669264905E+03  0.34260656223E+03  0.11960484127E+03  0.44449488386E+03  0.10566000000E+00 0. -1.
         -4    1    4    4    0  503 -0.41277782785E+03 -0.34685278030E+03  0.48299266855E+03  0.72386069395E+03  0.00000000000E+00 0. -1.
<mgrwt>
<rscale>  2 0.10136378E+04</rscale>
<asrwt>0</asrwt>
<pdfrwt beam="1">  1       21 0.33697848E+00 0.10178977E+04</pdfrwt>
<pdfrwt beam="2">  1       21 0.74059436E-01 0.10178977E+04</pdfrwt>
<totfact> 0.12359461E+01</totfact>
</mgrwt>
</event>
<event>
 8    1  0.7631533E-006  0.1059327E+04  0.7818608E-02  0.8723386E-01
         21   -1    0    0  501  502  0.00000000000E+00  0.00000000000E+00  0.10648011941E+04  0.10648011941E+04  0.00000000000E+00 0.  1.
         21   -1    0    0  502  503 -0.00000000000E+00 -0.00000000000E+00 -0.13450202507E+04  0.13450202507E+04  0.00000000000E+00 0.  1.
    9000010    2    1    2  501    0  0.30023183038E+03  0.13118091835E+03 -0.71256151491E+03  0.12766819875E+04  0.10073854275E+04 0.  0.
   -9000010    2    1    2    0  503 -0.30023183038E+03 -0.13118091835E+03  0.43234245832E+03  0.11331394572E+04  0.99485548845E+03 0.  0.
        -13    1    3    3    0    0 -0.31959482195E+03  0.25592461870E+03 -0.39598606364E+03  0.56959918753E+03  0.10566000000E+00 0.  1.
          4    1    3    3  501    0  0.61982665233E+03 -0.12474370035E+03 -0.31657545127E+03  0.70708280000E+03  0.00000000000E+00 0.  1.
         13    1    4    4    0    0  0.10362385321E+03  0.18700287411E+02 -0.28085439837E+03  0.29994467482E+03  0.10566000000E+00 0. -1.
         -4    1    4    4    0  503 -0.40385568359E+03 -0.14988120576E+03  0.71319685669E+03  0.83319478239E+03  0.00000000000E+00 0. -1.
<mgrwt>
<rscale>  2 0.10563369E+04</rscale>
<asrwt>0</asrwt>
<pdfrwt beam="1">  1       21 0.16381557E+00 0.10593267E+04</pdfrwt>
<pdfrwt beam="2">  1       21 0.20692619E+00 0.10593267E+04</pdfrwt>
<totfact> 0.12054492E+01</totfact>
</mgrwt>
</event>
<event>
 8    1  0.7631533E-006  0.1342231E+04  0.7818608E-02  0.8507445E-01
         21   -1    0    0  503  502  0.00000000000E+00  0.00000000000E+00  0.18244706073E+04  0.18244706073E+04  0.00000000000E+00 0.  1.
         21   -1    0    0  501  503 -0.00000000000E+00 -0.00000000000E+00 -0.22296790063E+04  0.22296790063E+04  0.00000000000E+00 0. -1.
    9000010    2    1    2  501    0  0.25100956808E+03  0.83338829220E+03 -0.17179506789E+04  0.21766841659E+04  0.10144247502E+04 0.  0.
   -9000010    2    1    2    0  502 -0.25100956808E+03 -0.83338829220E+03  0.13127422800E+04  0.18774654476E+04  0.10217839129E+04 0.  0.
        -13    1    3    3    0    0  0.54087415736E+03  0.10580745963E+03 -0.64703494710E+03  0.84993782511E+03  0.10566000000E+00 0.  1.
          4    1    3    3  501    0 -0.28986458927E+03  0.72758083256E+03 -0.10709157318E+04  0.13267463408E+04  0.00000000000E+00 0.  1.
         13    1    4    4    0    0  0.23239687638E+03 -0.60251908832E+03  0.25980722812E+03  0.69608718339E+03  0.10566000000E+00 0. -1.
         -4    1    4    4    0  502 -0.48340644447E+03 -0.23086920388E+03  0.10529350518E+04  0.11813782643E+04  0.00000000000E+00 0. -1.
<mgrwt>
<rscale>  2 0.13408304E+04</rscale>
<asrwt>0</asrwt>
<pdfrwt beam="1">  1       21 0.28068778E+00 0.13422311E+04</pdfrwt>
<pdfrwt beam="2">  1       21 0.34302754E+00 0.13422311E+04</pdfrwt>
<totfact> 0.15075287E-01</totfact>
</mgrwt>
</event>
<event>
 8    1  0.7631533E-006  0.1078383E+04  0.7818608E-02  0.8705449E-01
         21   -1    0    0  501  502  0.00000000000E+00  0.00000000000E+00  0.83310838414E+03  0.83310838414E+03  0.00000000000E+00 0.  1.
         21   -1    0    0  502  503 -0.00000000000E+00 -0.00000000000E+00 -0.20157217201E+04  0.20157217201E+04  0.00000000000E+00 0.  1.
    9000010    2    1    2  501    0 -0.37346578913E+03  0.52993909029E+02  0.20213231603E+03  0.10971633403E+04  0.10102598042E+04 0.  0.
   -9000010    2    1    2    0  503  0.37346578913E+03 -0.52993909029E+02 -0.13847456520E+04  0.17516667640E+04  0.10042563822E+04 0.  0.
        -13    1    3    3    0    0 -0.73705270450E+02  0.51864473376E+03  0.78034112155E+02  0.52963587546E+03  0.10566000000E+00 0.  1.
          4    1    3    3  501    0 -0.29976051868E+03 -0.46565082474E+03  0.12409820388E+03  0.56752746484E+03  0.00000000000E+00 0.  1.
         13    1    4    4    0    0  0.57270681319E+03 -0.17206889758E+02 -0.29723209563E+03  0.64547354769E+03  0.10566000000E+00 0. -1.
         -4    1    4    4    0  503 -0.19924102406E+03 -0.35787019271E+02 -0.10875135564E+04  0.11061932163E+04  0.00000000000E+00 0. -1.
<mgrwt>
<rscale>  2 0.10769747E+04</rscale>
<asrwt>0</asrwt>
<pdfrwt beam="1">  1       21 0.12817052E+00 0.10783830E+04</pdfrwt>
<pdfrwt beam="2">  1       21 0.31011103E+00 0.10783830E+04</pdfrwt>
<totfact> 0.44890462E+00</totfact>
</mgrwt>
</event>
<event>
 8    1  0.7631533E-006  0.9925937E+03  0.7818608E-02  0.8783533E-01
         21   -1    0    0  501  502  0.00000000000E+00  0.00000000000E+00  0.30986420355E+03  0.30986420355E+03  0.00000000000E+00 0. -1.
         21   -1    0    0  502  503 -0.00000000000E+00 -0.00000000000E+00 -0.32604617683E+04  0.32604617683E+04  0.00000000000E+00 0. -1.
    9000010    2    1    2  501    0  0.39986800692E+02  0.16911091089E+02 -0.11458818240E+04  0.15106557981E+04  0.98343828299E+03 0.  0.
   -9000010    2    1    2    0  503 -0.39986800692E+02 -0.16911091089E+02 -0.18047157408E+04  0.20596701738E+04  0.99164378213E+03 0.  0.
        -13    1    3    3    0    0  0.99382682283E+02  0.55887604083E+02 -0.13187963485E+04  0.13237160428E+04  0.10566000000E+00 0.  1.
          4    1    3    3  501    0 -0.59395881591E+02 -0.38976512994E+02  0.17291452454E+03  0.18693975530E+03  0.00000000000E+00 0.  1.
         13    1    4    4    0    0 -0.20561533622E+03 -0.24339552675E+03 -0.10281994269E+03  0.33479994132E+03  0.10566000000E+00 0. -1.
         -4    1    4    4    0  503  0.16562853553E+03  0.22648443566E+03 -0.17018957981E+04  0.17248702325E+04  0.00000000000E+00 0. -1.
<mgrwt>
<rscale>  2 0.99053796E+03</rscale>
<asrwt>0</asrwt>
<pdfrwt beam="1">  1       21 0.47671417E-01 0.99259373E+03</pdfrwt>
<pdfrwt beam="2">  1       21 0.50160949E+00 0.99259373E+03</pdfrwt>
<totfact> 0.24368288E+00</totfact>
</mgrwt>
</event>
<event>
 8    1  0.7631533E-006  0.1208643E+04  0.7818608E-02  0.8602275E-01
         21   -1    0    0  503  502  0.00000000000E+00  0.00000000000E+00  0.10199141715E+04  0.10199141715E+04  0.00000000000E+00 0.  1.
         21   -1    0    0  501  503 -0.00000000000E+00 -0.00000000000E+00 -0.21925002624E+04  0.21925002624E+04  0.00000000000E+00 0.  1.
    9000010    2    1    2  501    0  0.62702895964E+03 -0.18511791382E+03 -0.15387972016E+04  0.19495095460E+04  0.10026248970E+04 0.  0.
   -9000010    2    1    2    0  502 -0.62702895964E+03  0.18511791382E+03  0.36621111079E+03  0.12629048878E+04  0.10165550746E+04 0.  0.
        -13    1    3    3    0    0 -0.21194795990E+03  0.13748601190E+03 -0.59373263940E+03  0.64524630911E+03  0.10566000000E+00 0.  1.
          4    1    3    3  501    0  0.83897691953E+03 -0.32260392571E+03 -0.94506456224E+03  0.13042632369E+04  0.00000000000E+00 0.  1.
         13    1    4    4    0    0 -0.49296235622E+03 -0.38224083743E+03  0.15423553448E+03  0.64257960885E+03  0.10566000000E+00 0. -1.
         -4    1    4    4    0  502 -0.13406660342E+03  0.56735875125E+03  0.21197557631E+03  0.62032527896E+03  0.00000000000E+00 0. -1.
<mgrwt>
<rscale>  2 0.12057093E+04</rscale>
<asrwt>0</asrwt>
<pdfrwt beam="1">  1       21 0.15690987E+00 0.12086431E+04</pdfrwt>
<pdfrwt beam="2">  1       21 0.33730773E+00 0.12086431E+04</pdfrwt>
<totfact> 0.15269777E+00</totfact>
</mgrwt>
</event>
<event>
 8    1  0.7631533E-006  0.1110267E+04  0.7818608E-02  0.8686886E-01
         21   -1    0    0  501  502  0.00000000000E+00  0.00000000000E+00  0.20367937614E+04  0.20367937614E+04  0.00000000000E+00 0.  1.
         21   -1    0    0  502  503 -0.00000000000E+00 -0.00000000000E+00 -0.11230544562E+04  0.11230544562E+04  0.00000000000E+00 0.  1.
    9000010    2    1    2  501    0 -0.90057790237E+02  0.35547691927E+03  0.15593078115E+04  0.19141928736E+04  0.10479595700E+04 0.  0.
   -9000010    2    1    2    0  503  0.90057790237E+02 -0.35547691927E+03 -0.64556850635E+03  0.12456553441E+04  0.10002121246E+04 0.  0.
        -13    1    3    3    0    0 -0.24362954788E+03  0.45396012867E+03  0.21616232966E+03  0.55871398671E+03  0.10566000000E+00 0.  1.
          4    1    3    3  501    0  0.15357175764E+03 -0.98483209392E+02  0.13431454819E+04  0.13554788869E+04  0.00000000000E+00 0.  1.
         13    1    4    4    0    0  0.12287336464E+03  0.21428287430E+03 -0.62783146980E+03  0.67467575885E+03  0.10566000000E+00 0. -1.
         -4    1    4    4    0  503 -0.32815574400E+02 -0.56975979357E+03 -0.17737036559E+02  0.57097958524E+03  0.00000000000E+00 0. -1.
<mgrwt>
<rscale>  2 0.10988548E+04</rscale>
<asrwt>0</asrwt>
<pdfrwt beam="1">  1       21 0.31335289E+00 0.11102673E+04</pdfrwt>
<pdfrwt beam="2">  1       21 0.17277761E+00 0.11102673E+04</pdfrwt>
<totfact> 0.16857202E+00</totfact>
</mgrwt>
</event>
<event>
 8    1  0.7631533E-006  0.1113768E+04  0.7818608E-02  0.8679359E-01
         21   -1    0    0  503  502  0.00000000000E+00  0.00000000000E+00  0.97661063716E+03  0.97661063716E+03  0.00000000000E+00 0.  1.
         21   -1    0    0  501  503 -0.00000000000E+00 -0.00000000000E+00 -0.15353941134E+04  0.15353941134E+04  0.00000000000E+00 0.  1.
    9000010    2    1    2  501    0 -0.47886631380E+03 -0.92615196818E+02 -0.82443309200E+03  0.13669946795E+04  0.97524048801E+03 0.  0.
   -9000010    2    1    2    0  502  0.47886631380E+03  0.92615196818E+02  0.26564961573E+03  0.11450100711E+04  0.10012930757E+04 0.  0.
        -13    1    3    3    0    0 -0.35216246110E+03 -0.38906533837E+03 -0.48814488208E+02  0.52704184080E+03  0.10566000000E+00 0.  1.
          4    1    3    3  501    0 -0.12670385270E+03  0.29645014155E+03 -0.77561860379E+03  0.83995283871E+03  0.00000000000E+00 0.  1.
         13    1    4    4    0    0  0.44197076352E+03  0.50071957146E+03  0.21921399432E+02  0.66823559017E+03  0.10566000000E+00 0. -1.
         -4    1    4    4    0  502  0.36895550276E+02 -0.40810437464E+03  0.24372821629E+03  0.47677448091E+03  0.00000000000E+00 0. -1.
<mgrwt>
<rscale>  2 0.11078806E+04</rscale>
<asrwt>0</asrwt>
<pdfrwt beam="1">  1       21 0.15024779E+00 0.11137676E+04</pdfrwt>
<pdfrwt beam="2">  1       21 0.23621448E+00 0.11137676E+04</pdfrwt>
<totfact> 0.94079313E+00</totfact>
</mgrwt>
</event>
<event>
 8    1  0.7631533E-006  0.1014553E+04  0.7818608E-02  0.8768456E-01
         21   -1    0    0  501  502  0.00000000000E+00  0.00000000000E+00  0.15298121827E+04  0.15298121827E+04  0.00000000000E+00 0. -1.
         21   -1    0    0  502  503 -0.00000000000E+00 -0.00000000000E+00 -0.69544752519E+03  0.69544752519E+03  0.00000000000E+00 0. -1.
    9000010    2    1    2  501    0  0.12864159610E+02  0.14887721011E+03  0.13304224381E+03  0.99190208825E+03  0.97151407799E+03 0.  0.
   -9000010    2    1    2    0  503 -0.12864159610E+02 -0.14887721011E+03  0.70132241374E+03  0.12333576197E+04  0.10034879071E+04 0.  0.
        -13    1    3    3    0    0 -0.19089725216E+03 -0.22577137349E+03 -0.27345654184E+03  0.40273187782E+03  0.10566000000E+00 0.  1.
          4    1    3    3  501    0  0.20376141177E+03  0.37464858360E+03  0.40649878566E+03  0.58917021043E+03  0.00000000000E+00 0.  1.
         13    1    4    4    0    0 -0.40796197427E+03 -0.33988076982E+03  0.20078997053E+03  0.56768700317E+03  0.10566000000E+00 0. -1.
         -4    1    4    4    0  503  0.39509781466E+03  0.19100355971E+03  0.50053244321E+03  0.66567061650E+03  0.00000000000E+00 0. -1.
<mgrwt>
<rscale>  2 0.10065555E+04</rscale>
<asrwt>0</asrwt>
<pdfrwt beam="1">  1       21 0.23535572E+00 0.10145530E+04</pdfrwt>
<pdfrwt beam="2">  1       21 0.10699193E+00 0.10145530E+04</pdfrwt>
<totfact> 0.25851445E+01</totfact>
</mgrwt>
</event>
<event>
 8    1  0.7631533E-006  0.1013389E+04  0.7818608E-02  0.8764677E-01
         21   -1    0    0  503  502  0.00000000000E+00  0.00000000000E+00  0.13181485791E+04  0.13181485791E+04  0.00000000000E+00 0.  1.
         21   -1    0    0  501  503 -0.00000000000E+00 -0.00000000000E+00 -0.78258014999E+03  0.78258014999E+03  0.00000000000E+00 0.  1.
    9000010    2    1    2  501    0  0.62453333018E+01  0.15394990636E+03  0.39612211912E+03  0.10777905923E+04  0.99044447077E+03 0.  0.
   -9000010    2    1    2    0  502 -0.62453333018E+01 -0.15394990636E+03  0.13944630997E+03  0.10229381368E+04  0.10016074982E+04 0.  0.
        -13    1    3    3    0    0  0.94403872152E+02 -0.71854479621E+02 -0.30962403776E+03  0.33157535078E+03  0.10566000000E+00 0.  1.
          4    1    3    3  501    0 -0.88158538850E+02  0.22580438599E+03  0.70574615688E+03  0.74621524150E+03  0.00000000000E+00 0.  1.
         13    1    4    4    0    0 -0.39924317005E+03 -0.14399313309E+03  0.37354718658E+03  0.56539069941E+03  0.10566000000E+00 0. -1.
         -4    1    4    4    0  502  0.39299783675E+03 -0.99567732706E+01 -0.23410087661E+03  0.45754743739E+03  0.00000000000E+00 0. -1.
<mgrwt>
<rscale>  2 0.10106197E+04</rscale>
<asrwt>0</asrwt>
<pdfrwt beam="1">  1       21 0.20279209E+00 0.10133889E+04</pdfrwt>
<pdfrwt beam="2">  1       21 0.12039695E+00 0.10133889E+04</pdfrwt>
<totfact> 0.32973175E+01</totfact>
</mgrwt>
</event>
<event>
 8    1  0.7631533E-006  0.1060605E+04  0.7818608E-02  0.8724965E-01
         21   -1    0    0  501  502  0.00000000000E+00  0.00000000000E+00  0.22541445426E+04  0.22541445426E+04  0.00000000000E+00 0.  1.
         21   -1    0    0  502  503 -0.00000000000E+00 -0.00000000000E+00 -0.57659075396E+03  0.57659075396E+03  0.00000000000E+00 0.  1.
    9000010    2    1    2  501    0  0.14514682391E+03 -0.15406387965E+03  0.14023573324E+04  0.17582631388E+04  0.10392689248E+04 0.  0.
   -9000010    2    1    2    0  503 -0.14514682391E+03  0.15406387965E+03  0.27519645619E+03  0.10724721577E+04  0.10147217156E+04 0.  0.
        -13    1    3    3    0    0  0.20431054919E+03  0.34907324682E+03  0.10911604737E+04  0.11637122165E+04  0.10566000000E+00 0.  1.
          4    1    3    3  501    0 -0.59163725287E+02 -0.50313712647E+03  0.31119685867E+03  0.59455092235E+03  0.00000000000E+00 0.  1.
         13    1    4    4    0    0 -0.95161350043E+02 -0.43356153849E+03  0.15820427050E+03  0.47123231274E+03  0.10566000000E+00 0. -1.
         -4    1    4    4    0  503 -0.49985473863E+02  0.58762541814E+03  0.11699218570E+03  0.60123984495E+03  0.00000000000E+00 0. -1.
<mgrwt>
<rscale>  2 0.10545429E+04</rscale>
<asrwt>0</asrwt>
<pdfrwt beam="1">  1       21 0.34679147E+00 0.10606051E+04</pdfrwt>
<pdfrwt beam="2">  1       21 0.88706271E-01 0.10606051E+04</pdfrwt>
<totfact> 0.66937154E+00</totfact>
</mgrwt>
</event>
<event>
 8    1  0.7631533E-006  0.1193772E+04  0.7818608E-02  0.8640098E-01
         21   -1    0    0  501  502  0.00000000000E+00  0.00000000000E+00  0.11314552845E+04  0.11314552845E+04  0.00000000000E+00 0. -1.
         21   -1    0    0  502  503 -0.00000000000E+00 -0.00000000000E+00 -0.14466514649E+04  0.14466514649E+04  0.00000000000E+00 0. -1.
    9000010    2    1    2  501    0  0.31342262602E+03  0.53238017452E+02  0.45213556764E+03  0.12765260974E+04  0.11506625382E+04 0.  0.
   -9000010    2    1    2    0  503 -0.31342262602E+03 -0.53238017452E+02 -0.76733174807E+03  0.13015806519E+04  0.10021208274E+04 0.  0.
        -13    1    3    3    0    0 -0.30009540633E+03 -0.22068944190E+03 -0.12279753787E+03  0.39222484513E+03  0.10566000000E+00 0.  1.
          4    1    3    3  501    0  0.61351803235E+03  0.27392745936E+03  0.57493310552E+03  0.88430125231E+03  0.00000000000E+00 0.  1.
         13    1    4    4    0    0  0.15446444526E+02 -0.67896634982E+02 -0.93123791547E+03  0.93383757264E+03  0.10566000000E+00 0. -1.
         -4    1    4    4    0  503 -0.32886907055E+03  0.14658617530E+02  0.16390616740E+03  0.36774307926E+03  0.00000000000E+00 0. -1.
<mgrwt>
<rscale>  2 0.11564499E+04</rscale>
<asrwt>0</asrwt>
<pdfrwt beam="1">  1       21 0.17407004E+00 0.11937723E+04</pdfrwt>
<pdfrwt beam="2">  1       21 0.22256176E+00 0.11937723E+04</pdfrwt>
<totfact> 0.72926741E+00</totfact>
</mgrwt>
</event>
<event>
 8    1  0.7631533E-006  0.1013508E+04  0.7818608E-02  0.8765466E-01
         21   -1    0    0  503  502  0.00000000000E+00  0.00000000000E+00  0.62887246780E+03  0.62887246780E+03  0.00000000000E+00 0.  1.
         21   -1    0    0  501  503 -0.00000000000E+00 -0.00000000000E+00 -0.16481875294E+04  0.16481875294E+04  0.00000000000E+00 0.  1.
    9000010    2    1    2  501    0  0.57491713988E+02 -0.13447973283E+03 -0.68036990270E+03  0.12083771123E+04  0.98786737229E+03 0.  0.
   -9000010    2    1    2    0  502 -0.57491713988E+02  0.13447973283E+03 -0.33894515886E+03  0.10686828849E+04  0.10029003899E+04 0.  0.
        -13    1    3    3    0    0 -0.99657549320E+02 -0.48308726953E+03 -0.66198016608E+03  0.82554387440E+03  0.10566000000E+00 0.  1.
          4    1    3    3  501    0  0.15714926331E+03  0.34860753670E+03 -0.18389736616E+02  0.38283323786E+03  0.00000000000E+00 0.  1.
         13    1    4    4    0    0 -0.15593778684E+03 -0.41744640880E+03 -0.86990778706E+02  0.45403249260E+03  0.10566000000E+00 0. -1.
         -4    1    4    4    0  502  0.98446072851E+02  0.55192614163E+03 -0.25195438015E+03  0.61465039230E+03  0.00000000000E+00 0. -1.
<mgrwt>
<rscale>  2 0.10097694E+04</rscale>
<asrwt>0</asrwt>
<pdfrwt beam="1">  1       21 0.96749611E-01 0.10135084E+04</pdfrwt>
<pdfrwt beam="2">  1       21 0.25356731E+00 0.10135084E+04</pdfrwt>
<totfact> 0.24801247E+01</totfact>
</mgrwt>
</event>
<event>
 8    1  0.7631533E-006  0.1028412E+04  0.7818608E-02  0.8751638E-01
         21   -1    0    0  503  502  0.00000000000E+00  0.00000000000E+00  0.11837378735E+04  0.11837378735E+04  0.00000000000E+00 0. -1.
         21   -1    0    0  501  503 -0.00000000000E+00 -0.00000000000E+00 -0.11076888051E+04  0.11076888051E+04  0.00000000000E+00 0. -1.
    9000010    2    1    2  501    0 -0.17429424473E+03 -0.84608972656E+01 -0.48004603805E+03  0.11349337717E+04  0.10134990859E+04 0.  0.
   -9000010    2    1    2    0  502  0.17429424473E+03  0.84608972656E+01  0.55609510651E+03  0.11564929069E+04  0.99889138832E+03 0.  0.
        -13    1    3    3    0    0  0.10006594169E+02 -0.38679006391E+03 -0.58484475452E+03  0.70124894547E+03  0.10566000000E+00 0.  1.
          4    1    3    3  501    0 -0.18430083890E+03  0.37832916664E+03  0.10479871647E+03  0.43368482626E+03  0.00000000000E+00 0.  1.
         13    1    4    4    0    0 -0.33134964642E+03  0.23912910469E+03  0.41645311933E+03  0.58344539475E+03  0.10566000000E+00 0. -1.
         -4    1    4    4    0  502  0.50564389115E+03 -0.23066820742E+03  0.13964198718E+03  0.57304751213E+03  0.00000000000E+00 0. -1.
<mgrwt>
<rscale>  2 0.10247944E+04</rscale>
<asrwt>0</asrwt>
<pdfrwt beam="1">  1       21 0.18211352E+00 0.10284116E+04</pdfrwt>
<pdfrwt beam="2">  1       21 0.17041366E+00 0.10284116E+04</pdfrwt>
<totfact> 0.16772038E+01</totfact>
</mgrwt>
</event>
<event>
 8    1  0.7631533E-006  0.1161481E+04  0.7818608E-02  0.8641423E-01
         21   -1    0    0  501  502  0.00000000000E+00  0.00000000000E+00  0.63588921409E+03  0.63588921409E+03  0.00000000000E+00 0.  1.
         21   -1    0    0  502  503 -0.00000000000E+00 -0.00000000000E+00 -0.28574520629E+04  0.28574520629E+04  0.00000000000E+00 0.  1.
    9000010    2    1    2  501    0  0.52132375732E+03 -0.10876012468E+03 -0.20508785577E+03  0.11794486698E+04  0.10321971282E+04 0.  0.
   -9000010    2    1    2    0  503 -0.52132375732E+03  0.10876012468E+03 -0.20164749930E+04  0.23138926072E+04  0.10021578596E+04 0.  0.
        -13    1    3    3    0    0  0.78755336728E+02 -0.52549685642E+03 -0.21046861010E+03  0.57152987338E+03  0.10566000000E+00 0.  1.
          4    1    3    3  501    0  0.44256842059E+03  0.41673673174E+03  0.53807543224E+01  0.60791879639E+03  0.00000000000E+00 0.  1.
         13    1    4    4    0    0 -0.82017380957E+03  0.11866444105E+03 -0.15904746389E+04  0.17934257486E+04  0.10566000000E+00 0. -1.
         -4    1    4    4    0  503  0.29885005226E+03 -0.99043163658E+01 -0.42600035408E+03  0.52046685859E+03  0.00000000000E+00 0. -1.
<mgrwt>
<rscale>  2 0.11547701E+04</rscale>
<asrwt>0</asrwt>
<pdfrwt beam="1">  1       21 0.97829113E-01 0.11614810E+04</pdfrwt>
<pdfrwt beam="2">  1       21 0.43960800E+00 0.11614810E+04</pdfrwt>
<totfact> 0.11503863E+00</totfact>
</mgrwt>
</event>
<event>
 8    1  0.7631533E-006  0.1120621E+04  0.7818608E-02  0.8682706E-01
         21   -1    0    0  501  502  0.00000000000E+00  0.00000000000E+00  0.15744301698E+04  0.15744301698E+04  0.00000000000E+00 0. -1.
         21   -1    0    0  502  503 -0.00000000000E+00 -0.00000000000E+00 -0.18523794087E+04  0.18523794087E+04  0.00000000000E+00 0. -1.
    9000010    2    1    2  501    0  0.21832885367E+03  0.34095938418E+03  0.11832895024E+04  0.15853398542E+04  0.97427286566E+03 0.  0.
   -9000010    2    1    2    0  503 -0.21832885367E+03 -0.34095938418E+03 -0.14612387413E+04  0.18414697243E+04  0.10449264550E+04 0.  0.
        -13    1    3    3    0    0 -0.40460820790E+02  0.64798278663E+03  0.66079491598E+03  0.92637395362E+03  0.10566000000E+00 0.  1.
          4    1    3    3  501    0  0.25878967446E+03 -0.30702340246E+03  0.52249458647E+03  0.65896590060E+03  0.00000000000E+00 0.  1.
         13    1    4    4    0    0 -0.52543155211E+03 -0.44443693632E+03 -0.57148685112E+03  0.89453884124E+03  0.10566000000E+00 0. -1.
         -4    1    4    4    0  503  0.30710269844E+03  0.10347755215E+03 -0.88975189016E+03  0.94693088302E+03  0.00000000000E+00 0. -1.
<mgrwt>
<rscale>  2 0.11038557E+04</rscale>
<asrwt>0</asrwt>
<pdfrwt beam="1">  1       21 0.24222003E+00 0.11206213E+04</pdfrwt>
<pdfrwt beam="2">  1       21 0.28498145E+00 0.11206213E+04</pdfrwt>
<totfact> 0.77360419E-01</totfact>
</mgrwt>
</event>
<event>
 8    1  0.7631533E-006  0.1040796E+04  0.7818608E-02  0.8739080E-01
         21   -1    0    0  501  502  0.00000000000E+00  0.00000000000E+00  0.16267358049E+04  0.16267358049E+04  0.00000000000E+00 0.  1.
         21   -1    0    0  502  503 -0.00000000000E+00 -0.00000000000E+00 -0.83055028072E+03  0.83055028072E+03  0.00000000000E+00 0.  1.
    9000010    2    1    2  501    0 -0.19411530810E+03 -0.17347954150E+03  0.95532511102E+03  0.14127643506E+04  0.10077108407E+04 0.  0.
   -9000010    2    1    2    0  503  0.19411530810E+03  0.17347954150E+03 -0.15913958687E+03  0.10445217350E+04  0.99896163220E+03 0.  0.
        -13    1    3    3    0    0 -0.45603881760E+03 -0.25340011976E+03  0.10069669116E+04  0.11340923225E+04  0.10566000000E+00 0.  1.
          4    1    3    3  501    0  0.26192350950E+03  0.79920578261E+02 -0.51641800562E+02  0.27867202806E+03  0.00000000000E+00 0.  1.
         13    1    4    4    0    0  0.22430557775E+03 -0.39548499237E+03 -0.13483687486E+03  0.47423872194E+03  0.10566000000E+00 0. -1.
         -4    1    4    4    0  503 -0.30190269653E+02  0.56896453386E+03 -0.24302712007E+02  0.57028301306E+03  0.00000000000E+00 0. -1.
<mgrwt>
<rscale>  2 0.10386727E+04</rscale>
<asrwt>0</asrwt>
<pdfrwt beam="1">  1       21 0.25026705E+00 0.10407964E+04</pdfrwt>
<pdfrwt beam="2">  1       21 0.12777697E+00 0.10407964E+04</pdfrwt>
<totfact> 0.12217660E+01</totfact>
</mgrwt>
</event>
<event>
 8    1  0.7631533E-006  0.1047442E+04  0.7818608E-02  0.8761709E-01
         21   -1    0    0  503  502  0.00000000000E+00  0.00000000000E+00  0.11929880509E+04  0.11929880509E+04  0.00000000000E+00 0. -1.
         21   -1    0    0  501  503 -0.00000000000E+00 -0.00000000000E+00 -0.83417739925E+03  0.83417739925E+03  0.00000000000E+00 0. -1.
    9000010    2    1    2  501    0 -0.29647178881E+03  0.35205435656E+01 -0.20171006322E+01  0.91931567751E+03  0.87018924979E+03 0.  0.
   -9000010    2    1    2    0  502  0.29647178881E+03 -0.35205435656E+01  0.36082775224E+03  0.11078497726E+04  0.10046026757E+04 0.  0.
        -13    1    3    3    0    0 -0.70388889748E+02 -0.41184315854E+03  0.11259179579E+03  0.43271966292E+03  0.10566000000E+00 0.  1.
          4    1    3    3  501    0 -0.22608289906E+03  0.41536370211E+03 -0.11460889642E+03  0.48659601459E+03  0.00000000000E+00 0.  1.
         13    1    4    4    0    0  0.38025900032E+03  0.37571572456E+03  0.46195975531E+03  0.70651683610E+03  0.10566000000E+00 0. -1.
         -4    1    4    4    0  502 -0.83787211514E+02 -0.37923626812E+03 -0.10113200307E+03  0.40133293650E+03  0.00000000000E+00 0. -1.
<mgrwt>
<rscale>  2 0.10138258E+04</rscale>
<asrwt>0</asrwt>
<pdfrwt beam="1">  1       21 0.18353662E+00 0.10474419E+04</pdfrwt>
<pdfrwt beam="2">  1       21 0.12833498E+00 0.10474419E+04</pdfrwt>
<totfact> 0.38789279E+01</totfact>
</mgrwt>
</event>
<event>
 8    1  0.7631533E-006  0.1020185E+04  0.7818608E-02  0.8760137E-01
         21   -1    0    0  503  502  0.00000000000E+00  0.00000000000E+00  0.85610759329E+03  0.85610759329E+03  0.00000000000E+00 0.  1.
         21   -1    0    0  501  503 -0.00000000000E+00 -0.00000000000E+00 -0.17411275159E+04  0.17411275159E+04  0.00000000000E+00 0.  1.
    9000010    2    1    2  501    0  0.23447924721E+02  0.40002417101E+02 -0.11733892307E+04  0.15548697656E+04  0.10191308566E+04 0.  0.
   -9000010    2    1    2    0  502 -0.23447924721E+02 -0.40002417101E+02  0.28836930807E+03  0.10423653436E+04  0.10006091410E+04 0.  0.
        -13    1    3    3    0    0  0.35739149513E+03 -0.24027525571E+03 -0.17390834333E+03  0.46444052616E+03  0.10566000000E+00 0.  1.
          4    1    3    3  501    0 -0.33394357040E+03  0.28027767281E+03 -0.99948088735E+03  0.10904292395E+04  0.00000000000E+00 0.  1.
         13    1    4    4    0    0 -0.18611111130E+03  0.44655165956E+03  0.19133421479E+03  0.52024467639E+03  0.10566000000E+00 0. -1.
         -4    1    4    4    0  502  0.16266318657E+03 -0.48655407666E+03  0.97035093276E+02  0.52212066719E+03  0.00000000000E+00 0. -1.
<mgrwt>
<rscale>  2 0.10155278E+04</rscale>
<asrwt>0</asrwt>
<pdfrwt beam="1">  1       21 0.13170886E+00 0.10201851E+04</pdfrwt>
<pdfrwt beam="2">  1       21 0.26786577E+00 0.10201851E+04</pdfrwt>
<totfact> 0.83983327E+00</totfact>
</mgrwt>
</event>
<event>
 8    1  0.7631533E-006  0.1056318E+04  0.7818608E-02  0.8733991E-01
         21   -1    0    0  501  502  0.00000000000E+00  0.00000000000E+00  0.16688176744E+04  0.16688176744E+04  0.00000000000E+00 0. -1.
         21   -1    0    0  502  503 -0.00000000000E+00 -0.00000000000E+00 -0.90735759520E+03  0.90735759520E+03  0.00000000000E+00 0. -1.
    9000010    2    1    2  501    0  0.48964364119E+02  0.13943520476E+03  0.10869674622E+04  0.15156863718E+04  0.10459288831E+04 0.  0.
   -9000010    2    1    2    0  503 -0.48964364119E+02 -0.13943520476E+03 -0.32550738304E+03  0.10604888978E+04  0.99841973167E+03 0.  0.
        -13    1    3    3    0    0 -0.23751092921E+03 -0.38714647322E+03  0.52215216615E+03  0.69205254786E+03  0.10566000000E+00 0.  1.
          4    1    3    3  501    0  0.28647529333E+03  0.52658167798E+03  0.56481529607E+03  0.82363382395E+03  0.00000000000E+00 0.  1.
         13    1    4    4    0    0 -0.27668042254E+03 -0.31344637621E+03  0.19881327917E+03  0.46295509297E+03  0.10566000000E+00 0. -1.
         -4    1    4    4    0  503  0.22771605842E+03  0.17401117144E+03 -0.52432066221E+03  0.59753380479E+03  0.00000000000E+00 0. -1.
<mgrwt>
<rscale>  2 0.10443611E+04</rscale>
<asrwt>0</asrwt>
<pdfrwt beam="1">  1       21 0.25674118E+00 0.10563176E+04</pdfrwt>
<pdfrwt beam="2">  1       21 0.13959348E+00 0.10563176E+04</pdfrwt>
<totfact> 0.84370063E+00</totfact>
</mgrwt>
</event>
<event>
 8    1  0.7631533E-006  0.1015111E+04  0.7818608E-02  0.8762786E-01
         21   -1    0    0  501  502  0.00000000000E+00  0.00000000000E+00  0.12707171236E+04  0.12707171236E+04  0.00000000000E+00 0.  1.
         21   -1    0    0  502  503 -0.00000000000E+00 -0.00000000000E+00 -0.80461885703E+03  0.80461885703E+03  0.00000000000E+00 0.  1.
    9000010    2    1    2  501    0  0.11015078693E+03  0.32228877480E+02  0.27643250071E+03  0.10426583945E+04  0.99877410052E+03 0.  0.
   -9000010    2    1    2    0  503 -0.11015078693E+03 -0.32228877480E+02  0.18966576589E+03  0.10326775861E+04  0.10086020016E+04 0.  0.
        -13    1    3    3    0    0 -0.36030519470E+03 -0.20228552856E+03 -0.61472801876E+02  0.41775373718E+03  0.10566000000E+00 0.  1.
          4    1    3    3  501    0  0.47045598162E+03  0.23451440604E+03  0.33790530258E+03  0.62490465737E+03  0.00000000000E+00 0.  1.
         13    1    4    4    0    0 -0.94372772618E+02  0.29015347594E+03  0.49946766377E+03  0.58528900393E+03  0.10566000000E+00 0. -1.
         -4    1    4    4    0  503 -0.15778014310E+02 -0.32238235342E+03 -0.30980189788E+03  0.44738858218E+03  0.00000000000E+00 0. -1.
<mgrwt>
<rscale>  2 0.10126609E+04</rscale>
<asrwt>0</asrwt>
<pdfrwt beam="1">  1       21 0.19549494E+00 0.10151108E+04</pdfrwt>
<pdfrwt beam="2">  1       21 0.12378752E+00 0.10151108E+04</pdfrwt>
<totfact> 0.34760279E+01</totfact>
</mgrwt>
</event>
<event>
 8    1  0.7631533E-006  0.1021416E+04  0.7818608E-02  0.8756009E-01
         21   -1    0    0  501  502  0.00000000000E+00  0.00000000000E+00  0.12314774636E+04  0.12314774636E+04  0.00000000000E+00 0.  1.
         21   -1    0    0  502  503 -0.00000000000E+00 -0.00000000000E+00 -0.97571425534E+03  0.97571425534E+03  0.00000000000E+00 0.  1.
    9000010    2    1    2  501    0 -0.13451527019E+03 -0.16317897559E+03  0.53526519091E+03  0.11482244008E+04  0.99357370841E+03 0.  0.
   -9000010    2    1    2    0  503  0.13451527019E+03  0.16317897559E+03 -0.27950198261E+03  0.10589673182E+04  0.99928408706E+03 0.  0.
        -13    1    3    3    0    0  0.13304089228E+03  0.23134925957E+03 -0.15555171185E+03  0.30889918282E+03  0.10566000000E+00 0.  1.
          4    1    3    3  501    0 -0.26755616247E+03 -0.39452823516E+03  0.69081690276E+03  0.83932521800E+03  0.00000000000E+00 0.  1.
         13    1    4    4    0    0 -0.37996947841E+03  0.28597122262E+03 -0.36719981605E+02  0.47697454115E+03  0.10566000000E+00 0. -1.
         -4    1    4    4    0  503  0.51448474860E+03 -0.12279224703E+03 -0.24278200100E+03  0.58199277700E+03  0.00000000000E+00 0. -1.
<mgrwt>
<rscale>  2 0.10200165E+04</rscale>
<asrwt>0</asrwt>
<pdfrwt beam="1">  1       21 0.18945807E+00 0.10214159E+04</pdfrwt>
<pdfrwt beam="2">  1       21 0.15010988E+00 0.10214159E+04</pdfrwt>
<totfact> 0.21942560E+01</totfact>
</mgrwt>
</event>
<event>
 8    1  0.7631533E-006  0.1036372E+04  0.7818608E-02  0.8741389E-01
         21   -1    0    0  501  502  0.00000000000E+00  0.00000000000E+00  0.13140255871E+04  0.13140255871E+04  0.00000000000E+00 0. -1.
         21   -1    0    0  502  503 -0.00000000000E+00 -0.00000000000E+00 -0.82030270829E+03  0.82030270829E+03  0.00000000000E+00 0. -1.
    9000010    2    1    2  501    0  0.14351970389E+03 -0.21573634379E+03  0.31900000042E+03  0.10833315925E+04  0.10023503697E+04 0.  0.
   -9000010    2    1    2    0  503 -0.14351970389E+03  0.21573634379E+03  0.17472287837E+03  0.10509967029E+04  0.10034569795E+04 0.  0.
        -13    1    3    3    0    0 -0.33711222878E+03 -0.28448806471E+03  0.39472920127E+03  0.59193687776E+03  0.10566000000E+00 0.  1.
          4    1    3    3  501    0  0.48063193267E+03  0.68751720923E+02 -0.75729200843E+02  0.49139471476E+03  0.00000000000E+00 0.  1.
         13    1    4    4    0    0  0.18397116558E+03  0.48223505299E+03  0.31668718289E+03  0.60554671089E+03  0.10566000000E+00 0. -1.
         -4    1    4    4    0  503 -0.32749086947E+03 -0.26649870920E+03 -0.14196430452E+03  0.44544999197E+03  0.00000000000E+00 0. -1.
<mgrwt>
<rscale>  2 0.10361036E+04</rscale>
<asrwt>0</asrwt>
<pdfrwt beam="1">  1       21 0.20215778E+00 0.10363715E+04</pdfrwt>
<pdfrwt beam="2">  1       21 0.12620042E+00 0.10363715E+04</pdfrwt>
<totfact> 0.29041180E+01</totfact>
</mgrwt>
</event>
<event>
 8    1  0.7631533E-006  0.1031053E+04  0.7818608E-02  0.8750122E-01
         21   -1    0    0  503  502  0.00000000000E+00  0.00000000000E+00  0.75955635016E+03  0.75955635016E+03  0.00000000000E+00 0. -1.
         21   -1    0    0  501  503 -0.00000000000E+00 -0.00000000000E+00 -0.20950187353E+04  0.20950187353E+04  0.00000000000E+00 0. -1.
    9000010    2    1    2  501    0 -0.69486158863E+02  0.17684519961E+03 -0.15005802342E+04  0.18103848145E+04  0.99481133213E+03 0.  0.
   -9000010    2    1    2    0  502  0.69486158863E+02 -0.17684519961E+03  0.16511784907E+03  0.10441902709E+04  0.10133937373E+04 0.  0.
        -13    1    3    3    0    0 -0.37079792352E+03  0.35308145680E+03 -0.38258501340E+03  0.63916267011E+03  0.10566000000E+00 0.  1.
          4    1    3    3  501    0  0.30131176466E+03 -0.17623625718E+03 -0.11179952208E+04  0.11712221444E+04  0.00000000000E+00 0.  1.
         13    1    4    4    0    0  0.52053399087E+03 -0.23801245327E+03  0.49159893000E+02  0.57447564770E+03  0.10566000000E+00 0. -1.
         -4    1    4    4    0  502 -0.45104783200E+03  0.61167253658E+02  0.11595795607E+03  0.46971462320E+03  0.00000000000E+00 0. -1.
<mgrwt>
<rscale>  2 0.10264574E+04</rscale>
<asrwt>0</asrwt>
<pdfrwt beam="1">  1       21 0.11685483E+00 0.10310526E+04</pdfrwt>
<pdfrwt beam="2">  1       21 0.32231057E+00 0.10310526E+04</pdfrwt>
<totfact> 0.48371156E+00</totfact>
</mgrwt>
</event>
<event>
 8    1  0.7631533E-006  0.1024062E+04  0.7818608E-02  0.8755998E-01
         21   -1    0    0  501  502  0.00000000000E+00  0.00000000000E+00  0.39764352113E+03  0.39764352113E+03  0.00000000000E+00 0. -1.
         21   -1    0    0  502  503 -0.00000000000E+00 -0.00000000000E+00 -0.26221799002E+04  0.26221799002E+04  0.00000000000E+00 0. -1.
    9000010    2    1    2  501    0 -0.83654186929E+02  0.15467968440E+03 -0.97052436358E+03  0.14108934565E+04  0.10088503247E+04 0.  0.
   -9000010    2    1    2    0  503  0.83654186929E+02 -0.15467968440E+03 -0.12540120155E+04  0.16089299648E+04  0.99256519627E+03 0.  0.
        -13    1    3    3    0    0  0.44972361519E+03  0.87425228124E+02 -0.28439747127E+03  0.53923689915E+03  0.10566000000E+00 0.  1.
          4    1    3    3  501    0 -0.53337780212E+03  0.67254456276E+02 -0.68612689232E+03  0.87165655739E+03  0.00000000000E+00 0.  1.
         13    1    4    4    0    0  0.51125561871E+02  0.41268613407E+03 -0.70650185848E+03  0.81979787480E+03  0.10566000000E+00 0. -1.
         -4    1    4    4    0  503  0.32528625058E+02 -0.56736581847E+03 -0.54751015697E+03  0.78913208996E+03  0.00000000000E+00 0. -1.
<mgrwt>
<rscale>  2 0.10200283E+04</rscale>
<asrwt>0</asrwt>
<pdfrwt beam="1">  1       21 0.61175925E-01 0.10240619E+04</pdfrwt>
<pdfrwt beam="2">  1       21 0.40341230E+00 0.10240619E+04</pdfrwt>
<totfact> 0.66278508E+00</totfact>
</mgrwt>
</event>
<event>
 8    1  0.7631533E-006  0.1002043E+04  0.7818608E-02  0.8804461E-01
         21   -1    0    0  503  502  0.00000000000E+00  0.00000000000E+00  0.62374422406E+03  0.62374422406E+03  0.00000000000E+00 0.  1.
         21   -1    0    0  501  503 -0.00000000000E+00 -0.00000000000E+00 -0.14435099384E+04  0.14435099384E+04  0.00000000000E+00 0.  1.
    9000010    2    1    2  501    0  0.16672842896E+02 -0.20634892068E+02 -0.53273132283E+03  0.10249110863E+04  0.87517786199E+03 0.  0.
   -9000010    2    1    2    0  502 -0.16672842896E+02  0.20634892068E+02 -0.28703439155E+03  0.10423430762E+04  0.10016918508E+04 0.  0.
        -13    1    3    3    0    0  0.77755245727E+02 -0.31123616753E+03  0.91544265953E+02  0.33360784464E+03  0.10566000000E+00 0.  1.
          4    1    3    3  501    0 -0.61082402832E+02  0.29060127546E+03 -0.62427558878E+03  0.69130324170E+03  0.00000000000E+00 0.  1.
         13    1    4    4    0    0 -0.20355632506E+03 -0.41915670665E+03  0.33136464119E+02  0.46714618549E+03  0.10566000000E+00 0. -1.
         -4    1    4    4    0  502  0.18688348216E+03  0.43979159872E+03 -0.32017085567E+03  0.57519689067E+03  0.00000000000E+00 0. -1.
<mgrwt>
<rscale>  2 0.96881028E+03</rscale>
<asrwt>0</asrwt>
<pdfrwt beam="1">  1       21 0.95960649E-01 0.10020431E+04</pdfrwt>
<pdfrwt beam="2">  1       21 0.22207845E+00 0.10020431E+04</pdfrwt>
<totfact> 0.43316864E+01</totfact>
</mgrwt>
</event>
<event>
 8    1  0.7631533E-006  0.1176566E+04  0.7818608E-02  0.8625117E-01
         21   -1    0    0  503  502  0.00000000000E+00  0.00000000000E+00  0.13530372055E+04  0.13530372055E+04  0.00000000000E+00 0. -1.
         21   -1    0    0  501  503 -0.00000000000E+00 -0.00000000000E+00 -0.11067595548E+04  0.11067595548E+04  0.00000000000E+00 0. -1.
    9000010    2    1    2  501    0 -0.10007479365E+03 -0.60503467770E+03 -0.22142973224E+03  0.11936774196E+04  0.99987635744E+03 0.  0.
   -9000010    2    1    2    0  502  0.10007479365E+03  0.60503467770E+03  0.46770738291E+03  0.12661193406E+04  0.10041046077E+04 0.  0.
        -13    1    3    3    0    0  0.24948947712E+03 -0.75048796736E+03 -0.10656219562E+03  0.79801798290E+03  0.10566000000E+00 0.  1.
          4    1    3    3  501    0 -0.34956427077E+03  0.14545328966E+03 -0.11486753662E+03  0.39565943668E+03  0.00000000000E+00 0.  1.
         13    1    4    4    0    0  0.48751044861E+03  0.62014843620E+03  0.31148330240E+03  0.84809927442E+03  0.10566000000E+00 0. -1.
         -4    1    4    4    0  502 -0.38743565496E+03 -0.15113758506E+02  0.15622408051E+03  0.41802006622E+03  0.00000000000E+00 0. -1.
<mgrwt>
<rscale>  2 0.11756635E+04</rscale>
<asrwt>0</asrwt>
<pdfrwt beam="1">  1       21 0.20815957E+00 0.11765662E+04</pdfrwt>
<pdfrwt beam="2">  1       21 0.17027070E+00 0.11765662E+04</pdfrwt>
<totfact> 0.10134662E+01</totfact>
</mgrwt>
</event>
<event>
 8    1  0.7631533E-006  0.1104408E+04  0.7818608E-02  0.8701798E-01
         21   -1    0    0  503  502  0.00000000000E+00  0.00000000000E+00  0.69088458141E+03  0.69088458141E+03  0.00000000000E+00 0.  1.
         21   -1    0    0  501  503 -0.00000000000E+00 -0.00000000000E+00 -0.19470399265E+04  0.19470399265E+04  0.00000000000E+00 0.  1.
    9000010    2    1    2  501    0  0.98244818941E+02  0.29992949178E+02 -0.11864748111E+04  0.16209380226E+04  0.10996208320E+04 0.  0.
   -9000010    2    1    2    0  502 -0.98244818941E+02 -0.29992949178E+02 -0.69680534002E+02  0.10169864853E+04  0.10093832340E+04 0.  0.
        -13    1    3    3    0    0 -0.31944340008E+03  0.37974241067E+03 -0.83902630429E+03  0.97478896935E+03  0.10566000000E+00 0.  1.
          4    1    3    3  501    0  0.41768821902E+03 -0.34974946149E+03 -0.34744850681E+03  0.64614905324E+03  0.00000000000E+00 0.  1.
         13    1    4    4    0    0 -0.54487057030E+03 -0.70097503016E+02  0.53479897371E+02  0.55195806806E+03  0.10566000000E+00 0. -1.
         -4    1    4    4    0  502  0.44662575136E+03  0.40104553838E+02 -0.12316043137E+03  0.46502841728E+03  0.00000000000E+00 0. -1.
<mgrwt>
<rscale>  2 0.10812362E+04</rscale>
<asrwt>0</asrwt>
<pdfrwt beam="1">  1       21 0.10628993E+00 0.11044083E+04</pdfrwt>
<pdfrwt beam="2">  1       21 0.29954461E+00 0.11044083E+04</pdfrwt>
<totfact> 0.89058453E+00</totfact>
</mgrwt>
</event>
<event>
 8    1  0.7631533E-006  0.1296733E+04  0.7818608E-02  0.8537681E-01
         21   -1    0    0  503  502  0.00000000000E+00  0.00000000000E+00  0.22745396696E+04  0.22745396696E+04  0.00000000000E+00 0.  1.
         21   -1    0    0  501  503 -0.00000000000E+00 -0.00000000000E+00 -0.90543967572E+03  0.90543967572E+03  0.00000000000E+00 0.  1.
    9000010    2    1    2  501    0  0.10862167365E+03  0.81896023894E+03  0.70616613886E-01  0.12967326703E+04  0.99951041631E+03 0.  0.
   -9000010    2    1    2    0  502 -0.10862167365E+03 -0.81896023894E+03  0.13690293773E+04  0.18832466750E+04  0.99492816933E+03 0.  0.
        -13    1    3    3    0    0  0.98764041999E+02 -0.19727802376E+03 -0.15369835421E+03  0.26887943377E+03  0.10566000000E+00 0.  1.
          4    1    3    3  501    0  0.98576316467E+01  0.10162382627E+04  0.15376897083E+03  0.10278532365E+04  0.00000000000E+00 0.  1.
         13    1    4    4    0    0  0.24578276655E+03 -0.53348301619E+03  0.18666251210E+03  0.61632475326E+03  0.10566000000E+00 0. -1.
         -4    1    4    4    0  502 -0.35440444019E+03 -0.28547722276E+03  0.11823668652E+04  0.12669219217E+04  0.00000000000E+00 0. -1.
<mgrwt>
<rscale>  2 0.12958496E+04</rscale>
<asrwt>0</asrwt>
<pdfrwt beam="1">  1       21 0.34992918E+00 0.12967327E+04</pdfrwt>
<pdfrwt beam="2">  1       21 0.13929841E+00 0.12967327E+04</pdfrwt>
<totfact> 0.17622130E+00</totfact>
</mgrwt>
</event>
<event>
 8    1  0.7631533E-006  0.1018135E+04  0.7818608E-02  0.8787500E-01
         21   -1    0    0  503  502  0.00000000000E+00  0.00000000000E+00  0.10986240620E+04  0.10986240620E+04  0.00000000000E+00 0.  1.
         21   -1    0    0  501  503 -0.00000000000E+00 -0.00000000000E+00 -0.14732595551E+04  0.14732595551E+04  0.00000000000E+00 0.  1.
    9000010    2    1    2  501    0 -0.26053908666E+03 -0.90263467950E+02 -0.10397826841E+04  0.14552484032E+04  0.98008763660E+03 0.  0.
   -9000010    2    1    2    0  502  0.26053908666E+03  0.90263467950E+02  0.66514719096E+03  0.11166352139E+04  0.85347835707E+03 0.  0.
        -13    1    3    3    0    0 -0.17007944721E+03  0.38694040256E+03 -0.16316902334E+03  0.45307177670E+03  0.10566000000E+00 0.  1.
          4    1    3    3  501    0 -0.90459639450E+02 -0.47720387051E+03 -0.87661366076E+03  0.10021766265E+04  0.00000000000E+00 0.  1.
         13    1    4    4    0    0  0.40283562422E+03  0.20652892113E+03  0.77862884943E+03  0.90066288463E+03  0.10566000000E+00 0. -1.
         -4    1    4    4    0  502 -0.14229653757E+03 -0.11626545318E+03 -0.11348165847E+03  0.21597232928E+03  0.00000000000E+00 0. -1.
<mgrwt>
<rscale>  2 0.98637441E+03</rscale>
<asrwt>0</asrwt>
<pdfrwt beam="1">  1       21 0.16901909E+00 0.10181355E+04</pdfrwt>
<pdfrwt beam="2">  1       21 0.22665532E+00 0.10181355E+04</pdfrwt>
<totfact> 0.77975969E+00</totfact>
</mgrwt>
</event>
<event>
 8    1  0.7631533E-006  0.1087675E+04  0.7818608E-02  0.8701056E-01
         21   -1    0    0  501  502  0.00000000000E+00  0.00000000000E+00  0.12154507799E+04  0.12154507799E+04  0.00000000000E+00 0.  1.
         21   -1    0    0  502  503 -0.00000000000E+00 -0.00000000000E+00 -0.15029918563E+04  0.15029918563E+04  0.00000000000E+00 0.  1.
    9000010    2    1    2  501    0  0.40279804656E+03  0.52685950914E+02  0.67700521779E+03  0.12811608282E+04  0.10089672576E+04 0.  0.
   -9000010    2    1    2    0  503 -0.40279804656E+03 -0.52685950914E+02 -0.96454629427E+03  0.14372818080E+04  0.98509256732E+03 0.  0.
        -13    1    3    3    0    0  0.59687710286E+03  0.37344742639E+03  0.36309877712E+03  0.79219062687E+03  0.10566000000E+00 0.  1.
          4    1    3    3  501    0 -0.19407905630E+03 -0.32076147548E+03  0.31390644068E+03  0.48897020128E+03  0.00000000000E+00 0.  1.
         13    1    4    4    0    0  0.80104125307E+02 -0.35299753428E+03 -0.74393338158E+03  0.82732147167E+03  0.10566000000E+00 0. -1.
         -4    1    4    4    0  503 -0.48290217187E+03  0.30031158337E+03 -0.22061291270E+03  0.60996033637E+03  0.00000000000E+00 0. -1.
<mgrwt>
<rscale>  2 0.10821050E+04</rscale>
<asrwt>0</asrwt>
<pdfrwt beam="1">  1       21 0.18699243E+00 0.10876750E+04</pdfrwt>
<pdfrwt beam="2">  1       21 0.23122952E+00 0.10876750E+04</pdfrwt>
<totfact> 0.50457586E+00</totfact>
</mgrwt>
</event>
<event>
 8    1  0.7631533E-006  0.1061460E+04  0.7818608E-02  0.8730915E-01
         21   -1    0    0  503  502  0.00000000000E+00  0.00000000000E+00  0.45095795936E+03  0.45095795936E+03  0.00000000000E+00 0. -1.
         21   -1    0    0  501  503 -0.00000000000E+00 -0.00000000000E+00 -0.30751212298E+04  0.30751212298E+04  0.00000000000E+00 0. -1.
    9000010    2    1    2  501    0  0.38585573287E+02 -0.17845009489E+03 -0.21798643451E+04  0.24245629476E+04  0.10456403018E+04 0.  0.
   -9000010    2    1    2    0  502 -0.38585573287E+02  0.17845009489E+03 -0.44429892529E+03  0.11015162416E+04  0.99126344258E+03 0.  0.
        -13    1    3    3    0    0  0.25965678071E+02 -0.35932781000E+03 -0.22113739952E+04  0.22405279845E+04  0.10566000000E+00 0.  1.
          4    1    3    3  501    0  0.12619895216E+02  0.18087771511E+03  0.31509650091E+02  0.18403496306E+03  0.00000000000E+00 0.  1.
         13    1    4    4    0    0 -0.38282109852E+03 -0.45998811378E+02 -0.55512187138E+03  0.67589066228E+03  0.10566000000E+00 0. -1.
         -4    1    4    4    0  502  0.34423552523E+03  0.22444890627E+03  0.11082294609E+03  0.42562557928E+03  0.00000000000E+00 0. -1.
<mgrwt>
<rscale>  2 0.10478183E+04</rscale>
<asrwt>0</asrwt>
<pdfrwt beam="1">  1       21 0.69378143E-01 0.10614598E+04</pdfrwt>
<pdfrwt beam="2">  1       21 0.47309560E+00 0.10614598E+04</pdfrwt>
<totfact> 0.16117149E+00</totfact>
</mgrwt>
</event>
<event>
 8    1  0.7631533E-006  0.1020741E+04  0.7818608E-02  0.8774308E-01
         21   -1    0    0  503  502  0.00000000000E+00  0.00000000000E+00  0.12636404118E+04  0.12636404118E+04  0.00000000000E+00 0. -1.
         21   -1    0    0  501  503 -0.00000000000E+00 -0.00000000000E+00 -0.81768776605E+03  0.81768776605E+03  0.00000000000E+00 0. -1.
    9000010    2    1    2  501    0 -0.33424160438E+02  0.12468417761E+03 -0.40741883558E+02  0.10215537518E+04  0.10125457265E+04 0.  0.
   -9000010    2    1    2    0  502  0.33424160438E+02 -0.12468417761E+03  0.48669452935E+03  0.10597744261E+04  0.93251646129E+03 0.  0.
        -13    1    3    3    0    0 -0.17434165469E+02  0.11251837034E+03 -0.52483499473E+03  0.53704386846E+03  0.10566000000E+00 0.  1.
          4    1    3    3  501    0 -0.15989994969E+02  0.12165807275E+02  0.48409311118E+03  0.48450988338E+03  0.00000000000E+00 0.  1.
         13    1    4    4    0    0  0.31954662100E+03  0.29389100937E+03  0.23648222636E+03  0.49437417300E+03  0.10566000000E+00 0. -1.
         -4    1    4    4    0  502 -0.28612246056E+03 -0.41857518698E+03  0.25021230299E+03  0.56540025306E+03  0.00000000000E+00 0. -1.
<mgrwt>
<rscale>  2 0.10003022E+04</rscale>
<asrwt>0</asrwt>
<pdfrwt beam="1">  1       21 0.19440622E+00 0.10207410E+04</pdfrwt>
<pdfrwt beam="2">  1       21 0.12579812E+00 0.10207410E+04</pdfrwt>
<totfact> 0.33822866E+01</totfact>
</mgrwt>
</event>
<event>
 8    1  0.7631533E-006  0.1019578E+04  0.7818608E-02  0.8774206E-01
         21   -1    0    0  501  502  0.00000000000E+00  0.00000000000E+00  0.17209816663E+04  0.17209816663E+04  0.00000000000E+00 0. -1.
         21   -1    0    0  502  503 -0.00000000000E+00 -0.00000000000E+00 -0.16640087643E+04  0.16640087643E+04  0.00000000000E+00 0. -1.
    9000010    2    1    2  501    0 -0.42087688234E+02 -0.88544940120E+02  0.14066786259E+04  0.17373206887E+04  0.10148531120E+04 0.  0.
   -9000010    2    1    2    0  503  0.42087688234E+02  0.88544940120E+02 -0.13497057239E+04  0.16476697420E+04  0.93994598661E+03 0.  0.
        -13    1    3    3    0    0  0.28989903404E+03 -0.13097232288E+03  0.13631961819E+04  0.13998210746E+04  0.10566000000E+00 0.  1.
          4    1    3    3  501    0 -0.33198672228E+03  0.42427382762E+02  0.43482443942E+02  0.33749961409E+03  0.00000000000E+00 0.  1.
         13    1    4    4    0    0 -0.99702174684E+02 -0.19160571640E+03 -0.13140269682E+04  0.13316606770E+04  0.10566000000E+00 0. -1.
         -4    1    4    4    0  503  0.14178986292E+03  0.28015065652E+03 -0.35678755628E+02  0.31600906502E+03  0.00000000000E+00 0. -1.
<mgrwt>
<rscale>  2 0.10004107E+04</rscale>
<asrwt>0</asrwt>
<pdfrwt beam="1">  1       21 0.26476641E+00 0.10195776E+04</pdfrwt>
<pdfrwt beam="2">  1       21 0.25600135E+00 0.10195776E+04</pdfrwt>
<totfact> 0.88001089E-01</totfact>
</mgrwt>
</event>
<event>
 8    1  0.7631533E-006  0.1008209E+04  0.7818608E-02  0.8795351E-01
         21   -1    0    0  501  502  0.00000000000E+00  0.00000000000E+00  0.34306877132E+04  0.34306877132E+04  0.00000000000E+00 0. -1.
         21   -1    0    0  502  503 -0.00000000000E+00 -0.00000000000E+00 -0.26464388657E+03  0.26464388657E+03  0.00000000000E+00 0. -1.
    9000010    2    1    2  501    0 -0.61764878350E+02 -0.26172187429E+02  0.13675028429E+04  0.16334790904E+04  0.89089282733E+03 0.  0.
   -9000010    2    1    2    0  503  0.61764878350E+02  0.26172187429E+02  0.17985409837E+04  0.20618525094E+04  0.10059752565E+04 0.  0.
        -13    1    3    3    0    0 -0.44879822361E+02  0.28576285074E+03  0.68263338079E+02  0.29721120404E+03  0.10566000000E+00 0.  1.
          4    1    3    3  501    0 -0.16885055989E+02 -0.31193503817E+03  0.12992395049E+04  0.13362678864E+04  0.00000000000E+00 0.  1.
         13    1    4    4    0    0 -0.45731842470E+02  0.50723431842E+03  0.80157234208E+03  0.94968220261E+03  0.10566000000E+00 0. -1.
         -4    1    4    4    0  503  0.10749672082E+03 -0.48106213099E+03  0.99696864162E+03  0.11121703068E+04  0.00000000000E+00 0. -1.
<mgrwt>
<rscale>  2 0.97819699E+03</rscale>
<asrwt>0</asrwt>
<pdfrwt beam="1">  1       21 0.52779808E+00 0.10082094E+04</pdfrwt>
<pdfrwt beam="2">  1       21 0.40714447E-01 0.10082094E+04</pdfrwt>
<totfact> 0.22380393E+00</totfact>
</mgrwt>
</event>
<event>
 8    1  0.7631533E-006  0.1054294E+04  0.7818608E-02  0.8725809E-01
         21   -1    0    0  503  502  0.00000000000E+00  0.00000000000E+00  0.92687224095E+03  0.92687224095E+03  0.00000000000E+00 0. -1.
         21   -1    0    0  501  503 -0.00000000000E+00 -0.00000000000E+00 -0.15035836130E+04  0.15035836130E+04  0.00000000000E+00 0. -1.
    9000010    2    1    2  501    0  0.14251699855E+03  0.29710897628E+03 -0.83828520743E+03  0.13469437990E+04  0.10014742484E+04 0.  0.
   -9000010    2    1    2    0  502 -0.14251699855E+03 -0.29710897628E+03  0.26157383541E+03  0.10835120549E+04  0.99849519932E+03 0.  0.
        -13    1    3    3    0    0  0.39576351104E+03 -0.82240045565E+02 -0.13501931127E+02  0.40444343865E+03  0.10566000000E+00 0.  1.
          4    1    3    3  501    0 -0.25324651249E+03  0.37934902184E+03 -0.82478327630E+03  0.94250036039E+03  0.00000000000E+00 0.  1.
         13    1    4    4    0    0 -0.59160545776E+02 -0.89355894096E+02 -0.38481545460E+03  0.39945887303E+03  0.10566000000E+00 0. -1.
         -4    1    4    4    0  502 -0.83356452772E+02 -0.20775308218E+03  0.64638929000E+03  0.68405318186E+03  0.00000000000E+00 0. -1.
<mgrwt>
<rscale>  2 0.10535858E+04</rscale>
<asrwt>0</asrwt>
<pdfrwt beam="1">  1       21 0.14259573E+00 0.10542938E+04</pdfrwt>
<pdfrwt beam="2">  1       21 0.23132055E+00 0.10542938E+04</pdfrwt>
<totfact> 0.12157080E+01</totfact>
</mgrwt>
</event>
<event>
 8    1  0.7631533E-006  0.1039228E+04  0.7818608E-02  0.8748099E-01
         21   -1    0    0  501  502  0.00000000000E+00  0.00000000000E+00  0.10607448692E+04  0.10607448692E+04  0.00000000000E+00 0. -1.
         21   -1    0    0  502  503 -0.00000000000E+00 -0.00000000000E+00 -0.98776756702E+03  0.98776756702E+03  0.00000000000E+00 0. -1.
    9000010    2    1    2  501    0  0.17588251133E+03  0.74894347453E+02  0.13834848786E+03  0.10072305986E+04  0.97919832191E+03 0.  0.
   -9000010    2    1    2    0  503 -0.17588251133E+03 -0.74894347453E+02 -0.65371185692E+02  0.10412818376E+04  0.10214943232E+04 0.  0.
        -13    1    3    3    0    0 -0.88942440862E+02  0.91158828905E+02  0.52392660257E+03  0.53918437099E+03  0.10566000000E+00 0.  1.
          4    1    3    3  501    0  0.26482495219E+03 -0.16264481452E+02 -0.38557811470E+03  0.46804622763E+03  0.00000000000E+00 0.  1.
         13    1    4    4    0    0 -0.33383603540E+03 -0.22376736224E+03  0.37541068502E+03  0.54995592962E+03  0.10566000000E+00 0. -1.
         -4    1    4    4    0  503  0.15795352407E+03  0.14887301479E+03 -0.44078187071E+03  0.49132590798E+03  0.00000000000E+00 0. -1.
<mgrwt>
<rscale>  2 0.10286824E+04</rscale>
<asrwt>0</asrwt>
<pdfrwt beam="1">  1       21 0.16319152E+00 0.10392278E+04</pdfrwt>
<pdfrwt beam="2">  1       21 0.15196424E+00 0.10392278E+04</pdfrwt>
<totfact> 0.34646974E+01</totfact>
</mgrwt>
</event>
<event>
 8    1  0.7631533E-006  0.1055433E+04  0.7818608E-02  0.8724841E-01
         21   -1    0    0  503  502  0.00000000000E+00  0.00000000000E+00  0.20967920394E+04  0.20967920394E+04  0.00000000000E+00 0. -1.
         21   -1    0    0  501  503 -0.00000000000E+00 -0.00000000000E+00 -0.10085154388E+04  0.10085154388E+04  0.00000000000E+00 0. -1.
    9000010    2    1    2  501    0 -0.25761868447E+03  0.22165703231E+03 -0.52523276359E+03  0.11789012730E+04  0.99921945983E+03 0.  0.
   -9000010    2    1    2    0  502  0.25761868447E+03 -0.22165703231E+03  0.16135093641E+04  0.19264062052E+04  0.99605681207E+03 0.  0.
        -13    1    3    3    0    0 -0.44702530692E+02  0.48051983565E+03  0.77949124593E+02  0.48884936933E+03  0.10566000000E+00 0.  1.
          4    1    3    3  501    0 -0.21291615377E+03 -0.25886280334E+03 -0.60318188819E+03  0.69005190365E+03  0.00000000000E+00 0.  1.
         13    1    4    4    0    0  0.52150676933E+03 -0.19670909846E+02  0.37122341914E+03  0.64043976550E+03  0.10566000000E+00 0. -1.
         -4    1    4    4    0  502 -0.26388808486E+03 -0.20198612246E+03  0.12422859450E+04  0.12859664397E+04  0.00000000000E+00 0. -1.
<mgrwt>
<rscale>  2 0.10546837E+04</rscale>
<asrwt>0</asrwt>
<pdfrwt beam="1">  1       21 0.32258339E+00 0.10554330E+04</pdfrwt>
<pdfrwt beam="2">  1       21 0.15515622E+00 0.10554330E+04</pdfrwt>
<totfact> 0.20811266E+00</totfact>
</mgrwt>
</event>
<event>
 8    1  0.7631533E-006  0.1089154E+04  0.7818608E-02  0.8705627E-01
         21   -1    0    0  503  502  0.00000000000E+00  0.00000000000E+00  0.15197661622E+04  0.15197661622E+04  0.00000000000E+00 0. -1.
         21   -1    0    0  501  503 -0.00000000000E+00 -0.00000000000E+00 -0.85351407524E+03  0.85351407524E+03  0.00000000000E+00 0. -1.
    9000010    2    1    2  501    0 -0.36129674268E+03 -0.17505681320E+03  0.76077477388E+03  0.13285461067E+04  0.10124605064E+04 0.  0.
   -9000010    2    1    2    0  502  0.36129674268E+03  0.17505681320E+03 -0.94522686927E+02  0.10447341307E+04  0.95987220054E+03 0.  0.
        -13    1    3    3    0    0  0.23268109009E+03 -0.20350532826E+03  0.65537614385E+03  0.72461907883E+03  0.10566000000E+00 0.  1.
          4    1    3    3  501    0 -0.59397783277E+03  0.28448515064E+02  0.10539863003E+03  0.60392702792E+03  0.00000000000E+00 0.  1.
         13    1    4    4    0    0  0.23249714050E+03  0.57184626083E+03 -0.14384371258E+01  0.61730474373E+03  0.10566000000E+00 0. -1.
         -4    1    4    4    0  502  0.12879960219E+03 -0.39678944763E+03 -0.93084249801E+02  0.42742938696E+03  0.00000000000E+00 0. -1.
<mgrwt>
<rscale>  2 0.10767682E+04</rscale>
<asrwt>0</asrwt>
<pdfrwt beam="1">  1       21 0.23381018E+00 0.10891540E+04</pdfrwt>
<pdfrwt beam="2">  1       21 0.13130986E+00 0.10891540E+04</pdfrwt>
<totfact> 0.14748562E+01</totfact>
</mgrwt>
</event>
<event>
 8    1  0.7631533E-006  0.1010818E+04  0.7818608E-02  0.8769385E-01
         21   -1    0    0  503  502  0.00000000000E+00  0.00000000000E+00  0.10024206585E+04  0.10024206585E+04  0.00000000000E+00 0. -1.
         21   -1    0    0  501  503 -0.00000000000E+00 -0.00000000000E+00 -0.14174124642E+04  0.14174124642E+04  0.00000000000E+00 0. -1.
    9000010    2    1    2  501    0  0.53210076519E+02  0.93195976210E+02 -0.86382647402E+03  0.13138467083E+04  0.98411391281E+03 0.  0.
   -9000010    2    1    2    0  502 -0.53210076519E+02 -0.93195976210E+02  0.44883466838E+03  0.11059864145E+04  0.10051052617E+04 0.  0.
        -13    1    3    3    0    0 -0.46280453826E+03  0.59434812979E+02 -0.33655599566E+03  0.57531772700E+03  0.10566000000E+00 0.  1.
          4    1    3    3  501    0  0.51601461478E+03  0.33761163231E+02 -0.52727047836E+03  0.73852898126E+03  0.00000000000E+00 0.  1.
         13    1    4    4    0    0 -0.12785440412E+03 -0.11053330632E+03 -0.30477003767E+03  0.34849554873E+03  0.10566000000E+00 0. -1.
         -4    1    4    4    0  502  0.74644327597E+02  0.17337330112E+02  0.75360470606E+03  0.75749086572E+03  0.00000000000E+00 0. -1.
<mgrwt>
<rscale>  2 0.10055597E+04</rscale>
<asrwt>0</asrwt>
<pdfrwt beam="1">  1       21 0.15421856E+00 0.10108182E+04</pdfrwt>
<pdfrwt beam="2">  1       21 0.21806346E+00 0.10108182E+04</pdfrwt>
<totfact> 0.12143512E+01</totfact>
</mgrwt>
</event>
<event>
 8    1  0.7631533E-006  0.1194633E+04  0.7818608E-02  0.8619323E-01
         21   -1    0    0  503  502  0.00000000000E+00  0.00000000000E+00  0.60775954724E+03  0.60775954724E+03  0.00000000000E+00 0. -1.
         21   -1    0    0  501  503 -0.00000000000E+00 -0.00000000000E+00 -0.23735329245E+04  0.23735329245E+04  0.00000000000E+00 0.  1.
    9000010    2    1    2  501    0  0.56397376004E+03  0.25349944829E+03 -0.11920694618E+04  0.16560436790E+04  0.96908342913E+03 0.  0.
   -9000010    2    1    2    0  502 -0.56397376004E+03 -0.25349944829E+03 -0.57370391546E+03  0.13252487928E+04  0.10221642763E+04 0.  0.
        -13    1    3    3    0    0  0.53757644873E+03 -0.20851080474E+03 -0.10014024494E+04  0.11555397314E+04  0.10566000000E+00 0.  1.
          4    1    3    3  501    0  0.26397311313E+02  0.46201025303E+03 -0.19066701238E+03  0.50050394759E+03  0.00000000000E+00 0.  1.
         13    1    4    4    0    0  0.26297568129E+03  0.10211413963E+03 -0.58629508012E+02  0.28813353994E+03  0.10566000000E+00 0. -1.
         -4    1    4    4    0  502 -0.82694944134E+03 -0.35561358792E+03 -0.51507440745E+03  0.10371152528E+04  0.00000000000E+00 0. -1.
<mgrwt>
<rscale>  2 0.11831976E+04</rscale>
<asrwt>0</asrwt>
<pdfrwt beam="1">  1       21 0.93501468E-01 0.11946331E+04</pdfrwt>
<pdfrwt beam="2">  1       21 0.36515891E+00 0.11946331E+04</pdfrwt>
<totfact> 0.42261937E+00</totfact>
</mgrwt>
</event>
<event>
 8    1  0.7631533E-006  0.1015844E+04  0.7818608E-02  0.8759849E-01
         21   -1    0    0  503  502  0.00000000000E+00  0.00000000000E+00  0.23697389126E+04  0.23697389126E+04  0.00000000000E+00 0. -1.
         21   -1    0    0  501  503 -0.00000000000E+00 -0.00000000000E+00 -0.44110896420E+03  0.44110896420E+03  0.00000000000E+00 0. -1.
    9000010    2    1    2  501    0  0.14936715643E+03 -0.99981049809E+02  0.11233857989E+04  0.15145742960E+04  0.99981642673E+03 0.  0.
   -9000010    2    1    2    0  502 -0.14936715643E+03  0.99981049809E+02  0.80524414942E+03  0.12962735807E+04  0.99980012914E+03 0.  0.
        -13    1    3    3    0    0  0.54296258565E+03  0.60403128616E+02  0.40569006019E+03  0.68047141267E+03  0.10566000000E+00 0.  1.
          4    1    3    3  501    0 -0.39359542922E+03 -0.16038417842E+03  0.71769573875E+03  0.83410288335E+03  0.00000000000E+00 0.  1.
         13    1    4    4    0    0 -0.24418306098E+02  0.54077494376E+03  0.55045291346E+03  0.77203122642E+03  0.10566000000E+00 0. -1.
         -4    1    4    4    0  502 -0.12494885033E+03 -0.44079389395E+03  0.25479123596E+03  0.52424235432E+03  0.00000000000E+00 0. -1.
<mgrwt>
<rscale>  2 0.10158403E+04</rscale>
<asrwt>0</asrwt>
<pdfrwt beam="1">  1       21 0.36457521E+00 0.10158443E+04</pdfrwt>
<pdfrwt beam="2">  1       21 0.67862919E-01 0.10158443E+04</pdfrwt>
<totfact> 0.97487427E+00</totfact>
</mgrwt>
</event>
<event>
 8    1  0.7631533E-006  0.1024522E+04  0.7818608E-02  0.8755508E-01
         21   -1    0    0  501  502  0.00000000000E+00  0.00000000000E+00  0.17583416950E+04  0.17583416950E+04  0.00000000000E+00 0.  1.
         21   -1    0    0  502  503 -0.00000000000E+00 -0.00000000000E+00 -0.12003781664E+04  0.12003781664E+04  0.00000000000E+00 0.  1.
    9000010    2    1    2  501    0 -0.12389551407E+03  0.14141876587E+03  0.13368218637E+04  0.16842620181E+04  0.10071228746E+04 0.  0.
   -9000010    2    1    2    0  503  0.12389551407E+03 -0.14141876587E+03 -0.77885833508E+03  0.12744578433E+04  0.99109692886E+03 0.  0.
        -13    1    3    3    0    0 -0.48628188874E+03  0.24184825895E+03  0.39917537717E+03  0.67401902687E+03  0.10566000000E+00 0.  1.
          4    1    3    3  501    0  0.36238637467E+03 -0.10042949308E+03  0.93764648658E+03  0.10102429913E+04  0.00000000000E+00 0.  1.
         13    1    4    4    0    0 -0.31576316169E+03 -0.36714141857E+03 -0.23068733888E+03  0.53639151279E+03  0.10566000000E+00 0. -1.
         -4    1    4    4    0  503  0.43965867576E+03  0.22572265270E+03 -0.54817099620E+03  0.73806633048E+03  0.00000000000E+00 0. -1.
<mgrwt>
<rscale>  2 0.10205620E+04</rscale>
<asrwt>0</asrwt>
<pdfrwt beam="1">  1       21 0.27051411E+00 0.10245223E+04</pdfrwt>
<pdfrwt beam="2">  1       21 0.18467357E+00 0.10245223E+04</pdfrwt>
<totfact> 0.27712375E+00</totfact>
</mgrwt>
</event>
<event>
 8    1  0.7631533E-006  0.1004145E+04  0.7818608E-02  0.8778323E-01
         21   -1    0    0  501  502  0.00000000000E+00  0.00000000000E+00  0.38526927303E+03  0.38526927303E+03  0.00000000000E+00 0.  1.
         21   -1    0    0  502  503 -0.00000000000E+00 -0.00000000000E+00 -0.25505354300E+04  0.25505354300E+04  0.00000000000E+00 0.  1.
    9000010    2    1    2  501    0 -0.47770935156E+02  0.90833034609E+02 -0.11822560477E+04  0.15305944434E+04  0.96667330852E+03 0.  0.
   -9000010    2    1    2    0  503  0.47770935156E+02 -0.90833034609E+02 -0.98301010926E+03  0.14052102596E+04  0.99888652828E+03 0.  0.
        -13    1    3    3    0    0 -0.49181708805E+03  0.53502650173E+02 -0.81383181656E+03  0.95240160567E+03  0.10566000000E+00 0.  1.
          4    1    3    3  501    0  0.44404615289E+03  0.37330384436E+02 -0.36842423110E+03  0.57819283770E+03  0.00000000000E+00 0.  1.
         13    1    4    4    0    0 -0.93495322515E+02  0.70308910298E+02  0.18435534775E+03  0.21833832373E+03  0.10566000000E+00 0. -1.
         -4    1    4    4    0  503  0.14126625767E+03 -0.16114194491E+03 -0.11673654570E+04  0.11868719359E+04  0.00000000000E+00 0. -1.
<mgrwt>
<rscale>  2 0.99603751E+03</rscale>
<asrwt>0</asrwt>
<pdfrwt beam="1">  1       21 0.59272194E-01 0.10041449E+04</pdfrwt>
<pdfrwt beam="2">  1       21 0.39239008E+00 0.10041449E+04</pdfrwt>
<totfact> 0.85384113E+00</totfact>
</mgrwt>
</event>
<event>
 8    1  0.7631533E-006  0.9985911E+03  0.7818608E-02  0.8777143E-01
         21   -1    0    0  501  502  0.00000000000E+00  0.00000000000E+00  0.34832704504E+03  0.34832704504E+03  0.00000000000E+00 0.  1.
         21   -1    0    0  502  503 -0.00000000000E+00 -0.00000000000E+00 -0.31684007689E+04  0.31684007689E+04  0.00000000000E+00 0.  1.
    9000010    2    1    2  501    0 -0.94942214288E+02  0.43533063461E+01 -0.84748070272E+03  0.13057761236E+04  0.98883505607E+03 0.  0.
   -9000010    2    1    2    0  503  0.94942214288E+02 -0.43533063461E+01 -0.19725930211E+04  0.22109516903E+04  0.99405793325E+03 0.  0.
        -13    1    3    3    0    0  0.34758998058E+03 -0.23883098805E+03 -0.15623576450E+03  0.44974288290E+03  0.10566000000E+00 0.  1.
          4    1    3    3  501    0 -0.44253219487E+03  0.24318429439E+03 -0.69124493823E+03  0.85603324069E+03  0.00000000000E+00 0.  1.
         13    1    4    4    0    0 -0.44275641942E+03  0.19028608288E+02 -0.69056444515E+03  0.82053311873E+03  0.10566000000E+00 0. -1.
         -4    1    4    4    0  503  0.53769863371E+03 -0.23381914634E+02 -0.12820285759E+04  0.13904185716E+04  0.00000000000E+00 0. -1.
<mgrwt>
<rscale>  2 0.99728878E+03</rscale>
<asrwt>0</asrwt>
<pdfrwt beam="1">  1       21 0.53588775E-01 0.99859108E+03</pdfrwt>
<pdfrwt beam="2">  1       21 0.48744628E+00 0.99859108E+03</pdfrwt>
<totfact> 0.23542053E+00</totfact>
</mgrwt>
</event>
<event>
 8    1  0.7631533E-006  0.1004403E+04  0.7818608E-02  0.8778112E-01
         21   -1    0    0  503  502  0.00000000000E+00  0.00000000000E+00  0.11016390185E+04  0.11016390185E+04  0.00000000000E+00 0.  1.
         21   -1    0    0  501  503 -0.00000000000E+00 -0.00000000000E+00 -0.96837591254E+03  0.96837591254E+03  0.00000000000E+00 0.  1.
    9000010    2    1    2  501    0 -0.11624666920E+03  0.32529753617E+02 -0.23301475362E+03  0.10310774484E+04  0.99712253818E+03 0.  0.
   -9000010    2    1    2    0  502  0.11624666920E+03 -0.32529753617E+02  0.36627785962E+03  0.10389374827E+04  0.96470728699E+03 0.  0.
        -13    1    3    3    0    0 -0.13944911813E+03  0.20711183375E+03 -0.58579089257E+03  0.63678281164E+03  0.10566000000E+00 0.  1.
          4    1    3    3  501    0  0.23202448932E+02 -0.17458208013E+03  0.35277613894E+03  0.39429463672E+03  0.00000000000E+00 0.  1.
         13    1    4    4    0    0 -0.27412090065E+03 -0.17550145190E+03 -0.16452903174E+03  0.36470925577E+03  0.10566000000E+00 0. -1.
         -4    1    4    4    0  502  0.39036756985E+03  0.14297169828E+03  0.53080689137E+03  0.67422822695E+03  0.00000000000E+00 0. -1.
<mgrwt>
<rscale>  2 0.99626114E+03</rscale>
<asrwt>0</asrwt>
<pdfrwt beam="1">  1       21 0.16948293E+00 0.10044027E+04</pdfrwt>
<pdfrwt beam="2">  1       21 0.14898091E+00 0.10044027E+04</pdfrwt>
<totfact> 0.32840118E+01</totfact>
</mgrwt>
</event>
<event>
 8    1  0.7631533E-006  0.1030930E+04  0.7818608E-02  0.8748401E-01
         21   -1    0    0  501  502  0.00000000000E+00  0.00000000000E+00  0.58243466514E+03  0.58243466514E+03  0.00000000000E+00 0. -1.
         21   -1    0    0  502  503 -0.00000000000E+00 -0.00000000000E+00 -0.18737991882E+04  0.18737991882E+04  0.00000000000E+00 0. -1.
    9000010    2    1    2  501    0  0.91898679984E+02 -0.12839291012E+03 -0.41629060863E+03  0.11118067491E+04  0.10187670341E+04 0.  0.
   -9000010    2    1    2    0  503 -0.91898679984E+02  0.12839291012E+03 -0.87507391439E+03  0.13444271042E+04  0.10083649022E+04 0.  0.
        -13    1    3    3    0    0  0.64532638872E+02 -0.46376229363E+03 -0.57353565201E+03  0.74039386935E+03  0.10566000000E+00 0.  1.
          4    1    3    3  501    0  0.27366041113E+02  0.33536938351E+03  0.15724504338E+03  0.37141287979E+03  0.00000000000E+00 0.  1.
         13    1    4    4    0    0 -0.25155865182E+03  0.52509038844E+03 -0.40674954820E+03  0.71024423789E+03  0.10566000000E+00 0. -1.
         -4    1    4    4    0  503  0.15965997184E+03 -0.39669747831E+03 -0.46832436620E+03  0.63418286628E+03  0.00000000000E+00 0. -1.
<mgrwt>
<rscale>  2 0.10283507E+04</rscale>
<asrwt>0</asrwt>
<pdfrwt beam="1">  1       21 0.89605334E-01 0.10309299E+04</pdfrwt>
<pdfrwt beam="2">  1       21 0.28827680E+00 0.10309299E+04</pdfrwt>
<totfact> 0.16958058E+01</totfact>
</mgrwt>
</event>
<event>
 8    1  0.7631533E-006  0.1042185E+04  0.7818608E-02  0.8739930E-01
         21   -1    0    0  503  502  0.00000000000E+00  0.00000000000E+00  0.17672155084E+04  0.17672155084E+04  0.00000000000E+00 0.  1.
         21   -1    0    0  501  503 -0.00000000000E+00 -0.00000000000E+00 -0.69149702926E+03  0.69149702926E+03  0.00000000000E+00 0.  1.
    9000010    2    1    2  501    0  0.15368371399E+03 -0.21190457818E+03  0.10511655191E+03  0.10474725575E+04  0.10087750170E+04 0.  0.
   -9000010    2    1    2    0  502 -0.15368371399E+03  0.21190457818E+03  0.97060192719E+03  0.14112399801E+04  0.99045845257E+03 0.  0.
        -13    1    3    3    0    0  0.47685692745E+03 -0.41450383504E+03  0.18378921265E+03  0.65801553505E+03  0.10566000000E+00 0.  1.
          4    1    3    3  501    0 -0.32317321347E+03  0.20259925686E+03 -0.78672660734E+02  0.38945702244E+03  0.00000000000E+00 0.  1.
         13    1    4    4    0    0 -0.46884784273E+03 -0.47406925019E+02  0.14964271917E+03  0.49442761931E+03  0.10566000000E+00 0. -1.
         -4    1    4    4    0  502  0.31516412874E+03  0.25931150320E+03  0.82095920802E+03  0.91681236083E+03  0.00000000000E+00 0. -1.
<mgrwt>
<rscale>  2 0.10377266E+04</rscale>
<asrwt>0</asrwt>
<pdfrwt beam="1">  1       21 0.27187931E+00 0.10421849E+04</pdfrwt>
<pdfrwt beam="2">  1       21 0.10638416E+00 0.10421849E+04</pdfrwt>
<totfact> 0.14170489E+01</totfact>
</mgrwt>
</event>
<event>
 8    1  0.7631533E-006  0.1017801E+04  0.7818608E-02  0.8761805E-01
         21   -1    0    0  503  502  0.00000000000E+00  0.00000000000E+00  0.57083275303E+03  0.57083275303E+03  0.00000000000E+00 0. -1.
         21   -1    0    0  501  503 -0.00000000000E+00 -0.00000000000E+00 -0.17972590938E+04  0.17972590938E+04  0.00000000000E+00 0. -1.
    9000010    2    1    2  501    0 -0.55420844780E+02 -0.33430927550E+02 -0.70225297033E+03  0.12232440566E+04  0.99948871468E+03 0.  0.
   -9000010    2    1    2    0  502  0.55420844780E+02  0.33430927550E+02 -0.52417337045E+03  0.11448477902E+04  0.10157409333E+04 0.  0.
        -13    1    3    3    0    0 -0.17667439365E+03  0.40705021370E+03 -0.79380027939E+02  0.45078256161E+03  0.10566000000E+00 0.  1.
          4    1    3    3  501    0  0.12125354887E+03 -0.44048114125E+03 -0.62287294239E+03  0.77246149502E+03  0.00000000000E+00 0.  1.
         13    1    4    4    0    0 -0.19256554752E+02  0.49587602209E+03 -0.86440375213E+02  0.50372194097E+03  0.10566000000E+00 0. -1.
         -4    1    4    4    0  502  0.74677399531E+02 -0.46244509454E+03 -0.43773299524E+03  0.64112584926E+03  0.00000000000E+00 0. -1.
<mgrwt>
<rscale>  2 0.10137218E+04</rscale>
<asrwt>0</asrwt>
<pdfrwt beam="1">  1       21 0.87820423E-01 0.10178009E+04</pdfrwt>
<pdfrwt beam="2">  1       21 0.27650140E+00 0.10178009E+04</pdfrwt>
<totfact> 0.21721460E+01</totfact>
</mgrwt>
</event>
<event>
 8    1  0.7631533E-006  0.1071853E+04  0.7818608E-02  0.8711712E-01
         21   -1    0    0  503  502  0.00000000000E+00  0.00000000000E+00  0.22569238901E+04  0.22569238901E+04  0.00000000000E+00 0.  1.
         21   -1    0    0  501  503 -0.00000000000E+00 -0.00000000000E+00 -0.58280476454E+03  0.58280476454E+03  0.00000000000E+00 0.  1.
    9000010    2    1    2  501    0  0.17338310072E+03 -0.32890867873E+03  0.31537197893E+03  0.11091038721E+04  0.99619741795E+03 0.  0.
   -9000010    2    1    2    0  502 -0.17338310072E+03  0.32890867873E+03  0.13587471467E+04  0.17306247825E+04  0.10052988167E+04 0.  0.
        -13    1    3    3    0    0  0.18507339643E+03 -0.15374216512E+03  0.67082153678E+03  0.71266426932E+03  0.10566000000E+00 0.  1.
          4    1    3    3  501    0 -0.11690295703E+02 -0.17516651361E+03 -0.35544955785E+03  0.39643960281E+03  0.00000000000E+00 0.  1.
         13    1    4    4    0    0 -0.45975804661E+01  0.47763772332E+03  0.14194092214E+04  0.14976252807E+04  0.10566000000E+00 0. -1.
         -4    1    4    4    0  502 -0.16878552026E+03 -0.14872904458E+03 -0.60662074720E+02  0.23299950185E+03  0.00000000000E+00 0. -1.
<mgrwt>
<rscale>  2 0.10697135E+04</rscale>
<asrwt>0</asrwt>
<pdfrwt beam="1">  1       21 0.34721906E+00 0.10718528E+04</pdfrwt>
<pdfrwt beam="2">  1       21 0.89662273E-01 0.10718528E+04</pdfrwt>
<totfact> 0.64506770E+00</totfact>
</mgrwt>
</event>
<event>
 8    1  0.7631533E-006  0.1010173E+04  0.7818608E-02  0.8776395E-01
         21   -1    0    0  501  502  0.00000000000E+00  0.00000000000E+00  0.77159474893E+03  0.77159474893E+03  0.00000000000E+00 0.  1.
         21   -1    0    0  502  503 -0.00000000000E+00 -0.00000000000E+00 -0.12820756236E+04  0.12820756236E+04  0.00000000000E+00 0.  1.
    9000010    2    1    2  501    0  0.16281553208E+03  0.16304766597E+03 -0.12987173241E+03  0.10184872935E+04  0.98354270942E+03 0.  0.
   -9000010    2    1    2    0  503 -0.16281553208E+03 -0.16304766597E+03 -0.38060914230E+03  0.10351830791E+04  0.93469099127E+03 0.  0.
        -13    1    3    3    0    0  0.41297614421E+03 -0.27342770894E+03  0.13171278952E+02  0.49546493464E+03  0.10566000000E+00 0.  1.
          4    1    3    3  501    0 -0.25016061212E+03  0.43647537491E+03 -0.14304301137E+03  0.52302235886E+03  0.00000000000E+00 0.  1.
         13    1    4    4    0    0 -0.50892552081E+03 -0.28151815650E+03 -0.32171354063E+03  0.66464823144E+03  0.10566000000E+00 0. -1.
         -4    1    4    4    0  503  0.34610998873E+03  0.11847049053E+03 -0.58895601673E+02  0.37053484764E+03  0.00000000000E+00 0. -1.
<mgrwt>
<rscale>  2 0.99808293E+03</rscale>
<asrwt>0</asrwt>
<pdfrwt beam="1">  1       21 0.11870689E+00 0.10101731E+04</pdfrwt>
<pdfrwt beam="2">  1       21 0.19724240E+00 0.10101731E+04</pdfrwt>
<totfact> 0.37921513E+01</totfact>
</mgrwt>
</event>
<event>
 8    1  0.7631533E-006  0.1065661E+04  0.7818608E-02  0.8766692E-01
         21   -1    0    0  501  502  0.00000000000E+00  0.00000000000E+00  0.90950852255E+03  0.90950852255E+03  0.00000000000E+00 0. -1.
         21   -1    0    0  502  503 -0.00000000000E+00 -0.00000000000E+00 -0.10436690497E+04  0.10436690497E+04  0.00000000000E+00 0. -1.
    9000010    2    1    2  501    0  0.61639527947E+02 -0.19950024742E+02  0.10496290212E+03  0.86101779466E+03  0.85213672436E+03 0.  0.
   -9000010    2    1    2    0  503 -0.61639527947E+02  0.19950024742E+02 -0.23912342928E+03  0.10921597776E+04  0.10636895837E+04 0.  0.
        -13    1    3    3    0    0  0.36439090964E+03 -0.22156525430E+03  0.21954334328E+03  0.47965736488E+03  0.10566000000E+00 0.  1.
          4    1    3    3  501    0 -0.30275138169E+03  0.20161522955E+03 -0.11458044116E+03  0.38136042978E+03  0.00000000000E+00 0.  1.
         13    1    4    4    0    0 -0.28257005203E+03  0.47824533326E+03 -0.15282171633E+03  0.57612405021E+03  0.10566000000E+00 0. -1.
         -4    1    4    4    0  503  0.22093052409E+03 -0.45829530852E+03 -0.86301712951E+02  0.51603572739E+03  0.00000000000E+00 0. -1.
<mgrwt>
<rscale>  2 0.10084502E+04</rscale>
<asrwt>0</asrwt>
<pdfrwt beam="1">  1       21 0.13992439E+00 0.10656608E+04</pdfrwt>
<pdfrwt beam="2">  1       21 0.16056447E+00 0.10656608E+04</pdfrwt>
<totfact> 0.46640181E+01</totfact>
</mgrwt>
</event>
<event>
 8    1  0.7631533E-006  0.1018861E+04  0.7818608E-02  0.8767627E-01
         21   -1    0    0  501  502  0.00000000000E+00  0.00000000000E+00  0.84929800508E+03  0.84929800508E+03  0.00000000000E+00 0.  1.
         21   -1    0    0  502  503 -0.00000000000E+00 -0.00000000000E+00 -0.14686339247E+04  0.14686339247E+04  0.00000000000E+00 0.  1.
    9000010    2    1    2  501    0 -0.18450397849E+03 -0.82728756958E+02 -0.83859883572E+03  0.13195931824E+04  0.99859521056E+03 0.  0.
   -9000010    2    1    2    0  503  0.18450397849E+03  0.82728756958E+02  0.21926291607E+03  0.99833874738E+03  0.95274249556E+03 0.  0.
        -13    1    3    3    0    0 -0.34013778610E+03  0.36445234664E+03 -0.23140142107E+03  0.54960518133E+03  0.10566000000E+00 0.  1.
          4    1    3    3  501    0  0.15563380761E+03 -0.44718110360E+03 -0.60719741465E+03  0.76998800111E+03  0.00000000000E+00 0.  1.
         13    1    4    4    0    0 -0.63424440757E+02 -0.40744886696E+03  0.16127166364E+02  0.41267097733E+03  0.10566000000E+00 0. -1.
         -4    1    4    4    0  503  0.24792841925E+03  0.49017762392E+03  0.20313574970E+03  0.58566777005E+03  0.00000000000E+00 0. -1.
<mgrwt>
<rscale>  2 0.10074463E+04</rscale>
<asrwt>0</asrwt>
<pdfrwt beam="1">  1       21 0.13066123E+00 0.10188612E+04</pdfrwt>
<pdfrwt beam="2">  1       21 0.22594368E+00 0.10188612E+04</pdfrwt>
<totfact> 0.17395186E+01</totfact>
</mgrwt>
</event>
<event>
 8    1  0.7631533E-006  0.1344316E+04  0.7818608E-02  0.8507882E-01
         21   -1    0    0  503  502  0.00000000000E+00  0.00000000000E+00  0.85472774596E+03  0.85472774596E+03  0.00000000000E+00 0.  1.
         21   -1    0    0  501  503 -0.00000000000E+00 -0.00000000000E+00 -0.21254136337E+04  0.21254136337E+04  0.00000000000E+00 0. -1.
    9000010    2    1    2  501    0 -0.65718448489E+03  0.55926718807E+03 -0.83573071780E+03  0.15829184527E+04  0.10307830812E+04 0.  0.
   -9000010    2    1    2    0  502  0.65718448489E+03 -0.55926718807E+03 -0.43495516989E+03  0.13972229269E+04  0.10091455162E+04 0.  0.
        -13    1    3    3    0    0 -0.40318207267E+02  0.68196969684E+03 -0.60637083645E+03  0.91345160119E+03  0.10566000000E+00 0.  1.
          4    1    3    3  501    0 -0.61686627762E+03 -0.12270250877E+03 -0.22935988135E+03  0.66946685153E+03  0.00000000000E+00 0.  1.
         13    1    4    4    0    0  0.24466214146E+02 -0.58976748701E+03  0.60019504534E+02  0.59331832641E+03  0.10566000000E+00 0. -1.
         -4    1    4    4    0  502  0.63271827075E+03  0.30500298937E+02 -0.49497467443E+03  0.80390460049E+03  0.00000000000E+00 0. -1.
<mgrwt>
<rscale>  2 0.13401670E+04</rscale>
<asrwt>0</asrwt>
<pdfrwt beam="1">  1       21 0.13149658E+00 0.13443158E+04</pdfrwt>
<pdfrwt beam="2">  1       21 0.32698671E+00 0.13443158E+04</pdfrwt>
<totfact> 0.30002520E+00</totfact>
</mgrwt>
</event>
<event>
 8    1  0.7631533E-006  0.1094810E+04  0.7818608E-02  0.8701750E-01
         21   -1    0    0  503  502  0.00000000000E+00  0.00000000000E+00  0.75470414671E+03  0.75470414671E+03  0.00000000000E+00 0. -1.
         21   -1    0    0  501  503 -0.00000000000E+00 -0.00000000000E+00 -0.24516623980E+04  0.24516623980E+04  0.00000000000E+00 0. -1.
    9000010    2    1    2  501    0 -0.11218845950E+02 -0.15788910367E+03 -0.18537468469E+04  0.21529018855E+04  0.10833071239E+04 0.  0.
   -9000010    2    1    2    0  502  0.11218845950E+02  0.15788910367E+03  0.15678859559E+03  0.10534646592E+04  0.10296360002E+04 0.  0.
        -13    1    3    3    0    0 -0.44695748355E+02 -0.48662618567E+03 -0.17338275838E+04  0.18013774885E+04  0.10566000000E+00 0.  1.
          4    1    3    3  501    0  0.33476902405E+02  0.32873708199E+03 -0.11991926312E+03  0.35152439708E+03  0.00000000000E+00 0.  1.
         13    1    4    4    0    0  0.44959428617E+03  0.20261655359E+03  0.31512648226E+03  0.58522918667E+03  0.10566000000E+00 0. -1.
         -4    1    4    4    0  502 -0.43837544022E+03 -0.44727449917E+02 -0.15833788667E+03  0.46823547252E+03  0.00000000000E+00 0. -1.
<mgrwt>
<rscale>  2 0.10812922E+04</rscale>
<asrwt>0</asrwt>
<pdfrwt beam="1">  1       21 0.11610833E+00 0.10948101E+04</pdfrwt>
<pdfrwt beam="2">  1       21 0.37717883E+00 0.10948101E+04</pdfrwt>
<totfact> 0.19985244E+00</totfact>
</mgrwt>
</event>
<event>
 8    1  0.7631533E-006  0.1010431E+04  0.7818608E-02  0.8766803E-01
         21   -1    0    0  501  502  0.00000000000E+00  0.00000000000E+00  0.59843931568E+03  0.59843931568E+03  0.00000000000E+00 0. -1.
         21   -1    0    0  502  503 -0.00000000000E+00 -0.00000000000E+00 -0.17103528387E+04  0.17103528387E+04  0.00000000000E+00 0. -1.
    9000010    2    1    2  501    0 -0.96313145628E+01 -0.54802097908E+02 -0.43848707860E+03  0.11014727566E+04  0.10088980540E+04 0.  0.
   -9000010    2    1    2    0  503  0.96313145628E+01  0.54802097908E+02 -0.67342644441E+03  0.12073193977E+04  0.10005103298E+04 0.  0.
        -13    1    3    3    0    0 -0.11857393236E+03  0.39043580326E+03  0.73139365785E+02  0.41454706837E+03  0.10566000000E+00 0.  1.
          4    1    3    3  501    0  0.10894261780E+03 -0.44523790117E+03 -0.51162644439E+03  0.68692568827E+03  0.00000000000E+00 0.  1.
         13    1    4    4    0    0 -0.30121988398E+03  0.32042847135E+03 -0.66632832571E+03  0.79837414322E+03  0.10566000000E+00 0. -1.
         -4    1    4    4    0  503  0.31085119854E+03 -0.26562637344E+03 -0.70981187042E+01  0.40894525451E+03  0.00000000000E+00 0. -1.
<mgrwt>
<rscale>  2 0.10083310E+04</rscale>
<asrwt>0</asrwt>
<pdfrwt beam="1">  1       21 0.92067588E-01 0.10104313E+04</pdfrwt>
<pdfrwt beam="2">  1       21 0.26313120E+00 0.10104313E+04</pdfrwt>
<totfact> 0.24032152E+01</totfact>
</mgrwt>
</event>
<event>
 8    1  0.7631533E-006  0.1040219E+04  0.7818608E-02  0.8740275E-01
         21   -1    0    0  501  502  0.00000000000E+00  0.00000000000E+00  0.10043022395E+04  0.10043022395E+04  0.00000000000E+00 0. -1.
         21   -1    0    0  502  503 -0.00000000000E+00 -0.00000000000E+00 -0.17145489297E+04  0.17145489297E+04  0.00000000000E+00 0. -1.
    9000010    2    1    2  501    0  0.18917018782E+03  0.17289390090E+03  0.48244503437E+03  0.11362683959E+04  0.99633076602E+03 0.  0.
   -9000010    2    1    2    0  503 -0.18917018782E+03 -0.17289390090E+03 -0.11926917246E+04  0.15825827733E+04  0.10081552576E+04 0.  0.
        -13    1    3    3    0    0  0.37100731244E+03 -0.28874742344E+03  0.43038908526E+03  0.63738236272E+03  0.10566000000E+00 0.  1.
          4    1    3    3  501    0 -0.18183712462E+03  0.46164132435E+03  0.52055949109E+02  0.49888603315E+03  0.00000000000E+00 0.  1.
         13    1    4    4    0    0  0.76157977351E+02  0.40028229284E+03 -0.43171513725E+03  0.59363618688E+03  0.10566000000E+00 0. -1.
         -4    1    4    4    0  503 -0.26532816517E+03 -0.57317619374E+03 -0.76097658740E+03  0.98894658646E+03  0.00000000000E+00 0. -1.
<mgrwt>
<rscale>  2 0.10373427E+04</rscale>
<asrwt>0</asrwt>
<pdfrwt beam="1">  1       21 0.15450804E+00 0.10402186E+04</pdfrwt>
<pdfrwt beam="2">  1       21 0.26377676E+00 0.10402186E+04</pdfrwt>
<totfact> 0.55293944E+00</totfact>
</mgrwt>
</event>
<event>
 8    1  0.7631533E-006  0.1089397E+04  0.7818608E-02  0.8696313E-01
         21   -1    0    0  503  502  0.00000000000E+00  0.00000000000E+00  0.10890199176E+04  0.10890199176E+04  0.00000000000E+00 0. -1.
         21   -1    0    0  501  503 -0.00000000000E+00 -0.00000000000E+00 -0.13410231041E+04  0.13410231041E+04  0.00000000000E+00 0. -1.
    9000010    2    1    2  501    0 -0.17591259817E+03 -0.36594402065E+03 -0.65872621539E+03  0.12671977446E+04  0.10034986939E+04 0.  0.
   -9000010    2    1    2    0  502  0.17591259817E+03  0.36594402065E+03  0.40672302889E+03  0.11628452770E+04  0.10109031841E+04 0.  0.
        -13    1    3    3    0    0  0.30567659612E+03 -0.46483934381E+03 -0.18990515351E+03  0.58785863561E+03  0.10566000000E+00 0.  1.
          4    1    3    3  501    0 -0.48158919429E+03  0.98895323158E+02 -0.46882106188E+03  0.67933910903E+03  0.00000000000E+00 0.  1.
         13    1    4    4    0    0 -0.23956651781E+03  0.56910572466E+03  0.30761262975E+03  0.68985432045E+03  0.10566000000E+00 0. -1.
         -4    1    4    4    0  502  0.41547911598E+03 -0.20316170401E+03  0.99110399140E+02  0.47299095658E+03  0.00000000000E+00 0. -1.
<mgrwt>
<rscale>  2 0.10876759E+04</rscale>
<asrwt>0</asrwt>
<pdfrwt beam="1">  1       21 0.16754153E+00 0.10893969E+04</pdfrwt>
<pdfrwt beam="2">  1       21 0.20631125E+00 0.10893969E+04</pdfrwt>
<totfact> 0.11253135E+01</totfact>
</mgrwt>
</event>
<event>
 8    1  0.7631533E-006  0.1029006E+04  0.7818608E-02  0.8765629E-01
         21   -1    0    0  501  502  0.00000000000E+00  0.00000000000E+00  0.14857343714E+04  0.14857343714E+04  0.00000000000E+00 0. -1.
         21   -1    0    0  502  503 -0.00000000000E+00 -0.00000000000E+00 -0.68397219413E+03  0.68397219413E+03  0.00000000000E+00 0. -1.
    9000010    2    1    2  501    0  0.15771570559E+03 -0.22438597511E+03  0.61272884400E+03  0.11976181151E+04  0.99178082443E+03 0.  0.
   -9000010    2    1    2    0  503 -0.15771570559E+03  0.22438597511E+03  0.18903333323E+03  0.97208845041E+03  0.91323548154E+03 0.  0.
        -13    1    3    3    0    0  0.13493655605E+03 -0.46165047082E+03 -0.59264711780E+02  0.48460432168E+03  0.10566000000E+00 0.  1.
          4    1    3    3  501    0  0.22779149537E+02  0.23726449571E+03  0.67199355578E+03  0.71301379341E+03  0.00000000000E+00 0.  1.
         13    1    4    4    0    0 -0.31685647952E+03 -0.17370113528E+03  0.36043586033E+03  0.51037646261E+03  0.10566000000E+00 0. -1.
         -4    1    4    4    0  503  0.15914077393E+03  0.39808711039E+03 -0.17140252710E+03  0.46171198780E+03  0.00000000000E+00 0. -1.
<mgrwt>
<rscale>  2 0.10095947E+04</rscale>
<asrwt>0</asrwt>
<pdfrwt beam="1">  1       21 0.22857452E+00 0.10290056E+04</pdfrwt>
<pdfrwt beam="2">  1       21 0.10522649E+00 0.10290056E+04</pdfrwt>
<totfact> 0.30244273E+01</totfact>
</mgrwt>
</event>
<event>
 8    1  0.7631533E-006  0.1333527E+04  0.7818608E-02  0.8518783E-01
         21   -1    0    0  501  502  0.00000000000E+00  0.00000000000E+00  0.11435668197E+04  0.11435668197E+04  0.00000000000E+00 0.  1.
         21   -1    0    0  502  503 -0.00000000000E+00 -0.00000000000E+00 -0.24623163957E+04  0.24623163957E+04  0.00000000000E+00 0. -1.
    9000010    2    1    2  501    0 -0.87042008382E+03 -0.13037835236E+03  0.45569476772E+03  0.14092379811E+04  0.10018304892E+04 0.  0.
   -9000010    2    1    2    0  503  0.87042008382E+03  0.13037835236E+03 -0.17744443437E+04  0.21966452342E+04  0.94971991623E+03 0.  0.
        -13    1    3    3    0    0 -0.64400080303E+03  0.38926074849E+03  0.15768366062E+03  0.76884661189E+03  0.10566000000E+00 0.  1.
          4    1    3    3  501    0 -0.22641928079E+03 -0.51963910085E+03  0.29801110709E+03  0.64039136925E+03  0.00000000000E+00 0.  1.
         13    1    4    4    0    0  0.94949008144E+03  0.35174333802E+03 -0.16355587330E+04  0.19236182498E+04  0.10566000000E+00 0. -1.
         -4    1    4    4    0  503 -0.79069997623E+02 -0.22136498566E+03 -0.13888561067E+03  0.27302698447E+03  0.00000000000E+00 0. -1.
<mgrwt>
<rscale>  2 0.13237468E+04</rscale>
<asrwt>0</asrwt>
<pdfrwt beam="1">  1       21 0.17593336E+00 0.13335269E+04</pdfrwt>
<pdfrwt beam="2">  1       21 0.37881791E+00 0.13335269E+04</pdfrwt>
<totfact> 0.52419821E-01</totfact>
</mgrwt>
</event>
<event>
 8    1  0.7631533E-006  0.1026114E+04  0.7818608E-02  0.8750698E-01
         21   -1    0    0  503  502  0.00000000000E+00  0.00000000000E+00  0.70661951951E+03  0.70661951951E+03  0.00000000000E+00 0.  1.
         21   -1    0    0  501  503 -0.00000000000E+00 -0.00000000000E+00 -0.16369396638E+04  0.16369396638E+04  0.00000000000E+00 0.  1.
    9000010    2    1    2  501    0 -0.11375015169E+03 -0.17814617734E+03 -0.81838890200E+03  0.13125053002E+04  0.10041088639E+04 0.  0.
   -9000010    2    1    2    0  502  0.11375015169E+03  0.17814617734E+03 -0.11193124235E+03  0.10310538832E+04  0.10029298827E+04 0.  0.
        -13    1    3    3    0    0 -0.40873356823E+03 -0.24516019544E+03 -0.88277985531E+03  0.10032282568E+04  0.10566000000E+00 0.  1.
          4    1    3    3  501    0  0.29498341654E+03  0.67014018104E+02  0.64390953312E+02  0.30927704332E+03  0.00000000000E+00 0.  1.
         13    1    4    4    0    0  0.10803540135E+01  0.28545718443E+03  0.40258811181E+03  0.49352220846E+03  0.10566000000E+00 0. -1.
         -4    1    4    4    0  502  0.11266979767E+03 -0.10731100709E+03 -0.51451935415E+03  0.53753167474E+03  0.00000000000E+00 0. -1.
<mgrwt>
<rscale>  2 0.10258254E+04</rscale>
<asrwt>0</asrwt>
<pdfrwt beam="1">  1       21 0.10871070E+00 0.10261139E+04</pdfrwt>
<pdfrwt beam="2">  1       21 0.25183687E+00 0.10261139E+04</pdfrwt>
<totfact> 0.18713991E+01</totfact>
</mgrwt>
</event>
<event>
 8    1  0.7631533E-006  0.1137754E+04  0.7818608E-02  0.8661229E-01
         21   -1    0    0  501  502  0.00000000000E+00  0.00000000000E+00  0.34588160677E+03  0.34588160677E+03  0.00000000000E+00 0.  1.
         21   -1    0    0  502  503 -0.00000000000E+00 -0.00000000000E+00 -0.38048300234E+04  0.38048300234E+04  0.00000000000E+00 0.  1.
    9000010    2    1    2  501    0 -0.42754079659E+03 -0.17446633669E+03 -0.21811815804E+04  0.24600890174E+04  0.10398342424E+04 0.  0.
   -9000010    2    1    2    0  503  0.42754079659E+03  0.17446633669E+03 -0.12777668363E+04  0.16906226128E+04  0.10061247912E+04 0.  0.
        -13    1    3    3    0    0 -0.45276635556E+03 -0.57113616913E+03 -0.12384753917E+04  0.14370160762E+04  0.10566000000E+00 0.  1.
          4    1    3    3  501    0  0.25225558967E+02  0.39666983245E+03 -0.94270618868E+03  0.10230729412E+04  0.00000000000E+00 0.  1.
         13    1    4    4    0    0  0.70600632167E+03 -0.27152104441E+02 -0.10898390943E+04  0.12988192429E+04  0.10566000000E+00 0. -1.
         -4    1    4    4    0  503 -0.27846552507E+03  0.20161844113E+03 -0.18792774196E+03  0.39180336989E+03  0.00000000000E+00 0. -1.
<mgrwt>
<rscale>  2 0.11299944E+04</rscale>
<asrwt>0</asrwt>
<pdfrwt beam="1">  1       21 0.53212554E-01 0.11377543E+04</pdfrwt>
<pdfrwt beam="2">  1       21 0.58535847E+00 0.11377543E+04</pdfrwt>
<totfact> 0.45881018E-01</totfact>
</mgrwt>
</event>
<event>
 8    1  0.7631533E-006  0.1022648E+04  0.7818608E-02  0.8754665E-01
         21   -1    0    0  503  502  0.00000000000E+00  0.00000000000E+00  0.15314670926E+04  0.15314670926E+04  0.00000000000E+00 0.  1.
         21   -1    0    0  501  503 -0.00000000000E+00 -0.00000000000E+00 -0.10606197646E+04  0.10606197646E+04  0.00000000000E+00 0.  1.
    9000010    2    1    2  501    0 -0.13619478527E+03 -0.12267732094E+03 -0.54085937083E+03  0.11568650966E+04  0.10060861037E+04 0.  0.
   -9000010    2    1    2    0  502  0.13619478527E+03  0.12267732094E+03  0.10117066989E+04  0.14352217606E+04  0.10013552381E+04 0.  0.
        -13    1    3    3    0    0 -0.52145590571E+03  0.12137138661E+03 -0.14941194160E+03  0.55585179189E+03  0.10566000000E+00 0.  1.
          4    1    3    3  501    0  0.38526112044E+03 -0.24404870755E+03 -0.39144742922E+03  0.60101330470E+03  0.00000000000E+00 0.  1.
         13    1    4    4    0    0  0.21941102618E+03  0.23065358031E+03 -0.85463220222E+02  0.32961529954E+03  0.10566000000E+00 0. -1.
         -4    1    4    4    0  502 -0.83216240907E+02 -0.10797625936E+03  0.10971699191E+04  0.11056064610E+04  0.00000000000E+00 0. -1.
<mgrwt>
<rscale>  2 0.10214821E+04</rscale>
<asrwt>0</asrwt>
<pdfrwt beam="1">  1       21 0.23561032E+00 0.10226475E+04</pdfrwt>
<pdfrwt beam="2">  1       21 0.16317227E+00 0.10226475E+04</pdfrwt>
<totfact> 0.74905263E+00</totfact>
</mgrwt>
</event>
<event>
 8    1  0.7631533E-006  0.1043342E+04  0.7818608E-02  0.8738018E-01
         21   -1    0    0  503  502  0.00000000000E+00  0.00000000000E+00  0.19676015404E+04  0.19676015404E+04  0.00000000000E+00 0.  1.
         21   -1    0    0  501  503 -0.00000000000E+00 -0.00000000000E+00 -0.80193311775E+03  0.80193311775E+03  0.00000000000E+00 0.  1.
    9000010    2    1    2  501    0  0.12666583692E+03  0.25599982141E+03 -0.19692766976E+03  0.10617638714E+04  0.10034848622E+04 0.  0.
   -9000010    2    1    2    0  502 -0.12666583692E+03 -0.25599982141E+03  0.13625960924E+04  0.17077707868E+04  0.98905652326E+03 0.  0.
        -13    1    3    3    0    0 -0.33501601392E+02 -0.38115578465E+03 -0.29347352582E+02  0.38374909477E+03  0.10566000000E+00 0.  1.
          4    1    3    3  501    0  0.16016743831E+03  0.63715560607E+03 -0.16758031718E+03  0.67801477664E+03  0.00000000000E+00 0.  1.
         13    1    4    4    0    0 -0.10123567244E+03  0.37466240461E+03  0.63853088666E+03  0.74722304781E+03  0.10566000000E+00 0. -1.
         -4    1    4    4    0  502 -0.25430164484E+02 -0.63066222602E+03  0.72406520576E+03  0.96054773894E+03  0.00000000000E+00 0. -1.
<mgrwt>
<rscale>  2 0.10398569E+04</rscale>
<asrwt>0</asrwt>
<pdfrwt beam="1">  1       21 0.30270793E+00 0.10433418E+04</pdfrwt>
<pdfrwt beam="2">  1       21 0.12337433E+00 0.10433418E+04</pdfrwt>
<totfact> 0.56928766E+00</totfact>
</mgrwt>
</event>
<event>
 8    1  0.7631533E-006  0.1046765E+04  0.7818608E-02  0.8773395E-01
         21   -1    0    0  503  502  0.00000000000E+00  0.00000000000E+00  0.61529399559E+03  0.61529399559E+03  0.00000000000E+00 0.  1.
         21   -1    0    0  501  503 -0.00000000000E+00 -0.00000000000E+00 -0.15339781771E+04  0.15339781771E+04  0.00000000000E+00 0.  1.
    9000010    2    1    2  501    0 -0.22414188672E+03 -0.19317899765E+03 -0.57246389277E+03  0.10467361642E+04  0.82485391331E+03 0.  0.
   -9000010    2    1    2    0  502  0.22414188672E+03  0.19317899765E+03 -0.34622028875E+03  0.11025360086E+04  0.10040714373E+04 0.  0.
        -13    1    3    3    0    0 -0.32053526681E+03 -0.28922998889E+03  0.26460715470E+02  0.43254713543E+03  0.10566000000E+00 0.  1.
          4    1    3    3  501    0  0.96393380087E+02  0.96050991249E+02 -0.59892460824E+03  0.61418902872E+03  0.00000000000E+00 0.  1.
         13    1    4    4    0    0  0.53937173852E+02  0.59456038329E+03 -0.28749946123E+03  0.66262147525E+03  0.10566000000E+00 0. -1.
         -4    1    4    4    0  502  0.17020471287E+03 -0.40138138564E+03 -0.58720827518E+02  0.43991453330E+03  0.00000000000E+00 0. -1.
<mgrwt>
<rscale>  2 0.10012740E+04</rscale>
<asrwt>0</asrwt>
<pdfrwt beam="1">  1       21 0.94660615E-01 0.10467651E+04</pdfrwt>
<pdfrwt beam="2">  1       21 0.23599664E+00 0.10467651E+04</pdfrwt>
<totfact> 0.34994238E+01</totfact>
</mgrwt>
</event>
<event>
 8    1  0.7631533E-006  0.1022227E+04  0.7818608E-02  0.8755678E-01
         21   -1    0    0  503  502  0.00000000000E+00  0.00000000000E+00  0.39171245515E+03  0.39171245515E+03  0.00000000000E+00 0. -1.
         21   -1    0    0  501  503 -0.00000000000E+00 -0.00000000000E+00 -0.31951413180E+04  0.31951413180E+04  0.00000000000E+00 0. -1.
    9000010    2    1    2  501    0 -0.13039204123E+03 -0.18928763483E+03 -0.21393624214E+04  0.23678657291E+04  0.98847592175E+03 0.  0.
   -9000010    2    1    2    0  502  0.13039204123E+03  0.18928763483E+03 -0.66406644153E+03  0.12189880441E+04  0.99605005891E+03 0.  0.
        -13    1    3    3    0    0 -0.83177634169E+02 -0.44830204659E+03 -0.39353681050E+03  0.60229932441E+03  0.10566000000E+00 0.  1.
          4    1    3    3  501    0 -0.47214407059E+02  0.25901441176E+03 -0.17458256109E+04  0.17655664047E+04  0.00000000000E+00 0.  1.
         13    1    4    4    0    0 -0.40182770597E+03  0.22807458692E+03 -0.17170792434E+03  0.49291697570E+03  0.10566000000E+00 0. -1.
         -4    1    4    4    0  502  0.53221974720E+03 -0.38786952094E+02 -0.49235851719E+03  0.72607106843E+03  0.00000000000E+00 0. -1.
<mgrwt>
<rscale>  2 0.10203771E+04</rscale>
<asrwt>0</asrwt>
<pdfrwt beam="1">  1       21 0.60263456E-01 0.10222268E+04</pdfrwt>
<pdfrwt beam="2">  1       21 0.49156020E+00 0.10222268E+04</pdfrwt>
<totfact> 0.16797008E+00</totfact>
</mgrwt>
</event>
<event>
 8    1  0.7631533E-006  0.1023687E+04  0.7818608E-02  0.8758134E-01
         21   -1    0    0  503  502  0.00000000000E+00  0.00000000000E+00  0.64381223864E+03  0.64381223864E+03  0.00000000000E+00 0.  1.
         21   -1    0    0  501  503 -0.00000000000E+00 -0.00000000000E+00 -0.17262934229E+04  0.17262934229E+04  0.00000000000E+00 0.  1.
    9000010    2    1    2  501    0 -0.10505819120E+01 -0.41074287862E+02 -0.87980269488E+03  0.13498100506E+04  0.10228617649E+04 0.  0.
   -9000010    2    1    2    0  502  0.10505819120E+01  0.41074287862E+02 -0.20267848938E+03  0.10202956109E+04  0.99911779222E+03 0.  0.
        -13    1    3    3    0    0 -0.20762117776E+02 -0.51796824134E+03 -0.30042542332E+03  0.59914740316E+03  0.10566000000E+00 0.  1.
          4    1    3    3  501    0  0.19711535864E+02  0.47689395348E+03 -0.57937727156E+03  0.75066264747E+03  0.00000000000E+00 0.  1.
         13    1    4    4    0    0  0.13882362042E+03  0.36406900385E+02  0.38802719933E+03  0.41371799401E+03  0.10566000000E+00 0. -1.
         -4    1    4    4    0  502 -0.13777303851E+03  0.46673874767E+01 -0.59070568871E+03  0.60657761690E+03  0.00000000000E+00 0. -1.
<mgrwt>
<rscale>  2 0.10177033E+04</rscale>
<asrwt>0</asrwt>
<pdfrwt beam="1">  1       21 0.99048037E-01 0.10236867E+04</pdfrwt>
<pdfrwt beam="2">  1       21 0.26558360E+00 0.10236867E+04</pdfrwt>
<totfact> 0.19072052E+01</totfact>
</mgrwt>
</event>
<event>
 8    1  0.7631533E-006  0.1031933E+04  0.7818608E-02  0.8749214E-01
         21   -1    0    0  503  502  0.00000000000E+00  0.00000000000E+00  0.60258116861E+03  0.60258116861E+03  0.00000000000E+00 0. -1.
         21   -1    0    0  501  503 -0.00000000000E+00 -0.00000000000E+00 -0.21580537866E+04  0.21580537866E+04  0.00000000000E+00 0. -1.
    9000010    2    1    2  501    0  0.18705432045E+03  0.10994855682E+01 -0.13929558612E+04  0.17335547534E+04  0.10148376837E+04 0.  0.
   -9000010    2    1    2    0  502 -0.18705432045E+03 -0.10994855682E+01 -0.16251675686E+03  0.10270802018E+04  0.99674044619E+03 0.  0.
        -13    1    3    3    0    0 -0.59137702863E+02 -0.10080712696E+03 -0.14552371930E+04  0.14599228212E+04  0.10566000000E+00 0.  1.
          4    1    3    3  501    0  0.24619202332E+03  0.10190661253E+03  0.62281331869E+02  0.27363193220E+03  0.00000000000E+00 0.  1.
         13    1    4    4    0    0 -0.37819028961E+03  0.37917389031E+03 -0.25247942544E+03  0.59206976421E+03  0.10566000000E+00 0. -1.
         -4    1    4    4    0  502  0.19113596916E+03 -0.38027337588E+03  0.89962668582E+02  0.43501043763E+03  0.00000000000E+00 0. -1.
<mgrwt>
<rscale>  2 0.10274561E+04</rscale>
<asrwt>0</asrwt>
<pdfrwt beam="1">  1       21 0.92704793E-01 0.10319332E+04</pdfrwt>
<pdfrwt beam="2">  1       21 0.33200828E+00 0.10319332E+04</pdfrwt>
<totfact> 0.76417970E+00</totfact>
</mgrwt>
</event>
<event>
 8    1  0.7631533E-006  0.9987001E+03  0.7818608E-02  0.8776291E-01
         21   -1    0    0  503  502  0.00000000000E+00  0.00000000000E+00  0.60248548221E+03  0.60248548221E+03  0.00000000000E+00 0.  1.
         21   -1    0    0  501  503 -0.00000000000E+00 -0.00000000000E+00 -0.17986383710E+04  0.17986383710E+04  0.00000000000E+00 0.  1.
    9000010    2    1    2  501    0  0.75742781566E+02 -0.17844454947E+01 -0.94017568792E+03  0.13701406824E+04  0.99378821291E+03 0.  0.
   -9000010    2    1    2    0  502 -0.75742781566E+02  0.17844454947E+01 -0.25597720083E+03  0.10309831708E+04  0.99582218188E+03 0.  0.
        -13    1    3    3    0    0  0.15796294770E+03  0.44692679225E+03 -0.23198868385E+03  0.52774483519E+03  0.10566000000E+00 0.  1.
          4    1    3    3  501    0 -0.82220166130E+02 -0.44871123775E+03 -0.70818700407E+03  0.84239584717E+03  0.00000000000E+00 0.  1.
         13    1    4    4    0    0 -0.35249855788E+03  0.38668447291E+03 -0.10711937715E+03  0.53409239558E+03  0.10566000000E+00 0. -1.
         -4    1    4    4    0  502  0.27675577631E+03 -0.38490002741E+03 -0.14885782368E+03  0.49689077522E+03  0.00000000000E+00 0. -1.
<mgrwt>
<rscale>  2 0.99819273E+03</rscale>
<asrwt>0</asrwt>
<pdfrwt beam="1">  1       21 0.92690074E-01 0.99870014E+03</pdfrwt>
<pdfrwt beam="2">  1       21 0.27671360E+00 0.99870014E+03</pdfrwt>
<totfact> 0.18934164E+01</totfact>
</mgrwt>
</event>
<event>
 8    1  0.7631533E-006  0.1019885E+04  0.7818608E-02  0.8762807E-01
         21   -1    0    0  501  502  0.00000000000E+00  0.00000000000E+00  0.25915798909E+04  0.25915798909E+04  0.00000000000E+00 0.  1.
         21   -1    0    0  502  503 -0.00000000000E+00 -0.00000000000E+00 -0.39190705164E+03  0.39190705164E+03  0.00000000000E+00 0.  1.
    9000010    2    1    2  501    0  0.35194252911E+02  0.13648476390E+03  0.98449315375E+03  0.13970357072E+04  0.98112958941E+03 0.  0.
   -9000010    2    1    2    0  503 -0.35194252911E+02 -0.13648476390E+03  0.12151796855E+04  0.15864512353E+04  0.10100985733E+04 0.  0.
        -13    1    3    3    0    0 -0.46252057062E+03  0.11667647243E+03  0.35664424533E+03  0.59559533776E+03  0.10566000000E+00 0.  1.
          4    1    3    3  501    0  0.49771482354E+03  0.19808291475E+02  0.62784890842E+03  0.80144036945E+03  0.00000000000E+00 0.  1.
         13    1    4    4    0    0  0.11038547855E+03 -0.44570116254E+03  0.11503241378E+04  0.12385798777E+04  0.10566000000E+00 0. -1.
         -4    1    4    4    0  503 -0.14557973146E+03  0.30921639864E+03  0.64855547665E+02  0.34787135764E+03  0.00000000000E+00 0. -1.
<mgrwt>
<rscale>  2 0.10126376E+04</rscale>
<asrwt>0</asrwt>
<pdfrwt beam="1">  1       21 0.39870459E+00 0.10198852E+04</pdfrwt>
<pdfrwt beam="2">  1       21 0.60293394E-01 0.10198852E+04</pdfrwt>
<totfact> 0.73948786E+00</totfact>
</mgrwt>
</event>
<event>
 8    1  0.7631533E-006  0.1163447E+04  0.7818608E-02  0.8650767E-01
         21   -1    0    0  503  502  0.00000000000E+00  0.00000000000E+00  0.15490178573E+04  0.15490178573E+04  0.00000000000E+00 0.  1.
         21   -1    0    0  501  503 -0.00000000000E+00 -0.00000000000E+00 -0.85616499421E+03  0.85616499421E+03  0.00000000000E+00 0.  1.
    9000010    2    1    2  501    0 -0.29925055134E+03 -0.50105638032E+03  0.94720674054E+02  0.11672960898E+04  0.10064788952E+04 0.  0.
   -9000010    2    1    2    0  502  0.29925055134E+03  0.50105638032E+03  0.59813218908E+03  0.12378867617E+04  0.91323224348E+03 0.  0.
        -13    1    3    3    0    0  0.23103236802E+03 -0.47000951470E+03  0.29323107387E+03  0.60022443539E+03  0.10566000000E+00 0.  1.
          4    1    3    3  501    0 -0.53028291937E+03 -0.31046865614E+02 -0.19851039982E+03  0.56707165444E+03  0.00000000000E+00 0.  1.
         13    1    4    4    0    0  0.46697711473E+03  0.39232735429E+03  0.76438914549E+03  0.97789526817E+03  0.10566000000E+00 0. -1.
         -4    1    4    4    0  502 -0.16772656339E+03  0.10872902603E+03 -0.16625695641E+03  0.25999149356E+03  0.00000000000E+00 0. -1.
<mgrwt>
<rscale>  2 0.11429999E+04</rscale>
<asrwt>0</asrwt>
<pdfrwt beam="1">  1       21 0.23831044E+00 0.11634467E+04</pdfrwt>
<pdfrwt beam="2">  1       21 0.13171769E+00 0.11634467E+04</pdfrwt>
<totfact> 0.13326032E+01</totfact>
</mgrwt>
</event>
<event>
 8    1  0.7631533E-006  0.1180441E+04  0.7818608E-02  0.8623329E-01
         21   -1    0    0  501  502  0.00000000000E+00  0.00000000000E+00  0.12246581668E+04  0.12246581668E+04  0.00000000000E+00 0.  1.
         21   -1    0    0  502  503 -0.00000000000E+00 -0.00000000000E+00 -0.12489194998E+04  0.12489194998E+04  0.00000000000E+00 0.  1.
    9000010    2    1    2  501    0  0.17997177792E+03 -0.60137029579E+03  0.37212392093E+03  0.12283621837E+04  0.98810999810E+03 0.  0.
   -9000010    2    1    2    0  503 -0.17997177792E+03  0.60137029579E+03 -0.39638525385E+03  0.12452154829E+04  0.99970208354E+03 0.  0.
        -13    1    3    3    0    0  0.57225053584E+03 -0.23288126951E+03  0.10204956559E+03  0.62619364933E+03  0.10566000000E+00 0.  1.
          4    1    3    3  501    0 -0.39227875791E+03 -0.36848902628E+03  0.27007435534E+03  0.60216853439E+03  0.00000000000E+00 0.  1.
         13    1    4    4    0    0  0.49074639177E+02  0.84404012199E+03 -0.25788024590E+03  0.88391983807E+03  0.10566000000E+00 0. -1.
         -4    1    4    4    0  503 -0.22904641710E+03 -0.24266982620E+03 -0.13850500796E+03  0.36129564481E+03  0.00000000000E+00 0. -1.
<mgrwt>
<rscale>  2 0.11779828E+04</rscale>
<asrwt>0</asrwt>
<pdfrwt beam="1">  1       21 0.18840895E+00 0.11804407E+04</pdfrwt>
<pdfrwt beam="2">  1       21 0.19214146E+00 0.11804407E+04</pdfrwt>
<totfact> 0.95934823E+00</totfact>
</mgrwt>
</event>
<event>
 8    1  0.7631533E-006  0.1015348E+04  0.7818608E-02  0.8761485E-01
         21   -1    0    0  503  502  0.00000000000E+00  0.00000000000E+00  0.14267753247E+04  0.14267753247E+04  0.00000000000E+00 0.  1.
         21   -1    0    0  501  503 -0.00000000000E+00 -0.00000000000E+00 -0.80780980514E+03  0.80780980514E+03  0.00000000000E+00 0.  1.
    9000010    2    1    2  501    0 -0.57875637814E+02  0.17582697602E+03 -0.60430006801E+02  0.10171447242E+04  0.99833205361E+03 0.  0.
   -9000010    2    1    2    0  502  0.57875637814E+02 -0.17582697602E+03  0.67939552632E+03  0.12174404056E+04  0.99313551193E+03 0.  0.
        -13    1    3    3    0    0  0.53001789925E+01 -0.61139960419E+02 -0.50537583088E+03  0.50908833051E+03  0.10566000000E+00 0.  1.
          4    1    3    3  501    0 -0.63175816807E+02  0.23696693644E+03  0.44494582408E+03  0.50805639368E+03  0.00000000000E+00 0.  1.
         13    1    4    4    0    0 -0.10884784761E+03 -0.11912349403E+03 -0.23565006996E+03  0.28560326923E+03  0.10566000000E+00 0. -1.
         -4    1    4    4    0  502  0.16672348542E+03 -0.56703481994E+02  0.91504559627E+03  0.93183713637E+03  0.00000000000E+00 0. -1.
<mgrwt>
<rscale>  2 0.10140684E+04</rscale>
<asrwt>0</asrwt>
<pdfrwt beam="1">  1       21 0.21950390E+00 0.10153480E+04</pdfrwt>
<pdfrwt beam="2">  1       21 0.12427843E+00 0.10153480E+04</pdfrwt>
<totfact> 0.22461200E+01</totfact>
</mgrwt>
</event>
<event>
 8    1  0.7631533E-006  0.1039440E+04  0.7818608E-02  0.8740835E-01
         21   -1    0    0  501  502  0.00000000000E+00  0.00000000000E+00  0.11383368630E+04  0.11383368630E+04  0.00000000000E+00 0.  1.
         21   -1    0    0  502  503 -0.00000000000E+00 -0.00000000000E+00 -0.10495713181E+04  0.10495713181E+04  0.00000000000E+00 0.  1.
    9000010    2    1    2  501    0  0.68250820115E+02 -0.21525521874E+03 -0.31005342392E+03  0.10846976262E+04  0.10146146219E+04 0.  0.
   -9000010    2    1    2    0  503 -0.68250820115E+02  0.21525521874E+03  0.39881896876E+03  0.11032105548E+04  0.10035058419E+04 0.  0.
        -13    1    3    3    0    0 -0.79497284346E+02  0.17042935702E+03  0.29636199940E+03  0.35099348969E+03  0.10566000000E+00 0.  1.
          4    1    3    3  501    0  0.14774810446E+03 -0.38568457576E+03 -0.60641542332E+03  0.73370413655E+03  0.00000000000E+00 0.  1.
         13    1    4    4    0    0 -0.40422167572E+03  0.12616091717E+03 -0.15367491180E+03  0.45047500466E+03  0.10566000000E+00 0. -1.
         -4    1    4    4    0  503  0.33597085561E+03  0.89094301571E+02  0.55249388056E+03  0.65273555016E+03  0.00000000000E+00 0. -1.
<mgrwt>
<rscale>  2 0.10367193E+04</rscale>
<asrwt>0</asrwt>
<pdfrwt beam="1">  1       21 0.17512875E+00 0.10394401E+04</pdfrwt>
<pdfrwt beam="2">  1       21 0.16147251E+00 0.10394401E+04</pdfrwt>
<totfact> 0.22721371E+01</totfact>
</mgrwt>
</event>
<event>
 8    1  0.7631533E-006  0.9997281E+03  0.7818608E-02  0.8775648E-01
         21   -1    0    0  501  502  0.00000000000E+00  0.00000000000E+00  0.14827749983E+04  0.14827749983E+04  0.00000000000E+00 0. -1.
         21   -1    0    0  502  503 -0.00000000000E+00 -0.00000000000E+00 -0.13280843191E+04  0.13280843191E+04  0.00000000000E+00 0. -1.
    9000010    2    1    2  501    0 -0.20719493458E+02  0.62534801649E+02 -0.91059085833E+03  0.13522691726E+04  0.99755516397E+03 0.  0.
   -9000010    2    1    2    0  503  0.20719493458E+02 -0.62534801649E+02  0.10652815376E+04  0.14585901448E+04  0.99414312721E+03 0.  0.
        -13    1    3    3    0    0 -0.34353277753E+03  0.40325640800E+03 -0.50657246504E+03  0.73297078614E+03  0.10566000000E+00 0.  1.
          4    1    3    3  501    0  0.32281328407E+03 -0.34072160635E+03 -0.40401839329E+03  0.61929838650E+03  0.00000000000E+00 0.  1.
         13    1    4    4    0    0 -0.32546099419E+03  0.33355568094E+03  0.43357703092E+03  0.63653224893E+03  0.10566000000E+00 0. -1.
         -4    1    4    4    0  503  0.34618048765E+03 -0.39609048259E+03  0.63170450664E+03  0.82205789585E+03  0.00000000000E+00 0. -1.
<mgrwt>
<rscale>  2 0.99887583E+03</rscale>
<asrwt>0</asrwt>
<pdfrwt beam="1">  1       21 0.22811923E+00 0.99972807E+03</pdfrwt>
<pdfrwt beam="2">  1       21 0.20432067E+00 0.99972807E+03</pdfrwt>
<totfact> 0.39742311E+00</totfact>
</mgrwt>
</event>
<event>
 8    1  0.7631533E-006  0.1026406E+04  0.7818608E-02  0.8752197E-01
         21   -1    0    0  501  502  0.00000000000E+00  0.00000000000E+00  0.30536206572E+04  0.30536206572E+04  0.00000000000E+00 0.  1.
         21   -1    0    0  502  503 -0.00000000000E+00 -0.00000000000E+00 -0.10007214653E+04  0.10007214653E+04  0.00000000000E+00 0.  1.
    9000010    2    1    2  501    0  0.40882191526E+00 -0.16561124489E+03 -0.61667921552E+03  0.11974150438E+04  0.10129571959E+04 0.  0.
   -9000010    2    1    2    0  503 -0.40882191526E+00  0.16561124489E+03  0.26695784074E+04  0.28569270787E+04  0.10039702229E+04 0.  0.
        -13    1    3    3    0    0  0.16228025172E+03  0.39299039427E+03 -0.37747015169E+03  0.56855963334E+03  0.10566000000E+00 0.  1.
          4    1    3    3  501    0 -0.16187142980E+03 -0.55860163915E+03 -0.23920906383E+03  0.62885541046E+03  0.00000000000E+00 0.  1.
         13    1    4    4    0    0 -0.25347619323E+03 -0.33348275239E+03  0.76903378744E+03  0.87571336867E+03  0.10566000000E+00 0. -1.
         -4    1    4    4    0  503  0.25306737132E+03  0.49909399728E+03  0.19005446200E+04  0.19812137101E+04  0.00000000000E+00 0. -1.
<mgrwt>
<rscale>  2 0.10241819E+04</rscale>
<asrwt>0</asrwt>
<pdfrwt beam="1">  1       21 0.46978779E+00 0.10264061E+04</pdfrwt>
<pdfrwt beam="2">  1       21 0.15395715E+00 0.10264061E+04</pdfrwt>
<totfact> 0.20221848E-01</totfact>
</mgrwt>
</event>
<event>
 8    1  0.7631533E-006  0.1056928E+04  0.7818608E-02  0.8743075E-01
         21   -1    0    0  503  502  0.00000000000E+00  0.00000000000E+00  0.16271783301E+04  0.16271783301E+04  0.00000000000E+00 0.  1.
         21   -1    0    0  501  503 -0.00000000000E+00 -0.00000000000E+00 -0.23061758413E+04  0.23061758413E+04  0.00000000000E+00 0.  1.
    9000010    2    1    2  501    0 -0.25526948701E+03 -0.15598571215E+02 -0.20113967126E+04  0.22326532621E+04  0.93467535904E+03 0.  0.
   -9000010    2    1    2    0  502  0.25526948701E+03  0.15598571215E+02  0.13323992013E+04  0.17007009093E+04  0.10255194415E+04 0.  0.
        -13    1    3    3    0    0 -0.44643536902E+03  0.34268210245E+03 -0.11876451967E+04  0.13142437698E+04  0.10566000000E+00 0.  1.
          4    1    3    3  501    0  0.19116588201E+03 -0.35828067367E+03 -0.82375151588E+03  0.91840949226E+03  0.00000000000E+00 0.  1.
         13    1    4    4    0    0  0.46758067589E+03 -0.35922227060E+03  0.54380376739E+03  0.80211899164E+03  0.10566000000E+00 0. -1.
         -4    1    4    4    0  502 -0.21231118888E+03  0.37482084182E+03  0.78859543391E+03  0.89858191768E+03  0.00000000000E+00 0. -1.
<mgrwt>
<rscale>  2 0.10342333E+04</rscale>
<asrwt>0</asrwt>
<pdfrwt beam="1">  1       21 0.25033513E+00 0.10569276E+04</pdfrwt>
<pdfrwt beam="2">  1       21 0.35479628E+00 0.10569276E+04</pdfrwt>
<totfact> 0.22132921E-01</totfact>
</mgrwt>
</event>
<event>
 8    1  0.7631533E-006  0.1053891E+04  0.7818608E-02  0.8725547E-01
         21   -1    0    0  503  502  0.00000000000E+00  0.00000000000E+00  0.17746351212E+04  0.17746351212E+04  0.00000000000E+00 0.  1.
         21   -1    0    0  501  503 -0.00000000000E+00 -0.00000000000E+00 -0.67144242538E+03  0.67144242538E+03  0.00000000000E+00 0.  1.
    9000010    2    1    2  501    0  0.22672688710E+02 -0.34129025617E+03  0.87029252399E+03  0.13667590582E+04  0.99680898678E+03 0.  0.
   -9000010    2    1    2    0  502 -0.22672688710E+02  0.34129025617E+03  0.23290017180E+03  0.10793184883E+04  0.99684142143E+03 0.  0.
        -13    1    3    3    0    0 -0.48259997827E+01  0.17736032073E+02  0.98781645228E+03  0.98798745522E+03  0.10566000000E+00 0.  1.
          4    1    3    3  501    0  0.27498688493E+02 -0.35902628824E+03 -0.11752392829E+03  0.37877160300E+03  0.00000000000E+00 0.  1.
         13    1    4    4    0    0 -0.26602697323E+03  0.47524914309E+03  0.46591997883E+03  0.71673812256E+03  0.10566000000E+00 0. -1.
         -4    1    4    4    0  502  0.24335428452E+03 -0.13395888693E+03 -0.23301980702E+03  0.36258036578E+03  0.00000000000E+00 0. -1.
<mgrwt>
<rscale>  2 0.10538832E+04</rscale>
<asrwt>0</asrwt>
<pdfrwt beam="1">  1       21 0.27302079E+00 0.10538908E+04</pdfrwt>
<pdfrwt beam="2">  1       21 0.10329884E+00 0.10538908E+04</pdfrwt>
<totfact> 0.14998884E+01</totfact>
</mgrwt>
</event>
<event>
 8    1  0.7631533E-006  0.1028199E+04  0.7818608E-02  0.8760286E-01
         21   -1    0    0  503  502  0.00000000000E+00  0.00000000000E+00  0.51818983562E+03  0.51818983562E+03  0.00000000000E+00 0. -1.
         21   -1    0    0  501  503 -0.00000000000E+00 -0.00000000000E+00 -0.32909435624E+04  0.32909435624E+04  0.00000000000E+00 0. -1.
    9000010    2    1    2  501    0 -0.45102947276E+02  0.23872663061E+02 -0.26263095479E+04  0.28204070121E+04  0.10269321751E+04 0.  0.
   -9000010    2    1    2    0  502  0.45102947276E+02 -0.23872663061E+02 -0.14644417889E+03  0.98872638598E+03  0.97648849912E+03 0.  0.
        -13    1    3    3    0    0 -0.20919477593E+03 -0.73518985181E+02 -0.26201234854E+04  0.26294894153E+04  0.10566000000E+00 0.  1.
          4    1    3    3  501    0  0.16409182866E+03  0.97391648241E+02 -0.61860625378E+01  0.19091759675E+03  0.00000000000E+00 0.  1.
         13    1    4    4    0    0 -0.12465162791E+03  0.25760612257E+03 -0.45524383929E+03  0.53772289063E+03  0.10566000000E+00 0. -1.
         -4    1    4    4    0  502  0.16975457518E+03 -0.28147878563E+03  0.30879966041E+03  0.45100349535E+03  0.00000000000E+00 0. -1.
<mgrwt>
<rscale>  2 0.10153665E+04</rscale>
<asrwt>0</asrwt>
<pdfrwt beam="1">  1       21 0.79721512E-01 0.10281993E+04</pdfrwt>
<pdfrwt beam="2">  1       21 0.50629902E+00 0.10281993E+04</pdfrwt>
<totfact> 0.68349495E-01</totfact>
</mgrwt>
</event>
<event>
 8    1  0.7631533E-006  0.1001654E+04  0.7818608E-02  0.8810883E-01
         21   -1    0    0  501  502  0.00000000000E+00  0.00000000000E+00  0.36901732898E+03  0.36901732898E+03  0.00000000000E+00 0.  1.
         21   -1    0    0  502  503 -0.00000000000E+00 -0.00000000000E+00 -0.23627987172E+04  0.23627987172E+04  0.00000000000E+00 0.  1.
    9000010    2    1    2  501    0  0.20891436256E+02 -0.10149164572E+02 -0.12344120612E+04  0.15896804008E+04  0.10013846325E+04 0.  0.
   -9000010    2    1    2    0  503 -0.20891436256E+02  0.10149164572E+02 -0.75936932708E+03  0.11421356454E+04  0.85281451674E+03 0.  0.
        -13    1    3    3    0    0  0.53171324393E+02  0.31518351130E+03 -0.12213567409E+04  0.12624896574E+04  0.10566000000E+00 0.  1.
          4    1    3    3  501    0 -0.32279888137E+02 -0.32533267587E+03 -0.13055320333E+02  0.32719074338E+03  0.00000000000E+00 0.  1.
         13    1    4    4    0    0 -0.16621797904E+03  0.35281794402E+03 -0.13030730210E+03  0.41120423432E+03  0.10566000000E+00 0. -1.
         -4    1    4    4    0  503  0.14532654278E+03 -0.34266877945E+03 -0.62906202498E+03  0.73093141109E+03  0.00000000000E+00 0. -1.
<mgrwt>
<rscale>  2 0.96225944E+03</rscale>
<asrwt>0</asrwt>
<pdfrwt beam="1">  1       21 0.56771896E-01 0.10016540E+04</pdfrwt>
<pdfrwt beam="2">  1       21 0.36350750E+00 0.10016540E+04</pdfrwt>
<totfact> 0.15023731E+01</totfact>
</mgrwt>
</event>
<event>
 8    1  0.7631533E-006  0.1018418E+04  0.7818608E-02  0.8758561E-01
         21   -1    0    0  501  502  0.00000000000E+00  0.00000000000E+00  0.27015334419E+04  0.27015334419E+04  0.00000000000E+00 0.  1.
         21   -1    0    0  502  503 -0.00000000000E+00 -0.00000000000E+00 -0.43506508749E+03  0.43506508749E+03  0.00000000000E+00 0.  1.
    9000010    2    1    2  501    0  0.17500386059E+03  0.43359855664E+02  0.58858938093E+03  0.11762706604E+04  0.10023316711E+04 0.  0.
   -9000010    2    1    2    0  503 -0.17500386059E+03 -0.43359855664E+02  0.16778789735E+04  0.19603278690E+04  0.99754753065E+03 0.  0.
        -13    1    3    3    0    0  0.53878779465E+03  0.15477509005E+03  0.56371053049E+03  0.79499508773E+03  0.10566000000E+00 0.  1.
          4    1    3    3  501    0 -0.36378393406E+03 -0.11141523439E+03  0.24878850440E+02  0.38127557270E+03  0.00000000000E+00 0.  1.
         13    1    4    4    0    0  0.31615783479E+03  0.28266843188E+03  0.68890463719E+03  0.80897888055E+03  0.10566000000E+00 0. -1.
         -4    1    4    4    0  503 -0.49116169538E+03 -0.32602828754E+03  0.98897433629E+03  0.11513489884E+04  0.00000000000E+00 0. -1.
<mgrwt>
<rscale>  2 0.10172389E+04</rscale>
<asrwt>0</asrwt>
<pdfrwt beam="1">  1       21 0.41562052E+00 0.10184180E+04</pdfrwt>
<pdfrwt beam="2">  1       21 0.66933092E-01 0.10184180E+04</pdfrwt>
<totfact> 0.44346240E+00</totfact>
</mgrwt>
</event>
<event>
 8    1  0.7631533E-006  0.1018061E+04  0.7818608E-02  0.8761858E-01
         21   -1    0    0  503  502  0.00000000000E+00  0.00000000000E+00  0.21994347706E+04  0.21994347706E+04  0.00000000000E+00 0.  1.
         21   -1    0    0  501  503 -0.00000000000E+00 -0.00000000000E+00 -0.67159470720E+03  0.67159470720E+03  0.00000000000E+00 0.  1.
    9000010    2    1    2  501    0 -0.90253073428E+02  0.62904554473E+02 -0.40302974376E+02  0.10013983716E+04  0.99452087397E+03 0.  0.
   -9000010    2    1    2    0  502  0.90253073428E+02 -0.62904554473E+02  0.15681430377E+04  0.18696311061E+04  0.10120994447E+04 0.  0.
        -13    1    3    3    0    0  0.62704557274E+02  0.20004990333E+03  0.43539230800E+03  0.48323731060E+03  0.10566000000E+00 0.  1.
          4    1    3    3  501    0 -0.15295763070E+03 -0.13714534886E+03 -0.47569528238E+03  0.51816106104E+03  0.00000000000E+00 0.  1.
         13    1    4    4    0    0 -0.29732793248E+03  0.38877701178E+01  0.50195070426E+02  0.30156022690E+03  0.10566000000E+00 0. -1.
         -4    1    4    4    0  502  0.38758100590E+03 -0.66792324590E+02  0.15179479673E+04  0.15680708792E+04  0.00000000000E+00 0. -1.
<mgrwt>
<rscale>  2 0.10136640E+04</rscale>
<asrwt>0</asrwt>
<pdfrwt beam="1">  1       21 0.33837458E+00 0.10180608E+04</pdfrwt>
<pdfrwt beam="2">  1       21 0.10332226E+00 0.10180608E+04</pdfrwt>
<totfact> 0.52219467E+00</totfact>
</mgrwt>
</event>
<event>
 8    1  0.7631533E-006  0.1057140E+04  0.7818608E-02  0.8729891E-01
         21   -1    0    0  501  502  0.00000000000E+00  0.00000000000E+00  0.19335163130E+04  0.19335163130E+04  0.00000000000E+00 0.  1.
         21   -1    0    0  502  503 -0.00000000000E+00 -0.00000000000E+00 -0.85974320146E+03  0.85974320146E+03  0.00000000000E+00 0.  1.
    9000010    2    1    2  501    0  0.78531001061E+02  0.20332429115E+03  0.13554099706E+04  0.16992461808E+04  0.10013957805E+04 0.  0.
   -9000010    2    1    2    0  503 -0.78531001061E+02 -0.20332429115E+03 -0.28163685905E+03  0.10940133336E+04  0.10344263958E+04 0.  0.
        -13    1    3    3    0    0  0.43387375211E+03  0.39045576112E+03  0.56346823044E+03  0.81129439295E+03  0.10566000000E+00 0.  1.
          4    1    3    3  501    0 -0.35534275105E+03 -0.18713146996E+03  0.79194174015E+03  0.88795178786E+03  0.00000000000E+00 0.  1.
         13    1    4    4    0    0 -0.47248699698E+03 -0.38505118100E+03 -0.77118648141E+02  0.61437421118E+03  0.10566000000E+00 0. -1.
         -4    1    4    4    0  503  0.39395599591E+03  0.18172688985E+03 -0.20451821091E+03  0.47963912247E+03  0.00000000000E+00 0. -1.
<mgrwt>
<rscale>  2 0.10489716E+04</rscale>
<asrwt>0</asrwt>
<pdfrwt beam="1">  1       21 0.29746405E+00 0.10571404E+04</pdfrwt>
<pdfrwt beam="2">  1       21 0.13226819E+00 0.10571404E+04</pdfrwt>
<totfact> 0.50615905E+00</totfact>
</mgrwt>
</event>
<event>
 8    1  0.7631533E-006  0.1045441E+04  0.7818608E-02  0.8735546E-01
         21   -1    0    0  503  502  0.00000000000E+00  0.00000000000E+00  0.80161186813E+03  0.80161186813E+03  0.00000000000E+00 0.  1.
         21   -1    0    0  501  503 -0.00000000000E+00 -0.00000000000E+00 -0.13910601633E+04  0.13910601633E+04  0.00000000000E+00 0.  1.
    9000010    2    1    2  501    0 -0.26874343768E+03 -0.15355283438E+03 -0.10212653909E+03  0.10392300485E+04  0.98679671439E+03 0.  0.
   -9000010    2    1    2    0  502  0.26874343768E+03  0.15355283438E+03 -0.48732175606E+03  0.11534419829E+04  0.99857118208E+03 0.  0.
        -13    1    3    3    0    0 -0.47963950895E+03 -0.41234709034E+03  0.11235774304E+03  0.64242389047E+03  0.10566000000E+00 0.  1.
          4    1    3    3  501    0  0.21089607127E+03  0.25879425596E+03 -0.21448428213E+03  0.39680615806E+03  0.00000000000E+00 0.  1.
         13    1    4    4    0    0 -0.31372795644E+03  0.28491409683E+03 -0.32673746006E+03  0.53512489402E+03  0.10566000000E+00 0. -1.
         -4    1    4    4    0  502  0.58247139412E+03 -0.13136126245E+03 -0.16058429600E+03  0.61831708885E+03  0.00000000000E+00 0. -1.
<mgrwt>
<rscale>  2 0.10426190E+04</rscale>
<asrwt>0</asrwt>
<pdfrwt beam="1">  1       21 0.12332490E+00 0.10454405E+04</pdfrwt>
<pdfrwt beam="2">  1       21 0.21400926E+00 0.10454405E+04</pdfrwt>
<totfact> 0.25091657E+01</totfact>
</mgrwt>
</event>
<event>
 8    1  0.7631533E-006  0.9951347E+03  0.7818608E-02  0.8780787E-01
         21   -1    0    0  501  502  0.00000000000E+00  0.00000000000E+00  0.13732261103E+04  0.13732261103E+04  0.00000000000E+00 0. -1.
         21   -1    0    0  502  503 -0.00000000000E+00 -0.00000000000E+00 -0.73286579682E+03  0.73286579682E+03  0.00000000000E+00 0. -1.
    9000010    2    1    2  501    0  0.12828358674E+02  0.17307298890E+02  0.16259944501E+03  0.10083311676E+04  0.99490153008E+03 0.  0.
   -9000010    2    1    2    0  503 -0.12828358674E+02 -0.17307298890E+02  0.47776086843E+03  0.10977607395E+04  0.98810884241E+03 0.  0.
        -13    1    3    3    0    0  0.21248217477E+03 -0.31118085215E+03  0.40555497984E+03  0.55358563040E+03  0.10566000000E+00 0.  1.
          4    1    3    3  501    0 -0.19965381610E+03  0.32848815104E+03 -0.24295553483E+03  0.45474553715E+03  0.00000000000E+00 0.  1.
         13    1    4    4    0    0  0.14299086200E+03 -0.43082079385E+03  0.47336614337E+03  0.65584179486E+03  0.10566000000E+00 0. -1.
         -4    1    4    4    0  503 -0.15581922067E+03  0.41351349496E+03  0.43947250615E+01  0.44191894467E+03  0.00000000000E+00 0. -1.
<mgrwt>
<rscale>  2 0.99343261E+03</rscale>
<asrwt>0</asrwt>
<pdfrwt beam="1">  1       21 0.21126555E+00 0.99513475E+03</pdfrwt>
<pdfrwt beam="2">  1       21 0.11274858E+00 0.99513475E+03</pdfrwt>
<totfact> 0.34158371E+01</totfact>
</mgrwt>
</event>
<event>
 8    1  0.7631533E-006  0.1042689E+04  0.7818608E-02  0.8741724E-01
         21   -1    0    0  501  502  0.00000000000E+00  0.00000000000E+00  0.18643506099E+04  0.18643506099E+04  0.00000000000E+00 0.  1.
         21   -1    0    0  502  503 -0.00000000000E+00 -0.00000000000E+00 -0.63165200290E+03  0.63165200290E+03  0.00000000000E+00 0.  1.
    9000010    2    1    2  501    0  0.34435013784E+02  0.15178538294E+03  0.10203876915E+04  0.14589005212E+04  0.10310068463E+04 0.  0.
   -9000010    2    1    2    0  503 -0.34435013784E+02 -0.15178538294E+03  0.21231091540E+03  0.10371020915E+04  0.10031352106E+04 0.  0.
        -13    1    3    3    0    0 -0.46708369323E+03  0.24611411869E+03  0.45171888476E+03  0.69483040946E+03  0.10566000000E+00 0.  1.
          4    1    3    3  501    0  0.50151870701E+03 -0.94328735746E+02  0.56866880679E+03  0.76407011176E+03  0.00000000000E+00 0.  1.
         13    1    4    4    0    0 -0.29084806962E+02  0.10182022859E+03  0.58045158703E+03  0.59003164406E+03  0.10566000000E+00 0. -1.
         -4    1    4    4    0  503 -0.53502068215E+01 -0.25360561153E+03 -0.36814067162E+03  0.44707044749E+03  0.00000000000E+00 0. -1.
<mgrwt>
<rscale>  2 0.10357317E+04</rscale>
<asrwt>0</asrwt>
<pdfrwt beam="1">  1       21 0.28682317E+00 0.10426887E+04</pdfrwt>
<pdfrwt beam="2">  1       21 0.97177232E-01 0.10426887E+04</pdfrwt>
<totfact> 0.14072046E+01</totfact>
</mgrwt>
</event>
<event>
 8    1  0.7631533E-006  0.1054006E+04  0.7818608E-02  0.8726500E-01
         21   -1    0    0  501  502  0.00000000000E+00  0.00000000000E+00  0.17710754792E+04  0.17710754792E+04  0.00000000000E+00 0.  1.
         21   -1    0    0  502  503 -0.00000000000E+00 -0.00000000000E+00 -0.70209532552E+03  0.70209532552E+03  0.00000000000E+00 0.  1.
    9000010    2    1    2  501    0  0.20976539247E+03 -0.26544853680E+03  0.94691807969E+03  0.14168921425E+04  0.99823095932E+03 0.  0.
   -9000010    2    1    2    0  503 -0.20976539247E+03  0.26544853680E+03  0.12206207399E+03  0.10562786623E+04  0.99315709578E+03 0.  0.
        -13    1    3    3    0    0  0.37920755900E+03  0.27903711209E+03  0.53959137221E+03  0.71611377787E+03  0.10566000000E+00 0.  1.
          4    1    3    3  501    0 -0.16944216653E+03 -0.54448564889E+03  0.40732670747E+03  0.70077836458E+03  0.00000000000E+00 0.  1.
         13    1    4    4    0    0 -0.28465422322E+03 -0.98068957091E+02 -0.34617538052E+03  0.45878421113E+03  0.10566000000E+00 0. -1.
         -4    1    4    4    0  503  0.74888830750E+02  0.36351749389E+03  0.46823745451E+03  0.59749445114E+03  0.00000000000E+00 0. -1.
<mgrwt>
<rscale>  2 0.10528033E+04</rscale>
<asrwt>0</asrwt>
<pdfrwt beam="1">  1       21 0.27247315E+00 0.10540064E+04</pdfrwt>
<pdfrwt beam="2">  1       21 0.10801467E+00 0.10540064E+04</pdfrwt>
<totfact> 0.13435536E+01</totfact>
</mgrwt>
</event>
<event>
 8    1  0.7631533E-006  0.1161764E+04  0.7818608E-02  0.8665968E-01
         21   -1    0    0  501  502  0.00000000000E+00  0.00000000000E+00  0.10456184256E+04  0.10456184256E+04  0.00000000000E+00 0.  1.
         21   -1    0    0  502  503 -0.00000000000E+00 -0.00000000000E+00 -0.11860541792E+04  0.11860541792E+04  0.00000000000E+00 0.  1.
    9000010    2    1    2  501    0 -0.10658181123E+03 -0.17234303144E+03  0.16170558097E+03  0.10312624979E+04  0.99814419882E+03 0.  0.
   -9000010    2    1    2    0  503  0.10658181123E+03  0.17234303144E+03 -0.30214133458E+03  0.12004101070E+04  0.11439550847E+04 0.  0.
        -13    1    3    3    0    0  0.22080967771E+03 -0.43935090574E+03  0.31258374322E+03  0.58266177138E+03  0.10566000000E+00 0.  1.
          4    1    3    3  501    0 -0.32739148894E+03  0.26700787430E+03 -0.15087816225E+03  0.44860072650E+03  0.00000000000E+00 0.  1.
         13    1    4    4    0    0 -0.40121734604E+03 -0.16329388657E+03  0.13190023130E+03  0.45281114644E+03  0.10566000000E+00 0. -1.
         -4    1    4    4    0  503  0.50779915727E+03  0.33563691801E+03 -0.43404156588E+03  0.74759896052E+03  0.00000000000E+00 0. -1.
<mgrwt>
<rscale>  2 0.11241628E+04</rscale>
<asrwt>0</asrwt>
<pdfrwt beam="1">  1       21 0.16086437E+00 0.11617638E+04</pdfrwt>
<pdfrwt beam="2">  1       21 0.18246987E+00 0.11617638E+04</pdfrwt>
<totfact> 0.19504458E+01</totfact>
</mgrwt>
</event>
<event>
 8    1  0.7631533E-006  0.1040040E+04  0.7818608E-02  0.8740693E-01
         21   -1    0    0  503  502  0.00000000000E+00  0.00000000000E+00  0.22201668366E+04  0.22201668366E+04  0.00000000000E+00 0. -1.
         21   -1    0    0  501  503 -0.00000000000E+00 -0.00000000000E+00 -0.78698285945E+03  0.78698285945E+03  0.00000000000E+00 0. -1.
    9000010    2    1    2  501    0 -0.57006984560E+02  0.23458286120E+03 -0.22310633314E+03  0.10513938970E+04  0.99868602455E+03 0.  0.
   -9000010    2    1    2    0  502  0.57006984560E+02 -0.23458286120E+03  0.16562903103E+04  0.19557557991E+04  0.10116344392E+04 0.  0.
        -13    1    3    3    0    0  0.89063116811E+02 -0.33861506937E+03  0.11688687356E+03  0.36912729018E+03  0.10566000000E+00 0.  1.
          4    1    3    3  501    0 -0.14607010137E+03  0.57319793057E+03 -0.33999320670E+03  0.68226660678E+03  0.00000000000E+00 0.  1.
         13    1    4    4    0    0 -0.31277290877E+03 -0.19267205805E+03  0.15130283160E+04  0.15569855846E+04  0.10566000000E+00 0. -1.
         -4    1    4    4    0  502  0.36977989333E+03 -0.41910803144E+02  0.14326199423E+03  0.39877021443E+03  0.00000000000E+00 0. -1.
<mgrwt>
<rscale>  2 0.10368780E+04</rscale>
<asrwt>0</asrwt>
<pdfrwt beam="1">  1       21 0.34156413E+00 0.10400400E+04</pdfrwt>
<pdfrwt beam="2">  1       21 0.12107429E+00 0.10400400E+04</pdfrwt>
<totfact> 0.32030319E+00</totfact>
</mgrwt>
</event>
<event>
 8    1  0.7631533E-006  0.1025621E+04  0.7818608E-02  0.8754184E-01
         21   -1    0    0  501  502  0.00000000000E+00  0.00000000000E+00  0.15445484032E+04  0.15445484032E+04  0.00000000000E+00 0.  1.
         21   -1    0    0  502  503 -0.00000000000E+00 -0.00000000000E+00 -0.99154388503E+03  0.99154388503E+03  0.00000000000E+00 0.  1.
    9000010    2    1    2  501    0  0.14543009601E+03  0.15834602225E+03  0.99555580866E+03  0.14190645621E+04  0.98812422677E+03 0.  0.
   -9000010    2    1    2    0  503 -0.14543009601E+03 -0.15834602225E+03 -0.44255129046E+03  0.11170277262E+04  0.10028339448E+04 0.  0.
        -13    1    3    3    0    0 -0.26638648053E+03 -0.20378071472E+02 -0.58408284149E+02  0.27347497441E+03  0.10566000000E+00 0.  1.
          4    1    3    3  501    0  0.41181657654E+03  0.17872409372E+03  0.10539640928E+04  0.11455895876E+04  0.00000000000E+00 0.  1.
         13    1    4    4    0    0  0.94229237109E+02 -0.45651520947E+03  0.76357405691E+02  0.47235129954E+03  0.10566000000E+00 0. -1.
         -4    1    4    4    0  503 -0.23965933312E+03  0.29816918723E+03 -0.51890869615E+03  0.64467642667E+03  0.00000000000E+00 0. -1.
<mgrwt>
<rscale>  2 0.10220078E+04</rscale>
<asrwt>0</asrwt>
<pdfrwt beam="1">  1       21 0.23762283E+00 0.10256214E+04</pdfrwt>
<pdfrwt beam="2">  1       21 0.15254521E+00 0.10256214E+04</pdfrwt>
<totfact> 0.89470519E+00</totfact>
</mgrwt>
</event>
<event>
 8    1  0.7631533E-006  0.1088863E+04  0.7818608E-02  0.8700651E-01
         21   -1    0    0  501  502  0.00000000000E+00  0.00000000000E+00  0.12090366765E+04  0.12090366765E+04  0.00000000000E+00 0.  1.
         21   -1    0    0  502  503 -0.00000000000E+00 -0.00000000000E+00 -0.10113070688E+04  0.10113070688E+04  0.00000000000E+00 0.  1.
    9000010    2    1    2  501    0  0.28563348149E+03 -0.26320165910E+03  0.35404762980E+03  0.11449766987E+04  0.10172316930E+04 0.  0.
   -9000010    2    1    2    0  503 -0.28563348149E+03  0.26320165910E+03 -0.15631802210E+03  0.10753670467E+04  0.99051368593E+03 0.  0.
        -13    1    3    3    0    0  0.23281741630E+03 -0.54904161696E+03 -0.10115330851E+03  0.60488234350E+03  0.10566000000E+00 0.  1.
          4    1    3    3  501    0  0.52816065181E+02  0.28583995787E+03  0.45520093832E+03  0.54009435518E+03  0.00000000000E+00 0.  1.
         13    1    4    4    0    0 -0.55161963096E+03  0.64966594256E+02  0.19830530886E+03  0.58977104228E+03  0.10566000000E+00 0. -1.
         -4    1    4    4    0  503  0.26598614947E+03  0.19823506484E+03 -0.35462333096E+03  0.48559600442E+03  0.00000000000E+00 0. -1.
<mgrwt>
<rscale>  2 0.10825791E+04</rscale>
<asrwt>0</asrwt>
<pdfrwt beam="1">  1       21 0.18600564E+00 0.10888627E+04</pdfrwt>
<pdfrwt beam="2">  1       21 0.15558570E+00 0.10888627E+04</pdfrwt>
<totfact> 0.20607690E+01</totfact>
</mgrwt>
</event>
<event>
 8    1  0.7631533E-006  0.1009960E+04  0.7818608E-02  0.8769882E-01
         21   -1    0    0  501  502  0.00000000000E+00  0.00000000000E+00  0.67681454379E+03  0.67681454379E+03  0.00000000000E+00 0. -1.
         21   -1    0    0  502  503 -0.00000000000E+00 -0.00000000000E+00 -0.15939403859E+04  0.15939403859E+04  0.00000000000E+00 0. -1.
    9000010    2    1    2  501    0  0.61746155340E+02 -0.71191138867E+02 -0.15653750230E+03  0.10220187886E+04  0.10055534042E+04 0.  0.
   -9000010    2    1    2    0  503 -0.61746155340E+02  0.71191138867E+02 -0.76058833984E+03  0.12487361411E+04  0.98588364498E+03 0.  0.
        -13    1    3    3    0    0  0.28383732803E+03  0.39915777005E+03 -0.72203996990E+02  0.49507977390E+03  0.10566000000E+00 0.  1.
          4    1    3    3  501    0 -0.22209117269E+03 -0.47034890892E+03 -0.84333505305E+02  0.52693901471E+03  0.00000000000E+00 0.  1.
         13    1    4    4    0    0  0.64854811475E+02  0.46328829541E+03 -0.68551506670E+03  0.82992355616E+03  0.10566000000E+00 0. -1.
         -4    1    4    4    0  503 -0.12660096682E+03 -0.39209715654E+03 -0.75073273142E+02  0.41881258494E+03  0.00000000000E+00 0. -1.
<mgrwt>
<rscale>  2 0.10050280E+04</rscale>
<asrwt>0</asrwt>
<pdfrwt beam="1">  1       21 0.10412531E+00 0.10099596E+04</pdfrwt>
<pdfrwt beam="2">  1       21 0.24522160E+00 0.10099596E+04</pdfrwt>
<totfact> 0.23549021E+01</totfact>
</mgrwt>
</event>
<event>
 8    1  0.7631533E-006  0.1021619E+04  0.7818608E-02  0.8761002E-01
         21   -1    0    0  501  502  0.00000000000E+00  0.00000000000E+00  0.52546459023E+03  0.52546459023E+03  0.00000000000E+00 0.  1.
         21   -1    0    0  502  503 -0.00000000000E+00 -0.00000000000E+00 -0.21537219726E+04  0.21537219726E+04  0.00000000000E+00 0.  1.
    9000010    2    1    2  501    0 -0.14082700488E+03 -0.18227146398E+03 -0.39494112705E+03  0.10953006410E+04  0.99531395467E+03 0.  0.
   -9000010    2    1    2    0  503  0.14082700488E+03  0.18227146398E+03 -0.12333162553E+04  0.15838859219E+04  0.96673186355E+03 0.  0.
        -13    1    3    3    0    0 -0.24658198749E+02  0.16697526131E+03 -0.63422201012E+03  0.65629744319E+03  0.10566000000E+00 0.  1.
          4    1    3    3  501    0 -0.11616880613E+03 -0.34924672529E+03  0.23928088307E+03  0.43900319776E+03  0.00000000000E+00 0.  1.
         13    1    4    4    0    0 -0.17351608109E+03 -0.11591658503E+02  0.99836944058E+02  0.20052337397E+03  0.10566000000E+00 0. -1.
         -4    1    4    4    0  503  0.31434308597E+03  0.19386312248E+03 -0.13331531994E+04  0.13833625479E+04  0.00000000000E+00 0. -1.
<mgrwt>
<rscale>  2 0.10145903E+04</rscale>
<asrwt>0</asrwt>
<pdfrwt beam="1">  1       21 0.80840707E-01 0.10216188E+04</pdfrwt>
<pdfrwt beam="2">  1       21 0.33134184E+00 0.10216188E+04</pdfrwt>
<totfact> 0.10944474E+01</totfact>
</mgrwt>
</event>
<event>
 8    1  0.7631533E-006  0.1041251E+04  0.7818608E-02  0.8739584E-01
         21   -1    0    0  501  502  0.00000000000E+00  0.00000000000E+00  0.80503716859E+03  0.80503716859E+03  0.00000000000E+00 0. -1.
         21   -1    0    0  502  503 -0.00000000000E+00 -0.00000000000E+00 -0.13929880864E+04  0.13929880864E+04  0.00000000000E+00 0. -1.
    9000010    2    1    2  501    0  0.86513795535E+02  0.29199818674E+03 -0.52475868583E+03  0.11548581246E+04  0.98263830157E+03 0.  0.
   -9000010    2    1    2    0  503 -0.86513795535E+02 -0.29199818674E+03 -0.63192232001E+02  0.10431671304E+04  0.99571925055E+03 0.  0.
        -13    1    3    3    0    0  0.29823322583E+03 -0.19611303294E+03  0.62563657866E+02  0.36237770507E+03  0.10566000000E+00 0.  1.
          4    1    3    3  501    0 -0.21171943030E+03  0.48811121967E+03 -0.58732234370E+03  0.79248041953E+03  0.00000000000E+00 0.  1.
         13    1    4    4    0    0  0.18911191388E+03 -0.20232012446E+03  0.40612319578E+03  0.49156160352E+03  0.10566000000E+00 0. -1.
         -4    1    4    4    0  503 -0.27562570942E+03 -0.89678062279E+02 -0.46931542779E+03  0.55160552690E+03  0.00000000000E+00 0. -1.
<mgrwt>
<rscale>  2 0.10381117E+04</rscale>
<asrwt>0</asrwt>
<pdfrwt beam="1">  1       21 0.12385187E+00 0.10412514E+04</pdfrwt>
<pdfrwt beam="2">  1       21 0.21430586E+00 0.10412514E+04</pdfrwt>
<totfact> 0.24684963E+01</totfact>
</mgrwt>
</event>
<event>
 8    1  0.7631533E-006  0.1028294E+04  0.7818608E-02  0.8754676E-01
         21   -1    0    0  503  502  0.00000000000E+00  0.00000000000E+00  0.77585571113E+03  0.77585571113E+03  0.00000000000E+00 0.  1.
         21   -1    0    0  501  503 -0.00000000000E+00 -0.00000000000E+00 -0.14089608654E+04  0.14089608654E+04  0.00000000000E+00 0.  1.
    9000010    2    1    2  501    0  0.32745527218E+03  0.28174278590E+02 -0.58351338918E+03  0.11823185207E+04  0.97435540934E+03 0.  0.
   -9000010    2    1    2    0  502 -0.32745527218E+03 -0.28174278590E+02 -0.49591765080E+02  0.10024980559E+04  0.94579187118E+03 0.  0.
        -13    1    3    3    0    0 -0.14248040594E+03  0.38933013872E+03 -0.35940272485E+03  0.54867928045E+03  0.10566000000E+00 0.  1.
          4    1    3    3  501    0  0.46993567812E+03 -0.36115586013E+03 -0.22411066433E+03  0.63363924022E+03  0.00000000000E+00 0.  1.
         13    1    4    4    0    0 -0.62027655581E+03  0.22150089321E+02 -0.22176755461E+03  0.65910127566E+03  0.10566000000E+00 0. -1.
         -4    1    4    4    0  502  0.29282128363E+03 -0.50324367910E+02  0.17217578953E+03  0.34339678020E+03  0.00000000000E+00 0. -1.
<mgrwt>
<rscale>  2 0.10214708E+04</rscale>
<asrwt>0</asrwt>
<pdfrwt beam="1">  1       21 0.11936242E+00 0.10282943E+04</pdfrwt>
<pdfrwt beam="2">  1       21 0.21676321E+00 0.10282943E+04</pdfrwt>
<totfact> 0.26311384E+01</totfact>
</mgrwt>
</event>
<event>
 8    1  0.7631533E-006  0.1045081E+04  0.7818608E-02  0.8738400E-01
         21   -1    0    0  501  502  0.00000000000E+00  0.00000000000E+00  0.13714483816E+04  0.13714483816E+04  0.00000000000E+00 0.  1.
         21   -1    0    0  502  503 -0.00000000000E+00 -0.00000000000E+00 -0.85554877427E+03  0.85554877427E+03  0.00000000000E+00 0.  1.
    9000010    2    1    2  501    0 -0.21011468558E+03 -0.64831165299E+02  0.58760589072E+03  0.11794592009E+04  0.99874524412E+03 0.  0.
   -9000010    2    1    2    0  503  0.21011468558E+03  0.64831165299E+02 -0.71706283424E+02  0.10475379549E+04  0.10216862116E+04 0.  0.
        -13    1    3    3    0    0  0.12160840326E+03  0.38115095104E+03  0.45911733358E+03  0.60897732994E+03  0.10566000000E+00 0.  1.
          4    1    3    3  501    0 -0.33172308883E+03 -0.44598211634E+03  0.12848855714E+03  0.57048187095E+03  0.00000000000E+00 0.  1.
         13    1    4    4    0    0  0.42118531270E+03 -0.29377246042E+03  0.19943473063E+03  0.55088433367E+03  0.10566000000E+00 0. -1.
         -4    1    4    4    0  503 -0.21107062713E+03  0.35860362572E+03 -0.27114101406E+03  0.49665362127E+03  0.00000000000E+00 0. -1.
<mgrwt>
<rscale>  2 0.10394312E+04</rscale>
<asrwt>0</asrwt>
<pdfrwt beam="1">  1       21 0.21099206E+00 0.10450808E+04</pdfrwt>
<pdfrwt beam="2">  1       21 0.13162289E+00 0.10450808E+04</pdfrwt>
<totfact> 0.21954734E+01</totfact>
</mgrwt>
</event>
<event>
 8    1  0.7631533E-006  0.1014233E+04  0.7818608E-02  0.8766482E-01
         21   -1    0    0  503  502  0.00000000000E+00  0.00000000000E+00  0.10360606405E+04  0.10360606405E+04  0.00000000000E+00 0. -1.
         21   -1    0    0  501  503 -0.00000000000E+00 -0.00000000000E+00 -0.99981288797E+03  0.99981288797E+03  0.00000000000E+00 0. -1.
    9000010    2    1    2  501    0 -0.30068122954E+02  0.71646052425E+02 -0.15364909918E+03  0.10040160223E+04  0.98914249657E+03 0.  0.
   -9000010    2    1    2    0  502  0.30068122954E+02 -0.71646052425E+02  0.18989685173E+03  0.10318575062E+04  0.10112526143E+04 0.  0.
        -13    1    3    3    0    0 -0.25005409972E+03 -0.22415163823E+03 -0.42834581723E+03  0.54428959205E+03  0.10566000000E+00 0.  1.
          4    1    3    3  501    0  0.21998597677E+03  0.29579769066E+03  0.27469671805E+03  0.45972643026E+03  0.00000000000E+00 0.  1.
         13    1    4    4    0    0 -0.87990889498E+01  0.28419628209E+03  0.48882006529E+03  0.56549979497E+03  0.10566000000E+00 0. -1.
         -4    1    4    4    0  502  0.38867211904E+02 -0.35584233452E+03 -0.29892321356E+03  0.46635771120E+03  0.00000000000E+00 0. -1.
<mgrwt>
<rscale>  2 0.10086768E+04</rscale>
<asrwt>0</asrwt>
<pdfrwt beam="1">  1       21 0.15939394E+00 0.10142333E+04</pdfrwt>
<pdfrwt beam="2">  1       21 0.15381737E+00 0.10142333E+04</pdfrwt>
<totfact> 0.36175045E+01</totfact>
</mgrwt>
</event>
<event>
 8    1  0.7631533E-006  0.1055757E+04  0.7818608E-02  0.8727133E-01
         21   -1    0    0  503  502  0.00000000000E+00  0.00000000000E+00  0.88936604838E+03  0.88936604838E+03  0.00000000000E+00 0. -1.
         21   -1    0    0  501  503 -0.00000000000E+00 -0.00000000000E+00 -0.12907805873E+04  0.12907805873E+04  0.00000000000E+00 0. -1.
    9000010    2    1    2  501    0  0.22299942217E+03 -0.18202799817E+03 -0.42660231936E+03  0.11386884953E+04  0.10157553918E+04 0.  0.
   -9000010    2    1    2    0  502 -0.22299942217E+03  0.18202799817E+03  0.25187780405E+02  0.10414581404E+04  0.10005686881E+04 0.  0.
        -13    1    3    3    0    0  0.50026645736E+03  0.23587192062E+03 -0.25032822491E+03  0.60709663370E+03  0.10566000000E+00 0.  1.
          4    1    3    3  501    0 -0.27726703519E+03 -0.41789991879E+03 -0.17627409446E+03  0.53159186159E+03  0.00000000000E+00 0.  1.
         13    1    4    4    0    0  0.35807472394E+03  0.25119960563E+03  0.10777508926E+03  0.45048222032E+03  0.10566000000E+00 0. -1.
         -4    1    4    4    0  502 -0.58107414611E+03 -0.69171607460E+02 -0.82587308852E+02  0.59097592010E+03  0.00000000000E+00 0. -1.
<mgrwt>
<rscale>  2 0.10520867E+04</rscale>
<asrwt>0</asrwt>
<pdfrwt beam="1">  1       21 0.13682555E+00 0.10557566E+04</pdfrwt>
<pdfrwt beam="2">  1       21 0.19858163E+00 0.10557566E+04</pdfrwt>
<totfact> 0.24386889E+01</totfact>
</mgrwt>
</event>
<event>
 8    1  0.7631533E-006  0.1004400E+04  0.7818608E-02  0.8772428E-01
         21   -1    0    0  501  502  0.00000000000E+00  0.00000000000E+00  0.10377269785E+04  0.10377269785E+04  0.00000000000E+00 0. -1.
         21   -1    0    0  502  503 -0.00000000000E+00 -0.00000000000E+00 -0.98300368401E+03  0.98300368401E+03  0.00000000000E+00 0. -1.
    9000010    2    1    2  501    0 -0.63666359926E+02 -0.74041695609E+02 -0.11293359362E+03  0.10024343969E+04  0.99125432937E+03 0.  0.
   -9000010    2    1    2    0  503  0.63666359926E+02  0.74041695609E+02  0.16765688808E+03  0.10182962656E+04  0.99964137283E+03 0.  0.
        -13    1    3    3    0    0  0.36140227355E+03  0.25461091362E+03  0.39722299408E+02  0.44386506158E+03  0.10566000000E+00 0.  1.
          4    1    3    3  501    0 -0.42506863347E+03 -0.32865260922E+03 -0.15265589303E+03  0.55856933534E+03  0.00000000000E+00 0.  1.
         13    1    4    4    0    0 -0.34352489104E+03  0.28667414391E+03 -0.13599702610E+03  0.46763941004E+03  0.10566000000E+00 0. -1.
         -4    1    4    4    0  503  0.40719125097E+03 -0.21263244831E+03  0.30365391418E+03  0.55065685552E+03  0.00000000000E+00 0. -1.
<mgrwt>
<rscale>  2 0.10023063E+04</rscale>
<asrwt>0</asrwt>
<pdfrwt beam="1">  1       21 0.15965030E+00 0.10043995E+04</pdfrwt>
<pdfrwt beam="2">  1       21 0.15123134E+00 0.10043995E+04</pdfrwt>
<totfact> 0.38018636E+01</totfact>
</mgrwt>
</event>
<event>
 8    1  0.7631533E-006  0.1110876E+04  0.7818608E-02  0.8706394E-01
         21   -1    0    0  503  502  0.00000000000E+00  0.00000000000E+00  0.69795859290E+03  0.69795859290E+03  0.00000000000E+00 0. -1.
         21   -1    0    0  501  503 -0.00000000000E+00 -0.00000000000E+00 -0.17408821109E+04  0.17408821109E+04  0.00000000000E+00 0. -1.
    9000010    2    1    2  501    0 -0.18592839291E+03  0.42336846428E+03 -0.94159867861E+03  0.14562461376E+04  0.10100665908E+04 0.  0.
   -9000010    2    1    2    0  502  0.18592839291E+03 -0.42336846428E+03 -0.10132483936E+03  0.98259456616E+03  0.86105466408E+03 0.  0.
        -13    1    3    3    0    0  0.40711234701E+03  0.12262359859E+03 -0.23428887642E+03  0.48545679396E+03  0.10566000000E+00 0.  1.
          4    1    3    3  501    0 -0.59304073992E+03  0.30074486569E+03 -0.70730980219E+03  0.97078934364E+03  0.00000000000E+00 0.  1.
         13    1    4    4    0    0 -0.83490514508E+02 -0.60130157678E+03 -0.20931265238E+03  0.64214176773E+03  0.10566000000E+00 0. -1.
         -4    1    4    4    0  502  0.26941890742E+03  0.17793311250E+03  0.10798781302E+03  0.34045279843E+03  0.00000000000E+00 0. -1.
<mgrwt>
<rscale>  2 0.10758762E+04</rscale>
<asrwt>0</asrwt>
<pdfrwt beam="1">  1       21 0.10737825E+00 0.11108757E+04</pdfrwt>
<pdfrwt beam="2">  1       21 0.26782801E+00 0.11108757E+04</pdfrwt>
<totfact> 0.14555512E+01</totfact>
</mgrwt>
</event>
<event>
 8    1  0.7631533E-006  0.1115599E+04  0.7818608E-02  0.8675139E-01
         21   -1    0    0  503  502  0.00000000000E+00  0.00000000000E+00  0.14543947960E+04  0.14543947960E+04  0.00000000000E+00 0. -1.
         21   -1    0    0  501  503 -0.00000000000E+00 -0.00000000000E+00 -0.88901858088E+03  0.88901858088E+03  0.00000000000E+00 0. -1.
    9000010    2    1    2  501    0 -0.19730209700E+03  0.45343306744E+03  0.31466838388E+02  0.11160424472E+04  0.10000154588E+04 0.  0.
   -9000010    2    1    2    0  502  0.19730209700E+03 -0.45343306744E+03  0.53390937669E+03  0.12273709297E+04  0.98835748205E+03 0.  0.
        -13    1    3    3    0    0 -0.87530815057E+02 -0.10071842517E+03  0.41321886624E+03  0.43422999359E+03  0.10566000000E+00 0.  1.
          4    1    3    3  501    0 -0.10977128194E+03  0.55415149261E+03 -0.38175202785E+03  0.68181245359E+03  0.00000000000E+00 0.  1.
         13    1    4    4    0    0  0.54387298080E+03 -0.32559967436E+03  0.57483573737E+03  0.85571555047E+03  0.10566000000E+00 0. -1.
         -4    1    4    4    0  502 -0.34657088380E+03 -0.12783339308E+03 -0.40926360687E+02  0.37165537919E+03  0.00000000000E+00 0. -1.
<mgrwt>
<rscale>  2 0.11129800E+04</rscale>
<asrwt>0</asrwt>
<pdfrwt beam="1">  1       21 0.22375304E+00 0.11155988E+04</pdfrwt>
<pdfrwt beam="2">  1       21 0.13677209E+00 0.11155988E+04</pdfrwt>
<totfact> 0.15463877E+01</totfact>
</mgrwt>
</event>
<event>
 8    1  0.7631533E-006  0.1099818E+04  0.7818608E-02  0.8686924E-01
         21   -1    0    0  503  502  0.00000000000E+00  0.00000000000E+00  0.16517162504E+04  0.16517162504E+04  0.00000000000E+00 0. -1.
         21   -1    0    0  501  503 -0.00000000000E+00 -0.00000000000E+00 -0.12364969955E+04  0.12364969955E+04  0.00000000000E+00 0. -1.
    9000010    2    1    2  501    0  0.35989407156E+03 -0.27737152869E+03 -0.71673945837E+03  0.13127505938E+04  0.10015687508E+04 0.  0.
   -9000010    2    1    2    0  502 -0.35989407156E+03  0.27737152869E+03  0.11319587133E+04  0.15754626521E+04  0.99714258351E+03 0.  0.
        -13    1    3    3    0    0 -0.88635294881E+02  0.16399210676E+03  0.15166779010E+03  0.24031803157E+03  0.10566000000E+00 0.  1.
          4    1    3    3  501    0  0.44852936644E+03 -0.44136363546E+03 -0.86840724847E+03  0.10724325622E+04  0.00000000000E+00 0.  1.
         13    1    4    4    0    0 -0.13076345473E+03  0.23917826342E+03  0.12742325566E+04  0.13030632917E+04  0.10566000000E+00 0. -1.
         -4    1    4    4    0  502 -0.22913061683E+03  0.38193265276E+02 -0.14227384325E+03  0.27239936041E+03  0.00000000000E+00 0. -1.
<mgrwt>
<rscale>  2 0.10988089E+04</rscale>
<asrwt>0</asrwt>
<pdfrwt beam="1">  1       21 0.25411019E+00 0.10998176E+04</pdfrwt>
<pdfrwt beam="2">  1       21 0.19023031E+00 0.10998176E+04</pdfrwt>
<totfact> 0.32206967E+00</totfact>
</mgrwt>
</event>
<event>
 8    1  0.7631533E-006  0.1048699E+04  0.7818608E-02  0.8786483E-01
         21   -1    0    0  501  502  0.00000000000E+00  0.00000000000E+00  0.11780382196E+04  0.11780382196E+04  0.00000000000E+00 0.  1.
         21   -1    0    0  502  503 -0.00000000000E+00 -0.00000000000E+00 -0.77959840382E+03  0.77959840382E+03  0.00000000000E+00 0.  1.
    9000010    2    1    2  501    0 -0.21778103833E+03 -0.10265068977E+02  0.38271447631E+03  0.90881960193E+03  0.79495204017E+03 0.  0.
   -9000010    2    1    2    0  503  0.21778103833E+03  0.10265068977E+02  0.15725339489E+02  0.10488170215E+04  0.10257855068E+04 0.  0.
        -13    1    3    3    0    0 -0.37101778866E+03 -0.22264212687E+03 -0.14620873858E+02  0.43294052394E+03  0.10566000000E+00 0.  1.
          4    1    3    3  501    0  0.15323675032E+03  0.21237705789E+03  0.39733535017E+03  0.47587907798E+03  0.00000000000E+00 0.  1.
         13    1    4    4    0    0  0.19542626460E+03  0.39922649064E+03 -0.30923656013E+03  0.54147989529E+03  0.10566000000E+00 0. -1.
         -4    1    4    4    0  503  0.22354773733E+02 -0.38896142166E+03  0.32496189962E+03  0.50733712623E+03  0.00000000000E+00 0. -1.
<mgrwt>
<rscale>  2 0.98743946E+03</rscale>
<asrwt>0</asrwt>
<pdfrwt beam="1">  1       21 0.18123665E+00 0.10486991E+04</pdfrwt>
<pdfrwt beam="2">  1       21 0.11993822E+00 0.10486991E+04</pdfrwt>
<totfact> 0.49046679E+01</totfact>
</mgrwt>
</event>
<event>
 8    1  0.7631533E-006  0.1112301E+04  0.7818608E-02  0.8676807E-01
         21   -1    0    0  501  502  0.00000000000E+00  0.00000000000E+00  0.87154059201E+03  0.87154059201E+03  0.00000000000E+00 0.  1.
         21   -1    0    0  502  503 -0.00000000000E+00 -0.00000000000E+00 -0.14979955559E+04  0.14979955559E+04  0.00000000000E+00 0.  1.
    9000010    2    1    2  501    0 -0.27932101532E+03 -0.40728687726E+03 -0.59656591711E+03  0.12621820812E+04  0.99664932777E+03 0.  0.
   -9000010    2    1    2    0  503  0.27932101532E+03  0.40728687726E+03 -0.29889046795E+02  0.11073540668E+04  0.99067494370E+03 0.  0.
        -13    1    3    3    0    0 -0.34663137092E+03 -0.47773907507E+03  0.64696779266E+02  0.59377909660E+03  0.10566000000E+00 0.  1.
          4    1    3    3  501    0  0.67310355602E+02  0.70452197802E+02 -0.66126269638E+03  0.66840298456E+03  0.00000000000E+00 0.  1.
         13    1    4    4    0    0  0.15111695443E+03  0.73707115705E+03 -0.38950283869E+02  0.75341048589E+03  0.10566000000E+00 0. -1.
         -4    1    4    4    0  503  0.12820406089E+03 -0.32978427979E+03  0.90612370737E+01  0.35394358087E+03  0.00000000000E+00 0. -1.
<mgrwt>
<rscale>  2 0.11109607E+04</rscale>
<asrwt>0</asrwt>
<pdfrwt beam="1">  1       21 0.13408317E+00 0.11123006E+04</pdfrwt>
<pdfrwt beam="2">  1       21 0.23046085E+00 0.11123006E+04</pdfrwt>
<totfact> 0.14620432E+01</totfact>
</mgrwt>
</event>
<event>
 8    1  0.7631533E-006  0.1030519E+04  0.7818608E-02  0.8753447E-01
         21   -1    0    0  501  502  0.00000000000E+00  0.00000000000E+00  0.18805225881E+04  0.18805225881E+04  0.00000000000E+00 0. -1.
         21   -1    0    0  502  503 -0.00000000000E+00 -0.00000000000E+00 -0.57035438883E+03  0.57035438883E+03  0.00000000000E+00 0. -1.
    9000010    2    1    2  501    0  0.81701187102E+01  0.33364578971E+02  0.42272786949E+03  0.11138531683E+04  0.10299466408E+04 0.  0.
   -9000010    2    1    2    0  503 -0.81701187102E+01 -0.33364578971E+02  0.88744032981E+03  0.13370238087E+04  0.99945103935E+03 0.  0.
        -13    1    3    3    0    0  0.14485258440E+03  0.18519568754E+03  0.71759534094E+03  0.75513098096E+03  0.10566000000E+00 0.  1.
          4    1    3    3  501    0 -0.13668246569E+03 -0.15183110857E+03 -0.29486747145E+03  0.35872218732E+03  0.00000000000E+00 0.  1.
         13    1    4    4    0    0 -0.48259758395E+03  0.10041848617E+03  0.55589048334E+03  0.74296604299E+03  0.10566000000E+00 0. -1.
         -4    1    4    4    0  503  0.47442746524E+03 -0.13378306514E+03  0.33154984647E+03  0.59405776570E+03  0.00000000000E+00 0. -1.
<mgrwt>
<rscale>  2 0.10228138E+04</rscale>
<asrwt>0</asrwt>
<pdfrwt beam="1">  1       21 0.28931116E+00 0.10305193E+04</pdfrwt>
<pdfrwt beam="2">  1       21 0.87746830E-01 0.10305193E+04</pdfrwt>
<totfact> 0.17599745E+01</totfact>
</mgrwt>
</event>
<event>
 8    1  0.7631533E-006  0.1011545E+04  0.7818608E-02  0.8765959E-01
         21   -1    0    0  503  502  0.00000000000E+00  0.00000000000E+00  0.11997382664E+04  0.11997382664E+04  0.00000000000E+00 0. -1.
         21   -1    0    0  501  503 -0.00000000000E+00 -0.00000000000E+00 -0.92109108685E+03  0.92109108685E+03  0.00000000000E+00 0. -1.
    9000010    2    1    2  501    0  0.68812435525E+02 -0.76835951252E+02  0.44323885639E+03  0.10959812385E+04  0.99703323747E+03 0.  0.
   -9000010    2    1    2    0  502 -0.68812435525E+02  0.76835951252E+02 -0.16459167682E+03  0.10248481148E+04  0.10062724897E+04 0.  0.
        -13    1    3    3    0    0 -0.29440751875E+03 -0.23015709968E+03 -0.13396471150E+03  0.39698190478E+03  0.10566000000E+00 0.  1.
          4    1    3    3  501    0  0.36321995428E+03  0.15332114843E+03  0.57720356789E+03  0.69899933371E+03  0.00000000000E+00 0.  1.
         13    1    4    4    0    0 -0.13267233763E+03  0.25796418889E+03 -0.53444945257E+03  0.60809842989E+03  0.10566000000E+00 0. -1.
         -4    1    4    4    0  502  0.63859902109E+02 -0.18112823763E+03  0.36985777574E+03  0.41674968488E+03  0.00000000000E+00 0. -1.
<mgrwt>
<rscale>  2 0.10092394E+04</rscale>
<asrwt>0</asrwt>
<pdfrwt beam="1">  1       21 0.18457512E+00 0.10115450E+04</pdfrwt>
<pdfrwt beam="2">  1       21 0.14170632E+00 0.10115450E+04</pdfrwt>
<totfact> 0.28674589E+01</totfact>
</mgrwt>
</event>
<event>
 8    1  0.7631533E-006  0.1012144E+04  0.7818608E-02  0.8767930E-01
         21   -1    0    0  503  502  0.00000000000E+00  0.00000000000E+00  0.12947348746E+04  0.12947348746E+04  0.00000000000E+00 0.  1.
         21   -1    0    0  501  503 -0.00000000000E+00 -0.00000000000E+00 -0.82056817493E+03  0.82056817493E+03  0.00000000000E+00 0.  1.
    9000010    2    1    2  501    0  0.34014327317E+02  0.11717469956E+03 -0.79433645933E+01  0.10121756452E+04  0.10047634324E+04 0.  0.
   -9000010    2    1    2    0  502 -0.34014327317E+02 -0.11717469956E+03  0.48211006425E+03  0.11031274043E+04  0.98466901620E+03 0.  0.
        -13    1    3    3    0    0 -0.25509241461E+03 -0.32773967985E+03  0.17534895930E+03  0.45081338316E+03  0.10566000000E+00 0.  1.
          4    1    3    3  501    0  0.28910674193E+03  0.44491437941E+03 -0.18329232390E+03  0.56136226203E+03  0.00000000000E+00 0.  1.
         13    1    4    4    0    0 -0.43980646667E+03 -0.25259430520E+03  0.44324765576E+03  0.67357412854E+03  0.10566000000E+00 0. -1.
         -4    1    4    4    0  502  0.40579213935E+03  0.13541960564E+03  0.38862408490E+02  0.42955327579E+03  0.00000000000E+00 0. -1.
<mgrwt>
<rscale>  2 0.10071210E+04</rscale>
<asrwt>0</asrwt>
<pdfrwt beam="1">  1       21 0.19918998E+00 0.10121445E+04</pdfrwt>
<pdfrwt beam="2">  1       21 0.12624126E+00 0.10121445E+04</pdfrwt>
<totfact> 0.30767969E+01</totfact>
</mgrwt>
</event>
<event>
 8    1  0.7631533E-006  0.1030965E+04  0.7818608E-02  0.8748336E-01
         21   -1    0    0  503  502  0.00000000000E+00  0.00000000000E+00  0.85601264770E+03  0.85601264770E+03  0.00000000000E+00 0.  1.
         21   -1    0    0  501  503 -0.00000000000E+00 -0.00000000000E+00 -0.14544960758E+04  0.14544960758E+04  0.00000000000E+00 0.  1.
    9000010    2    1    2  501    0 -0.19740851706E+03  0.78129754527E+02 -0.75235902026E+03  0.12681237103E+04  0.99850852183E+03 0.  0.
   -9000010    2    1    2    0  502  0.19740851706E+03 -0.78129754527E+02  0.15387559219E+03  0.10423850131E+04  0.10088678985E+04 0.  0.
        -13    1    3    3    0    0  0.40650409820E+03 -0.62386546392E+01 -0.24333762060E+03  0.47381189456E+03  0.10566000000E+00 0.  1.
          4    1    3    3  501    0 -0.60391261526E+03  0.84368409166E+02 -0.50902139967E+03  0.79431181576E+03  0.00000000000E+00 0.  1.
         13    1    4    4    0    0  0.24555117711E+03 -0.51767007668E+03 -0.37299555079E+01  0.57296737481E+03  0.10566000000E+00 0. -1.
         -4    1    4    4    0  502 -0.48142660056E+02  0.43954032215E+03  0.15760554770E+03  0.46941763833E+03  0.00000000000E+00 0. -1.
<mgrwt>
<rscale>  2 0.10284218E+04</rscale>
<asrwt>0</asrwt>
<pdfrwt beam="1">  1       21 0.13169425E+00 0.10309650E+04</pdfrwt>
<pdfrwt beam="2">  1       21 0.22376863E+00 0.10309650E+04</pdfrwt>
<totfact> 0.17602281E+01</totfact>
</mgrwt>
</event>
<event>
 8    1  0.7631533E-006  0.1053324E+04  0.7818608E-02  0.8738293E-01
         21   -1    0    0  501  502  0.00000000000E+00  0.00000000000E+00  0.20516976496E+04  0.20516976496E+04  0.00000000000E+00 0.  1.
         21   -1    0    0  502  503 -0.00000000000E+00 -0.00000000000E+00 -0.53547742778E+03  0.53547742778E+03  0.00000000000E+00 0.  1.
    9000010    2    1    2  501    0  0.23511952584E+03 -0.17182811410E+03  0.10398841215E+04  0.14801518637E+04  0.10122669911E+04 0.  0.
   -9000010    2    1    2    0  503 -0.23511952584E+03  0.17182811410E+03  0.47633610030E+03  0.11070232136E+04  0.95592793812E+03 0.  0.
        -13    1    3    3    0    0 -0.21863857855E+03 -0.15556761581E+03 -0.73099685370E+02  0.27811452009E+03  0.10566000000E+00 0.  1.
          4    1    3    3  501    0  0.45375810438E+03 -0.16260498283E+02  0.11129838069E+04  0.12020373436E+04  0.00000000000E+00 0.  1.
         13    1    4    4    0    0 -0.15365749892E+03  0.52736819527E+03  0.49825746580E+03  0.74161199677E+03  0.10566000000E+00 0. -1.
         -4    1    4    4    0  503 -0.81462026918E+02 -0.35554008118E+03 -0.21921365508E+02  0.36541121688E+03  0.00000000000E+00 0. -1.
<mgrwt>
<rscale>  2 0.10395504E+04</rscale>
<asrwt>0</asrwt>
<pdfrwt beam="1">  1       21 0.31564579E+00 0.10533236E+04</pdfrwt>
<pdfrwt beam="2">  1       21 0.82381143E-01 0.10533236E+04</pdfrwt>
<totfact> 0.13373076E+01</totfact>
</mgrwt>
</event>
<event>
 8    1  0.7631533E-006  0.1044324E+04  0.7818608E-02  0.8740793E-01
         21   -1    0    0  501  502  0.00000000000E+00  0.00000000000E+00  0.87411370238E+03  0.87411370238E+03  0.00000000000E+00 0. -1.
         21   -1    0    0  502  503 -0.00000000000E+00 -0.00000000000E+00 -0.14186135811E+04  0.14186135811E+04  0.00000000000E+00 0. -1.
    9000010    2    1    2  501    0 -0.13634134692E+03 -0.16696962782E+02  0.16836150677E+03  0.10282970041E+04  0.10050777981E+04 0.  0.
   -9000010    2    1    2    0  503  0.13634134692E+03  0.16696962782E+02 -0.71286138546E+03  0.12644302793E+04  0.10352510927E+04 0.  0.
        -13    1    3    3    0    0  0.23142011729E+03  0.34031652479E+03 -0.13448460755E+03  0.43296273346E+03  0.10566000000E+00 0.  1.
          4    1    3    3  501    0 -0.36776146421E+03 -0.35701348757E+03  0.30284611432E+03  0.59533427066E+03  0.00000000000E+00 0.  1.
         13    1    4    4    0    0 -0.59286333969E+02 -0.35339472370E+02  0.26088728620E+03  0.26986280768E+03  0.10566000000E+00 0. -1.
         -4    1    4    4    0  503  0.19562768089E+03  0.52036435152E+02 -0.97374867166E+03  0.99456747166E+03  0.00000000000E+00 0. -1.
<mgrwt>
<rscale>  2 0.10367665E+04</rscale>
<asrwt>0</asrwt>
<pdfrwt beam="1">  1       21 0.13447903E+00 0.10443240E+04</pdfrwt>
<pdfrwt beam="2">  1       21 0.21824824E+00 0.10443240E+04</pdfrwt>
<totfact> 0.18167834E+01</totfact>
</mgrwt>
</event>
<event>
 8    1  0.7631533E-006  0.1117543E+04  0.7818608E-02  0.8673552E-01
         21   -1    0    0  503  502  0.00000000000E+00  0.00000000000E+00  0.50207741097E+03  0.50207741097E+03  0.00000000000E+00 0. -1.
         21   -1    0    0  501  503 -0.00000000000E+00 -0.00000000000E+00 -0.28165911730E+04  0.28165911730E+04  0.00000000000E+00 0. -1.
    9000010    2    1    2  501    0  0.36483700512E+03 -0.31052771663E+03 -0.57505851668E+03  0.12568195868E+04  0.10096383873E+04 0.  0.
   -9000010    2    1    2    0  502 -0.36483700512E+03  0.31052771663E+03 -0.17394552453E+04  0.20618489971E+04  0.99798959582E+03 0.  0.
        -13    1    3    3    0    0  0.39633643043E+03 -0.28903938561E+03 -0.84884541063E+03  0.98039016460E+03  0.10566000000E+00 0.  1.
          4    1    3    3  501    0 -0.31499425313E+02 -0.21488331026E+02  0.27378689395E+03  0.27642942221E+03  0.00000000000E+00 0.  1.
         13    1    4    4    0    0  0.20439366622E+03 -0.11554676806E+03 -0.10336776573E+04  0.10600081777E+04  0.10566000000E+00 0. -1.
         -4    1    4    4    0  502 -0.56923067134E+03  0.42607448470E+03 -0.70577758796E+03  0.10018408194E+04  0.00000000000E+00 0. -1.
<mgrwt>
<rscale>  2 0.11149059E+04</rscale>
<asrwt>0</asrwt>
<pdfrwt beam="1">  1       21 0.77242678E-01 0.11175434E+04</pdfrwt>
<pdfrwt beam="2">  1       21 0.43332172E+00 0.11175434E+04</pdfrwt>
<totfact> 0.23283778E+00</totfact>
</mgrwt>
</event>
<event>
 8    1  0.7631533E-006  0.1078049E+04  0.7818608E-02  0.8706601E-01
         21   -1    0    0  503  502  0.00000000000E+00  0.00000000000E+00  0.17652564430E+04  0.17652564430E+04  0.00000000000E+00 0. -1.
         21   -1    0    0  501  503 -0.00000000000E+00 -0.00000000000E+00 -0.95211032228E+03  0.95211032228E+03  0.00000000000E+00 0. -1.
    9000010    2    1    2  501    0  0.17635833348E+03  0.35008601088E+03 -0.35683896010E+03  0.11264376044E+04  0.99391405885E+03 0.  0.
   -9000010    2    1    2    0  502 -0.17635833348E+03 -0.35008601088E+03  0.11699850808E+04  0.15909291608E+04  0.10042549620E+04 0.  0.
        -13    1    3    3    0    0 -0.55440810795E+02  0.32327754379E+03 -0.66406015748E+03  0.74064698591E+03  0.10566000000E+00 0.  1.
          4    1    3    3  501    0  0.23179914428E+03  0.26808467099E+02  0.30722119739E+03  0.38579061850E+03  0.00000000000E+00 0.  1.
         13    1    4    4    0    0 -0.37760427712E+03 -0.43318433739E+03  0.12362963361E+04  0.13633276576E+04  0.10566000000E+00 0. -1.
         -4    1    4    4    0  502  0.20124594364E+03  0.83098326504E+02 -0.66311255279E+02  0.22760150324E+03  0.00000000000E+00 0. -1.
<mgrwt>
<rscale>  2 0.10756347E+04</rscale>
<asrwt>0</asrwt>
<pdfrwt beam="1">  1       21 0.27157791E+00 0.10780494E+04</pdfrwt>
<pdfrwt beam="2">  1       21 0.14647851E+00 0.10780494E+04</pdfrwt>
<totfact> 0.56786971E+00</totfact>
</mgrwt>
</event>
<event>
 8    1  0.7631533E-006  0.1126370E+04  0.7818608E-02  0.8685137E-01
         21   -1    0    0  501  502  0.00000000000E+00  0.00000000000E+00  0.10355457292E+04  0.10355457292E+04  0.00000000000E+00 0.  1.
         21   -1    0    0  502  503 -0.00000000000E+00 -0.00000000000E+00 -0.11828838624E+04  0.11828838624E+04  0.00000000000E+00 0.  1.
    9000010    2    1    2  501    0  0.26927271663E+03  0.36084398522E+02  0.17750004481E+03  0.11402695579E+04  0.10931141382E+04 0.  0.
   -9000010    2    1    2    0  503 -0.26927271663E+03 -0.36084398522E+02 -0.32483817794E+03  0.10781600336E+04  0.99151365930E+03 0.  0.
        -13    1    3    3    0    0  0.49670895872E+03 -0.35596797868E+03  0.28525377585E+03  0.67439062814E+03  0.10566000000E+00 0.  1.
          4    1    3    3  501    0 -0.22743624209E+03  0.39205237721E+03 -0.10775373104E+03  0.46587892981E+03  0.00000000000E+00 0.  1.
         13    1    4    4    0    0  0.19150556368E+03 -0.25211417125E+03  0.17760417117E+03  0.36301403423E+03  0.10566000000E+00 0. -1.
         -4    1    4    4    0  503 -0.46077828031E+03  0.21602977272E+03 -0.50244234911E+03  0.71514599942E+03  0.00000000000E+00 0. -1.
<mgrwt>
<rscale>  2 0.11009444E+04</rscale>
<asrwt>0</asrwt>
<pdfrwt beam="1">  1       21 0.15931473E+00 0.11263696E+04</pdfrwt>
<pdfrwt beam="2">  1       21 0.18198213E+00 0.11263696E+04</pdfrwt>
<totfact> 0.20449262E+01</totfact>
</mgrwt>
</event>
<event>
 8    1  0.7631533E-006  0.1027186E+04  0.7818608E-02  0.8757917E-01
         21   -1    0    0  501  502  0.00000000000E+00  0.00000000000E+00  0.17357569099E+04  0.17357569099E+04  0.00000000000E+00 0. -1.
         21   -1    0    0  502  503 -0.00000000000E+00 -0.00000000000E+00 -0.59418979683E+03  0.59418979683E+03  0.00000000000E+00 0. -1.
    9000010    2    1    2  501    0  0.19953479623E+03 -0.61742975302E+02  0.71379329091E+03  0.12508442495E+04  0.10057256805E+04 0.  0.
   -9000010    2    1    2    0  503 -0.19953479623E+03  0.61742975302E+02  0.42777382218E+03  0.10791024573E+04  0.96842415317E+03 0.  0.
        -13    1    3    3    0    0  0.48638994694E+03  0.31976777915E+02  0.12749536499E+02  0.48760666182E+03  0.10566000000E+00 0.  1.
          4    1    3    3  501    0 -0.28685515071E+03 -0.93719753216E+02  0.70104375441E+03  0.76323758767E+03  0.00000000000E+00 0.  1.
         13    1    4    4    0    0 -0.12932631108E+03 -0.21753052148E+03  0.66147929443E+03  0.70823702999E+03  0.10566000000E+00 0. -1.
         -4    1    4    4    0  503 -0.70208485153E+02  0.27927349678E+03 -0.23370547225E+03  0.37086542728E+03  0.00000000000E+00 0. -1.
<mgrwt>
<rscale>  2 0.10179383E+04</rscale>
<asrwt>0</asrwt>
<pdfrwt beam="1">  1       21 0.26703952E+00 0.10271857E+04</pdfrwt>
<pdfrwt beam="2">  1       21 0.91413816E-01 0.10271857E+04</pdfrwt>
<totfact> 0.22855834E+01</totfact>
</mgrwt>
</event>
<event>
 8    1  0.7631533E-006  0.1070597E+04  0.7818608E-02  0.8713119E-01
         21   -1    0    0  503  502  0.00000000000E+00  0.00000000000E+00  0.28523177525E+04  0.28523177525E+04  0.00000000000E+00 0.  1.
         21   -1    0    0  501  503 -0.00000000000E+00 -0.00000000000E+00 -0.44797349667E+03  0.44797349667E+03  0.00000000000E+00 0.  1.
    9000010    2    1    2  501    0  0.88402995301E+02 -0.32663215884E+03  0.65658774003E+03  0.12559004439E+04  0.10157139400E+04 0.  0.
   -9000010    2    1    2    0  502 -0.88402995301E+02  0.32663215884E+03  0.17477565158E+04  0.20443908053E+04  0.10051752432E+04 0.  0.
        -13    1    3    3    0    0 -0.14946691104E+03 -0.15021832141E+03 -0.23498844471E+03  0.31642610811E+03  0.10566000000E+00 0.  1.
          4    1    3    3  501    0  0.23786990634E+03 -0.17641383744E+03  0.89157618474E+03  0.93947433577E+03  0.00000000000E+00 0.  1.
         13    1    4    4    0    0 -0.11847466679E+03  0.63935596852E+02 -0.10632578905E+03  0.17154938588E+03  0.10566000000E+00 0. -1.
         -4    1    4    4    0  502  0.30071671487E+02  0.26269656199E+03  0.18540823048E+04  0.18728414194E+04  0.00000000000E+00 0. -1.
<mgrwt>
<rscale>  2 0.10680902E+04</rscale>
<asrwt>0</asrwt>
<pdfrwt beam="1">  1       21 0.43881810E+00 0.10705972E+04</pdfrwt>
<pdfrwt beam="2">  1       21 0.68919001E-01 0.10705972E+04</pdfrwt>
<totfact> 0.28297112E+00</totfact>
</mgrwt>
</event>
<event>
 8    1  0.7631533E-006  0.1085730E+04  0.7818608E-02  0.8702597E-01
         21   -1    0    0  501  502  0.00000000000E+00  0.00000000000E+00  0.39865732041E+04  0.39865732041E+04  0.00000000000E+00 0. -1.
         21   -1    0    0  502  503 -0.00000000000E+00 -0.00000000000E+00 -0.29257766851E+03  0.29257766851E+03  0.00000000000E+00 0. -1.
    9000010    2    1    2  501    0 -0.19009706113E+03 -0.29328693704E+03  0.20717031721E+04  0.23389664609E+04  0.10279377179E+04 0.  0.
   -9000010    2    1    2    0  503  0.19009706113E+03  0.29328693704E+03  0.16222923636E+04  0.19401844118E+04  0.10051511920E+04 0.  0.
        -13    1    3    3    0    0 -0.44158478833E+03 -0.36704253845E+03  0.19795623657E+04  0.20611609644E+04  0.10566000000E+00 0.  1.
          4    1    3    3  501    0  0.25148772721E+03  0.73755601408E+02  0.92140806395E+02  0.27780549649E+03  0.00000000000E+00 0.  1.
         13    1    4    4    0    0 -0.36831384080E+03 -0.83664689314E+02  0.73202697731E+03  0.82372226644E+03  0.10566000000E+00 0. -1.
         -4    1    4    4    0  503  0.55841090193E+03  0.37695162635E+03  0.89026538627E+03  0.11164621453E+04  0.00000000000E+00 0. -1.
<mgrwt>
<rscale>  2 0.10803026E+04</rscale>
<asrwt>0</asrwt>
<pdfrwt beam="1">  1       21 0.61331892E+00 0.10857302E+04</pdfrwt>
<pdfrwt beam="2">  1       21 0.45011952E-01 0.10857302E+04</pdfrwt>
<totfact> 0.40879358E-01</totfact>
</mgrwt>
</event>
<event>
 8    1  0.7631533E-006  0.1018599E+04  0.7818608E-02  0.8766958E-01
         21   -1    0    0  503  502  0.00000000000E+00  0.00000000000E+00  0.10804458783E+04  0.10804458783E+04  0.00000000000E+00 0. -1.
         21   -1    0    0  501  503 -0.00000000000E+00 -0.00000000000E+00 -0.92429874374E+03  0.92429874374E+03  0.00000000000E+00 0. -1.
    9000010    2    1    2  501    0 -0.98062227628E+02 -0.76755194198E+00  0.25809408354E+02  0.97784079115E+03  0.97256860820E+03 0.  0.
   -9000010    2    1    2    0  502  0.98062227628E+02  0.76755194198E+00  0.13033772623E+03  0.10269038309E+04  0.10138672327E+04 0.  0.
        -13    1    3    3    0    0 -0.20969033831E+03 -0.17431427151E+03  0.43853893803E+03  0.51640286072E+03  0.10566000000E+00 0.  1.
          4    1    3    3  501    0  0.11162811068E+03  0.17354671957E+03 -0.41272952968E+03  0.46143793042E+03  0.00000000000E+00 0.  1.
         13    1    4    4    0    0  0.31705739124E+03  0.35464924406E+03 -0.17909745610E+03  0.50830835681E+03  0.10566000000E+00 0. -1.
         -4    1    4    4    0  502 -0.21899516361E+03 -0.35388169212E+03  0.30943518234E+03  0.51859547411E+03  0.00000000000E+00 0. -1.
<mgrwt>
<rscale>  2 0.10081649E+04</rscale>
<asrwt>0</asrwt>
<pdfrwt beam="1">  1       21 0.16622244E+00 0.10185988E+04</pdfrwt>
<pdfrwt beam="2">  1       21 0.14219981E+00 0.10185988E+04</pdfrwt>
<totfact> 0.40166377E+01</totfact>
</mgrwt>
</event>
<event>
 8    1  0.7631533E-006  0.1030886E+04  0.7818608E-02  0.8748711E-01
         21   -1    0    0  501  502  0.00000000000E+00  0.00000000000E+00  0.32558798523E+03  0.32558798523E+03  0.00000000000E+00 0.  1.
         21   -1    0    0  502  503 -0.00000000000E+00 -0.00000000000E+00 -0.34842632465E+04  0.34842632465E+04  0.00000000000E+00 0.  1.
    9000010    2    1    2  501    0  0.14281107005E+03  0.16692941960E+03 -0.10707503405E+04  0.14863485922E+04  0.10072067379E+04 0.  0.
   -9000010    2    1    2    0  503 -0.14281107005E+03 -0.16692941960E+03 -0.20879249208E+04  0.23235026396E+04  0.99547657353E+03 0.  0.
        -13    1    3    3    0    0  0.55273885911E+03  0.25817036675E+03 -0.60405650681E+03  0.85851992360E+03  0.10566000000E+00 0.  1.
          4    1    3    3  501    0 -0.40992778905E+03 -0.91240947151E+02 -0.46669383369E+03  0.62782866857E+03  0.00000000000E+00 0.  1.
         13    1    4    4    0    0 -0.19485892480E+03 -0.49811163804E+03 -0.62485004690E+03  0.82251005879E+03  0.10566000000E+00 0. -1.
         -4    1    4    4    0  503  0.52047854751E+02  0.33118221845E+03 -0.14630748739E+04  0.15009925808E+04  0.00000000000E+00 0. -1.
<mgrwt>
<rscale>  2 0.10280095E+04</rscale>
<asrwt>0</asrwt>
<pdfrwt beam="1">  1       21 0.50090455E-01 0.10308860E+04</pdfrwt>
<pdfrwt beam="2">  1       21 0.53604054E+00 0.10308860E+04</pdfrwt>
<totfact> 0.12384820E+00</totfact>
</mgrwt>
</event>
<event>
 8    1  0.7631533E-006  0.1053019E+04  0.7818608E-02  0.8731125E-01
         21   -1    0    0  503  502  0.00000000000E+00  0.00000000000E+00  0.19900190503E+04  0.19900190503E+04  0.00000000000E+00 0.  1.
         21   -1    0    0  501  503 -0.00000000000E+00 -0.00000000000E+00 -0.63313341836E+03  0.63313341836E+03  0.00000000000E+00 0.  1.
    9000010    2    1    2  501    0 -0.24229404724E+03  0.79225629671E+02  0.11593613100E+04  0.15517680858E+04  0.99944106348E+03 0.  0.
   -9000010    2    1    2    0  502  0.24229404724E+03 -0.79225629671E+02  0.19752432192E+03  0.10713843828E+04  0.10216973780E+04 0.  0.
        -13    1    3    3    0    0 -0.42282920022E+03  0.18914657425E+03  0.10306870771E+03  0.47453569811E+03  0.10566000000E+00 0.  1.
          4    1    3    3  501    0  0.18053515299E+03 -0.10992094458E+03  0.10562926023E+04  0.10772323877E+04  0.00000000000E+00 0.  1.
         13    1    4    4    0    0  0.16088594764E+02  0.44479571294E+03 -0.52676304008E+02  0.44819289742E+03  0.10566000000E+00 0. -1.
         -4    1    4    4    0  502  0.22620545247E+03 -0.52402134261E+03  0.25020062592E+03  0.62319148538E+03  0.00000000000E+00 0. -1.
<mgrwt>
<rscale>  2 0.10475818E+04</rscale>
<asrwt>0</asrwt>
<pdfrwt beam="1">  1       21 0.30615677E+00 0.10530188E+04</pdfrwt>
<pdfrwt beam="2">  1       21 0.97405142E-01 0.10530188E+04</pdfrwt>
<totfact> 0.10181133E+01</totfact>
</mgrwt>
</event>
<event>
 8    1  0.7631533E-006  0.1152285E+04  0.7818608E-02  0.8644231E-01
         21   -1    0    0  501  502  0.00000000000E+00  0.00000000000E+00  0.16084761880E+04  0.16084761880E+04  0.00000000000E+00 0.  1.
         21   -1    0    0  502  503 -0.00000000000E+00 -0.00000000000E+00 -0.10593431393E+04  0.10593431393E+04  0.00000000000E+00 0.  1.
    9000010    2    1    2  501    0 -0.38148986499E+03 -0.41488637135E+03  0.90499323415E+03  0.14618349999E+04  0.10001417874E+04 0.  0.
   -9000010    2    1    2    0  503  0.38148986499E+03  0.41488637135E+03 -0.35586018552E+03  0.12059843274E+04  0.10050355755E+04 0.  0.
        -13    1    3    3    0    0  0.19571984534E+02 -0.56554007445E+03  0.13668788790E+03  0.58215309692E+03  0.10566000000E+00 0.  1.
          4    1    3    3  501    0 -0.40106184953E+03  0.15065370311E+03  0.76830534625E+03  0.87968190301E+03  0.00000000000E+00 0.  1.
         13    1    4    4    0    0  0.76876684054E+02  0.33315509777E+03 -0.67540073669E+03  0.75701288629E+03  0.10566000000E+00 0. -1.
         -4    1    4    4    0  503  0.30461318094E+03  0.81731273571E+02  0.31954055118E+03  0.44897144110E+03  0.00000000000E+00 0. -1.
<mgrwt>
<rscale>  2 0.11512175E+04</rscale>
<asrwt>0</asrwt>
<pdfrwt beam="1">  1       21 0.24745788E+00 0.11522854E+04</pdfrwt>
<pdfrwt beam="2">  1       21 0.16297587E+00 0.11522854E+04</pdfrwt>
<totfact> 0.59705612E+00</totfact>
</mgrwt>
</event>
<event>
 8    1  0.7631533E-006  0.1093417E+04  0.7818608E-02  0.8691763E-01
         21   -1    0    0  501  502  0.00000000000E+00  0.00000000000E+00  0.11193696176E+04  0.11193696176E+04  0.00000000000E+00 0. -1.
         21   -1    0    0  502  503 -0.00000000000E+00 -0.00000000000E+00 -0.20216902204E+04  0.20216902204E+04  0.00000000000E+00 0. -1.
    9000010    2    1    2  501    0 -0.19868179544E+03  0.39552197739E+03  0.62843999493E+03  0.12598927175E+04  0.99823882004E+03 0.  0.
   -9000010    2    1    2    0  503  0.19868179544E+03 -0.39552197739E+03 -0.15307605977E+04  0.18811671206E+04  0.99982480352E+03 0.  0.
        -13    1    3    3    0    0  0.36783726077E+03  0.31799952144E+03  0.44569992586E+03  0.65960319975E+03  0.10566000000E+00 0.  1.
          4    1    3    3  501    0 -0.56651905621E+03  0.77522455956E+02  0.18274006907E+03  0.60028951770E+03  0.00000000000E+00 0.  1.
         13    1    4    4    0    0 -0.47067472396E+02 -0.24745614245E+03  0.64736956708E+02  0.26007839996E+03  0.10566000000E+00 0. -1.
         -4    1    4    4    0  503  0.24574926783E+03 -0.14806583494E+03 -0.15954975544E+04  0.16210887206E+04  0.00000000000E+00 0. -1.
<mgrwt>
<rscale>  2 0.10930548E+04</rscale>
<asrwt>0</asrwt>
<pdfrwt beam="1">  1       21 0.17221071E+00 0.10934175E+04</pdfrwt>
<pdfrwt beam="2">  1       21 0.31102927E+00 0.10934175E+04</pdfrwt>
<totfact> 0.17767867E+00</totfact>
</mgrwt>
</event>
<event>
 8    1  0.7631533E-006  0.1026273E+04  0.7818608E-02  0.8752782E-01
         21   -1    0    0  503  502  0.00000000000E+00  0.00000000000E+00  0.95516589825E+03  0.95516589825E+03  0.00000000000E+00 0. -1.
         21   -1    0    0  501  503 -0.00000000000E+00 -0.00000000000E+00 -0.14308165526E+04  0.14308165526E+04  0.00000000000E+00 0. -1.
    9000010    2    1    2  501    0  0.14945529486E+03  0.69245871399E+02  0.34258227541E+03  0.10819418082E+04  0.10129677117E+04 0.  0.
   -9000010    2    1    2    0  502 -0.14945529486E+03 -0.69245871399E+02 -0.81823292973E+03  0.13040406427E+04  0.10019406143E+04 0.  0.
        -13    1    3    3    0    0 -0.36386291073E+02 -0.44037981631E+02 -0.35068778229E+03  0.35531005871E+03  0.10566000000E+00 0.  1.
          4    1    3    3  501    0  0.18584158594E+03  0.11328385303E+03  0.69327005770E+03  0.72663174946E+03  0.00000000000E+00 0.  1.
         13    1    4    4    0    0  0.18558730127E+03  0.11596889815E+03 -0.88829367478E+03  0.91485359241E+03  0.10566000000E+00 0. -1.
         -4    1    4    4    0  502 -0.33504259613E+03 -0.18521476955E+03  0.70060745047E+02  0.38918705024E+03  0.00000000000E+00 0. -1.
<mgrwt>
<rscale>  2 0.10235411E+04</rscale>
<asrwt>0</asrwt>
<pdfrwt beam="1">  1       21 0.14694860E+00 0.10262726E+04</pdfrwt>
<pdfrwt beam="2">  1       21 0.22012562E+00 0.10262726E+04</pdfrwt>
<totfact> 0.13547913E+01</totfact>
</mgrwt>
</event>
<event>
 8    1  0.7631533E-006  0.1155924E+04  0.7818608E-02  0.8643362E-01
         21   -1    0    0  501  502  0.00000000000E+00  0.00000000000E+00  0.13557061683E+04  0.13557061683E+04  0.00000000000E+00 0. -1.
         21   -1    0    0  502  503 -0.00000000000E+00 -0.00000000000E+00 -0.10196281263E+04  0.10196281263E+04  0.00000000000E+00 0. -1.
    9000010    2    1    2  501    0 -0.31006287393E+03 -0.47240043767E+03  0.42200425901E+03  0.12305474301E+04  0.10083938832E+04 0.  0.
   -9000010    2    1    2    0  503  0.31006287393E+03  0.47240043767E+03 -0.85926217019E+02  0.11447868645E+04  0.99189338692E+03 0.  0.
        -13    1    3    3    0    0 -0.27714101024E+03 -0.78573317218E+03  0.24161707613E+03  0.86750364844E+03  0.10566000000E+00 0.  1.
          4    1    3    3  501    0 -0.32921863691E+02  0.31333273451E+03  0.18038718288E+03  0.36304378161E+03  0.00000000000E+00 0.  1.
         13    1    4    4    0    0  0.46248740175E+02  0.67705625210E+03  0.19753696533E+03  0.70679910747E+03  0.10566000000E+00 0. -1.
         -4    1    4    4    0  503  0.26381413375E+03 -0.20465581443E+03 -0.28346318235E+03  0.43798775701E+03  0.00000000000E+00 0. -1.
<mgrwt>
<rscale>  2 0.11523152E+04</rscale>
<asrwt>0</asrwt>
<pdfrwt beam="1">  1       21 0.20857018E+00 0.11559236E+04</pdfrwt>
<pdfrwt beam="2">  1       21 0.15686587E+00 0.11559236E+04</pdfrwt>
<totfact> 0.13159529E+01</totfact>
</mgrwt>
</event>
<event>
 8    1  0.7631533E-006  0.1097140E+04  0.7818608E-02  0.8693857E-01
         21   -1    0    0  501  502  0.00000000000E+00  0.00000000000E+00  0.11869605536E+04  0.11869605536E+04  0.00000000000E+00 0.  1.
         21   -1    0    0  502  503 -0.00000000000E+00 -0.00000000000E+00 -0.10800726047E+04  0.10800726047E+04  0.00000000000E+00 0.  1.
    9000010    2    1    2  501    0 -0.96764682931E+02  0.37221022690E+03  0.37980197474E+03  0.11364590616E+04  0.99969285370E+03 0.  0.
   -9000010    2    1    2    0  503  0.96764682931E+02 -0.37221022690E+03 -0.27291402581E+03  0.11305740968E+04  0.10275270633E+04 0.  0.
        -13    1    3    3    0    0  0.41206146687E+03  0.16593164543E+03  0.38431845687E+03  0.58739139497E+03  0.10566000000E+00 0.  1.
          4    1    3    3  501    0 -0.50882614980E+03  0.20627858147E+03 -0.45164821254E+01  0.54906766660E+03  0.00000000000E+00 0.  1.
         13    1    4    4    0    0  0.25544948078E+03 -0.18400148378E+03  0.34402604474E+03  0.46633133488E+03  0.10566000000E+00 0. -1.
         -4    1    4    4    0  503 -0.15868479785E+03 -0.18820874312E+03 -0.61694007055E+03  0.66424276188E+03  0.00000000000E+00 0. -1.
<mgrwt>
<rscale>  2 0.10905752E+04</rscale>
<asrwt>0</asrwt>
<pdfrwt beam="1">  1       21 0.18260932E+00 0.10971398E+04</pdfrwt>
<pdfrwt beam="2">  1       21 0.16616502E+00 0.10971398E+04</pdfrwt>
<totfact> 0.17764875E+01</totfact>
</mgrwt>
</event>
<event>
 8    1  0.7631533E-006  0.1071785E+04  0.7818608E-02  0.8712590E-01
         21   -1    0    0  501  502  0.00000000000E+00  0.00000000000E+00  0.12468536527E+04  0.12468536527E+04  0.00000000000E+00 0.  1.
         21   -1    0    0  502  503 -0.00000000000E+00 -0.00000000000E+00 -0.10195651910E+04  0.10195651910E+04  0.00000000000E+00 0.  1.
    9000010    2    1    2  501    0  0.32475796893E+03 -0.14727567832E+03  0.48323335859E+03  0.11644970639E+04  0.99768786158E+03 0.  0.
   -9000010    2    1    2    0  503 -0.32475796893E+03  0.14727567832E+03 -0.25594489690E+03  0.11019217797E+04  0.10107254596E+04 0.  0.
        -13    1    3    3    0    0  0.27852394360E+03 -0.43144620535E+03 -0.91554036713E+02  0.52163547432E+03  0.10566000000E+00 0.  1.
          4    1    3    3  501    0  0.46234025326E+02  0.28417052703E+03  0.57478739531E+03  0.64286158956E+03  0.00000000000E+00 0.  1.
         13    1    4    4    0    0 -0.25622032637E+03 -0.35563164407E+03 -0.37923631120E+03  0.57960582537E+03  0.10566000000E+00 0. -1.
         -4    1    4    4    0  503 -0.68537642564E+02  0.50290732238E+03  0.12329141430E+03  0.52231595437E+03  0.00000000000E+00 0. -1.
<mgrwt>
<rscale>  2 0.10687006E+04</rscale>
<asrwt>0</asrwt>
<pdfrwt beam="1">  1       21 0.19182364E+00 0.10717853E+04</pdfrwt>
<pdfrwt beam="2">  1       21 0.15685618E+00 0.10717853E+04</pdfrwt>
<totfact> 0.18115654E+01</totfact>
</mgrwt>
</event>
<event>
 8    1  0.7631533E-006  0.1051370E+04  0.7818608E-02  0.8795555E-01
         21   -1    0    0  503  502  0.00000000000E+00  0.00000000000E+00  0.33962273914E+03  0.33962273914E+03  0.00000000000E+00 0. -1.
         21   -1    0    0  501  503 -0.00000000000E+00 -0.00000000000E+00 -0.27573706032E+04  0.27573706032E+04  0.00000000000E+00 0. -1.
    9000010    2    1    2  501    0  0.13891696153E+03 -0.27698464414E+03 -0.18449228048E+04  0.21234687000E+04  0.10046694724E+04 0.  0.
   -9000010    2    1    2    0  502 -0.13891696153E+03  0.27698464414E+03 -0.57282505924E+03  0.97352464235E+03  0.72360435701E+03 0.  0.
        -13    1    3    3    0    0  0.31590500802E+03 -0.47831094052E+03 -0.52731704234E+03  0.77887136564E+03  0.10566000000E+00 0.  1.
          4    1    3    3  501    0 -0.17698804648E+03  0.20132629637E+03 -0.13176057625E+04  0.13445973343E+04  0.00000000000E+00 0.  1.
         13    1    4    4    0    0 -0.12108461788E+02 -0.18339658668E+03  0.48316001390E+02  0.19004044308E+03  0.10566000000E+00 0. -1.
         -4    1    4    4    0  502 -0.12680849975E+03  0.46038123082E+03 -0.62114106063E+03  0.78348419927E+03  0.00000000000E+00 0. -1.
<mgrwt>
<rscale>  2 0.97798581E+03</rscale>
<asrwt>0</asrwt>
<pdfrwt beam="1">  1       21 0.52249651E-01 0.10513701E+04</pdfrwt>
<pdfrwt beam="2">  1       21 0.42421087E+00 0.10513701E+04</pdfrwt>
<totfact> 0.67744451E+00</totfact>
</mgrwt>
</event>
<event>
 8    1  0.7631533E-006  0.9977026E+03  0.7818608E-02  0.8778405E-01
         21   -1    0    0  501  502  0.00000000000E+00  0.00000000000E+00  0.80292276305E+03  0.80292276305E+03  0.00000000000E+00 0.  1.
         21   -1    0    0  502  503 -0.00000000000E+00 -0.00000000000E+00 -0.12697895089E+04  0.12697895089E+04  0.00000000000E+00 0.  1.
    9000010    2    1    2  501    0 -0.90047412646E+02 -0.69717302561E+02 -0.51655716398E+02  0.99205933288E+03  0.98414651761E+03 0.  0.
   -9000010    2    1    2    0  503  0.90047412646E+02  0.69717302561E+02 -0.41521102948E+03  0.10806529391E+04  0.99118188895E+03 0.  0.
        -13    1    3    3    0    0  0.23293007065E+03 -0.49661757027E+02 -0.43162092666E+03  0.49296992142E+03  0.10566000000E+00 0.  1.
          4    1    3    3  501    0 -0.32297748330E+03 -0.20055545535E+02  0.37996521027E+03  0.49908941146E+03  0.00000000000E+00 0.  1.
         13    1    4    4    0    0  0.42373594902E+03 -0.28366228546E+03 -0.24458869819E+03  0.56554406471E+03  0.10566000000E+00 0. -1.
         -4    1    4    4    0  503 -0.33368853638E+03  0.35337958802E+03 -0.17062233129E+03  0.51510887438E+03  0.00000000000E+00 0. -1.
<mgrwt>
<rscale>  2 0.99595077E+03</rscale>
<asrwt>0</asrwt>
<pdfrwt beam="1">  1       21 0.12352658E+00 0.99770265E+03</pdfrwt>
<pdfrwt beam="2">  1       21 0.19535223E+00 0.99770265E+03</pdfrwt>
<totfact> 0.35198045E+01</totfact>
</mgrwt>
</event>
<event>
 8    1  0.7631533E-006  0.1052898E+04  0.7818608E-02  0.8731667E-01
         21   -1    0    0  503  502  0.00000000000E+00  0.00000000000E+00  0.16182766738E+04  0.16182766738E+04  0.00000000000E+00 0. -1.
         21   -1    0    0  501  503 -0.00000000000E+00 -0.00000000000E+00 -0.83723565022E+03  0.83723565022E+03  0.00000000000E+00 0. -1.
    9000010    2    1    2  501    0 -0.32886477042E+03 -0.95941221916E+02 -0.16196660321E+03  0.10420563020E+04  0.97071695184E+03 0.  0.
   -9000010    2    1    2    0  502  0.32886477042E+03  0.95941221916E+02  0.94300762677E+03  0.14134560221E+04  0.99560925410E+03 0.  0.
        -13    1    3    3    0    0 -0.18005933860E+03 -0.36036785067E+03 -0.46362796061E+03  0.61419642643E+03  0.10566000000E+00 0.  1.
          4    1    3    3  501    0 -0.14880543182E+03  0.26442662875E+03  0.30166135740E+03  0.42785987552E+03  0.00000000000E+00 0.  1.
         13    1    4    4    0    0 -0.92417543103E+02 -0.68868108671E+02  0.95401278822E+03  0.96094965004E+03  0.10566000000E+00 0. -1.
         -4    1    4    4    0  502  0.42128231352E+03  0.16480933059E+03 -0.11005161443E+02  0.45250637202E+03  0.00000000000E+00 0. -1.
<mgrwt>
<rscale>  2 0.10469718E+04</rscale>
<asrwt>0</asrwt>
<pdfrwt beam="1">  1       21 0.24896564E+00 0.10528982E+04</pdfrwt>
<pdfrwt beam="2">  1       21 0.12880549E+00 0.10528982E+04</pdfrwt>
<totfact> 0.12168333E+01</totfact>
</mgrwt>
</event>
<event>
 8    1  0.7631533E-006  0.1011253E+04  0.7818608E-02  0.8764990E-01
         21   -1    0    0  503  502  0.00000000000E+00  0.00000000000E+00  0.88658314251E+03  0.88658314251E+03  0.00000000000E+00 0.  1.
         21   -1    0    0  501  503 -0.00000000000E+00 -0.00000000000E+00 -0.14350041438E+04  0.14350041438E+04  0.00000000000E+00 0.  1.
    9000010    2    1    2  501    0 -0.17695402292E+03 -0.10844898605E+02 -0.79197711767E+03  0.12814175993E+04  0.99165163782E+03 0.  0.
   -9000010    2    1    2    0  502  0.17695402292E+03  0.10844898605E+02  0.24355611637E+03  0.10401696870E+04  0.99559181292E+03 0.  0.
        -13    1    3    3    0    0 -0.26970212337E+03 -0.16616693430E+03 -0.97434117204E+03  0.10245444920E+04  0.10566000000E+00 0.  1.
          4    1    3    3  501    0  0.92748100456E+02  0.15532203569E+03  0.18236405438E+03  0.25687310727E+03  0.00000000000E+00 0.  1.
         13    1    4    4    0    0 -0.52370141194E+02 -0.39304625120E+03  0.38699597540E+03  0.55407028743E+03  0.10566000000E+00 0. -1.
         -4    1    4    4    0  502  0.22932416411E+03  0.40389114981E+03 -0.14343985903E+03  0.48609939961E+03  0.00000000000E+00 0. -1.
<mgrwt>
<rscale>  2 0.10102823E+04</rscale>
<asrwt>0</asrwt>
<pdfrwt beam="1">  1       21 0.13639741E+00 0.10112534E+04</pdfrwt>
<pdfrwt beam="2">  1       21 0.22076987E+00 0.10112534E+04</pdfrwt>
<totfact> 0.16809059E+01</totfact>
</mgrwt>
</event>
<event>
 8    1  0.7631533E-006  0.1022955E+04  0.7818608E-02  0.8764070E-01
         21   -1    0    0  501  502  0.00000000000E+00  0.00000000000E+00  0.10603077364E+04  0.10603077364E+04  0.00000000000E+00 0.  1.
         21   -1    0    0  502  503 -0.00000000000E+00 -0.00000000000E+00 -0.95519605945E+03  0.95519605945E+03  0.00000000000E+00 0.  1.
    9000010    2    1    2  501    0  0.12605429764E+03 -0.65084960162E+02 -0.59596127356E+02  0.10246896074E+04  0.10130702617E+04 0.  0.
   -9000010    2    1    2    0  503 -0.12605429764E+03  0.65084960162E+02  0.16470780436E+03  0.99081418853E+03  0.96667386299E+03 0.  0.
        -13    1    3    3    0    0 -0.11775932739E+03 -0.32826096074E+03 -0.39962309101E+03  0.53039715644E+03  0.10566000000E+00 0.  1.
          4    1    3    3  501    0  0.24381362503E+03  0.26317600058E+03  0.34002696365E+03  0.49429245093E+03  0.00000000000E+00 0.  1.
         13    1    4    4    0    0 -0.46838663032E+03  0.95984609208E+02 -0.17347396933E+03  0.50861803927E+03  0.10566000000E+00 0. -1.
         -4    1    4    4    0  503  0.34233233268E+03 -0.30899649046E+02  0.33818177369E+03  0.48219614926E+03  0.00000000000E+00 0. -1.
<mgrwt>
<rscale>  2 0.10112748E+04</rscale>
<asrwt>0</asrwt>
<pdfrwt beam="1">  1       21 0.16312427E+00 0.10229551E+04</pdfrwt>
<pdfrwt beam="2">  1       21 0.14695324E+00 0.10229551E+04</pdfrwt>
<totfact> 0.38601984E+01</totfact>
</mgrwt>
</event>
<event>
 8    1  0.7631533E-006  0.1006302E+04  0.7818608E-02  0.8772298E-01
         21   -1    0    0  503  502  0.00000000000E+00  0.00000000000E+00  0.20458110663E+04  0.20458110663E+04  0.00000000000E+00 0.  1.
         21   -1    0    0  501  503 -0.00000000000E+00 -0.00000000000E+00 -0.55709304185E+03  0.55709304185E+03  0.00000000000E+00 0.  1.
    9000010    2    1    2  501    0 -0.82091014114E+02 -0.12558582740E+03  0.28927681302E+03  0.10470548240E+04  0.99505376500E+03 0.  0.
   -9000010    2    1    2    0  502  0.82091014114E+02  0.12558582740E+03  0.11994412114E+04  0.15558492842E+04  0.97953919814E+03 0.  0.
        -13    1    3    3    0    0 -0.44897968873E+03 -0.21463889526E+03 -0.96896053404E+02  0.50699257645E+03  0.10566000000E+00 0.  1.
          4    1    3    3  501    0  0.36688867461E+03  0.89053067863E+02  0.38617286642E+03  0.54006224754E+03  0.00000000000E+00 0.  1.
         13    1    4    4    0    0 -0.40464951661E+03 -0.42403856362E+00  0.85639567416E+03  0.94718265028E+03  0.10566000000E+00 0. -1.
         -4    1    4    4    0  502  0.48674053072E+03  0.12600986596E+03  0.34304553728E+03  0.60866663389E+03  0.00000000000E+00 0. -1.
<mgrwt>
<rscale>  2 0.10024448E+04</rscale>
<asrwt>0</asrwt>
<pdfrwt beam="1">  1       21 0.31474016E+00 0.10063015E+04</pdfrwt>
<pdfrwt beam="2">  1       21 0.85706623E-01 0.10063015E+04</pdfrwt>
<totfact> 0.12425003E+01</totfact>
</mgrwt>
</event>
<event>
 8    1  0.7631533E-006  0.1389405E+04  0.7818608E-02  0.8483658E-01
         21   -1    0    0  501  502  0.00000000000E+00  0.00000000000E+00  0.10084871076E+04  0.10084871076E+04  0.00000000000E+00 0.  1.
         21   -1    0    0  502  503 -0.00000000000E+00 -0.00000000000E+00 -0.23993592693E+04  0.23993592693E+04  0.00000000000E+00 0.  1.
    9000010    2    1    2  501    0  0.12983825291E+03  0.68976575842E+03  0.12883429290E+03  0.13487316759E+04  0.11444842004E+04 0.  0.
   -9000010    2    1    2    0  503 -0.12983825291E+03 -0.68976575842E+03 -0.15197064547E+04  0.20591147011E+04  0.11990875157E+04 0.  0.
        -13    1    3    3    0    0 -0.27241591892E+03  0.18305554282E+02 -0.34021286011E+03  0.43622279576E+03  0.10566000000E+00 0.  1.
          4    1    3    3  501    0  0.40225417183E+03  0.67146020414E+03  0.46904715301E+03  0.91250888009E+03  0.00000000000E+00 0.  1.
         13    1    4    4    0    0 -0.41492963293E+03  0.16402382876E+03 -0.27880335562E+03  0.52611951015E+03  0.10566000000E+00 0. -1.
         -4    1    4    4    0  503  0.28509138002E+03 -0.85378958718E+03 -0.12409030990E+04  0.15329951909E+04  0.00000000000E+00 0. -1.
<mgrwt>
<rscale>  2 0.13775436E+04</rscale>
<asrwt>0</asrwt>
<pdfrwt beam="1">  1       21 0.15515187E+00 0.13894048E+04</pdfrwt>
<pdfrwt beam="2">  1       21 0.36913219E+00 0.13894048E+04</pdfrwt>
<totfact> 0.91212022E-01</totfact>
</mgrwt>
</event>
<event>
 8    1  0.7631533E-006  0.1004603E+04  0.7818608E-02  0.8771887E-01
         21   -1    0    0  501  502  0.00000000000E+00  0.00000000000E+00  0.13952040098E+04  0.13952040098E+04  0.00000000000E+00 0.  1.
         21   -1    0    0  502  503 -0.00000000000E+00 -0.00000000000E+00 -0.75942169560E+03  0.75942169560E+03  0.00000000000E+00 0.  1.
    9000010    2    1    2  501    0  0.26578183976E+02  0.14063981098E+03  0.56923515398E+03  0.11546670585E+04  0.99435476528E+03 0.  0.
   -9000010    2    1    2    0  503 -0.26578183976E+02 -0.14063981098E+03  0.66547160173E+02  0.99995864683E+03  0.98742230810E+03 0.  0.
        -13    1    3    3    0    0 -0.35943878085E+03  0.16674820436E+03 -0.74916284398E+02  0.40325384272E+03  0.10566000000E+00 0.  1.
          4    1    3    3  501    0  0.38601696482E+03 -0.26108393379E+02  0.64415143837E+03  0.75141321581E+03  0.00000000000E+00 0.  1.
         13    1    4    4    0    0 -0.22433790539E+03  0.36853194518E+03 -0.69595177712E+02  0.43702035461E+03  0.10566000000E+00 0. -1.
         -4    1    4    4    0  503  0.19775972141E+03 -0.50917175616E+03  0.13614233789E+03  0.56293829222E+03  0.00000000000E+00 0. -1.
<mgrwt>
<rscale>  2 0.10028834E+04</rscale>
<asrwt>0</asrwt>
<pdfrwt beam="1">  1       21 0.21464677E+00 0.10046031E+04</pdfrwt>
<pdfrwt beam="2">  1       21 0.11683411E+00 0.10046031E+04</pdfrwt>
<totfact> 0.29128664E+01</totfact>
</mgrwt>
</event>
<event>
 8    1  0.7631533E-006  0.1050129E+04  0.7818608E-02  0.8751834E-01
         21   -1    0    0  501  502  0.00000000000E+00  0.00000000000E+00  0.76067595584E+03  0.76067595584E+03  0.00000000000E+00 0.  1.
         21   -1    0    0  502  503 -0.00000000000E+00 -0.00000000000E+00 -0.13893953224E+04  0.13893953224E+04  0.00000000000E+00 0.  1.
    9000010    2    1    2  501    0  0.27544807214E+03 -0.18028591517E+02 -0.54406468154E+02  0.95315610917E+03  0.91068646312E+03 0.  0.
   -9000010    2    1    2    0  503 -0.27544807214E+03  0.18028591517E+02 -0.57431289842E+03  0.11969151691E+04  0.10131998550E+04 0.  0.
        -13    1    3    3    0    0  0.32258596845E+03 -0.35944013829E+03 -0.26336422148E+03  0.55010875685E+03  0.10566000000E+00 0.  1.
          4    1    3    3  501    0 -0.47137896305E+02  0.34141154677E+03  0.20895775332E+03  0.40304735232E+03  0.00000000000E+00 0.  1.
         13    1    4    4    0    0 -0.60126487642E+03 -0.19072009647E+03 -0.49522897002E+03  0.80196343478E+03  0.10566000000E+00 0. -1.
         -4    1    4    4    0  503  0.32581680428E+03  0.20874868798E+03 -0.79083928400E+02  0.39495173429E+03  0.00000000000E+00 0. -1.
<mgrwt>
<rscale>  2 0.10245798E+04</rscale>
<asrwt>0</asrwt>
<pdfrwt beam="1">  1       21 0.11702707E+00 0.10501289E+04</pdfrwt>
<pdfrwt beam="2">  1       21 0.21375313E+00 0.10501289E+04</pdfrwt>
<totfact> 0.29153783E+01</totfact>
</mgrwt>
</event>
<event>
 8    1  0.7631533E-006  0.1061523E+04  0.7818608E-02  0.8724514E-01
         21   -1    0    0  503  502  0.00000000000E+00  0.00000000000E+00  0.12183021110E+04  0.12183021110E+04  0.00000000000E+00 0.  1.
         21   -1    0    0  501  503 -0.00000000000E+00 -0.00000000000E+00 -0.96387040390E+03  0.96387040390E+03  0.00000000000E+00 0.  1.
    9000010    2    1    2  501    0 -0.22999994467E+03  0.24223863736E+03 -0.14905204220E+03  0.10465533533E+04  0.98054978356E+03 0.  0.
   -9000010    2    1    2    0  502  0.22999994467E+03 -0.24223863736E+03  0.40348374933E+03  0.11356191616E+04  0.10075972471E+04 0.  0.
        -13    1    3    3    0    0 -0.11072039826E+03 -0.37371581660E+03  0.38638744727E+02  0.39168288440E+03  0.10566000000E+00 0.  1.
          4    1    3    3  501    0 -0.11927954641E+03  0.61595445396E+03 -0.18769078693E+03  0.65487046890E+03  0.00000000000E+00 0.  1.
         13    1    4    4    0    0 -0.28004788751E+03 -0.29990947951E+03 -0.93825585176E+02  0.42092251876E+03  0.10566000000E+00 0. -1.
         -4    1    4    4    0  502  0.51004783218E+03  0.57670842150E+02  0.49730933450E+03  0.71469664287E+03  0.00000000000E+00 0. -1.
<mgrwt>
<rscale>  2 0.10550548E+04</rscale>
<asrwt>0</asrwt>
<pdfrwt beam="1">  1       21 0.18743109E+00 0.10615233E+04</pdfrwt>
<pdfrwt beam="2">  1       21 0.14828775E+00 0.10615233E+04</pdfrwt>
<totfact> 0.23435234E+01</totfact>
</mgrwt>
</event>
<event>
 8    1  0.7631533E-006  0.1127687E+04  0.7818608E-02  0.8664517E-01
         21   -1    0    0  503  502  0.00000000000E+00  0.00000000000E+00  0.20900463803E+04  0.20900463803E+04  0.00000000000E+00 0. -1.
         21   -1    0    0  501  503 -0.00000000000E+00 -0.00000000000E+00 -0.62441962097E+03  0.62441962097E+03  0.00000000000E+00 0. -1.
    9000010    2    1    2  501    0 -0.35072587323E+03 -0.38140930159E+03  0.49381301818E+03  0.12310681288E+04  0.10015965991E+04 0.  0.
   -9000010    2    1    2    0  502  0.35072587323E+03  0.38140930159E+03  0.97181374110E+03  0.14833978724E+04  0.99376335566E+03 0.  0.
        -13    1    3    3    0    0 -0.59932683339E+03 -0.24477255253E+02  0.38022917803E+02  0.60103040080E+03  0.10566000000E+00 0.  1.
          4    1    3    3  501    0  0.24860096016E+03 -0.35693204633E+03  0.45579010038E+03  0.63003772800E+03  0.00000000000E+00 0.  1.
         13    1    4    4    0    0 -0.11762616582E+03  0.59294953041E+03  0.57266461536E+03  0.83268831705E+03  0.10566000000E+00 0. -1.
         -4    1    4    4    0  502  0.46835203905E+03 -0.21154022882E+03  0.39914912574E+03  0.65070955539E+03  0.00000000000E+00 0. -1.
<mgrwt>
<rscale>  2 0.11259448E+04</rscale>
<asrwt>0</asrwt>
<pdfrwt beam="1">  1       21 0.32154559E+00 0.11276868E+04</pdfrwt>
<pdfrwt beam="2">  1       21 0.96064558E-01 0.11276868E+04</pdfrwt>
<totfact> 0.80899966E+00</totfact>
</mgrwt>
</event>
<event>
 8    1  0.7631533E-006  0.1014192E+04  0.7818608E-02  0.8770961E-01
         21   -1    0    0  501  502  0.00000000000E+00  0.00000000000E+00  0.60898474520E+03  0.60898474520E+03  0.00000000000E+00 0.  1.
         21   -1    0    0  502  503 -0.00000000000E+00 -0.00000000000E+00 -0.16310931009E+04  0.16310931009E+04  0.00000000000E+00 0.  1.
    9000010    2    1    2  501    0  0.39100960840E+02 -0.29640510012E+02 -0.41703649270E+03  0.10591049644E+04  0.97230470759E+03 0.  0.
   -9000010    2    1    2    0  503 -0.39100960840E+02  0.29640510012E+02 -0.60507186298E+03  0.11809728817E+04  0.10130042166E+04 0.  0.
        -13    1    3    3    0    0  0.29712651718E+03  0.36474627920E+03 -0.74109124373E+02  0.47625223242E+03  0.10566000000E+00 0.  1.
          4    1    3    3  501    0 -0.25802555634E+03 -0.39438678922E+03 -0.34292736833E+03  0.58285273199E+03  0.00000000000E+00 0.  1.
         13    1    4    4    0    0 -0.34991444563E+03  0.37386010131E+03 -0.15574331508E+03  0.53522657443E+03  0.10566000000E+00 0. -1.
         -4    1    4    4    0  503  0.31081348479E+03 -0.34421959130E+03 -0.44932854790E+03  0.64574630725E+03  0.00000000000E+00 0. -1.
<mgrwt>
<rscale>  2 0.10038729E+04</rscale>
<asrwt>0</asrwt>
<pdfrwt beam="1">  1       21 0.93689961E-01 0.10141918E+04</pdfrwt>
<pdfrwt beam="2">  1       21 0.25093740E+00 0.10141918E+04</pdfrwt>
<totfact> 0.28132025E+01</totfact>
</mgrwt>
</event>
<event>
 8    1  0.7631533E-006  0.1040964E+04  0.7818608E-02  0.8743508E-01
         21   -1    0    0  501  502  0.00000000000E+00  0.00000000000E+00  0.16118319120E+04  0.16118319120E+04  0.00000000000E+00 0.  1.
         21   -1    0    0  502  503 -0.00000000000E+00 -0.00000000000E+00 -0.84591935453E+03  0.84591935453E+03  0.00000000000E+00 0.  1.
    9000010    2    1    2  501    0  0.11018949025E+03 -0.54995247476E+02  0.97239915213E+03  0.14244880890E+04  0.10336537156E+04 0.  0.
   -9000010    2    1    2    0  503 -0.11018949025E+03  0.54995247476E+02 -0.20648659467E+03  0.10332631775E+04  0.10049029203E+04 0.  0.
        -13    1    3    3    0    0 -0.26386244923E+03 -0.35808094826E+03  0.79583481914E+03  0.91170084355E+03  0.10566000000E+00 0.  1.
          4    1    3    3  501    0  0.37405193948E+03  0.30308570078E+03  0.17656433299E+03  0.51278724548E+03  0.00000000000E+00 0.  1.
         13    1    4    4    0    0  0.37027431110E+03  0.23060534092E+03 -0.27721436208E+03  0.51684591749E+03  0.10566000000E+00 0. -1.
         -4    1    4    4    0  503 -0.48046380136E+03 -0.17561009344E+03  0.70727767412E+02  0.51641725999E+03  0.00000000000E+00 0. -1.
<mgrwt>
<rscale>  2 0.10337537E+04</rscale>
<asrwt>0</asrwt>
<pdfrwt beam="1">  1       21 0.24797414E+00 0.10409641E+04</pdfrwt>
<pdfrwt beam="2">  1       21 0.13014144E+00 0.10409641E+04</pdfrwt>
<totfact> 0.12043614E+01</totfact>
</mgrwt>
</event>
<event>
 8    1  0.7631533E-006  0.1011296E+04  0.7818608E-02  0.8764358E-01
         21   -1    0    0  501  502  0.00000000000E+00  0.00000000000E+00  0.74340545055E+03  0.74340545055E+03  0.00000000000E+00 0. -1.
         21   -1    0    0  502  503 -0.00000000000E+00 -0.00000000000E+00 -0.15173345816E+04  0.15173345816E+04  0.00000000000E+00 0. -1.
    9000010    2    1    2  501    0  0.44260715502E+02 -0.37167918898E+02 -0.39215641827E+02  0.10107305905E+04  0.10083144325E+04 0.  0.
   -9000010    2    1    2    0  503 -0.44260715502E+02  0.37167918898E+02 -0.73471348919E+03  0.12500094416E+04  0.10096431190E+04 0.  0.
        -13    1    3    3    0    0  0.53876947571E+02  0.41279077052E+03 -0.27864844706E+03  0.50094302462E+03  0.10566000000E+00 0.  1.
          4    1    3    3  501    0 -0.96162320689E+01 -0.44995868942E+03  0.23943280523E+03  0.50978756588E+03  0.00000000000E+00 0.  1.
         13    1    4    4    0    0  0.86807161175E+02 -0.11094139743E+01  0.24546574395E+03  0.26036542906E+03  0.10566000000E+00 0. -1.
         -4    1    4    4    0  503 -0.13106787668E+03  0.38277332872E+02 -0.98017923314E+03  0.98964401255E+03  0.00000000000E+00 0. -1.
<mgrwt>
<rscale>  2 0.10109643E+04</rscale>
<asrwt>0</asrwt>
<pdfrwt beam="1">  1       21 0.11437007E+00 0.10112960E+04</pdfrwt>
<pdfrwt beam="2">  1       21 0.23343609E+00 0.10112960E+04</pdfrwt>
<totfact> 0.22305291E+01</totfact>
</mgrwt>
</event>
<event>
 8    1  0.7631533E-006  0.1124270E+04  0.7818608E-02  0.8672601E-01
         21   -1    0    0  501  502  0.00000000000E+00  0.00000000000E+00  0.19280482671E+04  0.19280482671E+04  0.00000000000E+00 0.  1.
         21   -1    0    0  502  503 -0.00000000000E+00 -0.00000000000E+00 -0.12582840889E+04  0.12582840889E+04  0.00000000000E+00 0.  1.
    9000010    2    1    2  501    0  0.43954088087E+03  0.11007344821E+03  0.14569886635E+04  0.18403255973E+04  0.10289169007E+04 0.  0.
   -9000010    2    1    2    0  503 -0.43954088087E+03 -0.11007344821E+03 -0.78722448535E+03  0.13460067587E+04  0.99332746573E+03 0.  0.
        -13    1    3    3    0    0  0.55776583468E+03 -0.31013362139E+03  0.58760383667E+03  0.86750439162E+03  0.10566000000E+00 0.  1.
          4    1    3    3  501    0 -0.11822495381E+03  0.42020706960E+03  0.86938482685E+03  0.97282120567E+03  0.00000000000E+00 0.  1.
         13    1    4    4    0    0  0.22135966058E+03 -0.24508738548E+03 -0.29560901764E+02  0.33157470339E+03  0.10566000000E+00 0. -1.
         -4    1    4    4    0  503 -0.66090054145E+03  0.13501393727E+03 -0.75766358359E+03  0.10144320553E+04  0.00000000000E+00 0. -1.
<mgrwt>
<rscale>  2 0.11160610E+04</rscale>
<asrwt>0</asrwt>
<pdfrwt beam="1">  1       21 0.29662281E+00 0.11242697E+04</pdfrwt>
<pdfrwt beam="2">  1       21 0.19358217E+00 0.11242697E+04</pdfrwt>
<totfact> 0.14951169E+00</totfact>
</mgrwt>
</event>
<event>
 8    1  0.7631533E-006  0.1020904E+04  0.7818608E-02  0.8760698E-01
         21   -1    0    0  501  502  0.00000000000E+00  0.00000000000E+00  0.16572742629E+04  0.16572742629E+04  0.00000000000E+00 0. -1.
         21   -1    0    0  502  503 -0.00000000000E+00 -0.00000000000E+00 -0.94345579097E+03  0.94345579097E+03  0.00000000000E+00 0. -1.
    9000010    2    1    2  501    0 -0.75854284583E+02 -0.36887882931E+02  0.11276158174E+04  0.15211055936E+04  0.10174134886E+04 0.  0.
   -9000010    2    1    2    0  503  0.75854284583E+02  0.36887882931E+02 -0.41379734546E+03  0.10796244603E+04  0.99360260860E+03 0.  0.
        -13    1    3    3    0    0  0.14433532215E+03 -0.35549273090E+03  0.10608547882E+04  0.11281048975E+04  0.10566000000E+00 0.  1.
          4    1    3    3  501    0 -0.22018960673E+03  0.31860484797E+03  0.66761029146E+02  0.39300069602E+03  0.00000000000E+00 0.  1.
         13    1    4    4    0    0  0.40702742989E+03  0.24853029411E+03 -0.48500961721E+03  0.68020068783E+03  0.10566000000E+00 0. -1.
         -4    1    4    4    0  503 -0.33117314531E+03 -0.21164241118E+03  0.71212271747E+02  0.39942377249E+03  0.00000000000E+00 0. -1.
<mgrwt>
<rscale>  2 0.10149196E+04</rscale>
<asrwt>0</asrwt>
<pdfrwt beam="1">  1       21 0.25496527E+00 0.10209039E+04</pdfrwt>
<pdfrwt beam="2">  1       21 0.14514704E+00 0.10209039E+04</pdfrwt>
<totfact> 0.77966170E+00</totfact>
</mgrwt>
</event>
<event>
 8    1  0.7631533E-006  0.1027967E+04  0.7818608E-02  0.8755029E-01
         21   -1    0    0  503  502  0.00000000000E+00  0.00000000000E+00  0.81840741660E+03  0.81840741660E+03  0.00000000000E+00 0.  1.
         21   -1    0    0  501  503 -0.00000000000E+00 -0.00000000000E+00 -0.12693647583E+04  0.12693647583E+04  0.00000000000E+00 0.  1.
    9000010    2    1    2  501    0  0.67051351483E+02  0.18192788578E+03 -0.12621877567E+03  0.10356865055E+04  0.10095155863E+04 0.  0.
   -9000010    2    1    2    0  502 -0.67051351483E+02 -0.18192788578E+03 -0.32473856603E+03  0.10520856694E+04  0.98175123125E+03 0.  0.
        -13    1    3    3    0    0 -0.17733693663E+03  0.37037661011E+03 -0.43564055215E+03  0.59867347047E+03  0.10566000000E+00 0.  1.
          4    1    3    3  501    0  0.24438828811E+03 -0.18844872433E+03  0.30942177647E+03  0.43701303507E+03  0.00000000000E+00 0.  1.
         13    1    4    4    0    0 -0.41421571564E+03 -0.10930738126E+03  0.15491218128E+03  0.45554424347E+03  0.10566000000E+00 0. -1.
         -4    1    4    4    0  502  0.34716436416E+03 -0.72620504515E+02 -0.47965074731E+03  0.59654142590E+03  0.00000000000E+00 0. -1.
<mgrwt>
<rscale>  2 0.10210847E+04</rscale>
<asrwt>0</asrwt>
<pdfrwt beam="1">  1       21 0.12590883E+00 0.10279666E+04</pdfrwt>
<pdfrwt beam="2">  1       21 0.19528688E+00 0.10279666E+04</pdfrwt>
<totfact> 0.33149354E+01</totfact>
</mgrwt>
</event>
<event>
 8    1  0.7631533E-006  0.1017944E+04  0.7818608E-02  0.8758731E-01
         21   -1    0    0  503  502  0.00000000000E+00  0.00000000000E+00  0.83133767766E+03  0.83133767766E+03  0.00000000000E+00 0.  1.
         21   -1    0    0  501  503 -0.00000000000E+00 -0.00000000000E+00 -0.13617597847E+04  0.13617597847E+04  0.00000000000E+00 0.  1.
    9000010    2    1    2  501    0  0.62556116246E+02 -0.17865012894E+03 -0.58985192518E+03  0.11734203315E+04  0.99657455537E+03 0.  0.
   -9000010    2    1    2    0  502 -0.62556116246E+02  0.17865012894E+03  0.59429818116E+02  0.10196771309E+04  0.10001901878E+04 0.  0.
        -13    1    3    3    0    0  0.25023842692E+03  0.36219779381E+03 -0.28990334059E+03  0.52711523427E+03  0.10566000000E+00 0.  1.
          4    1    3    3  501    0 -0.18768231067E+03 -0.54084792275E+03 -0.29994858459E+03  0.64630509721E+03  0.00000000000E+00 0.  1.
         13    1    4    4    0    0  0.20878408326E+03  0.44494204583E+03  0.29423357523E+03  0.57283298222E+03  0.10566000000E+00 0. -1.
         -4    1    4    4    0  502 -0.27134019951E+03 -0.26629191689E+03 -0.23480375712E+03  0.44684414869E+03  0.00000000000E+00 0. -1.
<mgrwt>
<rscale>  2 0.10170545E+04</rscale>
<asrwt>0</asrwt>
<pdfrwt beam="1">  1       21 0.12789810E+00 0.10179438E+04</pdfrwt>
<pdfrwt beam="2">  1       21 0.20950151E+00 0.10179438E+04</pdfrwt>
<totfact> 0.24636326E+01</totfact>
</mgrwt>
</event>
<event>
 8    1  0.7631533E-006  0.1041132E+04  0.7818608E-02  0.8739207E-01
         21   -1    0    0  503  502  0.00000000000E+00  0.00000000000E+00  0.15012119313E+04  0.15012119313E+04  0.00000000000E+00 0. -1.
         21   -1    0    0  501  503 -0.00000000000E+00 -0.00000000000E+00 -0.21520420522E+04  0.21520420522E+04  0.00000000000E+00 0. -1.
    9000010    2    1    2  501    0 -0.22550571381E+03  0.10118154148E+03 -0.18186640265E+04  0.20955895398E+04  0.10113684524E+04 0.  0.
   -9000010    2    1    2    0  502  0.22550571381E+03 -0.10118154148E+03  0.11678339057E+04  0.15576644437E+04  0.10006957363E+04 0.  0.
        -13    1    3    3    0    0  0.21362449248E+02  0.51398754467E+02  0.12439395460E+03  0.13627932090E+03  0.10566000000E+00 0.  1.
          4    1    3    3  501    0 -0.24686816306E+03  0.49782787009E+02 -0.19430579811E+04  0.19593102189E+04  0.00000000000E+00 0.  1.
         13    1    4    4    0    0  0.43554874028E+03 -0.39226104807E+03  0.10051445679E+04  0.11635665209E+04  0.10566000000E+00 0. -1.
         -4    1    4    4    0  502 -0.21004302647E+03  0.29107950660E+03  0.16268933778E+03  0.39409792280E+03  0.00000000000E+00 0. -1.
<mgrwt>
<rscale>  2 0.10385315E+04</rscale>
<asrwt>0</asrwt>
<pdfrwt beam="1">  1       21 0.23095568E+00 0.10411324E+04</pdfrwt>
<pdfrwt beam="2">  1       21 0.33108339E+00 0.10411324E+04</pdfrwt>
<totfact> 0.45249668E-01</totfact>
</mgrwt>
</event>
<event>
 8    1  0.7631533E-006  0.1018555E+04  0.7818608E-02  0.8757354E-01
         21   -1    0    0  501  502  0.00000000000E+00  0.00000000000E+00  0.53685081656E+03  0.53685081656E+03  0.00000000000E+00 0.  1.
         21   -1    0    0  502  503 -0.00000000000E+00 -0.00000000000E+00 -0.30767123939E+04  0.30767123939E+04  0.00000000000E+00 0.  1.
    9000010    2    1    2  501    0  0.27460886940E+03  0.22659790324E+03 -0.16806863469E+03  0.10323123931E+04  0.95428778159E+03 0.  0.
   -9000010    2    1    2    0  503 -0.27460886940E+03 -0.22659790324E+03 -0.23717929426E+04  0.25812508173E+04  0.95430465697E+03 0.  0.
        -13    1    3    3    0    0  0.48101016988E+03 -0.21779326970E+03 -0.70458996771E+02  0.53269989041E+03  0.10566000000E+00 0.  1.
          4    1    3    3  501    0 -0.20640130048E+03  0.44439117294E+03 -0.97609637916E+02  0.49961250269E+03  0.00000000000E+00 0.  1.
         13    1    4    4    0    0 -0.44949662976E+02 -0.12253104440E+03 -0.23202263700E+04  0.23238943066E+04  0.10566000000E+00 0. -1.
         -4    1    4    4    0  503 -0.22965920642E+03 -0.10406685885E+03 -0.51566572644E+02  0.25735651074E+03  0.00000000000E+00 0. -1.
<mgrwt>
<rscale>  2 0.10185509E+04</rscale>
<asrwt>0</asrwt>
<pdfrwt beam="1">  1       21 0.82592435E-01 0.10185549E+04</pdfrwt>
<pdfrwt beam="2">  1       21 0.47334036E+00 0.10185549E+04</pdfrwt>
<totfact> 0.10645052E+00</totfact>
</mgrwt>
</event>
<event>
 8    1  0.7631533E-006  0.1004526E+04  0.7818608E-02  0.8783203E-01
         21   -1    0    0  501  502  0.00000000000E+00  0.00000000000E+00  0.12969123610E+04  0.12969123610E+04  0.00000000000E+00 0.  1.
         21   -1    0    0  502  503 -0.00000000000E+00 -0.00000000000E+00 -0.94475131092E+03  0.94475131092E+03  0.00000000000E+00 0.  1.
    9000010    2    1    2  501    0 -0.86818414430E+02  0.10136166245E+03  0.69751635294E+03  0.11794291337E+04  0.94165407405E+03 0.  0.
   -9000010    2    1    2    0  503  0.86818414430E+02 -0.10136166245E+03 -0.34535530285E+03  0.10622345382E+04  0.99562056288E+03 0.  0.
        -13    1    3    3    0    0  0.42289577214E+03  0.11426757121E+03  0.37014370092E+03  0.57350177194E+03  0.10566000000E+00 0.  1.
          4    1    3    3  501    0 -0.50971418657E+03 -0.12905908755E+02  0.32737265202E+03  0.60592736179E+03  0.00000000000E+00 0.  1.
         13    1    4    4    0    0  0.26275461077E+03 -0.50191182998E+03 -0.21163761840E+03  0.60476934714E+03  0.10566000000E+00 0. -1.
         -4    1    4    4    0  503 -0.17593619634E+03  0.40055016753E+03 -0.13371768445E+03  0.45746519105E+03  0.00000000000E+00 0. -1.
<mgrwt>
<rscale>  2 0.99088513E+03</rscale>
<asrwt>0</asrwt>
<pdfrwt beam="1">  1       21 0.19952498E+00 0.10045257E+04</pdfrwt>
<pdfrwt beam="2">  1       21 0.14534636E+00 0.10045257E+04</pdfrwt>
<totfact> 0.20249013E+01</totfact>
</mgrwt>
</event>
<event>
 8    1  0.7631533E-006  0.1187861E+04  0.7818608E-02  0.8627993E-01
         21   -1    0    0  503  502  0.00000000000E+00  0.00000000000E+00  0.72054003415E+03  0.72054003415E+03  0.00000000000E+00 0. -1.
         21   -1    0    0  501  503 -0.00000000000E+00 -0.00000000000E+00 -0.19821723186E+04  0.19821723186E+04  0.00000000000E+00 0. -1.
    9000010    2    1    2  501    0  0.48879501974E+03  0.89987026370E+02 -0.98655780462E+03  0.15441212930E+04  0.10788864766E+04 0.  0.
   -9000010    2    1    2    0  502 -0.48879501974E+03 -0.89987026370E+02 -0.27507447982E+03  0.11585910597E+04  0.10097767268E+04 0.  0.
        -13    1    3    3    0    0  0.23556873429E+03  0.49550300231E+03 -0.90617425603E+03  0.10593241465E+04  0.10566000000E+00 0.  1.
          4    1    3    3  501    0  0.25322628545E+03 -0.40551597594E+03 -0.80383548591E+02  0.48479714652E+03  0.00000000000E+00 0.  1.
         13    1    4    4    0    0  0.31385087796E+03 -0.70815477043E+02 -0.58466234512E+02  0.32700996488E+03  0.10566000000E+00 0. -1.
         -4    1    4    4    0  502 -0.80264589770E+03 -0.19171549327E+02 -0.21660824531E+03  0.83158109486E+03  0.00000000000E+00 0. -1.
<mgrwt>
<rscale>  2 0.11719446E+04</rscale>
<asrwt>0</asrwt>
<pdfrwt beam="1">  1       21 0.11085231E+00 0.11878612E+04</pdfrwt>
<pdfrwt beam="2">  1       21 0.30494959E+00 0.11878612E+04</pdfrwt>
<totfact> 0.71526718E+00</totfact>
</mgrwt>
</event>
<event>
 8    1  0.7631533E-006  0.1137072E+04  0.7818608E-02  0.8677407E-01
         21   -1    0    0  501  502  0.00000000000E+00  0.00000000000E+00  0.10874159639E+04  0.10874159639E+04  0.00000000000E+00 0. -1.
         21   -1    0    0  502  503 -0.00000000000E+00 -0.00000000000E+00 -0.11886874535E+04  0.11886874535E+04  0.00000000000E+00 0. -1.
    9000010    2    1    2  501    0  0.24338940882E+02  0.33481925609E+03  0.28594942275E+03  0.11724761344E+04  0.10863870835E+04 0.  0.
   -9000010    2    1    2    0  503 -0.24338940882E+02 -0.33481925609E+03 -0.38722091242E+03  0.11036272830E+04  0.97742356553E+03 0.  0.
        -13    1    3    3    0    0 -0.30799679635E+02  0.44150689101E+03  0.65155288824E+03  0.78765356116E+03  0.10566000000E+00 0.  1.
          4    1    3    3  501    0  0.55138620516E+02 -0.10668763492E+03 -0.36560346549E+03  0.38482257326E+03  0.00000000000E+00 0.  1.
         13    1    4    4    0    0  0.46680723334E+03 -0.25993415119E+03 -0.16348021614E+03  0.55874909242E+03  0.10566000000E+00 0. -1.
         -4    1    4    4    0  503 -0.49114617422E+03 -0.74885104906E+02 -0.22374069629E+03  0.54487819057E+03  0.00000000000E+00 0. -1.
<mgrwt>
<rscale>  2 0.11102356E+04</rscale>
<asrwt>0</asrwt>
<pdfrwt beam="1">  1       21 0.16729476E+00 0.11370722E+04</pdfrwt>
<pdfrwt beam="2">  1       21 0.18287499E+00 0.11370722E+04</pdfrwt>
<totfact> 0.17144908E+01</totfact>
</mgrwt>
</event>
<event>
 8    1  0.7631533E-006  0.1073204E+04  0.7818608E-02  0.8711316E-01
         21   -1    0    0  501  502  0.00000000000E+00  0.00000000000E+00  0.14837644090E+04  0.14837644090E+04  0.00000000000E+00 0.  1.
         21   -1    0    0  502  503 -0.00000000000E+00 -0.00000000000E+00 -0.10241590010E+04  0.10241590010E+04  0.00000000000E+00 0.  1.
    9000010    2    1    2  501    0 -0.17179193193E+03 -0.30078838498E+03  0.85846758080E+03  0.13743119503E+04  0.10157660307E+04 0.  0.
   -9000010    2    1    2    0  503  0.17179193193E+03  0.30078838498E+03 -0.39886217284E+03  0.11336114597E+04  0.10029944109E+04 0.  0.
        -13    1    3    3    0    0 -0.25095819657E+03  0.71013556162E+02  0.94846153610E+03  0.98366774788E+03  0.10566000000E+00 0.  1.
          4    1    3    3  501    0  0.79166264638E+02 -0.37180194115E+03 -0.89993955298E+02  0.39064420242E+03  0.00000000000E+00 0.  1.
         13    1    4    4    0    0 -0.30573579963E+03  0.28408826190E+03  0.11401656379E+03  0.43264339554E+03  0.10566000000E+00 0. -1.
         -4    1    4    4    0  503  0.47752773156E+03  0.16700123083E+02 -0.51287873664E+03  0.70096806419E+03  0.00000000000E+00 0. -1.
<mgrwt>
<rscale>  2 0.10701711E+04</rscale>
<asrwt>0</asrwt>
<pdfrwt beam="1">  1       21 0.22827145E+00 0.10732040E+04</pdfrwt>
<pdfrwt beam="2">  1       21 0.15756292E+00 0.10732040E+04</pdfrwt>
<totfact> 0.93766799E+00</totfact>
</mgrwt>
</event>
<event>
 8    1  0.7631533E-006  0.1036405E+04  0.7818608E-02  0.8749428E-01
         21   -1    0    0  501  502  0.00000000000E+00  0.00000000000E+00  0.75000502949E+03  0.75000502949E+03  0.00000000000E+00 0.  1.
         21   -1    0    0  502  503 -0.00000000000E+00 -0.00000000000E+00 -0.17113284255E+04  0.17113284255E+04  0.00000000000E+00 0.  1.
    9000010    2    1    2  501    0  0.21236165123E+03  0.28084801591E+03  0.65632066315E+02  0.10023020870E+04  0.93612436487E+03 0.  0.
   -9000010    2    1    2    0  503 -0.21236165123E+03 -0.28084801591E+03 -0.10269554623E+04  0.14590313680E+04  0.97476250041E+03 0.  0.
        -13    1    3    3    0    0  0.29636324889E+03  0.54670304265E+03 -0.16171750393E+03  0.64254801718E+03  0.10566000000E+00 0.  1.
          4    1    3    3  501    0 -0.84001597665E+02 -0.26585502675E+03  0.22734957025E+03  0.35975406981E+03  0.00000000000E+00 0.  1.
         13    1    4    4    0    0  0.13370594343E+03  0.23176439540E+03 -0.87652038931E+01  0.26771039249E+03  0.10566000000E+00 0. -1.
         -4    1    4    4    0  503 -0.34606759465E+03 -0.51261241131E+03 -0.10181902584E+04  0.11913209755E+04  0.00000000000E+00 0. -1.
<mgrwt>
<rscale>  2 0.10272200E+04</rscale>
<asrwt>0</asrwt>
<pdfrwt beam="1">  1       21 0.11538539E+00 0.10364048E+04</pdfrwt>
<pdfrwt beam="2">  1       21 0.26328129E+00 0.10364048E+04</pdfrwt>
<totfact> 0.13116660E+01</totfact>
</mgrwt>
</event>
<event>
 8    1  0.7631533E-006  0.1114048E+04  0.7818608E-02  0.8682283E-01
         21   -1    0    0  503  502  0.00000000000E+00  0.00000000000E+00  0.44640758315E+03  0.44640758315E+03  0.00000000000E+00 0. -1.
         21   -1    0    0  501  503 -0.00000000000E+00 -0.00000000000E+00 -0.29767795940E+04  0.29767795940E+04  0.00000000000E+00 0. -1.
    9000010    2    1    2  501    0 -0.43458493994E+03  0.50104741744E+02 -0.71001232693E+03  0.12889866701E+04  0.98285023081E+03 0.  0.
   -9000010    2    1    2    0  502  0.43458493994E+03 -0.50104741744E+02 -0.18203596839E+04  0.21342005070E+04  0.10245622822E+04 0.  0.
        -13    1    3    3    0    0 -0.40856074294E+03 -0.25937478685E+03 -0.82611287148E+03  0.95742344254E+03  0.10566000000E+00 0.  1.
          4    1    3    3  501    0 -0.26024196994E+02  0.30947952859E+03  0.11610054455E+03  0.33156322759E+03  0.00000000000E+00 0.  1.
         13    1    4    4    0    0 -0.45857618590E+02  0.43108782842E+03 -0.67626165094E+03  0.80328666657E+03  0.10566000000E+00 0. -1.
         -4    1    4    4    0  502  0.48044255853E+03 -0.48119257016E+03 -0.11440980329E+04  0.13309138404E+04  0.00000000000E+00 0. -1.
<mgrwt>
<rscale>  2 0.11043630E+04</rscale>
<asrwt>0</asrwt>
<pdfrwt beam="1">  1       21 0.68678090E-01 0.11140478E+04</pdfrwt>
<pdfrwt beam="2">  1       21 0.45796609E+00 0.11140478E+04</pdfrwt>
<totfact> 0.20816311E+00</totfact>
</mgrwt>
</event>
<event>
 8    1  0.7631533E-006  0.9899068E+03  0.7818608E-02  0.8793265E-01
         21   -1    0    0  503  502  0.00000000000E+00  0.00000000000E+00  0.12425855782E+04  0.12425855782E+04  0.00000000000E+00 0. -1.
         21   -1    0    0  501  503 -0.00000000000E+00 -0.00000000000E+00 -0.77993430840E+03  0.77993430840E+03  0.00000000000E+00 0. -1.
    9000010    2    1    2  501    0 -0.85851494445E+02  0.24663384946E+03  0.69709253696E+02  0.99235826246E+03  0.95483862837E+03 0.  0.
   -9000010    2    1    2    0  502  0.85851494445E+02 -0.24663384946E+03  0.39294201610E+03  0.10301616241E+04  0.91576787946E+03 0.  0.
        -13    1    3    3    0    0  0.34632375812E+02 -0.29741085287E+03 -0.21306294434E+03  0.36748938253E+03  0.10566000000E+00 0.  1.
          4    1    3    3  501    0 -0.12048387026E+03  0.54404470233E+03  0.28277219803E+03  0.62486887993E+03  0.00000000000E+00 0.  1.
         13    1    4    4    0    0 -0.12671634389E+03  0.22835537115E+03  0.43575268047E+03  0.50801930775E+03  0.10566000000E+00 0. -1.
         -4    1    4    4    0  502  0.21256783833E+03 -0.47498922061E+03 -0.42810664374E+02  0.52214231640E+03  0.00000000000E+00 0. -1.
<mgrwt>
<rscale>  2 0.98036196E+03</rscale>
<asrwt>0</asrwt>
<pdfrwt beam="1">  1       21 0.19116701E+00 0.98990683E+03</pdfrwt>
<pdfrwt beam="2">  1       21 0.11998989E+00 0.98990683E+03</pdfrwt>
<totfact> 0.41288301E+01</totfact>
</mgrwt>
</event>
<event>
 8    1  0.7631533E-006  0.1399795E+04  0.7818608E-02  0.8505454E-01
         21   -1    0    0  501  502  0.00000000000E+00  0.00000000000E+00  0.28171716450E+04  0.28171716450E+04  0.00000000000E+00 0.  1.
         21   -1    0    0  502  503 -0.00000000000E+00 -0.00000000000E+00 -0.11195613835E+04  0.11195613835E+04  0.00000000000E+00 0.  1.
    9000010    2    1    2  501    0  0.63824181759E+03  0.18108189593E+03  0.21573633407E+04  0.24633700761E+04  0.98682940654E+03 0.  0.
   -9000010    2    1    2    0  503 -0.63824181759E+03 -0.18108189593E+03 -0.45975307910E+03  0.14733629523E+04  0.12325916699E+04 0.  0.
        -13    1    3    3    0    0  0.75415224641E+03 -0.83276829902E+02  0.19899294449E+04  0.21296713005E+04  0.10566000000E+00 0.  1.
          4    1    3    3  501    0 -0.11591042881E+03  0.26435872583E+03  0.16743389574E+03  0.33369877565E+03  0.00000000000E+00 0.  1.
         13    1    4    4    0    0 -0.85445225205E+03 -0.90375514137E+02 -0.72149009793E+03  0.11219645080E+04  0.10566000000E+00 0. -1.
         -4    1    4    4    0  503  0.21621043446E+03 -0.90706381793E+02  0.26173701882E+03  0.35139844435E+03  0.00000000000E+00 0. -1.
<mgrwt>
<rscale>  2 0.13438584E+04</rscale>
<asrwt>0</asrwt>
<pdfrwt beam="1">  1       21 0.43341102E+00 0.13997948E+04</pdfrwt>
<pdfrwt beam="2">  1       21 0.17224021E+00 0.13997948E+04</pdfrwt>
<totfact> 0.23222132E-01</totfact>
</mgrwt>
</event>
<event>
 8    1  0.7631533E-006  0.1045428E+04  0.7818608E-02  0.8736203E-01
         21   -1    0    0  501  502  0.00000000000E+00  0.00000000000E+00  0.68768865176E+03  0.68768865176E+03  0.00000000000E+00 0.  1.
         21   -1    0    0  502  503 -0.00000000000E+00 -0.00000000000E+00 -0.26368683102E+04  0.26368683102E+04  0.00000000000E+00 0.  1.
    9000010    2    1    2  501    0  0.15144692649E+03 -0.18730457766E+03  0.87712559968E+02  0.10350481398E+04  0.10028020653E+04 0.  0.
   -9000010    2    1    2    0  503 -0.15144692649E+03  0.18730457766E+03 -0.20368922184E+04  0.22895088221E+04  0.10173011162E+04 0.  0.
        -13    1    3    3    0    0  0.31642804372E+03 -0.38700142037E+03  0.39212577939E+03  0.63534198999E+03  0.10566000000E+00 0.  1.
          4    1    3    3  501    0 -0.16498111722E+03  0.19969684271E+03 -0.30441321942E+03  0.39970614979E+03  0.00000000000E+00 0.  1.
         13    1    4    4    0    0 -0.41495129341E+03  0.39572637857E+03 -0.17696150906E+04  0.18601939476E+04  0.10566000000E+00 0. -1.
         -4    1    4    4    0  503  0.26350436691E+03 -0.20842180091E+03 -0.26727712777E+03  0.42931487454E+03  0.00000000000E+00 0. -1.
<mgrwt>
<rscale>  2 0.10418846E+04</rscale>
<asrwt>0</asrwt>
<pdfrwt beam="1">  1       21 0.10579826E+00 0.10454285E+04</pdfrwt>
<pdfrwt beam="2">  1       21 0.40567204E+00 0.10454285E+04</pdfrwt>
<totfact> 0.16464580E+00</totfact>
</mgrwt>
</event>
<event>
 8    1  0.7631533E-006  0.1083134E+04  0.7818608E-02  0.8703016E-01
         21   -1    0    0  503  502  0.00000000000E+00  0.00000000000E+00  0.21966604719E+04  0.21966604719E+04  0.00000000000E+00 0. -1.
         21   -1    0    0  501  503 -0.00000000000E+00 -0.00000000000E+00 -0.59087109682E+03  0.59087109682E+03  0.00000000000E+00 0. -1.
    9000010    2    1    2  501    0 -0.38468112177E+03 -0.13802163165E+03  0.12546647526E+04  0.16489065883E+04  0.98877690070E+03 0.  0.
   -9000010    2    1    2    0  502  0.38468112177E+03  0.13802163165E+03  0.35112462255E+03  0.11386249805E+04  0.10030696932E+04 0.  0.
        -13    1    3    3    0    0  0.44017632783E+02  0.36374502626E+03  0.23832089300E+03  0.43708678238E+03  0.10566000000E+00 0.  1.
          4    1    3    3  501    0 -0.42869875455E+03 -0.50176665791E+03  0.10163438596E+04  0.12118198059E+04  0.00000000000E+00 0.  1.
         13    1    4    4    0    0  0.13584183601E+03  0.56854365206E+03  0.21774319953E+03  0.62378441854E+03  0.10566000000E+00 0. -1.
         -4    1    4    4    0  502  0.24883928576E+03 -0.43052202041E+03  0.13338142301E+03  0.51484056192E+03  0.00000000000E+00 0. -1.
<mgrwt>
<rscale>  2 0.10798127E+04</rscale>
<asrwt>0</asrwt>
<pdfrwt beam="1">  1       21 0.33794776E+00 0.10831336E+04</pdfrwt>
<pdfrwt beam="2">  1       21 0.90903247E-01 0.10831336E+04</pdfrwt>
<totfact> 0.72154004E+00</totfact>
</mgrwt>
</event>
<event>
 8    1  0.7631533E-006  0.1079073E+04  0.7818608E-02  0.8720948E-01
         21   -1    0    0  501  502  0.00000000000E+00  0.00000000000E+00  0.95421542095E+03  0.95421542095E+03  0.00000000000E+00 0. -1.
         21   -1    0    0  502  503 -0.00000000000E+00 -0.00000000000E+00 -0.13560391014E+04  0.13560391014E+04  0.00000000000E+00 0. -1.
    9000010    2    1    2  501    0  0.28692165966E+02 -0.59222344389E+02  0.27247101894E+03  0.10378269948E+04  0.99925666796E+03 0.  0.
   -9000010    2    1    2    0  503 -0.28692165966E+02  0.59222344389E+02 -0.67429469936E+03  0.12724275275E+04  0.10770645035E+04 0.  0.
        -13    1    3    3    0    0 -0.32099744894E+03 -0.71639225421E+02 -0.24712800714E+03  0.41139251807E+03  0.10566000000E+00 0.  1.
          4    1    3    3  501    0  0.34968961491E+03  0.12416881031E+02  0.51959902608E+03  0.62643447671E+03  0.00000000000E+00 0.  1.
         13    1    4    4    0    0  0.34645001282E+03  0.40822209018E+03 -0.19210878260E+03  0.56883976813E+03  0.10566000000E+00 0. -1.
         -4    1    4    4    0  503 -0.37514217878E+03 -0.34899974579E+03 -0.48218591676E+03  0.70358775940E+03  0.00000000000E+00 0. -1.
<mgrwt>
<rscale>  2 0.10591130E+04</rscale>
<asrwt>0</asrwt>
<pdfrwt beam="1">  1       21 0.14680237E+00 0.10790730E+04</pdfrwt>
<pdfrwt beam="2">  1       21 0.20862140E+00 0.10790730E+04</pdfrwt>
<totfact> 0.16420314E+01</totfact>
</mgrwt>
</event>
<event>
 8    1  0.7631533E-006  0.1050886E+04  0.7818608E-02  0.8731226E-01
         21   -1    0    0  501  502  0.00000000000E+00  0.00000000000E+00  0.98234510628E+03  0.98234510628E+03  0.00000000000E+00 0. -1.
         21   -1    0    0  502  503 -0.00000000000E+00 -0.00000000000E+00 -0.11443784377E+04  0.11443784377E+04  0.00000000000E+00 0. -1.
    9000010    2    1    2  501    0  0.14309929223E+03 -0.18054281846E+03  0.10459928599E+03  0.10425399969E+04  0.10113730853E+04 0.  0.
   -9000010    2    1    2    0  503 -0.14309929223E+03  0.18054281846E+03 -0.26663261744E+03  0.10841835471E+04  0.10253233122E+04 0.  0.
        -13    1    3    3    0    0  0.50026810638E+03 -0.14159201487E+03 -0.21409670287E+03  0.56227563194E+03  0.10566000000E+00 0.  1.
          4    1    3    3  501    0 -0.35716881415E+03 -0.38950803590E+02  0.31869598886E+03  0.48026436492E+03  0.00000000000E+00 0.  1.
         13    1    4    4    0    0 -0.30936097416E+03  0.41510997049E+03 -0.49556186108E+03  0.71666035837E+03  0.10566000000E+00 0. -1.
         -4    1    4    4    0  503  0.16626168194E+03 -0.23456715203E+03  0.22892924364E+03  0.36752318877E+03  0.00000000000E+00 0. -1.
<mgrwt>
<rscale>  2 0.10474676E+04</rscale>
<asrwt>0</asrwt>
<pdfrwt beam="1">  1       21 0.15113002E+00 0.10508858E+04</pdfrwt>
<pdfrwt beam="2">  1       21 0.17605822E+00 0.10508858E+04</pdfrwt>
<totfact> 0.27413259E+01</totfact>
</mgrwt>
</event>
<event>
 8    1  0.7631533E-006  0.1024876E+04  0.7818608E-02  0.8760986E-01
         21   -1    0    0  503  502  0.00000000000E+00  0.00000000000E+00  0.11596450449E+04  0.11596450449E+04  0.00000000000E+00 0. -1.
         21   -1    0    0  501  503 -0.00000000000E+00 -0.00000000000E+00 -0.89032616509E+03  0.89032616509E+03  0.00000000000E+00 0. -1.
    9000010    2    1    2  501    0 -0.24535954294E+03  0.15187860572E+02 -0.16137105099E+02  0.10250030772E+04  0.99495674566E+03 0.  0.
   -9000010    2    1    2    0  502  0.24535954294E+03 -0.15187860572E+02  0.28545598489E+03  0.10249681327E+04  0.95322745313E+03 0.  0.
        -13    1    3    3    0    0 -0.13428703414E+03 -0.23961087523E+03  0.42355484705E+03  0.50482184846E+03  0.10566000000E+00 0.  1.
          4    1    3    3  501    0 -0.11107250880E+03  0.25479873580E+03 -0.43969195215E+03  0.52018122876E+03  0.00000000000E+00 0.  1.
         13    1    4    4    0    0 -0.31963676578E+03 -0.13056786505E+03 -0.63329334686E+02  0.35103596001E+03  0.10566000000E+00 0. -1.
         -4    1    4    4    0  502  0.56499630872E+03  0.11538000448E+03  0.34878531957E+03  0.67393217274E+03  0.00000000000E+00 0. -1.
<mgrwt>
<rscale>  2 0.10146077E+04</rscale>
<asrwt>0</asrwt>
<pdfrwt beam="1">  1       21 0.17840693E+00 0.10248760E+04</pdfrwt>
<pdfrwt beam="2">  1       21 0.13697326E+00 0.10248760E+04</pdfrwt>
<totfact> 0.35499379E+01</totfact>
</mgrwt>
</event>
<event>
 8    1  0.7631533E-006  0.1051866E+04  0.7818608E-02  0.8733788E-01
         21   -1    0    0  501  502  0.00000000000E+00  0.00000000000E+00  0.85750010129E+03  0.85750010129E+03  0.00000000000E+00 0. -1.
         21   -1    0    0  502  503 -0.00000000000E+00 -0.00000000000E+00 -0.12652826635E+04  0.12652826635E+04  0.00000000000E+00 0. -1.
    9000010    2    1    2  501    0  0.97979881888E+02 -0.15434956086E+03 -0.10630941916E+03  0.10285671752E+04  0.10065907297E+04 0.  0.
   -9000010    2    1    2    0  503 -0.97979881888E+02  0.15434956086E+03 -0.30147314303E+03  0.10942155895E+04  0.10358560982E+04 0.  0.
        -13    1    3    3    0    0  0.32360829036E+03 -0.42767994687E+03  0.18755264687E+03  0.56816236153E+03  0.10566000000E+00 0.  1.
          4    1    3    3  501    0 -0.22562840847E+03  0.27333038601E+03 -0.29386206603E+03  0.46040481370E+03  0.00000000000E+00 0.  1.
         13    1    4    4    0    0 -0.31585942021E+03  0.32692451872E+03 -0.55541799540E+03  0.71772973677E+03  0.10566000000E+00 0. -1.
         -4    1    4    4    0  503  0.21787953832E+03 -0.17257495785E+03  0.25394485236E+03  0.37648585277E+03  0.00000000000E+00 0. -1.
<mgrwt>
<rscale>  2 0.10445888E+04</rscale>
<asrwt>0</asrwt>
<pdfrwt beam="1">  1       21 0.13192309E+00 0.10518658E+04</pdfrwt>
<pdfrwt beam="2">  1       21 0.19465887E+00 0.10518658E+04</pdfrwt>
<totfact> 0.29163784E+01</totfact>
</mgrwt>
</event>
<event>
 8    1  0.7631533E-006  0.9599008E+03  0.7818608E-02  0.8813655E-01
         21   -1    0    0  503  502  0.00000000000E+00  0.00000000000E+00  0.62503641955E+03  0.62503641955E+03  0.00000000000E+00 0. -1.
         21   -1    0    0  501  503 -0.00000000000E+00 -0.00000000000E+00 -0.23771012456E+04  0.23771012456E+04  0.00000000000E+00 0. -1.
    9000010    2    1    2  501    0 -0.52403033021E+02  0.10613133459E+02 -0.18020771401E+04  0.20409348621E+04  0.95659519974E+03 0.  0.
   -9000010    2    1    2    0  502  0.52403033021E+02 -0.10613133459E+02  0.50012313985E+02  0.96120280306E+03  0.95841060125E+03 0.  0.
        -13    1    3    3    0    0 -0.44756417217E+03 -0.14662573945E+03 -0.58100034830E+03  0.74791323799E+03  0.10566000000E+00 0.  1.
          4    1    3    3  501    0  0.39516113915E+03  0.15723887291E+03 -0.12210767918E+04  0.12930216241E+04  0.00000000000E+00 0.  1.
         13    1    4    4    0    0  0.27106517314E+03  0.24696942820E+02 -0.38590650488E+03  0.47223946124E+03  0.10566000000E+00 0. -1.
         -4    1    4    4    0  502 -0.21866214012E+03 -0.35310076280E+02  0.43591881887E+03  0.48896334183E+03  0.00000000000E+00 0. -1.
<mgrwt>
<rscale>  2 0.95944736E+03</rscale>
<asrwt>0</asrwt>
<pdfrwt beam="1">  1       21 0.96159449E-01 0.95990083E+03</pdfrwt>
<pdfrwt beam="2">  1       21 0.36570789E+00 0.95990083E+03</pdfrwt>
<totfact> 0.41103507E+00</totfact>
</mgrwt>
</event>
<event>
 8    1  0.7631533E-006  0.1008160E+04  0.7818608E-02  0.8767035E-01
         21   -1    0    0  501  502  0.00000000000E+00  0.00000000000E+00  0.51181891153E+03  0.51181891153E+03  0.00000000000E+00 0. -1.
         21   -1    0    0  502  503 -0.00000000000E+00 -0.00000000000E+00 -0.21020614902E+04  0.21020614902E+04  0.00000000000E+00 0. -1.
    9000010    2    1    2  501    0 -0.13838006406E+03  0.74005429896E+02 -0.48710242137E+03  0.11196677627E+04  0.99587212240E+03 0.  0.
   -9000010    2    1    2    0  503  0.13838006406E+03 -0.74005429896E+02 -0.11031401573E+04  0.14942126390E+04  0.99555379471E+03 0.  0.
        -13    1    3    3    0    0 -0.14093469507E+03  0.52317074669E+03 -0.16311638396E+03  0.56584201359E+03  0.10566000000E+00 0.  1.
          4    1    3    3  501    0  0.25546310062E+01 -0.44916531679E+03 -0.32398603741E+03  0.55382574912E+03  0.00000000000E+00 0.  1.
         13    1    4    4    0    0  0.33601746495E+02 -0.37773349748E+03 -0.37365180813E+02  0.38106146537E+03  0.10566000000E+00 0. -1.
         -4    1    4    4    0  503  0.10477831757E+03  0.30372806759E+03 -0.10657749765E+04  0.11131511737E+04  0.00000000000E+00 0. -1.
<mgrwt>
<rscale>  2 0.10080816E+04</rscale>
<asrwt>0</asrwt>
<pdfrwt beam="1">  1       21 0.78741372E-01 0.10081603E+04</pdfrwt>
<pdfrwt beam="2">  1       21 0.32339407E+00 0.10081603E+04</pdfrwt>
<totfact> 0.13312412E+01</totfact>
</mgrwt>
</event>
<event>
 8    1  0.7631533E-006  0.1157091E+04  0.7818608E-02  0.8639774E-01
         21   -1    0    0  503  502  0.00000000000E+00  0.00000000000E+00  0.20193582700E+04  0.20193582700E+04  0.00000000000E+00 0.  1.
         21   -1    0    0  501  503 -0.00000000000E+00 -0.00000000000E+00 -0.91254297908E+03  0.91254297908E+03  0.00000000000E+00 0.  1.
    9000010    2    1    2  501    0  0.91220326451E+02  0.57385318870E+03 -0.21412998848E+03  0.11758386345E+04  0.99955800848E+03 0.  0.
   -9000010    2    1    2    0  502 -0.91220326451E+02 -0.57385318870E+03  0.13209452794E+04  0.17560626146E+04  0.10006152332E+04 0.  0.
        -13    1    3    3    0    0 -0.79254300672E+02 -0.22663030141E+03  0.14673527588E+03  0.28137837523E+03  0.10566000000E+00 0.  1.
          4    1    3    3  501    0  0.17047462712E+03  0.80048349011E+03 -0.36086526436E+03  0.89446025929E+03  0.00000000000E+00 0.  1.
         13    1    4    4    0    0 -0.72922455457E+02 -0.84659518224E+03  0.11630221880E+04  0.14403686015E+04  0.10566000000E+00 0. -1.
         -4    1    4    4    0  502 -0.18297870994E+02  0.27274199354E+03  0.15792309141E+03  0.31569401313E+03  0.00000000000E+00 0. -1.
<mgrwt>
<rscale>  2 0.11568624E+04</rscale>
<asrwt>0</asrwt>
<pdfrwt beam="1">  1       21 0.31067050E+00 0.11570910E+04</pdfrwt>
<pdfrwt beam="2">  1       21 0.14039123E+00 0.11570910E+04</pdfrwt>
<totfact> 0.33452064E+00</totfact>
</mgrwt>
</event>
<event>
 8    1  0.7631533E-006  0.1014918E+04  0.7818608E-02  0.8803037E-01
         21   -1    0    0  501  502  0.00000000000E+00  0.00000000000E+00  0.94639426176E+03  0.94639426176E+03  0.00000000000E+00 0. -1.
         21   -1    0    0  502  503 -0.00000000000E+00 -0.00000000000E+00 -0.10853422078E+04  0.10853422078E+04  0.00000000000E+00 0. -1.
    9000010    2    1    2  501    0 -0.50831552935E+02 -0.90704490748E+02  0.32453423469E+03  0.10655427365E+04  0.10095779824E+04 0.  0.
   -9000010    2    1    2    0  503  0.50831552935E+02  0.90704490748E+02 -0.46348218076E+03  0.96619373304E+03  0.84136998192E+03 0.  0.
        -13    1    3    3    0    0  0.23277620220E+03  0.37158410109E+03  0.28242782856E+03  0.52156015377E+03  0.10566000000E+00 0.  1.
          4    1    3    3  501    0 -0.28360775514E+03 -0.46228859184E+03  0.42106406134E+02  0.54398258277E+03  0.00000000000E+00 0.  1.
         13    1    4    4    0    0  0.33202685737E+03  0.20608560050E+02  0.87206082553E+02  0.34390617726E+03  0.10566000000E+00 0. -1.
         -4    1    4    4    0  503 -0.28119530443E+03  0.70095930698E+02 -0.55068826331E+03  0.62228755578E+03  0.00000000000E+00 0. -1.
<mgrwt>
<rscale>  2 0.97027049E+03</rscale>
<asrwt>0</asrwt>
<pdfrwt beam="1">  1       21 0.14559912E+00 0.10149182E+04</pdfrwt>
<pdfrwt beam="2">  1       21 0.16697572E+00 0.10149182E+04</pdfrwt>
<totfact> 0.36890212E+01</totfact>
</mgrwt>
</event>
<event>
 8    1  0.7631533E-006  0.1113378E+04  0.7818608E-02  0.8675546E-01
         21   -1    0    0  503  502  0.00000000000E+00  0.00000000000E+00  0.15528163407E+04  0.15528163407E+04  0.00000000000E+00 0. -1.
         21   -1    0    0  501  503 -0.00000000000E+00 -0.00000000000E+00 -0.10242982536E+04  0.10242982536E+04  0.00000000000E+00 0.  1.
    9000010    2    1    2  501    0  0.31745982174E+03 -0.39439402574E+03 -0.34407810578E+03  0.11653326209E+04  0.99160626686E+03 0.  0.
   -9000010    2    1    2    0  502 -0.31745982174E+03  0.39439402574E+03  0.87259619291E+03  0.14117819734E+04  0.98761168417E+03 0.  0.
        -13    1    3    3    0    0  0.24061403161E+03  0.29925782028E+03 -0.25692063159E+03  0.46201577604E+03  0.10566000000E+00 0.  1.
          4    1    3    3  501    0  0.76845790129E+02 -0.69365184602E+03 -0.87157474185E+02  0.70331684486E+03  0.00000000000E+00 0.  1.
         13    1    4    4    0    0  0.43058485586E+01  0.59335140636E+03  0.17571510275E+03  0.61883781418E+03  0.10566000000E+00 0. -1.
         -4    1    4    4    0  502 -0.32176567030E+03 -0.19895738062E+03  0.69688109016E+03  0.79294415926E+03  0.00000000000E+00 0. -1.
<mgrwt>
<rscale>  2 0.11124878E+04</rscale>
<asrwt>0</asrwt>
<pdfrwt beam="1">  1       21 0.23889482E+00 0.11133779E+04</pdfrwt>
<pdfrwt beam="2">  1       21 0.15758435E+00 0.11133779E+04</pdfrwt>
<totfact> 0.77476269E+00</totfact>
</mgrwt>
</event>
<event>
 8    1  0.7631533E-006  0.1288757E+04  0.7818608E-02  0.8542695E-01
         21   -1    0    0  503  502  0.00000000000E+00  0.00000000000E+00  0.11607153995E+04  0.11607153995E+04  0.00000000000E+00 0.  1.
         21   -1    0    0  501  503 -0.00000000000E+00 -0.00000000000E+00 -0.25255158183E+04  0.25255158183E+04  0.00000000000E+00 0. -1.
    9000010    2    1    2  501    0  0.16548190931E+03 -0.81746933770E+03  0.53157874376E+03  0.13933839074E+04  0.98147968500E+03 0.  0.
   -9000010    2    1    2    0  502 -0.16548190931E+03  0.81746933770E+03 -0.18963791626E+04  0.22928473105E+04  0.98247365369E+03 0.  0.
        -13    1    3    3    0    0  0.19402227287E+03 -0.57156531031E+03 -0.18817205923E+03  0.63225017308E+03  0.10566000000E+00 0.  1.
          4    1    3    3  501    0 -0.28540363561E+02 -0.24590402738E+03  0.71975080299E+03  0.76113373427E+03  0.00000000000E+00 0.  1.
         13    1    4    4    0    0  0.59870491436E+02 -0.11816528622E+03 -0.89211866352E+03  0.90189979020E+03  0.10566000000E+00 0. -1.
         -4    1    4    4    0  502 -0.22535240075E+03  0.93563462392E+03 -0.10042604991E+04  0.13909475203E+04  0.00000000000E+00 0. -1.
<mgrwt>
<rscale>  2 0.12885677E+04</rscale>
<asrwt>0</asrwt>
<pdfrwt beam="1">  1       21 0.17857160E+00 0.12887571E+04</pdfrwt>
<pdfrwt beam="2">  1       21 0.38854089E+00 0.12887571E+04</pdfrwt>
<totfact> 0.43014473E-01</totfact>
</mgrwt>
</event>
<event>
 8    1  0.7631533E-006  0.1252209E+04  0.7818608E-02  0.8572022E-01
         21   -1    0    0  501  502  0.00000000000E+00  0.00000000000E+00  0.78337442404E+03  0.78337442404E+03  0.00000000000E+00 0. -1.
         21   -1    0    0  502  503 -0.00000000000E+00 -0.00000000000E+00 -0.32499567539E+04  0.32499567539E+04  0.00000000000E+00 0. -1.
    9000010    2    1    2  501    0  0.60790857468E+03  0.40218700571E+03  0.39370493877E+02  0.12319337708E+04  0.99237269069E+03 0.  0.
   -9000010    2    1    2    0  503 -0.60790857468E+03 -0.40218700571E+03 -0.25059528238E+04  0.28013974071E+04  0.10181948021E+04 0.  0.
        -13    1    3    3    0    0  0.52682174903E+03 -0.18511015086E+03  0.23754149696E+03  0.60682196495E+03  0.10566000000E+00 0.  1.
          4    1    3    3  501    0  0.81086825648E+02  0.58729715657E+03 -0.19817100308E+03  0.62511180590E+03  0.00000000000E+00 0.  1.
         13    1    4    4    0    0 -0.45800175707E+03 -0.67802789595E+03 -0.11614175437E+04  0.14206963641E+04  0.10566000000E+00 0. -1.
         -4    1    4    4    0  503 -0.14990681761E+03  0.27584089024E+03 -0.13445352801E+04  0.13807010430E+04  0.00000000000E+00 0. -1.
<mgrwt>
<rscale>  2 0.12469500E+04</rscale>
<asrwt>0</asrwt>
<pdfrwt beam="1">  1       21 0.12051914E+00 0.12522092E+04</pdfrwt>
<pdfrwt beam="2">  1       21 0.49999335E+00 0.12522092E+04</pdfrwt>
<totfact> 0.24420461E-01</totfact>
</mgrwt>
</event>
<event>
 8    1  0.7631533E-006  0.1014609E+04  0.7818608E-02  0.8762098E-01
         21   -1    0    0  503  502  0.00000000000E+00  0.00000000000E+00  0.88197118545E+03  0.88197118545E+03  0.00000000000E+00 0.  1.
         21   -1    0    0  501  503 -0.00000000000E+00 -0.00000000000E+00 -0.11692334384E+04  0.11692334384E+04  0.00000000000E+00 0.  1.
    9000010    2    1    2  501    0  0.12740061021E+03 -0.13943527984E+03 -0.61463948877E+02  0.10164694607E+04  0.99687473376E+03 0.  0.
   -9000010    2    1    2    0  502 -0.12740061021E+03  0.13943527984E+03 -0.22579830406E+03  0.10347351631E+04  0.99197725324E+03 0.  0.
        -13    1    3    3    0    0  0.53814483135E+03 -0.14291174741E+03 -0.18633513177E+03  0.58714940139E+03  0.10566000000E+00 0.  1.
          4    1    3    3  501    0 -0.41074422113E+03  0.34764675695E+01  0.12487118289E+03  0.42932005932E+03  0.00000000000E+00 0.  1.
         13    1    4    4    0    0  0.33322658332E+03  0.20627941598E+03 -0.37853184844E+03  0.54486468479E+03  0.10566000000E+00 0. -1.
         -4    1    4    4    0  502 -0.46062719354E+03 -0.66844136145E+02  0.15273354437E+03  0.48987047833E+03  0.00000000000E+00 0. -1.
<mgrwt>
<rscale>  2 0.10134044E+04</rscale>
<asrwt>0</asrwt>
<pdfrwt beam="1">  1       21 0.13568787E+00 0.10146095E+04</pdfrwt>
<pdfrwt beam="2">  1       21 0.17988207E+00 0.10146095E+04</pdfrwt>
<totfact> 0.35584255E+01</totfact>
</mgrwt>
</event>
<event>
 8    1  0.7631533E-006  0.1123614E+04  0.7818608E-02  0.8675479E-01
         21   -1    0    0  503  502  0.00000000000E+00  0.00000000000E+00  0.12611835621E+04  0.12611835621E+04  0.00000000000E+00 0. -1.
         21   -1    0    0  501  503 -0.00000000000E+00 -0.00000000000E+00 -0.10563831502E+04  0.10563831502E+04  0.00000000000E+00 0. -1.
    9000010    2    1    2  501    0  0.13193018309E+03  0.50789243591E+03 -0.24088768592E+03  0.11491453310E+04  0.99355312638E+03 0.  0.
   -9000010    2    1    2    0  502 -0.13193018309E+03 -0.50789243591E+03  0.44568809786E+03  0.11684213812E+04  0.94403937625E+03 0.  0.
        -13    1    3    3    0    0  0.32550735245E+03  0.57902664915E+02 -0.49657622539E+03  0.59656995725E+03  0.10566000000E+00 0.  1.
          4    1    3    3  501    0 -0.19357716936E+03  0.44998977099E+03  0.25568853947E+03  0.55257537378E+03  0.00000000000E+00 0.  1.
         13    1    4    4    0    0 -0.67671361567E+02 -0.58354798517E+03  0.68911670808E+03  0.90553272315E+03  0.10566000000E+00 0. -1.
         -4    1    4    4    0  502 -0.64258821524E+02  0.75655549265E+02 -0.24342861022E+03  0.26288865809E+03  0.00000000000E+00 0. -1.
<mgrwt>
<rscale>  2 0.11125683E+04</rscale>
<asrwt>0</asrwt>
<pdfrwt beam="1">  1       21 0.19402824E+00 0.11236139E+04</pdfrwt>
<pdfrwt beam="2">  1       21 0.16252048E+00 0.11236139E+04</pdfrwt>
<totfact> 0.15369075E+01</totfact>
</mgrwt>
</event>
<event>
 8    1  0.7631533E-006  0.1032670E+04  0.7818608E-02  0.8758602E-01
         21   -1    0    0  503  502  0.00000000000E+00  0.00000000000E+00  0.44090558808E+03  0.44090558808E+03  0.00000000000E+00 0.  1.
         21   -1    0    0  501  503 -0.00000000000E+00 -0.00000000000E+00 -0.23547246485E+04  0.23547246485E+04  0.00000000000E+00 0.  1.
    9000010    2    1    2  501    0 -0.33187752436E+02  0.78522538021E+02 -0.11795228943E+04  0.15285082748E+04  0.96839871537E+03 0.  0.
   -9000010    2    1    2    0  502  0.33187752436E+02 -0.78522538021E+02 -0.73429616611E+03  0.12671219618E+04  0.10291452719E+04 0.  0.
        -13    1    3    3    0    0  0.99084806432E+02 -0.30218546435E+03 -0.40868707249E+02  0.32063080970E+03  0.10566000000E+00 0.  1.
          4    1    3    3  501    0 -0.13227255887E+03  0.38070800237E+03 -0.11386541871E+04  0.12078774651E+04  0.00000000000E+00 0.  1.
         13    1    4    4    0    0 -0.23299168235E+03 -0.14289293172E+03 -0.90436083845E+03  0.94476031419E+03  0.10566000000E+00 0. -1.
         -4    1    4    4    0  502  0.26617943479E+03  0.64370393701E+02  0.17006467234E+03  0.32236164764E+03  0.00000000000E+00 0. -1.
<mgrwt>
<rscale>  2 0.10171939E+04</rscale>
<asrwt>0</asrwt>
<pdfrwt beam="1">  1       21 0.67831629E-01 0.10326699E+04</pdfrwt>
<pdfrwt beam="2">  1       21 0.36226533E+00 0.10326699E+04</pdfrwt>
<totfact> 0.10092779E+01</totfact>
</mgrwt>
</event>
<event>
 8    1  0.7631533E-006  0.1040515E+04  0.7818608E-02  0.8745707E-01
         21   -1    0    0  501  502  0.00000000000E+00  0.00000000000E+00  0.85164534621E+03  0.85164534621E+03  0.00000000000E+00 0.  1.
         21   -1    0    0  502  503 -0.00000000000E+00 -0.00000000000E+00 -0.12809366637E+04  0.12809366637E+04  0.00000000000E+00 0.  1.
    9000010    2    1    2  501    0 -0.44716900097E+02 -0.19935827742E+03  0.71336107082E+01  0.10042476676E+04  0.98321877810E+03 0.  0.
   -9000010    2    1    2    0  503  0.44716900097E+02  0.19935827742E+03 -0.43642492817E+03  0.11283343423E+04  0.10202589603E+04 0.  0.
        -13    1    3    3    0    0 -0.18950479729E+03 -0.28890952966E+03  0.42811362053E+03  0.55014731461E+03  0.10566000000E+00 0.  1.
          4    1    3    3  501    0  0.14478789720E+03  0.89551252240E+02 -0.42098000982E+03  0.45410035303E+03  0.00000000000E+00 0.  1.
         13    1    4    4    0    0 -0.46134565233E+03 -0.48183682652E+02 -0.28710873690E+03  0.54552077520E+03  0.10566000000E+00 0. -1.
         -4    1    4    4    0  503  0.50606255243E+03  0.24754196007E+03 -0.14931619127E+03  0.58281356706E+03  0.00000000000E+00 0. -1.
<mgrwt>
<rscale>  2 0.10313208E+04</rscale>
<asrwt>0</asrwt>
<pdfrwt beam="1">  1       21 0.13102236E+00 0.10405151E+04</pdfrwt>
<pdfrwt beam="2">  1       21 0.19706718E+00 0.10405151E+04</pdfrwt>
<totfact> 0.28548772E+01</totfact>
</mgrwt>
</event>
<event>
 8    1  0.7631533E-006  0.1095100E+04  0.7818608E-02  0.8696086E-01
         21   -1    0    0  501  502  0.00000000000E+00  0.00000000000E+00  0.17004102556E+04  0.17004102556E+04  0.00000000000E+00 0.  1.
         21   -1    0    0  502  503 -0.00000000000E+00 -0.00000000000E+00 -0.81658996947E+03  0.81658996947E+03  0.00000000000E+00 0.  1.
    9000010    2    1    2  501    0 -0.23867450104E+03  0.20713894346E+03  0.94784229718E+03  0.14483259449E+04  0.10485089237E+04 0.  0.
   -9000010    2    1    2    0  503  0.23867450104E+03 -0.20713894346E+03 -0.64022011012E+02  0.10686742802E+04  0.10188689022E+04 0.  0.
        -13    1    3    3    0    0 -0.45084423143E+03  0.27685798596E+03  0.10700832362E+04  0.11937290350E+04  0.10566000000E+00 0.  1.
          4    1    3    3  501    0  0.21216973040E+03 -0.69719042495E+02 -0.12224093903E+03  0.25459690995E+03  0.00000000000E+00 0.  1.
         13    1    4    4    0    0  0.15777230435E+02  0.98627802933E+02  0.43279531364E+03  0.44417131738E+03  0.10566000000E+00 0. -1.
         -4    1    4    4    0  503  0.22289727060E+03 -0.30576674640E+03 -0.49681732466E+03  0.62450296278E+03  0.00000000000E+00 0. -1.
<mgrwt>
<rscale>  2 0.10879435E+04</rscale>
<asrwt>0</asrwt>
<pdfrwt beam="1">  1       21 0.26160158E+00 0.10950995E+04</pdfrwt>
<pdfrwt beam="2">  1       21 0.12562923E+00 0.10950995E+04</pdfrwt>
<totfact> 0.10485345E+01</totfact>
</mgrwt>
</event>
<event>
 8    1  0.7631533E-006  0.1055451E+04  0.7818608E-02  0.8726384E-01
         21   -1    0    0  503  502  0.00000000000E+00  0.00000000000E+00  0.58140900562E+03  0.58140900562E+03  0.00000000000E+00 0. -1.
         21   -1    0    0  501  503 -0.00000000000E+00 -0.00000000000E+00 -0.24741371199E+04  0.24741371199E+04  0.00000000000E+00 0. -1.
    9000010    2    1    2  501    0  0.27035198410E+03 -0.29034458187E+03 -0.16871707173E+04  0.19901060138E+04  0.97805252688E+03 0.  0.
   -9000010    2    1    2    0  502 -0.27035198410E+03  0.29034458187E+03 -0.20555739704E+03  0.10654401118E+04  0.96722211346E+03 0.  0.
        -13    1    3    3    0    0 -0.31191418951E+00 -0.61129157400E+03 -0.12019297584E+04  0.13484482345E+04  0.10566000000E+00 0.  1.
          4    1    3    3  501    0  0.27066389829E+03  0.32094699213E+03 -0.48524095885E+03  0.64165777930E+03  0.00000000000E+00 0.  1.
         13    1    4    4    0    0 -0.22496554643E+03 -0.34186021719E+02 -0.54684860421E+03  0.59230194011E+03  0.10566000000E+00 0. -1.
         -4    1    4    4    0  502 -0.45386437664E+02  0.32453060359E+03  0.34129120717E+03  0.47313817166E+03  0.00000000000E+00 0. -1.
<mgrwt>
<rscale>  2 0.10529350E+04</rscale>
<asrwt>0</asrwt>
<pdfrwt beam="1">  1       21 0.89447539E-01 0.10554510E+04</pdfrwt>
<pdfrwt beam="2">  1       21 0.38063648E+00 0.10554510E+04</pdfrwt>
<totfact> 0.37973071E+00</totfact>
</mgrwt>
</event>
<event>
 8    1  0.7631533E-006  0.1016605E+04  0.7818608E-02  0.8771006E-01
         21   -1    0    0  503  502  0.00000000000E+00  0.00000000000E+00  0.13703275443E+04  0.13703275443E+04  0.00000000000E+00 0.  1.
         21   -1    0    0  501  503 -0.00000000000E+00 -0.00000000000E+00 -0.74073973016E+03  0.74073973016E+03  0.00000000000E+00 0.  1.
    9000010    2    1    2  501    0  0.60534094964E+02 -0.96994310379E+02  0.13533582443E+03  0.10255735885E+04  0.10101550016E+04 0.  0.
   -9000010    2    1    2    0  502 -0.60534094964E+02  0.96994310379E+02  0.49425198972E+03  0.10854936860E+04  0.95965579246E+03 0.  0.
        -13    1    3    3    0    0  0.48475323456E+03  0.16636706236E+03  0.18893382971E+02  0.51285540743E+03  0.10566000000E+00 0.  1.
          4    1    3    3  501    0 -0.42421913959E+03 -0.26336137273E+03  0.11644244145E+03  0.51271818109E+03  0.00000000000E+00 0.  1.
         13    1    4    4    0    0  0.43988279186E+03 -0.71828952384E+01  0.13310355357E+03  0.45963575980E+03  0.10566000000E+00 0. -1.
         -4    1    4    4    0  502 -0.50041688682E+03  0.10417720562E+03  0.36114843616E+03  0.62585792615E+03  0.00000000000E+00 0. -1.
<mgrwt>
<rscale>  2 0.10038253E+04</rscale>
<asrwt>0</asrwt>
<pdfrwt beam="1">  1       21 0.21081962E+00 0.10166048E+04</pdfrwt>
<pdfrwt beam="2">  1       21 0.11395996E+00 0.10166048E+04</pdfrwt>
<totfact> 0.33271704E+01</totfact>
</mgrwt>
</event>
<event>
 8    1  0.7631533E-006  0.1049930E+04  0.7818608E-02  0.8735463E-01
         21   -1    0    0  503  502  0.00000000000E+00  0.00000000000E+00  0.74079548026E+03  0.74079548026E+03  0.00000000000E+00 0. -1.
         21   -1    0    0  501  503 -0.00000000000E+00 -0.00000000000E+00 -0.14685701961E+04  0.14685701961E+04  0.00000000000E+00 0. -1.
    9000010    2    1    2  501    0 -0.14665221877E+03 -0.12144203383E+03 -0.23761023300E+03  0.10764810999E+04  0.10325201668E+04 0.  0.
   -9000010    2    1    2    0  502  0.14665221877E+03  0.12144203383E+03 -0.49016448288E+03  0.11328845765E+04  0.10034496512E+04 0.  0.
        -13    1    3    3    0    0  0.87177778562E-01 -0.12134203454E+03  0.40217600970E+03  0.42008267149E+03  0.10566000000E+00 0.  1.
          4    1    3    3  501    0 -0.14673939655E+03 -0.99999283897E-01 -0.63978624270E+03  0.65639842843E+03  0.00000000000E+00 0.  1.
         13    1    4    4    0    0  0.24268598352E+03 -0.41208610571E+03 -0.20457442092E+03  0.52015589006E+03  0.10566000000E+00 0. -1.
         -4    1    4    4    0  502 -0.96033764747E+02  0.53352813953E+03 -0.28559006196E+03  0.61272868640E+03  0.00000000000E+00 0. -1.
<mgrwt>
<rscale>  2 0.10427122E+04</rscale>
<asrwt>0</asrwt>
<pdfrwt beam="1">  1       21 0.11396854E+00 0.10499300E+04</pdfrwt>
<pdfrwt beam="2">  1       21 0.22593388E+00 0.10499300E+04</pdfrwt>
<totfact> 0.25384709E+01</totfact>
</mgrwt>
</event>
<event>
 8    1  0.7631533E-006  0.1004069E+04  0.7818608E-02  0.8772987E-01
         21   -1    0    0  503  502  0.00000000000E+00  0.00000000000E+00  0.68502852604E+03  0.68502852604E+03  0.00000000000E+00 0.  1.
         21   -1    0    0  501  503 -0.00000000000E+00 -0.00000000000E+00 -0.14604388850E+04  0.14604388850E+04  0.00000000000E+00 0.  1.
    9000010    2    1    2  501    0  0.69124411888E+02 -0.29146502200E+02 -0.43386699575E+03  0.10937987789E+04  0.10012629504E+04 0.  0.
   -9000010    2    1    2    0  502 -0.69124411888E+02  0.29146502200E+02 -0.34154336317E+03  0.10516686321E+04  0.99183029795E+03 0.  0.
        -13    1    3    3    0    0  0.41642191292E+03  0.29143392408E+03 -0.10774708155E+03  0.51956749938E+03  0.10566000000E+00 0.  1.
          4    1    3    3  501    0 -0.34729750103E+03 -0.32058042628E+03 -0.32611991420E+03  0.57423127952E+03  0.00000000000E+00 0.  1.
         13    1    4    4    0    0 -0.98022113428E+02  0.13971576358E+03 -0.67652900122E+03  0.69772511061E+03  0.10566000000E+00 0. -1.
         -4    1    4    4    0  502  0.28897701539E+02 -0.11056926138E+03  0.33498563805E+03  0.35394352150E+03  0.00000000000E+00 0. -1.
<mgrwt>
<rscale>  2 0.10017095E+04</rscale>
<asrwt>0</asrwt>
<pdfrwt beam="1">  1       21 0.10538900E+00 0.10040693E+04</pdfrwt>
<pdfrwt beam="2">  1       21 0.22468290E+00 0.10040693E+04</pdfrwt>
<totfact> 0.32383078E+01</totfact>
</mgrwt>
</event>
<event>
 8    1  0.7631533E-006  0.1053629E+04  0.7818608E-02  0.8730923E-01
         21   -1    0    0  501  502  0.00000000000E+00  0.00000000000E+00  0.96058959055E+03  0.96058959055E+03  0.00000000000E+00 0. -1.
         21   -1    0    0  502  503 -0.00000000000E+00 -0.00000000000E+00 -0.13790752401E+04  0.13790752401E+04  0.00000000000E+00 0. -1.
    9000010    2    1    2  501    0 -0.16044549560E+03 -0.24989708877E+03  0.28549799914E+03  0.10916238444E+04  0.10109115679E+04 0.  0.
   -9000010    2    1    2    0  503  0.16044549560E+03  0.24989708877E+03 -0.70398364871E+03  0.12480409863E+04  0.98682420610E+03 0.  0.
        -13    1    3    3    0    0  0.22396074754E+03 -0.39136292695E+03 -0.16738723997E+03  0.48098009969E+03  0.10566000000E+00 0.  1.
          4    1    3    3  501    0 -0.38440624314E+03  0.14146583818E+03  0.45288523911E+03  0.61064374470E+03  0.00000000000E+00 0.  1.
         13    1    4    4    0    0  0.13119600814E+03 -0.33071136777E+03 -0.28624306878E+02  0.35693383621E+03  0.10566000000E+00 0. -1.
         -4    1    4    4    0  503  0.29249487464E+02  0.58060845654E+03 -0.67535934183E+03  0.89110715007E+03  0.00000000000E+00 0. -1.
<mgrwt>
<rscale>  2 0.10478086E+04</rscale>
<asrwt>0</asrwt>
<pdfrwt beam="1">  1       21 0.14778301E+00 0.10536287E+04</pdfrwt>
<pdfrwt beam="2">  1       21 0.21216542E+00 0.10536287E+04</pdfrwt>
<totfact> 0.15201351E+01</totfact>
</mgrwt>
</event>
<event>
 8    1  0.7631533E-006  0.1005066E+04  0.7818608E-02  0.8772017E-01
         21   -1    0    0  501  502  0.00000000000E+00  0.00000000000E+00  0.13468097917E+04  0.13468097917E+04  0.00000000000E+00 0. -1.
         21   -1    0    0  502  503 -0.00000000000E+00 -0.00000000000E+00 -0.86678790554E+03  0.86678790554E+03  0.00000000000E+00 0. -1.
    9000010    2    1    2  501    0 -0.49072783605E+02 -0.53125808851E+02  0.65897386448E+03  0.12018336317E+04  0.10024604903E+04 0.  0.
   -9000010    2    1    2    0  503  0.49072783605E+02  0.53125808851E+02 -0.17895197832E+03  0.10117640655E+04  0.99318287547E+03 0.  0.
        -13    1    3    3    0    0 -0.62708687684E+02 -0.45735178282E+03  0.41238007527E+02  0.46346911137E+03  0.10566000000E+00 0.  1.
          4    1    3    3  501    0  0.13635904079E+02  0.40422597397E+03  0.61773585695E+03  0.73836452032E+03  0.00000000000E+00 0.  1.
         13    1    4    4    0    0 -0.35924594750E+03 -0.27887316603E+03 -0.16973463392E+03  0.48542532962E+03  0.10566000000E+00 0. -1.
         -4    1    4    4    0  503  0.40831873110E+03  0.33199897488E+03 -0.92173443954E+01  0.52633873592E+03  0.00000000000E+00 0. -1.
<mgrwt>
<rscale>  2 0.10027446E+04</rscale>
<asrwt>0</asrwt>
<pdfrwt beam="1">  1       21 0.20720151E+00 0.10050659E+04</pdfrwt>
<pdfrwt beam="2">  1       21 0.13335199E+00 0.10050659E+04</pdfrwt>
<totfact> 0.22811018E+01</totfact>
</mgrwt>
</event>
<event>
 8    1  0.7631533E-006  0.1026102E+04  0.7818608E-02  0.8754993E-01
         21   -1    0    0  501  502  0.00000000000E+00  0.00000000000E+00  0.58562304806E+03  0.58562304806E+03  0.00000000000E+00 0. -1.
         21   -1    0    0  502  503 -0.00000000000E+00 -0.00000000000E+00 -0.19065940160E+04  0.19065940160E+04  0.00000000000E+00 0. -1.
    9000010    2    1    2  501    0 -0.60923107933E+02 -0.29127108688E+03 -0.32497385371E+03  0.10763330003E+04  0.98200521938E+03 0.  0.
   -9000010    2    1    2    0  503  0.60923107933E+02  0.29127108688E+03 -0.99599711419E+03  0.14158840637E+04  0.96133602824E+03 0.  0.
        -13    1    3    3    0    0 -0.19852692606E+03  0.28998813579E+03 -0.32548798877E+03  0.47900783007E+03  0.10566000000E+00 0.  1.
          4    1    3    3  501    0  0.13760381812E+03 -0.58125922268E+03  0.51413505418E+00  0.59732517028E+03  0.00000000000E+00 0.  1.
         13    1    4    4    0    0 -0.10715772866E+03 -0.33162293035E+03 -0.46000007040E+03  0.57711058098E+03  0.10566000000E+00 0. -1.
         -4    1    4    4    0  503  0.16808083659E+03  0.62289401724E+03 -0.53599704379E+03  0.83877348271E+03  0.00000000000E+00 0. -1.
<mgrwt>
<rscale>  2 0.10211248E+04</rscale>
<asrwt>0</asrwt>
<pdfrwt beam="1">  1       21 0.90095854E-01 0.10261017E+04</pdfrwt>
<pdfrwt beam="2">  1       21 0.29332216E+00 0.10261017E+04</pdfrwt>
<totfact> 0.15418864E+01</totfact>
</mgrwt>
</event>
<event>
 8    1  0.7631533E-006  0.1025738E+04  0.7818608E-02  0.8756552E-01
         21   -1    0    0  503  502  0.00000000000E+00  0.00000000000E+00  0.18153140831E+04  0.18153140831E+04  0.00000000000E+00 0. -1.
         21   -1    0    0  501  503 -0.00000000000E+00 -0.00000000000E+00 -0.96062252588E+03  0.96062252588E+03  0.00000000000E+00 0. -1.
    9000010    2    1    2  501    0 -0.14255730812E+03  0.16513203330E+03 -0.45962815147E+03  0.11240095143E+04  0.10022715081E+04 0.  0.
   -9000010    2    1    2    0  502  0.14255730812E+03 -0.16513203330E+03  0.13143197087E+04  0.16519270947E+04  0.97664510190E+03 0.  0.
        -13    1    3    3    0    0 -0.48647179082E+03 -0.29304910802E+02  0.37755519656E+02  0.48881394363E+03  0.10566000000E+00 0.  1.
          4    1    3    3  501    0  0.34391448270E+03  0.19443694410E+03 -0.49738367113E+03  0.63519557063E+03  0.00000000000E+00 0.  1.
         13    1    4    4    0    0  0.21373926127E+03  0.38449837784E+03  0.48864837469E+03  0.65749579438E+03  0.10566000000E+00 0. -1.
         -4    1    4    4    0  502 -0.71181953154E+02 -0.54963041114E+03  0.82567133400E+03  0.99443130034E+03  0.00000000000E+00 0. -1.
<mgrwt>
<rscale>  2 0.10194241E+04</rscale>
<asrwt>0</asrwt>
<pdfrwt beam="1">  1       21 0.27927909E+00 0.10257384E+04</pdfrwt>
<pdfrwt beam="2">  1       21 0.14778808E+00 0.10257384E+04</pdfrwt>
<totfact> 0.49319926E+00</totfact>
</mgrwt>
</event>
<event>
 8    1  0.7631533E-006  0.1023255E+04  0.7818608E-02  0.8754745E-01
         21   -1    0    0  501  502  0.00000000000E+00  0.00000000000E+00  0.21131291043E+04  0.21131291043E+04  0.00000000000E+00 0. -1.
         21   -1    0    0  502  503 -0.00000000000E+00 -0.00000000000E+00 -0.53031531578E+03  0.53031531578E+03  0.00000000000E+00 0. -1.
    9000010    2    1    2  501    0  0.10075429714E+03  0.19224023974E+03  0.43306249740E+03  0.11042958229E+04  0.99238016887E+03 0.  0.
   -9000010    2    1    2    0  503 -0.10075429714E+03 -0.19224023974E+03  0.11497512911E+04  0.15391485972E+04  0.99997131695E+03 0.  0.
        -13    1    3    3    0    0  0.36786131924E+03 -0.27553212755E+03  0.98042263275E+02  0.46994914625E+03  0.10566000000E+00 0.  1.
          4    1    3    3  501    0 -0.26710702210E+03  0.46777236729E+03  0.33502023413E+03  0.63434667662E+03  0.00000000000E+00 0.  1.
         13    1    4    4    0    0  0.33643834192E+03  0.21412083702E+03  0.29248342629E+03  0.49455541305E+03  0.10566000000E+00 0. -1.
         -4    1    4    4    0  503 -0.43719263906E+03 -0.40636107676E+03  0.85726786482E+03  0.10445931842E+04  0.00000000000E+00 0. -1.
<mgrwt>
<rscale>  2 0.10213954E+04</rscale>
<asrwt>0</asrwt>
<pdfrwt beam="1">  1       21 0.32509678E+00 0.10232548E+04</pdfrwt>
<pdfrwt beam="2">  1       21 0.81586972E-01 0.10232548E+04</pdfrwt>
<totfact> 0.11833573E+01</totfact>
</mgrwt>
</event>
<event>
 8    1  0.7631533E-006  0.1106413E+04  0.7818608E-02  0.8681216E-01
         21   -1    0    0  501  502  0.00000000000E+00  0.00000000000E+00  0.16735287384E+04  0.16735287384E+04  0.00000000000E+00 0. -1.
         21   -1    0    0  502  503 -0.00000000000E+00 -0.00000000000E+00 -0.93873705353E+03  0.93873705353E+03  0.00000000000E+00 0. -1.
    9000010    2    1    2  501    0 -0.10939451310E+03  0.43456074111E+03 -0.24892218132E+03  0.11340688836E+04  0.10116025816E+04 0.  0.
   -9000010    2    1    2    0  503  0.10939451310E+03 -0.43456074111E+03  0.98371386618E+03  0.14781969083E+04  0.10082474558E+04 0.  0.
        -13    1    3    3    0    0  0.31790463009E+03 -0.10741238252E+03 -0.28884629577E+03  0.44275610385E+03  0.10566000000E+00 0.  1.
          4    1    3    3  501    0 -0.42729914319E+03  0.54197312363E+03  0.39924114451E+02  0.69131277973E+03  0.00000000000E+00 0.  1.
         13    1    4    4    0    0 -0.13404391587E+02 -0.44741113658E+02  0.10611875044E+04  0.10622148444E+04  0.10566000000E+00 0. -1.
         -4    1    4    4    0  503  0.12279890469E+03 -0.38981962745E+03 -0.77473638206E+02  0.41598206398E+03  0.00000000000E+00 0. -1.
<mgrwt>
<rscale>  2 0.11056456E+04</rscale>
<asrwt>0</asrwt>
<pdfrwt beam="1">  1       21 0.25746596E+00 0.11064131E+04</pdfrwt>
<pdfrwt beam="2">  1       21 0.14442109E+00 0.11064131E+04</pdfrwt>
<totfact> 0.74399494E+00</totfact>
</mgrwt>
</event>
<event>
 8    1  0.7631533E-006  0.1062997E+04  0.7818608E-02  0.8723367E-01
         21   -1    0    0  501  502  0.00000000000E+00  0.00000000000E+00  0.93303186057E+03  0.93303186057E+03  0.00000000000E+00 0. -1.
         21   -1    0    0  502  503 -0.00000000000E+00 -0.00000000000E+00 -0.13129219953E+04  0.13129219953E+04  0.00000000000E+00 0. -1.
    9000010    2    1    2  501    0  0.50400248498E+02 -0.27433372063E+03 -0.54765371769E+03  0.11957793526E+04  0.10257506959E+04 0.  0.
   -9000010    2    1    2    0  503 -0.50400248498E+02  0.27433372063E+03  0.16776358299E+03  0.10501745033E+04  0.99846016054E+03 0.  0.
        -13    1    3    3    0    0 -0.75832706643E+01 -0.60913391049E+03 -0.59639276022E+03  0.85251742651E+03  0.10566000000E+00 0.  1.
          4    1    3    3  501    0  0.57983519163E+02  0.33480018986E+03  0.48739042530E+02  0.34326192607E+03  0.00000000000E+00 0.  1.
         13    1    4    4    0    0 -0.74549753276E+02  0.63373357074E+03  0.24189681187E+03  0.68241481750E+03  0.10566000000E+00 0. -1.
         -4    1    4    4    0  503  0.24149504777E+02 -0.35939985011E+03 -0.74133228875E+02  0.36775968575E+03  0.00000000000E+00 0. -1.
<mgrwt>
<rscale>  2 0.10563582E+04</rscale>
<asrwt>0</asrwt>
<pdfrwt beam="1">  1       21 0.14354336E+00 0.10629975E+04</pdfrwt>
<pdfrwt beam="2">  1       21 0.20198800E+00 0.10629975E+04</pdfrwt>
<totfact> 0.19849485E+01</totfact>
</mgrwt>
</event>
<event>
 8    1  0.7631533E-006  0.1030730E+04  0.7818608E-02  0.8747001E-01
         21   -1    0    0  503  502  0.00000000000E+00  0.00000000000E+00  0.22315020171E+04  0.22315020171E+04  0.00000000000E+00 0. -1.
         21   -1    0    0  501  503 -0.00000000000E+00 -0.00000000000E+00 -0.48392489085E+03  0.48392489085E+03  0.00000000000E+00 0. -1.
    9000010    2    1    2  501    0  0.12582846394E+03  0.16138504340E+03  0.68342661918E+03  0.12339341895E+04  0.10067987414E+04 0.  0.
   -9000010    2    1    2    0  502 -0.12582846394E+03 -0.16138504340E+03  0.10641505071E+04  0.14814927184E+04  0.10102110861E+04 0.  0.
        -13    1    3    3    0    0 -0.14029082417E+03  0.31825191972E+03 -0.12414712560E+03  0.36929435375E+03  0.10566000000E+00 0.  1.
          4    1    3    3  501    0  0.26611928811E+03 -0.15686687632E+03  0.80757374478E+03  0.86463983580E+03  0.00000000000E+00 0.  1.
         13    1    4    4    0    0 -0.19253722335E+03  0.10745555329E+03 -0.12978008465E+03  0.25585183182E+03  0.10566000000E+00 0. -1.
         -4    1    4    4    0  502  0.66708759413E+02 -0.26884059669E+03  0.11939305917E+04  0.12256408866E+04  0.00000000000E+00 0. -1.
<mgrwt>
<rscale>  2 0.10298930E+04</rscale>
<asrwt>0</asrwt>
<pdfrwt beam="1">  1       21 0.34330800E+00 0.10307300E+04</pdfrwt>
<pdfrwt beam="2">  1       21 0.74449984E-01 0.10307300E+04</pdfrwt>
<totfact> 0.10987082E+01</totfact>
</mgrwt>
</event>
<event>
 8    1  0.7631533E-006  0.1033925E+04  0.7818608E-02  0.8745670E-01
         21   -1    0    0  503  502  0.00000000000E+00  0.00000000000E+00  0.16658538523E+04  0.16658538523E+04  0.00000000000E+00 0.  1.
         21   -1    0    0  501  503 -0.00000000000E+00 -0.00000000000E+00 -0.10564311943E+04  0.10564311943E+04  0.00000000000E+00 0.  1.
    9000010    2    1    2  501    0  0.25726012014E+03  0.10197612978E+03 -0.55549276296E+03  0.11647133538E+04  0.98559783200E+03 0.  0.
   -9000010    2    1    2    0  502 -0.25726012014E+03 -0.10197612978E+03  0.11649154210E+04  0.15575716928E+04  0.99620266003E+03 0.  0.
        -13    1    3    3    0    0  0.19562427240E+03  0.50564826194E+03 -0.97072761583E+02  0.55079229566E+03  0.10566000000E+00 0.  1.
          4    1    3    3  501    0  0.61635847748E+02 -0.40367213216E+03 -0.45842000138E+03  0.61392105818E+03  0.00000000000E+00 0.  1.
         13    1    4    4    0    0 -0.28938532186E+03  0.32699782533E+03  0.16103738116E+03  0.46540787657E+03  0.10566000000E+00 0. -1.
         -4    1    4    4    0  502  0.32125201713E+02 -0.42897395511E+03  0.10038780398E+04  0.10921638163E+04  0.00000000000E+00 0. -1.
<mgrwt>
<rscale>  2 0.10313623E+04</rscale>
<asrwt>0</asrwt>
<pdfrwt beam="1">  1       21 0.25628521E+00 0.10339254E+04</pdfrwt>
<pdfrwt beam="2">  1       21 0.16252788E+00 0.10339254E+04</pdfrwt>
<totfact> 0.53438785E+00</totfact>
</mgrwt>
</event>
<event>
 8    1  0.7631533E-006  0.1081749E+04  0.7818608E-02  0.8702092E-01
         21   -1    0    0  503  502  0.00000000000E+00  0.00000000000E+00  0.50661652982E+03  0.50661652982E+03  0.00000000000E+00 0.  1.
         21   -1    0    0  501  503 -0.00000000000E+00 -0.00000000000E+00 -0.30954098053E+04  0.30954098053E+04  0.00000000000E+00 0.  1.
    9000010    2    1    2  501    0  0.41430985978E+03 -0.34430073679E+02 -0.38439077864E+03  0.11480145751E+04  0.99867066851E+03 0.  0.
   -9000010    2    1    2    0  502 -0.41430985978E+03  0.34430073679E+02 -0.22044024968E+04  0.24540117599E+04  0.99495992893E+03 0.  0.
        -13    1    3    3    0    0  0.12990606844E+03  0.19519910064E+03  0.29481829847E+03  0.37669100837E+03  0.10566000000E+00 0.  1.
          4    1    3    3  501    0  0.28440379133E+03 -0.22962917432E+03 -0.67920907711E+03  0.77132356677E+03  0.00000000000E+00 0.  1.
         13    1    4    4    0    0 -0.64943322527E+03 -0.23536504121E+01 -0.20926279983E+04  0.21910867176E+04  0.10566000000E+00 0. -1.
         -4    1    4    4    0  502  0.23512336549E+03  0.36783724091E+02 -0.11177449849E+03  0.26292504231E+03  0.00000000000E+00 0. -1.
<mgrwt>
<rscale>  2 0.10808919E+04</rscale>
<asrwt>0</asrwt>
<pdfrwt beam="1">  1       21 0.77941004E-01 0.10817491E+04</pdfrwt>
<pdfrwt beam="2">  1       21 0.47621690E+00 0.10817491E+04</pdfrwt>
<totfact> 0.11551232E+00</totfact>
</mgrwt>
</event>
<event>
 8    1  0.7631533E-006  0.1091795E+04  0.7818608E-02  0.8696141E-01
         21   -1    0    0  503  502  0.00000000000E+00  0.00000000000E+00  0.10079711681E+04  0.10079711681E+04  0.00000000000E+00 0. -1.
         21   -1    0    0  501  503 -0.00000000000E+00 -0.00000000000E+00 -0.13430261979E+04  0.13430261979E+04  0.00000000000E+00 0. -1.
    9000010    2    1    2  501    0 -0.17056089259E+03 -0.37945147334E+03 -0.59560680385E+03  0.12436892142E+04  0.10094260538E+04 0.  0.
   -9000010    2    1    2    0  502  0.17056089259E+03  0.37945147334E+03  0.26055177408E+03  0.11073081519E+04  0.99255714067E+03 0.  0.
        -13    1    3    3    0    0 -0.11937242174E+03 -0.72131981916E+03 -0.49755883825E+03  0.88437371358E+03  0.10566000000E+00 0.  1.
          4    1    3    3  501    0 -0.51188470850E+02  0.34186834582E+03 -0.98047965605E+02  0.35931550061E+03  0.00000000000E+00 0.  1.
         13    1    4    4    0    0  0.77788508120E+02 -0.67275523254E+02 -0.33879241032E+03  0.35405840829E+03  0.10566000000E+00 0. -1.
         -4    1    4    4    0  502  0.92772384467E+02  0.44672699660E+03  0.59934418440E+03  0.75324974357E+03  0.00000000000E+00 0. -1.
<mgrwt>
<rscale>  2 0.10878793E+04</rscale>
<asrwt>0</asrwt>
<pdfrwt beam="1">  1       21 0.15507249E+00 0.10917946E+04</pdfrwt>
<pdfrwt beam="2">  1       21 0.20661942E+00 0.10917946E+04</pdfrwt>
<totfact> 0.14320686E+01</totfact>
</mgrwt>
</event>
<event>
 8    1  0.7631533E-006  0.1051672E+04  0.7818608E-02  0.8730324E-01
         21   -1    0    0  503  502  0.00000000000E+00  0.00000000000E+00  0.75941402390E+03  0.75941402390E+03  0.00000000000E+00 0.  1.
         21   -1    0    0  501  503 -0.00000000000E+00 -0.00000000000E+00 -0.17553054901E+04  0.17553054901E+04  0.00000000000E+00 0.  1.
    9000010    2    1    2  501    0  0.12445936963E+03 -0.32283553270E+03  0.33419343647E+02  0.10522033188E+04  0.99312741164E+03 0.  0.
   -9000010    2    1    2    0  502 -0.12445936963E+03  0.32283553270E+03 -0.10293108099E+04  0.14625161952E+04  0.97967339559E+03 0.  0.
        -13    1    3    3    0    0 -0.18732015883E+03  0.23650096755E+03  0.23329041320E+03  0.38137380299E+03  0.10566000000E+00 0.  1.
          4    1    3    3  501    0  0.31177952846E+03 -0.55933650024E+03 -0.19987106955E+03  0.67082951583E+03  0.00000000000E+00 0.  1.
         13    1    4    4    0    0  0.95309035162E+02  0.84805874967E+02  0.17433741876E+03  0.21603100555E+03  0.10566000000E+00 0. -1.
         -4    1    4    4    0  502 -0.21976840479E+03  0.23802965773E+03 -0.12036482287E+04  0.12464851897E+04  0.00000000000E+00 0. -1.
<mgrwt>
<rscale>  2 0.10484841E+04</rscale>
<asrwt>0</asrwt>
<pdfrwt beam="1">  1       21 0.11683293E+00 0.10516725E+04</pdfrwt>
<pdfrwt beam="2">  1       21 0.27004700E+00 0.10516725E+04</pdfrwt>
<totfact> 0.11292375E+01</totfact>
</mgrwt>
</event>
<event>
 8    1  0.7631533E-006  0.1043389E+04  0.7818608E-02  0.8750195E-01
         21   -1    0    0  501  502  0.00000000000E+00  0.00000000000E+00  0.74136058366E+03  0.74136058366E+03  0.00000000000E+00 0. -1.
         21   -1    0    0  502  503 -0.00000000000E+00 -0.00000000000E+00 -0.22538964137E+04  0.22538964137E+04  0.00000000000E+00 0. -1.
    9000010    2    1    2  501    0  0.42800354765E+02  0.29824330711E+03  0.19300780928E+03  0.99587208315E+03  0.92936981388E+03 0.  0.
   -9000010    2    1    2    0  503 -0.42800354765E+02 -0.29824330711E+03 -0.17055436393E+04  0.19993849142E+04  0.99893943209E+03 0.  0.
        -13    1    3    3    0    0  0.11849899980E+03 -0.58431414921E+02 -0.33162603685E+03  0.35697630549E+03  0.10566000000E+00 0.  1.
          4    1    3    3  501    0 -0.75698645036E+02  0.35667472203E+03  0.52463384613E+03  0.63889577765E+03  0.00000000000E+00 0.  1.
         13    1    4    4    0    0 -0.11361409695E+03 -0.36918102291E+03 -0.11128580098E+03  0.40197926733E+03  0.10566000000E+00 0. -1.
         -4    1    4    4    0  503  0.70813742185E+02  0.70937715797E+02 -0.15942578384E+04  0.15974056469E+04  0.00000000000E+00 0. -1.
<mgrwt>
<rscale>  2 0.10263778E+04</rscale>
<asrwt>0</asrwt>
<pdfrwt beam="1">  1       21 0.11405548E+00 0.10433892E+04</pdfrwt>
<pdfrwt beam="2">  1       21 0.34675329E+00 0.10433892E+04</pdfrwt>
<totfact> 0.34729671E+00</totfact>
</mgrwt>
</event>
<event>
 8    1  0.7631533E-006  0.1349882E+04  0.7818608E-02  0.8528989E-01
         21   -1    0    0  501  502  0.00000000000E+00  0.00000000000E+00  0.32850588234E+04  0.32850588234E+04  0.00000000000E+00 0. -1.
         21   -1    0    0  502  503 -0.00000000000E+00 -0.00000000000E+00 -0.57474651792E+03  0.57474651792E+03  0.00000000000E+00 0.  1.
    9000010    2    1    2  501    0 -0.52999610589E+03 -0.45860363130E+03  0.21592021627E+04  0.25464359746E+04  0.11536763110E+04 0.  0.
   -9000010    2    1    2    0  503  0.52999610589E+03  0.45860363130E+03  0.55111014285E+03  0.13133693668E+04  0.96436691206E+03 0.  0.
        -13    1    3    3    0    0  0.82715764154E+02 -0.68011420868E+02  0.16632496600E+04  0.16666934012E+04  0.10566000000E+00 0.  1.
          4    1    3    3  501    0 -0.61271187004E+03 -0.39059221043E+03  0.49595250270E+03  0.87974257342E+03  0.00000000000E+00 0.  1.
         13    1    4    4    0    0  0.29518599869E+02  0.47986032949E+03 -0.10080715866E+03  0.49122233048E+03  0.10566000000E+00 0. -1.
         -4    1    4    4    0  503  0.50047750602E+03 -0.21256698190E+02  0.65191730151E+03  0.82214703628E+03  0.00000000000E+00 0. -1.
<mgrwt>
<rscale>  2 0.13085926E+04</rscale>
<asrwt>0</asrwt>
<pdfrwt beam="1">  1       21 0.50539365E+00 0.13498823E+04</pdfrwt>
<pdfrwt beam="2">  1       21 0.88422543E-01 0.13498823E+04</pdfrwt>
<totfact> 0.50167439E-01</totfact>
</mgrwt>
</event>
<event>
 8    1  0.7631533E-006  0.1023275E+04  0.7818608E-02  0.8754515E-01
         21   -1    0    0  503  502  0.00000000000E+00  0.00000000000E+00  0.66921194986E+03  0.66921194986E+03  0.00000000000E+00 0.  1.
         21   -1    0    0  501  503 -0.00000000000E+00 -0.00000000000E+00 -0.15999813832E+04  0.15999813832E+04  0.00000000000E+00 0.  1.
    9000010    2    1    2  501    0  0.58449196594E+02  0.19870872554E+03 -0.65761015550E+03  0.12163643164E+04  0.10020925942E+04 0.  0.
   -9000010    2    1    2    0  502 -0.58449196594E+02 -0.19870872554E+03 -0.27315927789E+03  0.10528290167E+04  0.99545541396E+03 0.  0.
        -13    1    3    3    0    0  0.23923517696E+03 -0.10205383823E+03 -0.79731232049E+03  0.83866286633E+03  0.10566000000E+00 0.  1.
          4    1    3    3  501    0 -0.18078598037E+03  0.30076256376E+03  0.13970216500E+03  0.37770145004E+03  0.00000000000E+00 0.  1.
         13    1    4    4    0    0 -0.25761913250E+03 -0.38530283507E+03  0.20142217897E+03  0.50536798225E+03  0.10566000000E+00 0. -1.
         -4    1    4    4    0  502  0.19916993590E+03  0.18659410953E+03 -0.47458145686E+03  0.54746103448E+03  0.00000000000E+00 0. -1.
<mgrwt>
<rscale>  2 0.10216461E+04</rscale>
<asrwt>0</asrwt>
<pdfrwt beam="1">  1       21 0.10295568E+00 0.10232747E+04</pdfrwt>
<pdfrwt beam="2">  1       21 0.24615098E+00 0.10232747E+04</pdfrwt>
<totfact> 0.23814961E+01</totfact>
</mgrwt>
</event>
<event>
 8    1  0.7631533E-006  0.1035721E+04  0.7818608E-02  0.8742721E-01
         21   -1    0    0  503  502  0.00000000000E+00  0.00000000000E+00  0.14175380477E+04  0.14175380477E+04  0.00000000000E+00 0. -1.
         21   -1    0    0  501  503 -0.00000000000E+00 -0.00000000000E+00 -0.18467859342E+04  0.18467859342E+04  0.00000000000E+00 0. -1.
    9000010    2    1    2  501    0  0.21411373576E+03  0.89648379195E+02  0.10413315213E+04  0.14656240906E+04  0.10048886077E+04 0.  0.
   -9000010    2    1    2    0  502 -0.21411373576E+03 -0.89648379195E+02 -0.14705794078E+04  0.17986998913E+04  0.10093740537E+04 0.  0.
        -13    1    3    3    0    0 -0.16892666830E+03 -0.37854578376E+03  0.53477045152E+03  0.67661848678E+03  0.10566000000E+00 0.  1.
          4    1    3    3  501    0  0.38304040406E+03  0.46819416296E+03  0.50656106981E+03  0.78900560380E+03  0.00000000000E+00 0.  1.
         13    1    4    4    0    0  0.23007340289E+03  0.34170207860E+03 -0.67193131478E+03  0.78815340143E+03  0.10566000000E+00 0. -1.
         -4    1    4    4    0  502 -0.44418713865E+03 -0.43135045779E+03 -0.79864809306E+03  0.10105464898E+04  0.00000000000E+00 0. -1.
<mgrwt>
<rscale>  2 0.10346263E+04</rscale>
<asrwt>0</asrwt>
<pdfrwt beam="1">  1       21 0.21808278E+00 0.10357208E+04</pdfrwt>
<pdfrwt beam="2">  1       21 0.28412091E+00 0.10357208E+04</pdfrwt>
<totfact> 0.12133105E+00</totfact>
</mgrwt>
</event>
<event>
 8    1  0.7631533E-006  0.1105010E+04  0.7818608E-02  0.8683258E-01
         21   -1    0    0  503  502  0.00000000000E+00  0.00000000000E+00  0.89798785195E+03  0.89798785195E+03  0.00000000000E+00 0.  1.
         21   -1    0    0  501  503 -0.00000000000E+00 -0.00000000000E+00 -0.27969879317E+04  0.27969879317E+04  0.00000000000E+00 0.  1.
    9000010    2    1    2  501    0  0.34335793657E+03  0.18516493662E+03 -0.22764228427E+04  0.25272875848E+04  0.10261095708E+04 0.  0.
   -9000010    2    1    2    0  502 -0.34335793657E+03 -0.18516493662E+03  0.37742276293E+03  0.11676881988E+04  0.10338602717E+04 0.  0.
        -13    1    3    3    0    0  0.54808504199E+03 -0.25858396502E+03 -0.13529803056E+04  0.14825041649E+04  0.10566000000E+00 0.  1.
          4    1    3    3  501    0 -0.20472710542E+03  0.44374890164E+03 -0.92344253705E+03  0.10447834200E+04  0.00000000000E+00 0.  1.
         13    1    4    4    0    0 -0.53783653061E+03  0.13185346476E+03 -0.99770632838E+02  0.56267900278E+03  0.10566000000E+00 0. -1.
         -4    1    4    4    0  502  0.19447859404E+03 -0.31701840137E+03  0.47719339577E+03  0.60500919606E+03  0.00000000000E+00 0. -1.
<mgrwt>
<rscale>  2 0.11031938E+04</rscale>
<asrwt>0</asrwt>
<pdfrwt beam="1">  1       21 0.13815198E+00 0.11050103E+04</pdfrwt>
<pdfrwt beam="2">  1       21 0.43030583E+00 0.11050103E+04</pdfrwt>
<totfact> 0.51844489E-01</totfact>
</mgrwt>
</event>
<event>
 8    1  0.7631533E-006  0.1115810E+04  0.7818608E-02  0.8683887E-01
         21   -1    0    0  503  502  0.00000000000E+00  0.00000000000E+00  0.92069043001E+03  0.92069043001E+03  0.00000000000E+00 0. -1.
         21   -1    0    0  501  503 -0.00000000000E+00 -0.00000000000E+00 -0.13709394043E+04  0.13709394043E+04  0.00000000000E+00 0.  1.
    9000010    2    1    2  501    0  0.47745361938E+03  0.81524743161E+02 -0.49943488366E+03  0.11747364824E+04  0.94655288154E+03 0.  0.
   -9000010    2    1    2    0  502 -0.47745361938E+03 -0.81524743161E+02  0.49185909352E+02  0.11168933520E+04  0.10051981216E+04 0.  0.
        -13    1    3    3    0    0  0.23624320185E+03 -0.39076886900E+03 -0.15649930962E+02  0.45689833760E+03  0.10566000000E+00 0.  1.
          4    1    3    3  501    0  0.24121041753E+03  0.47229361216E+03 -0.48378495270E+03  0.71783814476E+03  0.00000000000E+00 0.  1.
         13    1    4    4    0    0 -0.73254800630E+03 -0.23540522575E+03  0.18206440989E+03  0.79068935895E+03  0.10566000000E+00 0. -1.
         -4    1    4    4    0  502  0.25509438692E+03  0.15388048259E+03 -0.13287850053E+03  0.32620399302E+03  0.00000000000E+00 0. -1.
<mgrwt>
<rscale>  2 0.11024397E+04</rscale>
<asrwt>0</asrwt>
<pdfrwt beam="1">  1       21 0.14164468E+00 0.11158098E+04</pdfrwt>
<pdfrwt beam="2">  1       21 0.21091375E+00 0.11158098E+04</pdfrwt>
<totfact> 0.17429037E+01</totfact>
</mgrwt>
</event>
<event>
 8    1  0.7631533E-006  0.1056266E+04  0.7818608E-02  0.8724791E-01
         21   -1    0    0  501  502  0.00000000000E+00  0.00000000000E+00  0.57635134039E+03  0.57635134039E+03  0.00000000000E+00 0. -1.
         21   -1    0    0  502  503 -0.00000000000E+00 -0.00000000000E+00 -0.19825022803E+04  0.19825022803E+04  0.00000000000E+00 0. -1.
    9000010    2    1    2  501    0  0.29501245303E+03  0.19335687259E+03 -0.48255425546E+03  0.11557398815E+04  0.98916977140E+03 0.  0.
   -9000010    2    1    2    0  503 -0.29501245303E+03 -0.19335687259E+03 -0.92359668441E+03  0.14031137391E+04  0.99562950029E+03 0.  0.
        -13    1    3    3    0    0  0.56990918999E+03 -0.16732534951E+03 -0.31463209806E+03  0.67215149015E+03  0.10566000000E+00 0.  1.
          4    1    3    3  501    0 -0.27489673695E+03  0.36068222209E+03 -0.16792215740E+03  0.48358839137E+03  0.00000000000E+00 0.  1.
         13    1    4    4    0    0 -0.26541385869E+03 -0.45440693957E+03 -0.96141551553E+02  0.53495176625E+03  0.10566000000E+00 0. -1.
         -4    1    4    4    0  503 -0.29598594347E+02  0.26105006698E+03 -0.82745513285E+03  0.86816197287E+03  0.00000000000E+00 0. -1.
<mgrwt>
<rscale>  2 0.10547408E+04</rscale>
<asrwt>0</asrwt>
<pdfrwt beam="1">  1       21 0.88669438E-01 0.10562657E+04</pdfrwt>
<pdfrwt beam="2">  1       21 0.30500035E+00 0.10562657E+04</pdfrwt>
<totfact> 0.13188566E+01</totfact>
</mgrwt>
</event>
<event>
 8    1  0.7631533E-006  0.9991829E+03  0.7818608E-02  0.8778142E-01
         21   -1    0    0  501  502  0.00000000000E+00  0.00000000000E+00  0.16431155204E+04  0.16431155204E+04  0.00000000000E+00 0.  1.
         21   -1    0    0  502  503 -0.00000000000E+00 -0.00000000000E+00 -0.62467259485E+03  0.62467259485E+03  0.00000000000E+00 0.  1.
    9000010    2    1    2  501    0  0.53545152346E+02 -0.81532526119E+02  0.73527954645E+03  0.12405653968E+04  0.99441030575E+03 0.  0.
   -9000010    2    1    2    0  503 -0.53545152346E+02  0.81532526119E+02  0.28316337909E+03  0.10272227184E+04  0.98259369928E+03 0.  0.
        -13    1    3    3    0    0  0.31525075231E+03  0.29458833244E+03  0.76648456367E+02  0.43822405167E+03  0.10566000000E+00 0.  1.
          4    1    3    3  501    0 -0.26170559996E+03 -0.37612085855E+03  0.65863109008E+03  0.80234134513E+03  0.00000000000E+00 0.  1.
         13    1    4    4    0    0 -0.16464047731E+02 -0.44162448659E+03  0.24949215436E+02  0.44263498115E+03  0.10566000000E+00 0. -1.
         -4    1    4    4    0  503 -0.37081104615E+02  0.52315701271E+03  0.25821416365E+03  0.58458773728E+03  0.00000000000E+00 0. -1.
<mgrwt>
<rscale>  2 0.99622998E+03</rscale>
<asrwt>0</asrwt>
<pdfrwt beam="1">  1       21 0.25278700E+00 0.99918291E+03</pdfrwt>
<pdfrwt beam="2">  1       21 0.96103477E-01 0.99918291E+03</pdfrwt>
<totfact> 0.25646472E+01</totfact>
</mgrwt>
</event>
<event>
 8    1  0.7631533E-006  0.1103105E+04  0.7818608E-02  0.8705011E-01
         21   -1    0    0  501  502  0.00000000000E+00  0.00000000000E+00  0.64932874396E+03  0.64932874396E+03  0.00000000000E+00 0.  1.
         21   -1    0    0  502  503 -0.00000000000E+00 -0.00000000000E+00 -0.17971983268E+04  0.17971983268E+04  0.00000000000E+00 0.  1.
    9000010    2    1    2  501    0  0.85456512135E+02 -0.12616756103E+03 -0.32986318913E+03  0.11513688345E+04  0.10925289014E+04 0.  0.
   -9000010    2    1    2    0  503 -0.85456512135E+02  0.12616756103E+03 -0.81800639366E+03  0.12951582363E+04  0.99251162610E+03 0.  0.
        -13    1    3    3    0    0 -0.41682860435E+03 -0.11228540858E+03 -0.46150461295E+03  0.63193402925E+03  0.10566000000E+00 0.  1.
          4    1    3    3  501    0  0.50228511648E+03 -0.13882152446E+02  0.13164142381E+03  0.51943480521E+03  0.00000000000E+00 0.  1.
         13    1    4    4    0    0 -0.31975869318E+03  0.44230081741E+03 -0.69335426177E+03  0.88239207749E+03  0.10566000000E+00 0. -1.
         -4    1    4    4    0  503  0.23430218104E+03 -0.31613325639E+03 -0.12465213190E+03  0.41276615876E+03  0.00000000000E+00 0. -1.
<mgrwt>
<rscale>  2 0.10774853E+04</rscale>
<asrwt>0</asrwt>
<pdfrwt beam="1">  1       21 0.99896730E-01 0.11031049E+04</pdfrwt>
<pdfrwt beam="2">  1       21 0.27649205E+00 0.11031049E+04</pdfrwt>
<totfact> 0.15309299E+01</totfact>
</mgrwt>
</event>
<event>
 8    1  0.7631533E-006  0.1035552E+04  0.7818608E-02  0.8748610E-01
         21   -1    0    0  503  502  0.00000000000E+00  0.00000000000E+00  0.25383466274E+04  0.25383466274E+04  0.00000000000E+00 0. -1.
         21   -1    0    0  501  503 -0.00000000000E+00 -0.00000000000E+00 -0.42031453576E+03  0.42031453576E+03  0.00000000000E+00 0. -1.
    9000010    2    1    2  501    0 -0.16138434690E+02 -0.79152978041E+02  0.84851870863E+03  0.13387873478E+04  0.10323962034E+04 0.  0.
   -9000010    2    1    2    0  502  0.16138434690E+02  0.79152978041E+02  0.12695133830E+04  0.16198738154E+04  0.10028964578E+04 0.  0.
        -13    1    3    3    0    0  0.45258863299E+03 -0.57914144113E+02  0.11923376477E+03  0.47160070041E+03  0.10566000000E+00 0.  1.
          4    1    3    3  501    0 -0.46872706768E+03 -0.21238833928E+02  0.72928494386E+03  0.86718664737E+03  0.00000000000E+00 0.  1.
         13    1    4    4    0    0 -0.45942945598E+03  0.18483040229E+02  0.33280509596E+03  0.56760575302E+03  0.10566000000E+00 0. -1.
         -4    1    4    4    0  502  0.47556789067E+03  0.60669937812E+02  0.93670828708E+03  0.10522680624E+04  0.00000000000E+00 0. -1.
<mgrwt>
<rscale>  2 0.10281204E+04</rscale>
<asrwt>0</asrwt>
<pdfrwt beam="1">  1       21 0.39051486E+00 0.10355518E+04</pdfrwt>
<pdfrwt beam="2">  1       21 0.64663776E-01 0.10355518E+04</pdfrwt>
<totfact> 0.71506400E+00</totfact>
</mgrwt>
</event>
<event>
 8    1  0.7631533E-006  0.1037047E+04  0.7818608E-02  0.8748692E-01
         21   -1    0    0  503  502  0.00000000000E+00  0.00000000000E+00  0.10201425498E+04  0.10201425498E+04  0.00000000000E+00 0.  1.
         21   -1    0    0  501  503 -0.00000000000E+00 -0.00000000000E+00 -0.12422588433E+04  0.12422588433E+04  0.00000000000E+00 0.  1.
    9000010    2    1    2  501    0  0.16967349099E+03  0.17813483632E+01 -0.58965642196E+03  0.11621507641E+04  0.98696881195E+03 0.  0.
   -9000010    2    1    2    0  502 -0.16967349099E+03 -0.17813483632E+01  0.36754012842E+03  0.11002506290E+04  0.10230705908E+04 0.  0.
        -13    1    3    3    0    0  0.39508354944E+03  0.30260904895E+03 -0.44075141335E+02  0.49960572134E+03  0.10566000000E+00 0.  1.
          4    1    3    3  501    0 -0.22541005846E+03 -0.30082770059E+03 -0.54558128063E+03  0.66254504275E+03  0.00000000000E+00 0.  1.
         13    1    4    4    0    0 -0.18595951433E+03 -0.48906769906E+03  0.31287220585E+03  0.60963692768E+03  0.10566000000E+00 0. -1.
         -4    1    4    4    0  502  0.16286023344E+02  0.48728635069E+03  0.54667922573E+02  0.49061370128E+03  0.00000000000E+00 0. -1.
<mgrwt>
<rscale>  2 0.10280303E+04</rscale>
<asrwt>0</asrwt>
<pdfrwt beam="1">  1       21 0.15694501E+00 0.10370466E+04</pdfrwt>
<pdfrwt beam="2">  1       21 0.19111674E+00 0.10370466E+04</pdfrwt>
<totfact> 0.18464003E+01</totfact>
</mgrwt>
</event>
<event>
 8    1  0.7631533E-006  0.1033598E+04  0.7818608E-02  0.8747681E-01
         21   -1    0    0  501  502  0.00000000000E+00  0.00000000000E+00  0.27561129928E+04  0.27561129928E+04  0.00000000000E+00 0. -1.
         21   -1    0    0  502  503 -0.00000000000E+00 -0.00000000000E+00 -0.50812244240E+03  0.50812244240E+03  0.00000000000E+00 0. -1.
    9000010    2    1    2  501    0  0.88570140014E+02  0.17811528367E+03  0.19475794932E+04  0.22048559344E+04  0.10142751525E+04 0.  0.
   -9000010    2    1    2    0  503 -0.88570140014E+02 -0.17811528367E+03  0.30041105721E+03  0.10593795008E+04  0.99622708231E+03 0.  0.
        -13    1    3    3    0    0  0.12229659240E+03 -0.69408914148E+02 -0.80108378373E+02  0.16183762642E+03  0.10566000000E+00 0.  1.
          4    1    3    3  501    0 -0.33726452383E+02  0.24752419782E+03  0.20276878716E+04  0.20430183080E+04  0.00000000000E+00 0.  1.
         13    1    4    4    0    0 -0.31391092375E+03  0.61283374794E+02  0.55702442082E+03  0.64231762908E+03  0.10566000000E+00 0. -1.
         -4    1    4    4    0  503  0.22534078374E+03 -0.23939865847E+03 -0.25661336361E+03  0.41706187176E+03  0.00000000000E+00 0. -1.
<mgrwt>
<rscale>  2 0.10291426E+04</rscale>
<asrwt>0</asrwt>
<pdfrwt beam="1">  1       21 0.42401738E+00 0.10335975E+04</pdfrwt>
<pdfrwt beam="2">  1       21 0.78172685E-01 0.10335975E+04</pdfrwt>
<totfact> 0.26703463E+00</totfact>
</mgrwt>
</event>
<event>
 8    1  0.7631533E-006  0.1057022E+04  0.7818608E-02  0.8799807E-01
         21   -1    0    0  503  502  0.00000000000E+00  0.00000000000E+00  0.85995899338E+03  0.85995899338E+03  0.00000000000E+00 0. -1.
         21   -1    0    0  501  503 -0.00000000000E+00 -0.00000000000E+00 -0.10379862415E+04  0.10379862415E+04  0.00000000000E+00 0. -1.
    9000010    2    1    2  501    0  0.12415863936E+03  0.22910611840E+03 -0.35831259756E+03  0.11161014466E+04  0.10243971595E+04 0.  0.
   -9000010    2    1    2    0  502 -0.12415863936E+03 -0.22910611840E+03  0.18028534943E+03  0.78184378829E+03  0.71475304886E+03 0.  0.
        -13    1    3    3    0    0  0.53975059634E+03  0.29188343920E+03 -0.97139511266E+02  0.62125899925E+03  0.10566000000E+00 0.  1.
          4    1    3    3  501    0 -0.41559195698E+03 -0.62777320800E+02 -0.26117308630E+03  0.49484244737E+03  0.00000000000E+00 0.  1.
         13    1    4    4    0    0 -0.14703372303E+03  0.27238054346E+02  0.41028363709E+03  0.43668467037E+03  0.10566000000E+00 0. -1.
         -4    1    4    4    0  502  0.22875083667E+02 -0.25634417275E+03 -0.22999828766E+03  0.34515911792E+03  0.00000000000E+00 0. -1.
<mgrwt>
<rscale>  2 0.97359150E+03</rscale>
<asrwt>0</asrwt>
<pdfrwt beam="1">  1       21 0.13230138E+00 0.10570215E+04</pdfrwt>
<pdfrwt beam="2">  1       21 0.15969019E+00 0.10570215E+04</pdfrwt>
<totfact> 0.56082940E+01</totfact>
</mgrwt>
</event>
<event>
 8    1  0.7631533E-006  0.1075582E+04  0.7818608E-02  0.8722410E-01
         21   -1    0    0  503  502  0.00000000000E+00  0.00000000000E+00  0.20842024813E+04  0.20842024813E+04  0.00000000000E+00 0. -1.
         21   -1    0    0  501  503 -0.00000000000E+00 -0.00000000000E+00 -0.82914531994E+03  0.82914531994E+03  0.00000000000E+00 0.  1.
    9000010    2    1    2  501    0  0.61673442261E+02 -0.50106493493E+03 -0.24944725268E+03  0.11041289965E+04  0.94974061012E+03 0.  0.
   -9000010    2    1    2    0  502 -0.61673442261E+02  0.50106493493E+03  0.15045044141E+04  0.18092188048E+04  0.86883224452E+03 0.  0.
        -13    1    3    3    0    0  0.35066328297E+03 -0.65412757479E+03 -0.11724023528E+03  0.75139397526E+03  0.10566000000E+00 0.  1.
          4    1    3    3  501    0 -0.28898984071E+03  0.15306263986E+03 -0.13220701739E+03  0.35273502123E+03  0.00000000000E+00 0.  1.
         13    1    4    4    0    0 -0.29942060920E+03  0.57016395733E+03  0.63216669332E+03  0.90242693818E+03  0.10566000000E+00 0. -1.
         -4    1    4    4    0  502  0.23774716694E+03 -0.69099022403E+02  0.87233772075E+03  0.90679186660E+03  0.00000000000E+00 0. -1.
<mgrwt>
<rscale>  2 0.10574475E+04</rscale>
<asrwt>0</asrwt>
<pdfrwt beam="1">  1       21 0.32064653E+00 0.10755821E+04</pdfrwt>
<pdfrwt beam="2">  1       21 0.12756082E+00 0.10755821E+04</pdfrwt>
<totfact> 0.38403275E+00</totfact>
</mgrwt>
</event>
<event>
 8    1  0.7631533E-006  0.1061616E+04  0.7818608E-02  0.8725425E-01
         21   -1    0    0  503  502  0.00000000000E+00  0.00000000000E+00  0.12733492927E+04  0.12733492927E+04  0.00000000000E+00 0.  1.
         21   -1    0    0  501  503 -0.00000000000E+00 -0.00000000000E+00 -0.88115427619E+03  0.88115427619E+03  0.00000000000E+00 0.  1.
    9000010    2    1    2  501    0  0.21913332387E+03  0.78884560917E+02  0.27280877755E+02  0.10319210068E+04  0.10049251367E+04 0.  0.
   -9000010    2    1    2    0  502 -0.21913332387E+03 -0.78884560917E+02  0.36491413877E+03  0.11225825621E+04  0.10357543591E+04 0.  0.
        -13    1    3    3    0    0  0.18353328514E+03  0.53733288178E+03  0.59750054133E+02  0.57094760945E+03  0.10566000000E+00 0.  1.
          4    1    3    3  501    0  0.35600038730E+02 -0.45844832087E+03 -0.32469176378E+02  0.46097339737E+03  0.00000000000E+00 0.  1.
         13    1    4    4    0    0 -0.46508217536E+03 -0.42310671222E+03  0.14279087444E+03  0.64475574037E+03  0.10566000000E+00 0. -1.
         -4    1    4    4    0  502  0.24594885149E+03  0.34422215130E+03  0.22212326433E+03  0.47782682172E+03  0.00000000000E+00 0. -1.
<mgrwt>
<rscale>  2 0.10540212E+04</rscale>
<asrwt>0</asrwt>
<pdfrwt beam="1">  1       21 0.19589989E+00 0.10616164E+04</pdfrwt>
<pdfrwt beam="2">  1       21 0.13556220E+00 0.10616164E+04</pdfrwt>
<totfact> 0.26276963E+01</totfact>
</mgrwt>
</event>
<event>
 8    1  0.7631533E-006  0.1006526E+04  0.7818608E-02  0.8768486E-01
         21   -1    0    0  501  502  0.00000000000E+00  0.00000000000E+00  0.13447137951E+04  0.13447137951E+04  0.00000000000E+00 0. -1.
         21   -1    0    0  502  503 -0.00000000000E+00 -0.00000000000E+00 -0.94968860366E+03  0.94968860366E+03  0.00000000000E+00 0. -1.
    9000010    2    1    2  501    0 -0.42304316606E+02 -0.19120173449E+03  0.71908316294E+03  0.12370022734E+04  0.98729239369E+03 0.  0.
   -9000010    2    1    2    0  503  0.42304316606E+02  0.19120173449E+03 -0.32405797145E+03  0.10574001254E+04  0.98728602641E+03 0.  0.
        -13    1    3    3    0    0 -0.75234855493E+02 -0.31229116622E+03  0.93424144698E+03  0.98792365515E+03  0.10566000000E+00 0.  1.
          4    1    3    3  501    0  0.32930538886E+02  0.12108943174E+03 -0.21515828404E+03  0.24907861823E+03  0.00000000000E+00 0.  1.
         13    1    4    4    0    0  0.64980033234E+02  0.52072601716E+02 -0.67452523963E+03  0.67964569492E+03  0.10566000000E+00 0. -1.
         -4    1    4    4    0  503 -0.22675716628E+02  0.13912913277E+03  0.35046726817E+03  0.37775443051E+03  0.00000000000E+00 0. -1.
<mgrwt>
<rscale>  2 0.10065242E+04</rscale>
<asrwt>0</asrwt>
<pdfrwt beam="1">  1       21 0.20687905E+00 0.10065257E+04</pdfrwt>
<pdfrwt beam="2">  1       21 0.14610594E+00 0.10065257E+04</pdfrwt>
<totfact> 0.17472725E+01</totfact>
</mgrwt>
</event>
<event>
 8    1  0.7631533E-006  0.1033893E+04  0.7818608E-02  0.8744544E-01
         21   -1    0    0  503  502  0.00000000000E+00  0.00000000000E+00  0.85485337743E+03  0.85485337743E+03  0.00000000000E+00 0.  1.
         21   -1    0    0  501  503 -0.00000000000E+00 -0.00000000000E+00 -0.12525227462E+04  0.12525227462E+04  0.00000000000E+00 0.  1.
    9000010    2    1    2  501    0 -0.19134780072E+03 -0.14321542998E+03 -0.28410213638E+03  0.10672646233E+04  0.10006073715E+04 0.  0.
   -9000010    2    1    2    0  502  0.19134780072E+03  0.14321542998E+03 -0.11356723243E+03  0.10401115004E+04  0.10058875567E+04 0.  0.
        -13    1    3    3    0    0 -0.47720626231E+03 -0.70833701061E+02 -0.50531582064E+03  0.69863246400E+03  0.10566000000E+00 0.  1.
          4    1    3    3  501    0  0.28585846159E+03 -0.72381728916E+02  0.22121368426E+03  0.36863215927E+03  0.00000000000E+00 0.  1.
         13    1    4    4    0    0  0.35359073415E+03  0.81965199215E+02  0.37487262072E+03  0.52179899778E+03  0.10566000000E+00 0. -1.
         -4    1    4    4    0  502 -0.16224293343E+03  0.61250230762E+02 -0.48843985315E+03  0.51831250261E+03  0.00000000000E+00 0. -1.
<mgrwt>
<rscale>  2 0.10326063E+04</rscale>
<asrwt>0</asrwt>
<pdfrwt beam="1">  1       21 0.13151590E+00 0.10338928E+04</pdfrwt>
<pdfrwt beam="2">  1       21 0.19269581E+00 0.10338928E+04</pdfrwt>
<totfact> 0.30618309E+01</totfact>
</mgrwt>
</event>
<event>
 8    1  0.7631533E-006  0.1033437E+04  0.7818608E-02  0.8758215E-01
         21   -1    0    0  501  502  0.00000000000E+00  0.00000000000E+00  0.10488251381E+04  0.10488251381E+04  0.00000000000E+00 0. -1.
         21   -1    0    0  502  503 -0.00000000000E+00 -0.00000000000E+00 -0.10736343684E+04  0.10736343684E+04  0.00000000000E+00 0. -1.
    9000010    2    1    2  501    0  0.82264237301E+02 -0.99176896417E+01  0.33569885761E+03  0.10279469517E+04  0.96804723400E+03 0.  0.
   -9000010    2    1    2    0  503 -0.82264237301E+02  0.99176896417E+01 -0.36050808789E+03  0.10945125548E+04  0.10301096475E+04 0.  0.
        -13    1    3    3    0    0 -0.12651413328E+02  0.47446956508E+03  0.20721963201E+03  0.51790096882E+03  0.10566000000E+00 0.  1.
          4    1    3    3  501    0  0.94915650628E+02 -0.48438725472E+03  0.12847922559E+03  0.51004598291E+03  0.00000000000E+00 0.  1.
         13    1    4    4    0    0 -0.15261082806E+03  0.47614743795E+03 -0.37144513218E+03  0.62287875617E+03  0.10566000000E+00 0. -1.
         -4    1    4    4    0  503  0.70346590760E+02 -0.46622974831E+03  0.10937044291E+02  0.47163379860E+03  0.00000000000E+00 0. -1.
<mgrwt>
<rscale>  2 0.10176147E+04</rscale>
<asrwt>0</asrwt>
<pdfrwt beam="1">  1       21 0.16135771E+00 0.10334368E+04</pdfrwt>
<pdfrwt beam="2">  1       21 0.16517452E+00 0.10334368E+04</pdfrwt>
<totfact> 0.27632303E+01</totfact>
</mgrwt>
</event>
<event>
 8    1  0.7631533E-006  0.1069332E+04  0.7818608E-02  0.8726781E-01
         21   -1    0    0  503  502  0.00000000000E+00  0.00000000000E+00  0.11396698162E+04  0.11396698162E+04  0.00000000000E+00 0. -1.
         21   -1    0    0  501  503 -0.00000000000E+00 -0.00000000000E+00 -0.10777332006E+04  0.10777332006E+04  0.00000000000E+00 0. -1.
    9000010    2    1    2  501    0  0.81598893055E+02 -0.59953682666E+02 -0.36240344513E+03  0.10669530196E+04  0.99839855045E+03 0.  0.
   -9000010    2    1    2    0  502 -0.81598893055E+02  0.59953682666E+02  0.42434006076E+03  0.11504499972E+04  0.10645270713E+04 0.  0.
        -13    1    3    3    0    0  0.46672850184E+02 -0.34837826210E+03  0.22101103907E+03  0.41520074543E+03  0.10566000000E+00 0.  1.
          4    1    3    3  501    0  0.34926042871E+02  0.28842457943E+03 -0.58341448420E+03  0.65175227416E+03  0.00000000000E+00 0.  1.
         13    1    4    4    0    0  0.73713857062E+02  0.29654674807E+03 -0.26550618000E+03  0.40480519920E+03  0.10566000000E+00 0. -1.
         -4    1    4    4    0  502 -0.15531275012E+03 -0.23659306540E+03  0.68984624076E+03  0.74564479804E+03  0.00000000000E+00 0. -1.
<mgrwt>
<rscale>  2 0.10524850E+04</rscale>
<asrwt>0</asrwt>
<pdfrwt beam="1">  1       21 0.17533382E+00 0.10693319E+04</pdfrwt>
<pdfrwt beam="2">  1       21 0.16580511E+00 0.10693319E+04</pdfrwt>
<totfact> 0.20645508E+01</totfact>
</mgrwt>
</event>
<event>
 8    1  0.7631533E-006  0.1037413E+04  0.7818608E-02  0.8764286E-01
         21   -1    0    0  503  502  0.00000000000E+00  0.00000000000E+00  0.23782573257E+04  0.23782573257E+04  0.00000000000E+00 0.  1.
         21   -1    0    0  501  503 -0.00000000000E+00 -0.00000000000E+00 -0.46781796663E+03  0.46781796663E+03  0.00000000000E+00 0.  1.
    9000010    2    1    2  501    0 -0.20641025862E+03 -0.13861469173E+03  0.49560651953E+03  0.11497184593E+04  0.10071779813E+04 0.  0.
   -9000010    2    1    2    0  502  0.20641025862E+03  0.13861469173E+03  0.14148328396E+04  0.16963568330E+04  0.90225013902E+03 0.  0.
        -13    1    3    3    0    0  0.27500197806E+03 -0.23649476421E+03  0.54641158649E+03  0.65583648453E+03  0.10566000000E+00 0.  1.
          4    1    3    3  501    0 -0.48141223668E+03  0.97880072484E+02 -0.50805066955E+02  0.49388197481E+03  0.00000000000E+00 0.  1.
         13    1    4    4    0    0 -0.17127042152E+03 -0.17515571233E+03  0.10666541945E+04  0.10944241694E+04  0.10566000000E+00 0. -1.
         -4    1    4    4    0  502  0.37768068014E+03  0.31377040406E+03  0.34817864511E+03  0.60193266362E+03  0.00000000000E+00 0. -1.
<mgrwt>
<rscale>  2 0.10110419E+04</rscale>
<asrwt>0</asrwt>
<pdfrwt beam="1">  1       21 0.36588574E+00 0.10374135E+04</pdfrwt>
<pdfrwt beam="2">  1       21 0.71971996E-01 0.10374135E+04</pdfrwt>
<totfact> 0.82605913E+00</totfact>
</mgrwt>
</event>
<event>
 8    1  0.7631533E-006  0.1070384E+04  0.7818608E-02  0.8719305E-01
         21   -1    0    0  503  502  0.00000000000E+00  0.00000000000E+00  0.10082516204E+04  0.10082516204E+04  0.00000000000E+00 0.  1.
         21   -1    0    0  501  503 -0.00000000000E+00 -0.00000000000E+00 -0.12059266480E+04  0.12059266480E+04  0.00000000000E+00 0.  1.
    9000010    2    1    2  501    0 -0.45625503157E+02  0.40552745275E+03 -0.42945205586E+03  0.11189873508E+04  0.94929943721E+03 0.  0.
   -9000010    2    1    2    0  502  0.45625503157E+02 -0.40552745275E+03  0.23177702824E+03  0.10951909176E+04  0.98953946541E+03 0.  0.
        -13    1    3    3    0    0  0.22317378541E+03 -0.13000343415E+03  0.13877354515E+03  0.29319880522E+03  0.10566000000E+00 0.  1.
          4    1    3    3  501    0 -0.26879928857E+03  0.53553088690E+03 -0.56822560101E+03  0.82578854557E+03  0.00000000000E+00 0.  1.
         13    1    4    4    0    0 -0.23001685747E+03 -0.22243899891E+03 -0.31952787146E+03  0.45220010477E+03  0.10566000000E+00 0. -1.
         -4    1    4    4    0  502  0.27564236062E+03 -0.18308845384E+03  0.55130489970E+03  0.64299081279E+03  0.00000000000E+00 0. -1.
<mgrwt>
<rscale>  2 0.10609896E+04</rscale>
<asrwt>0</asrwt>
<pdfrwt beam="1">  1       21 0.15511563E+00 0.10703843E+04</pdfrwt>
<pdfrwt beam="2">  1       21 0.18552718E+00 0.10703843E+04</pdfrwt>
<totfact> 0.21074836E+01</totfact>
</mgrwt>
</event>
<event>
 8    1  0.7631533E-006  0.1161135E+04  0.7818608E-02  0.8646815E-01
         21   -1    0    0  501  502  0.00000000000E+00  0.00000000000E+00  0.19654542253E+04  0.19654542253E+04  0.00000000000E+00 0.  1.
         21   -1    0    0  502  503 -0.00000000000E+00 -0.00000000000E+00 -0.69754740613E+03  0.69754740613E+03  0.00000000000E+00 0.  1.
    9000010    2    1    2  501    0  0.27015615470E+03 -0.44003029058E+03  0.97359849039E+03  0.15152978177E+04  0.10400107938E+04 0.  0.
   -9000010    2    1    2    0  503 -0.27015615470E+03  0.44003029058E+03  0.29430832878E+03  0.11477038137E+04  0.98183279996E+03 0.  0.
        -13    1    3    3    0    0 -0.36363906876E+03 -0.24466303722E+03  0.16220747435E+03  0.46733783285E+03  0.10566000000E+00 0.  1.
          4    1    3    3  501    0  0.63379522346E+03 -0.19536725337E+03  0.81139101603E+03  0.10479599849E+04  0.00000000000E+00 0.  1.
         13    1    4    4    0    0 -0.22454243877E+03  0.45462820995E+03  0.62994714753E+03  0.80866528053E+03  0.10566000000E+00 0. -1.
         -4    1    4    4    0  503 -0.45613715924E+02 -0.14597919367E+02 -0.33563881875E+03  0.33903853318E+03  0.00000000000E+00 0. -1.
<mgrwt>
<rscale>  2 0.11479602E+04</rscale>
<asrwt>0</asrwt>
<pdfrwt beam="1">  1       21 0.30237757E+00 0.11611346E+04</pdfrwt>
<pdfrwt beam="2">  1       21 0.10731499E+00 0.11611346E+04</pdfrwt>
<totfact> 0.81879946E+00</totfact>
</mgrwt>
</event>
<event>
 8    1  0.7631533E-006  0.1283596E+04  0.7818608E-02  0.8546356E-01
         21   -1    0    0  503  502  0.00000000000E+00  0.00000000000E+00  0.71000524466E+03  0.71000524466E+03  0.00000000000E+00 0. -1.
         21   -1    0    0  501  503 -0.00000000000E+00 -0.00000000000E+00 -0.24443042176E+04  0.24443042176E+04  0.00000000000E+00 0. -1.
    9000010    2    1    2  501    0  0.79542332843E+03 -0.79116765373E+02 -0.12256259726E+04  0.17747609841E+04  0.10043205623E+04 0.  0.
   -9000010    2    1    2    0  502 -0.79542332843E+03  0.79116765373E+02 -0.50867300032E+03  0.13795484782E+04  0.10027203241E+04 0.  0.
        -13    1    3    3    0    0 -0.75125910243E+02  0.29345783017E+03 -0.48829959579E+03  0.57462849467E+03  0.10566000000E+00 0.  1.
          4    1    3    3  501    0  0.87054923867E+03 -0.37257459554E+03 -0.73732637684E+03  0.12001324894E+04  0.00000000000E+00 0.  1.
         13    1    4    4    0    0 -0.27048585836E+03 -0.35963460445E+02 -0.74431271059E+03  0.79275304627E+03  0.10566000000E+00 0. -1.
         -4    1    4    4    0  502 -0.52493747007E+03  0.11508022582E+03  0.23563971027E+03  0.58679543191E+03  0.00000000000E+00 0. -1.
<mgrwt>
<rscale>  2 0.12832825E+04</rscale>
<asrwt>0</asrwt>
<pdfrwt beam="1">  1       21 0.10923158E+00 0.12835955E+04</pdfrwt>
<pdfrwt beam="2">  1       21 0.37604680E+00 0.12835955E+04</pdfrwt>
<totfact> 0.23134374E+00</totfact>
</mgrwt>
</event>
<event>
 8    1  0.7631533E-006  0.1020879E+04  0.7818608E-02  0.8763737E-01
         21   -1    0    0  503  502  0.00000000000E+00  0.00000000000E+00  0.15537465853E+04  0.15537465853E+04  0.00000000000E+00 0. -1.
         21   -1    0    0  501  503 -0.00000000000E+00 -0.00000000000E+00 -0.75701689856E+03  0.75701689856E+03  0.00000000000E+00 0. -1.
    9000010    2    1    2  501    0 -0.18224561002E+03  0.91659614884E+02 -0.35824577880E+02  0.10215076565E+04  0.10002897303E+04 0.  0.
   -9000010    2    1    2    0  502  0.18224561002E+03 -0.91659614884E+02  0.83255426462E+03  0.12892558274E+04  0.96302597969E+03 0.  0.
        -13    1    3    3    0    0 -0.58094656068E+03  0.15947519496E+02 -0.14945229851E+03  0.60007435410E+03  0.10566000000E+00 0.  1.
          4    1    3    3  501    0  0.39870095067E+03  0.75712095388E+02  0.11362772063E+03  0.42143330237E+03  0.00000000000E+00 0.  1.
         13    1    4    4    0    0 -0.19830846503E+03  0.29061233459E+03  0.61319288833E+03  0.70695636767E+03  0.10566000000E+00 0. -1.
         -4    1    4    4    0  502  0.38055407505E+03 -0.38227194948E+03  0.21936137628E+03  0.58229945973E+03  0.00000000000E+00 0. -1.
<mgrwt>
<rscale>  2 0.10116334E+04</rscale>
<asrwt>0</asrwt>
<pdfrwt beam="1">  1       21 0.23903794E+00 0.10208793E+04</pdfrwt>
<pdfrwt beam="2">  1       21 0.11646414E+00 0.10208793E+04</pdfrwt>
<totfact> 0.19249899E+01</totfact>
</mgrwt>
</event>
<event>
 8    1  0.7631533E-006  0.1062319E+04  0.7818608E-02  0.8726931E-01
         21   -1    0    0  503  502  0.00000000000E+00  0.00000000000E+00  0.59546314455E+03  0.59546314455E+03  0.00000000000E+00 0. -1.
         21   -1    0    0  501  503 -0.00000000000E+00 -0.00000000000E+00 -0.24851639341E+04  0.24851639341E+04  0.00000000000E+00 0. -1.
    9000010    2    1    2  501    0  0.11553339108E+03 -0.31424258037E+03 -0.17514823631E+04  0.20484657048E+04  0.10081790077E+04 0.  0.
   -9000010    2    1    2    0  502 -0.11553339108E+03  0.31424258037E+03 -0.13821842641E+03  0.10321613738E+04  0.96651766899E+03 0.  0.
        -13    1    3    3    0    0  0.12011137317E+03 -0.40862433345E+03 -0.16122806643E+03  0.45540650898E+03  0.10566000000E+00 0.  1.
          4    1    3    3  501    0 -0.45779820864E+01  0.94381753083E+02 -0.15902542967E+04  0.15930591958E+04  0.00000000000E+00 0.  1.
         13    1    4    4    0    0 -0.12006913805E+03 -0.29554135101E+03  0.15598998336E+03  0.35509741500E+03  0.10566000000E+00 0. -1.
         -4    1    4    4    0  502  0.45357469698E+01  0.60978393138E+03 -0.29420840977E+03  0.67706395883E+03  0.00000000000E+00 0. -1.
<mgrwt>
<rscale>  2 0.10523149E+04</rscale>
<asrwt>0</asrwt>
<pdfrwt beam="1">  1       21 0.91609713E-01 0.10623188E+04</pdfrwt>
<pdfrwt beam="2">  1       21 0.38233292E+00 0.10623188E+04</pdfrwt>
<totfact> 0.34699803E+00</totfact>
</mgrwt>
</event>
<event>
 8    1  0.7631533E-006  0.1010874E+04  0.7818608E-02  0.8770050E-01
         21   -1    0    0  501  502  0.00000000000E+00  0.00000000000E+00  0.61010608259E+03  0.61010608259E+03  0.00000000000E+00 0.  1.
         21   -1    0    0  502  503 -0.00000000000E+00 -0.00000000000E+00 -0.16546757827E+04  0.16546757827E+04  0.00000000000E+00 0.  1.
    9000010    2    1    2  501    0  0.97948538359E+02  0.27954221313E+02 -0.65020046050E+03  0.12019262217E+04  0.10057289142E+04 0.  0.
   -9000010    2    1    2    0  503 -0.97948538359E+02 -0.27954221313E+02 -0.39436923957E+03  0.10628556436E+04  0.98171261950E+03 0.  0.
        -13    1    3    3    0    0 -0.42731856131E+03 -0.28996820732E+01 -0.96492381702E+02  0.43808715102E+03  0.10566000000E+00 0.  1.
          4    1    3    3  501    0  0.52526709967E+03  0.30853903386E+02 -0.55370807880E+03  0.76383907066E+03  0.00000000000E+00 0.  1.
         13    1    4    4    0    0  0.72498848623E+02  0.45452548210E+03 -0.27926799047E+03  0.53836801409E+03  0.10566000000E+00 0. -1.
         -4    1    4    4    0  503 -0.17044738698E+03 -0.48247970341E+03 -0.11510124910E+03  0.52448762948E+03  0.00000000000E+00 0. -1.
<mgrwt>
<rscale>  2 0.10048474E+04</rscale>
<asrwt>0</asrwt>
<pdfrwt beam="1">  1       21 0.93862477E-01 0.10108739E+04</pdfrwt>
<pdfrwt beam="2">  1       21 0.25456550E+00 0.10108739E+04</pdfrwt>
<totfact> 0.26374713E+01</totfact>
</mgrwt>
</event>
<event>
 8    1  0.7631533E-006  0.1154852E+04  0.7818608E-02  0.8642490E-01
         21   -1    0    0  501  502  0.00000000000E+00  0.00000000000E+00  0.38190407295E+03  0.38190407295E+03  0.00000000000E+00 0.  1.
         21   -1    0    0  502  503 -0.00000000000E+00 -0.00000000000E+00 -0.36049734985E+04  0.36049734985E+04  0.00000000000E+00 0.  1.
    9000010    2    1    2  501    0  0.35009378167E+03 -0.46404953273E+03 -0.12290160591E+04  0.16825484285E+04  0.99125229681E+03 0.  0.
   -9000010    2    1    2    0  503 -0.35009378167E+03  0.46404953273E+03 -0.19940533664E+04  0.23043291429E+04  0.99788593836E+03 0.  0.
        -13    1    3    3    0    0  0.37784924312E+03 -0.61292387356E+03 -0.13216244361E+04  0.15050371712E+04  0.10566000000E+00 0.  1.
          4    1    3    3  501    0 -0.27755461450E+02  0.14887434082E+03  0.92608376992E+02  0.17751125735E+03  0.00000000000E+00 0.  1.
         13    1    4    4    0    0 -0.68195801634E+03  0.15065961494E+03 -0.12060394032E+04  0.13936628390E+04  0.10566000000E+00 0. -1.
         -4    1    4    4    0  503  0.33186423467E+03  0.31338991779E+03 -0.78801396320E+03  0.91066630388E+03  0.00000000000E+00 0. -1.
<mgrwt>
<rscale>  2 0.11534179E+04</rscale>
<asrwt>0</asrwt>
<pdfrwt beam="1">  1       21 0.58754471E-01 0.11548524E+04</pdfrwt>
<pdfrwt beam="2">  1       21 0.55461133E+00 0.11548524E+04</pdfrwt>
<totfact> 0.61814643E-01</totfact>
</mgrwt>
</event>
<event>
 8    1  0.7631533E-006  0.1001710E+04  0.7818608E-02  0.8776087E-01
         21   -1    0    0  501  502  0.00000000000E+00  0.00000000000E+00  0.14228136528E+04  0.14228136528E+04  0.00000000000E+00 0.  1.
         21   -1    0    0  502  503 -0.00000000000E+00 -0.00000000000E+00 -0.70348415275E+03  0.70348415275E+03  0.00000000000E+00 0.  1.
    9000010    2    1    2  501    0  0.11153656523E+03  0.78121723970E+01  0.47152287251E+03  0.11071388415E+04  0.99545022957E+03 0.  0.
   -9000010    2    1    2    0  503 -0.11153656523E+03 -0.78121723970E+01  0.24780662755E+03  0.10191589641E+04  0.98222982749E+03 0.  0.
        -13    1    3    3    0    0  0.37020505766E+03  0.15815016962E+03 -0.14010755808E+03  0.42625508779E+03  0.10566000000E+00 0.  1.
          4    1    3    3  501    0 -0.25866849243E+03 -0.15033799722E+03  0.61163043059E+03  0.68088375367E+03  0.00000000000E+00 0.  1.
         13    1    4    4    0    0 -0.20219477079E+03 -0.67506706550E+02  0.60730553463E+03  0.64363025436E+03  0.10566000000E+00 0. -1.
         -4    1    4    4    0  503  0.90658205554E+02  0.59694534153E+02 -0.35949890708E+03  0.37552870974E+03  0.00000000000E+00 0. -1.
<mgrwt>
<rscale>  2 0.99840939E+03</rscale>
<asrwt>0</asrwt>
<pdfrwt beam="1">  1       21 0.21889441E+00 0.10017098E+04</pdfrwt>
<pdfrwt beam="2">  1       21 0.10822833E+00 0.10017098E+04</pdfrwt>
<totfact> 0.33357030E+01</totfact>
</mgrwt>
</event>
<event>
 8    1  0.7631533E-006  0.1031999E+04  0.7818608E-02  0.8748336E-01
         21   -1    0    0  501  502  0.00000000000E+00  0.00000000000E+00  0.22161606743E+04  0.22161606743E+04  0.00000000000E+00 0. -1.
         21   -1    0    0  502  503 -0.00000000000E+00 -0.00000000000E+00 -0.98498287966E+03  0.98498287966E+03  0.00000000000E+00 0. -1.
    9000010    2    1    2  501    0  0.28065320301E+03 -0.10423142050E+02  0.17704986160E+04  0.20493136940E+04  0.99304904462E+03 0.  0.
   -9000010    2    1    2    0  503 -0.28065320301E+03  0.10423142050E+02 -0.53932082136E+03  0.11518298599E+04  0.97824854492E+03 0.  0.
        -13    1    3    3    0    0  0.30025871366E+03 -0.43285999771E+03  0.56833375866E+03  0.77493634909E+03  0.10566000000E+00 0.  1.
          4    1    3    3  501    0 -0.19605510649E+02  0.42243685565E+03  0.12021648574E+04  0.12743773450E+04  0.00000000000E+00 0.  1.
         13    1    4    4    0    0  0.12064364679E+03  0.43212322476E+02 -0.70491806183E+03  0.71647168777E+03  0.10566000000E+00 0. -1.
         -4    1    4    4    0  503 -0.40129684981E+03 -0.32789180426E+02  0.16559724047E+03  0.43535817216E+03  0.00000000000E+00 0. -1.
<mgrwt>
<rscale>  2 0.10284216E+04</rscale>
<asrwt>0</asrwt>
<pdfrwt beam="1">  1       21 0.34094779E+00 0.10319987E+04</pdfrwt>
<pdfrwt beam="2">  1       21 0.15153583E+00 0.10319987E+04</pdfrwt>
<totfact> 0.16744246E+00</totfact>
</mgrwt>
</event>
<event>
 8    1  0.8113068E-006  0.9878701E+03  0.7818608E-02  0.8802319E-01
         21   -1    0    0  503  502  0.00000000000E+00  0.00000000000E+00  0.13638382776E+04  0.13638382776E+04  0.00000000000E+00 0.  1.
         21   -1    0    0  501  503 -0.00000000000E+00 -0.00000000000E+00 -0.68975950358E+03  0.68975950358E+03  0.00000000000E+00 0.  1.
    9000010    2    1    2  501    0 -0.17359380045E+02 -0.21184104607E+02  0.16905371717E+03  0.10022307576E+04  0.98749036340E+03 0.  0.
   -9000010    2    1    2    0  502  0.17359380045E+02  0.21184104607E+02  0.50502505686E+03  0.10513670236E+04  0.92172240718E+03 0.  0.
        -13    1    3    3    0    0 -0.46358968217E+03 -0.18197232011E+03 -0.19573928484E+01  0.49802927750E+03  0.10566000000E+00 0.  1.
          4    1    3    3  501    0  0.44623030212E+03  0.16078821550E+03  0.17101111002E+03  0.50420148009E+03  0.00000000000E+00 0.  1.
         13    1    4    4    0    0  0.42107164625E+03  0.12295660740E+03  0.61333838902E+02  0.44292381911E+03  0.10566000000E+00 0. -1.
         -4    1    4    4    0  502 -0.40371226620E+03 -0.10177250279E+03  0.44369121796E+03  0.60844320450E+03  0.00000000000E+00 0. -1.
<mgrwt>
<rscale>  2 0.97100804E+03</rscale>
<asrwt>0</asrwt>
<pdfrwt beam="1">  1       21 0.20982127E+00 0.98787010E+03</pdfrwt>
<pdfrwt beam="2">  1       21 0.10611685E+00 0.98787010E+03</pdfrwt>
<totfact> 0.41340335E+01</totfact>
</mgrwt>
</event>
<event>
 8    1  0.7631533E-006  0.1044135E+04  0.7818608E-02  0.8744168E-01
         21   -1    0    0  503  502  0.00000000000E+00  0.00000000000E+00  0.12623415554E+04  0.12623415554E+04  0.00000000000E+00 0.  1.
         21   -1    0    0  501  503 -0.00000000000E+00 -0.00000000000E+00 -0.10696407285E+04  0.10696407285E+04  0.00000000000E+00 0.  1.
    9000010    2    1    2  501    0  0.65328366689E+02 -0.23401762157E+02 -0.45632802604E+03  0.11394971814E+04  0.10418268191E+04 0.  0.
   -9000010    2    1    2    0  502 -0.65328366689E+02  0.23401762157E+02  0.64902885292E+03  0.11924851025E+04  0.99798137751E+03 0.  0.
        -13    1    3    3    0    0  0.52346682180E+03  0.16469303568E+03 -0.24862414842E+03  0.60245770629E+03  0.10566000000E+00 0.  1.
          4    1    3    3  501    0 -0.45813845512E+03 -0.18809479783E+03 -0.20770387762E+03  0.53703947509E+03  0.00000000000E+00 0.  1.
         13    1    4    4    0    0  0.31427786528E+03 -0.34088233460E+03  0.39094191820E+03  0.60647088736E+03  0.10566000000E+00 0. -1.
         -4    1    4    4    0  502 -0.37960623197E+03  0.36428409675E+03  0.25808693472E+03  0.58601421516E+03  0.00000000000E+00 0. -1.
<mgrwt>
<rscale>  2 0.10330231E+04</rscale>
<asrwt>0</asrwt>
<pdfrwt beam="1">  1       21 0.19420639E+00 0.10441353E+04</pdfrwt>
<pdfrwt beam="2">  1       21 0.16456011E+00 0.10441353E+04</pdfrwt>
<totfact> 0.14980732E+01</totfact>
</mgrwt>
</event>
<event>
 8    1  0.7631533E-006  0.1181327E+04  0.7818608E-02  0.8635078E-01
         21   -1    0    0  501  502  0.00000000000E+00  0.00000000000E+00  0.18356387601E+04  0.18356387601E+04  0.00000000000E+00 0. -1.
         21   -1    0    0  502  503 -0.00000000000E+00 -0.00000000000E+00 -0.92957736889E+03  0.92957736889E+03  0.00000000000E+00 0.  1.
    9000010    2    1    2  501    0  0.54183994231E+03 -0.24028661845E+03  0.11288245188E+04  0.16339454894E+04  0.10218634380E+04 0.  0.
   -9000010    2    1    2    0  503 -0.54183994231E+03  0.24028661845E+03 -0.22276312758E+03  0.11312706396E+04  0.93745488793E+03 0.  0.
        -13    1    3    3    0    0  0.81707109574E+03 -0.34479729323E+03  0.83930999122E+03  0.12210371090E+04  0.10566000000E+00 0.  1.
          4    1    3    3  501    0 -0.27523115343E+03  0.10451067478E+03  0.28951452755E+03  0.41290838042E+03  0.00000000000E+00 0.  1.
         13    1    4    4    0    0 -0.39216615581E+03  0.56350277921E+03  0.41450473358E+02  0.68778472565E+03  0.10566000000E+00 0. -1.
         -4    1    4    4    0  503 -0.14967378650E+03 -0.32321616076E+03 -0.26421360094E+03  0.44348591394E+03  0.00000000000E+00 0. -1.
<mgrwt>
<rscale>  2 0.11628463E+04</rscale>
<asrwt>0</asrwt>
<pdfrwt beam="1">  1       21 0.28240596E+00 0.11813268E+04</pdfrwt>
<pdfrwt beam="2">  1       21 0.14301190E+00 0.11813268E+04</pdfrwt>
<totfact> 0.49924802E+00</totfact>
</mgrwt>
</event>
<event>
 8    1  0.7631533E-006  0.1026292E+04  0.7818608E-02  0.8753627E-01
         21   -1    0    0  503  502  0.00000000000E+00  0.00000000000E+00  0.75647300607E+03  0.75647300607E+03  0.00000000000E+00 0. -1.
         21   -1    0    0  501  503 -0.00000000000E+00 -0.00000000000E+00 -0.14328881733E+04  0.14328881733E+04  0.00000000000E+00 0. -1.
    9000010    2    1    2  501    0 -0.11540187997E+03  0.19401193138E+02 -0.56045250246E+03  0.11565384581E+04  0.10048782003E+04 0.  0.
   -9000010    2    1    2    0  502  0.11540187997E+03 -0.19401193138E+02 -0.11596266474E+03  0.10328227212E+04  0.10195986630E+04 0.  0.
        -13    1    3    3    0    0  0.43877029661E+03 -0.77461752788E+02 -0.19991900055E+03  0.48835162975E+03  0.10566000000E+00 0.  1.
          4    1    3    3  501    0 -0.55417217658E+03  0.96862945926E+02 -0.36053350190E+03  0.66818682836E+03  0.00000000000E+00 0.  1.
         13    1    4    4    0    0  0.46436185309E+03 -0.27939254456E+03 -0.22083210670E+03  0.58519992744E+03  0.10566000000E+00 0. -1.
         -4    1    4    4    0  502 -0.34895997312E+03  0.25999135142E+03  0.10486944197E+03  0.44762279378E+03  0.00000000000E+00 0. -1.
<mgrwt>
<rscale>  2 0.10226166E+04</rscale>
<asrwt>0</asrwt>
<pdfrwt beam="1">  1       21 0.11638046E+00 0.10262921E+04</pdfrwt>
<pdfrwt beam="2">  1       21 0.22044433E+00 0.10262921E+04</pdfrwt>
<totfact> 0.26486644E+01</totfact>
</mgrwt>
</event>
<event>
 8    1  0.7631533E-006  0.1021017E+04  0.7818608E-02  0.8756394E-01
         21   -1    0    0  503  502  0.00000000000E+00  0.00000000000E+00  0.58094888925E+03  0.58094888925E+03  0.00000000000E+00 0.  1.
         21   -1    0    0  501  503 -0.00000000000E+00 -0.00000000000E+00 -0.20171672145E+04  0.20171672145E+04  0.00000000000E+00 0.  1.
    9000010    2    1    2  501    0  0.17442581212E+03 -0.82176022924E+02 -0.11610849152E+04  0.15461548385E+04  0.10026461696E+04 0.  0.
   -9000010    2    1    2    0  502 -0.17442581212E+03  0.82176022924E+02 -0.27513341005E+03  0.10519612653E+04  0.99686852080E+03 0.  0.
        -13    1    3    3    0    0 -0.10016877186E+03  0.12279069638E+03  0.13336672209E+03  0.20711840020E+03  0.10566000000E+00 0.  1.
          4    1    3    3  501    0  0.27459458398E+03 -0.20496671931E+03 -0.12944516373E+04  0.13390364383E+04  0.00000000000E+00 0.  1.
         13    1    4    4    0    0 -0.19652293198E+03 -0.28049983316E+03 -0.51361913095E+03  0.61733786701E+03  0.10566000000E+00 0. -1.
         -4    1    4    4    0  502  0.22097119863E+02  0.36267585609E+03  0.23848572090E+03  0.43462339832E+03  0.00000000000E+00 0. -1.
<mgrwt>
<rscale>  2 0.10195962E+04</rscale>
<asrwt>0</asrwt>
<pdfrwt beam="1">  1       21 0.89376753E-01 0.10210174E+04</pdfrwt>
<pdfrwt beam="2">  1       21 0.31033342E+00 0.10210174E+04</pdfrwt>
<totfact> 0.11944870E+01</totfact>
</mgrwt>
</event>
<event>
 8    1  0.7631533E-006  0.1044357E+04  0.7818608E-02  0.8736469E-01
         21   -1    0    0  503  502  0.00000000000E+00  0.00000000000E+00  0.10591148650E+04  0.10591148650E+04  0.00000000000E+00 0. -1.
         21   -1    0    0  501  503 -0.00000000000E+00 -0.00000000000E+00 -0.11366971258E+04  0.11366971258E+04  0.00000000000E+00 0. -1.
    9000010    2    1    2  501    0 -0.16098703219E+03 -0.22411795700E+03  0.31474802402E+03  0.10801931390E+04  0.99579376168E+03 0.  0.
   -9000010    2    1    2    0  502  0.16098703219E+03  0.22411795700E+03 -0.39233028483E+03  0.11156188517E+04  0.10072421192E+04 0.  0.
        -13    1    3    3    0    0  0.15507449875E+03 -0.54772221543E+03  0.94366570933E+02  0.57702061169E+03  0.10566000000E+00 0.  1.
          4    1    3    3  501    0 -0.31606153095E+03  0.32360425842E+03  0.22038145309E+03  0.50317252735E+03  0.00000000000E+00 0.  1.
         13    1    4    4    0    0  0.58713534800E+03  0.16075490035E+03 -0.17690376496E+03  0.63392823575E+03  0.10566000000E+00 0. -1.
         -4    1    4    4    0  502 -0.42614831581E+03  0.63363056657E+02 -0.21542651987E+03  0.48169061593E+03  0.00000000000E+00 0. -1.
<mgrwt>
<rscale>  2 0.10415871E+04</rscale>
<asrwt>0</asrwt>
<pdfrwt beam="1">  1       21 0.16294075E+00 0.10443574E+04</pdfrwt>
<pdfrwt beam="2">  1       21 0.17487648E+00 0.10443574E+04</pdfrwt>
<totfact> 0.22153302E+01</totfact>
</mgrwt>
</event>
<event>
 8    1  0.7631533E-006  0.1134961E+04  0.7818608E-02  0.8675720E-01
         21   -1    0    0  501  502  0.00000000000E+00  0.00000000000E+00  0.85095941561E+03  0.85095941561E+03  0.00000000000E+00 0. -1.
         21   -1    0    0  502  503 -0.00000000000E+00 -0.00000000000E+00 -0.18629820878E+04  0.18629820878E+04  0.00000000000E+00 0. -1.
    9000010    2    1    2  501    0 -0.26843699522E+03 -0.16664518582E+03  0.15574655959E+03  0.11455974989E+04  0.10900952254E+04 0.  0.
   -9000010    2    1    2    0  503  0.26843699522E+03  0.16664518582E+03 -0.11677692318E+04  0.15683440045E+04  0.99809263069E+03 0.  0.
        -13    1    3    3    0    0  0.18441005614E+03  0.11139117210E+03  0.47787535141E+03  0.52419454851E+03  0.10566000000E+00 0.  1.
          4    1    3    3  501    0 -0.45284705136E+03 -0.27803635792E+03 -0.32212879183E+03  0.62140295041E+03  0.00000000000E+00 0.  1.
         13    1    4    4    0    0  0.12579857775E+03  0.50708620539E+03 -0.10633113484E+04  0.11847331922E+04  0.10566000000E+00 0. -1.
         -4    1    4    4    0  503  0.14263841747E+03 -0.34044101957E+03 -0.10445788340E+03  0.38361081234E+03  0.00000000000E+00 0. -1.
<mgrwt>
<rscale>  2 0.11122769E+04</rscale>
<asrwt>0</asrwt>
<pdfrwt beam="1">  1       21 0.13091683E+00 0.11349611E+04</pdfrwt>
<pdfrwt beam="2">  1       21 0.28661263E+00 0.11349611E+04</pdfrwt>
<totfact> 0.61143860E+00</totfact>
</mgrwt>
</event>
<event>
 8    1  0.7631533E-006  0.1024486E+04  0.7818608E-02  0.8754471E-01
         21   -1    0    0  501  502  0.00000000000E+00  0.00000000000E+00  0.23369116519E+04  0.23369116519E+04  0.00000000000E+00 0. -1.
         21   -1    0    0  502  503 -0.00000000000E+00 -0.00000000000E+00 -0.59983253637E+03  0.59983253637E+03  0.00000000000E+00 0. -1.
    9000010    2    1    2  501    0 -0.51131218700E+02  0.12106211276E+03  0.16128106666E+04  0.19047488605E+04  0.10048082098E+04 0.  0.
   -9000010    2    1    2    0  503  0.51131218700E+02 -0.12106211276E+03  0.12426844890E+03  0.10319953278E+04  0.10160222795E+04 0.  0.
        -13    1    3    3    0    0 -0.47915828970E+03  0.21851039049E+03  0.11607023043E+04  0.12745859358E+04  0.10566000000E+00 0.  1.
          4    1    3    3  501    0  0.42802707100E+03 -0.97448277727E+02  0.45210836226E+03  0.63016292462E+03  0.00000000000E+00 0.  1.
         13    1    4    4    0    0  0.23022563046E+03 -0.49019410986E+03 -0.11972467432E+03  0.55464233076E+03  0.10566000000E+00 0. -1.
         -4    1    4    4    0  503 -0.17909441176E+03  0.36913199710E+03  0.24399312322E+03  0.47735299704E+03  0.00000000000E+00 0. -1.
<mgrwt>
<rscale>  2 0.10216946E+04</rscale>
<asrwt>0</asrwt>
<pdfrwt beam="1">  1       21 0.35952486E+00 0.10244861E+04</pdfrwt>
<pdfrwt beam="2">  1       21 0.92281930E-01 0.10244861E+04</pdfrwt>
<totfact> 0.49662472E+00</totfact>
</mgrwt>
</event>
<event>
 8    1  0.7631533E-006  0.1021637E+04  0.7818608E-02  0.8754908E-01
         21   -1    0    0  501  502  0.00000000000E+00  0.00000000000E+00  0.17633905026E+04  0.17633905026E+04  0.00000000000E+00 0. -1.
         21   -1    0    0  502  503 -0.00000000000E+00 -0.00000000000E+00 -0.64801324435E+03  0.64801324435E+03  0.00000000000E+00 0. -1.
    9000010    2    1    2  501    0 -0.16324765836E+03  0.23611343003E+02  0.91514202439E+03  0.13703287751E+04  0.10065330266E+04 0.  0.
   -9000010    2    1    2    0  503  0.16324765836E+03 -0.23611343003E+02  0.20023523390E+03  0.10410749718E+04  0.10082339285E+04 0.  0.
        -13    1    3    3    0    0 -0.50634375904E+03 -0.25834835580E+03  0.43104372831E+03  0.71339090416E+03  0.10566000000E+00 0.  1.
          4    1    3    3  501    0  0.34309610068E+03  0.28195969881E+03  0.48409829609E+03  0.65693787098E+03  0.00000000000E+00 0.  1.
         13    1    4    4    0    0  0.44486532824E+03 -0.46079049698E+02 -0.24787578825E+03  0.51134221091E+03  0.10566000000E+00 0. -1.
         -4    1    4    4    0  503 -0.28161766988E+03  0.22467706694E+02  0.44811102215E+03  0.52973276093E+03  0.00000000000E+00 0. -1.
<mgrwt>
<rscale>  2 0.10212175E+04</rscale>
<asrwt>0</asrwt>
<pdfrwt beam="1">  1       21 0.27129084E+00 0.10216374E+04</pdfrwt>
<pdfrwt beam="2">  1       21 0.99694346E-01 0.10216374E+04</pdfrwt>
<totfact> 0.17072445E+01</totfact>
</mgrwt>
</event>
<event>
 8    1  0.7631533E-006  0.1000072E+04  0.7818608E-02  0.8775768E-01
         21   -1    0    0  501  502  0.00000000000E+00  0.00000000000E+00  0.14219338834E+04  0.14219338834E+04  0.00000000000E+00 0. -1.
         21   -1    0    0  502  503 -0.00000000000E+00 -0.00000000000E+00 -0.78106548770E+03  0.78106548770E+03  0.00000000000E+00 0. -1.
    9000010    2    1    2  501    0  0.43477496586E+02 -0.24656582446E+02 -0.35931069720E+02  0.99543944580E+03  0.99353430173E+03 0.  0.
   -9000010    2    1    2    0  503 -0.43477496586E+02  0.24656582446E+02  0.67679946544E+03  0.12075599253E+04  0.99882191459E+03 0.  0.
        -13    1    3    3    0    0  0.54517328382E+02 -0.22635260400E+03 -0.46564937090E+03  0.52061212838E+03  0.10566000000E+00 0.  1.
          4    1    3    3  501    0 -0.11039831796E+02  0.20169602156E+03  0.42971830118E+03  0.47482731742E+03  0.00000000000E+00 0.  1.
         13    1    4    4    0    0  0.10178779076E+03 -0.17033425211E+03  0.87290874212E+03  0.89517830348E+03  0.10566000000E+00 0. -1.
         -4    1    4    4    0  503 -0.14526528734E+03  0.19499083456E+03 -0.19610927667E+03  0.31238162185E+03  0.00000000000E+00 0. -1.
<mgrwt>
<rscale>  2 0.99874886E+03</rscale>
<asrwt>0</asrwt>
<pdfrwt beam="1">  1       21 0.21875906E+00 0.10000717E+04</pdfrwt>
<pdfrwt beam="2">  1       21 0.12016392E+00 0.10000717E+04</pdfrwt>
<totfact> 0.25105841E+01</totfact>
</mgrwt>
</event>
<event>
 8    1  0.7631533E-006  0.1102221E+04  0.7818608E-02  0.8687441E-01
         21   -1    0    0  501  502  0.00000000000E+00  0.00000000000E+00  0.24803349872E+04  0.24803349872E+04  0.00000000000E+00 0.  1.
         21   -1    0    0  502  503 -0.00000000000E+00 -0.00000000000E+00 -0.49203513534E+03  0.49203513534E+03  0.00000000000E+00 0. -1.
    9000010    2    1    2  501    0  0.24281312742E+03  0.37282900567E+03  0.12058396815E+04  0.16336890937E+04  0.10084299853E+04 0.  0.
   -9000010    2    1    2    0  503 -0.24281312742E+03 -0.37282900567E+03  0.78246017030E+03  0.13386810288E+04  0.99089015352E+03 0.  0.
        -13    1    3    3    0    0  0.41365585124E+03  0.17295875068E+03  0.12834722642E+04  0.13595318888E+04  0.10566000000E+00 0.  1.
          4    1    3    3  501    0 -0.17084272382E+03  0.19987025499E+03 -0.77632582648E+02  0.27415720491E+03  0.00000000000E+00 0.  1.
         13    1    4    4    0    0  0.63561241244E+02  0.31298130963E+03  0.13393669692E+03  0.34631832396E+03  0.10566000000E+00 0. -1.
         -4    1    4    4    0  503 -0.30637436866E+03 -0.68581031530E+03  0.64852347338E+03  0.99236270480E+03  0.00000000000E+00 0. -1.
<mgrwt>
<rscale>  2 0.10981927E+04</rscale>
<asrwt>0</asrwt>
<pdfrwt beam="1">  1       21 0.38158999E+00 0.11022208E+04</pdfrwt>
<pdfrwt beam="2">  1       21 0.75697715E-01 0.11022208E+04</pdfrwt>
<totfact> 0.56019265E+00</totfact>
</mgrwt>
</event>
<event>
 8    1  0.7631533E-006  0.1008151E+04  0.7818608E-02  0.8767938E-01
         21   -1    0    0  503  502  0.00000000000E+00  0.00000000000E+00  0.13016626563E+04  0.13016626563E+04  0.00000000000E+00 0.  1.
         21   -1    0    0  501  503 -0.00000000000E+00 -0.00000000000E+00 -0.79067027269E+03  0.79067027269E+03  0.00000000000E+00 0.  1.
    9000010    2    1    2  501    0  0.13614615995E+02  0.14581930428E+03  0.38942663758E+03  0.10768787290E+04  0.99326032015E+03 0.  0.
   -9000010    2    1    2    0  502 -0.13614615995E+02 -0.14581930428E+03  0.12156574604E+03  0.10154542000E+04  0.99745695370E+03 0.  0.
        -13    1    3    3    0    0  0.37440833325E+03  0.83000045501E+02  0.55529101583E+03  0.67484719084E+03  0.10566000000E+00 0.  1.
          4    1    3    3  501    0 -0.36079371725E+03  0.62819258776E+02 -0.16586437825E+03  0.40203153813E+03  0.00000000000E+00 0.  1.
         13    1    4    4    0    0  0.24046249083E+03 -0.50091712253E+03  0.15695940298E+03  0.57738759814E+03  0.10566000000E+00 0. -1.
         -4    1    4    4    0  502 -0.25407710682E+03  0.35509781825E+03 -0.35393656940E+02  0.43806660189E+03  0.00000000000E+00 0. -1.
<mgrwt>
<rscale>  2 0.10071117E+04</rscale>
<asrwt>0</asrwt>
<pdfrwt beam="1">  1       21 0.20025579E+00 0.10081513E+04</pdfrwt>
<pdfrwt beam="2">  1       21 0.12164158E+00 0.10081513E+04</pdfrwt>
<totfact> 0.33563591E+01</totfact>
</mgrwt>
</event>
<event>
 8    1  0.7631533E-006  0.1041027E+04  0.7818608E-02  0.8741824E-01
         21   -1    0    0  501  502  0.00000000000E+00  0.00000000000E+00  0.23733773101E+04  0.23733773101E+04  0.00000000000E+00 0. -1.
         21   -1    0    0  502  503 -0.00000000000E+00 -0.00000000000E+00 -0.93646862023E+03  0.93646862023E+03  0.00000000000E+00 0. -1.
    9000010    2    1    2  501    0  0.20122226632E+03  0.19229575272E+02  0.19181253147E+04  0.21824163005E+04  0.10212130086E+04 0.  0.
   -9000010    2    1    2    0  503 -0.20122226632E+03 -0.19229575272E+02 -0.48121662478E+03  0.11274296298E+04  0.99933375467E+03 0.  0.
        -13    1    3    3    0    0  0.11467187203E+03 -0.50008589994E+03  0.10049468955E+04  0.11283411804E+04  0.10566000000E+00 0.  1.
          4    1    3    3  501    0  0.86550394285E+02  0.51931547521E+03  0.91317841918E+03  0.10540751201E+04  0.00000000000E+00 0.  1.
         13    1    4    4    0    0 -0.41598551797E+02  0.12546975377E+03 -0.76207463839E+03  0.77345385400E+03  0.10566000000E+00 0. -1.
         -4    1    4    4    0  503 -0.15962371452E+03 -0.14469932904E+03  0.28085801362E+03  0.35397577583E+03  0.00000000000E+00 0. -1.
<mgrwt>
<rscale>  2 0.10356211E+04</rscale>
<asrwt>0</asrwt>
<pdfrwt beam="1">  1       21 0.36513497E+00 0.10410265E+04</pdfrwt>
<pdfrwt beam="2">  1       21 0.14407210E+00 0.10410265E+04</pdfrwt>
<totfact> 0.13192291E+00</totfact>
</mgrwt>
</event>
<event>
 8    1  0.7631533E-006  0.1133346E+04  0.7818608E-02  0.8659215E-01
         21   -1    0    0  501  502  0.00000000000E+00  0.00000000000E+00  0.11343128627E+04  0.11343128627E+04  0.00000000000E+00 0.  1.
         21   -1    0    0  502  503 -0.00000000000E+00 -0.00000000000E+00 -0.12137340467E+04  0.12137340467E+04  0.00000000000E+00 0.  1.
    9000010    2    1    2  501    0  0.47377416430E+03 -0.29572622503E+03  0.27065441986E+03  0.11618653733E+04  0.98222266909E+03 0.  0.
   -9000010    2    1    2    0  503 -0.47377416430E+03  0.29572622503E+03 -0.35007560388E+03  0.11861815361E+04  0.98618342571E+03 0.  0.
        -13    1    3    3    0    0 -0.18318231966E+03 -0.16108455056E+02  0.39631983732E+03  0.43690350099E+03  0.10566000000E+00 0.  1.
          4    1    3    3  501    0  0.65695648397E+03 -0.27961776998E+03 -0.12566541745E+03  0.72496187228E+03  0.00000000000E+00 0.  1.
         13    1    4    4    0    0 -0.13070916855E+03 -0.35515837946E+03 -0.22378247475E+03  0.43966006006E+03  0.10566000000E+00 0. -1.
         -4    1    4    4    0  503 -0.34306499575E+03  0.65088460449E+03 -0.12629312913E+03  0.74652147601E+03  0.00000000000E+00 0. -1.
<mgrwt>
<rscale>  2 0.11324841E+04</rscale>
<asrwt>0</asrwt>
<pdfrwt beam="1">  1       21 0.17450967E+00 0.11333462E+04</pdfrwt>
<pdfrwt beam="2">  1       21 0.18672831E+00 0.11333462E+04</pdfrwt>
<totfact> 0.13895418E+01</totfact>
</mgrwt>
</event>
<event>
 8    1  0.7631533E-006  0.1014891E+04  0.7818608E-02  0.8762973E-01
         21   -1    0    0  501  502  0.00000000000E+00  0.00000000000E+00  0.17276287670E+04  0.17276287670E+04  0.00000000000E+00 0. -1.
         21   -1    0    0  502  503 -0.00000000000E+00 -0.00000000000E+00 -0.77814311668E+03  0.77814311668E+03  0.00000000000E+00 0. -1.
    9000010    2    1    2  501    0 -0.15489955634E+03 -0.34786329354E+01  0.10882325130E+04  0.14814406351E+04  0.99318194685E+03 0.  0.
   -9000010    2    1    2    0  503  0.15489955634E+03  0.34786329354E+01 -0.13874686272E+03  0.10243312485E+04  0.10029944374E+04 0.  0.
        -13    1    3    3    0    0 -0.48479982266E+03 -0.11743252076E+03  0.21904727610E+03  0.54479627873E+03  0.10566000000E+00 0.  1.
          4    1    3    3  501    0  0.32990026633E+03  0.11395388782E+03  0.86918523693E+03  0.93664435640E+03  0.00000000000E+00 0.  1.
         13    1    4    4    0    0  0.15548560213E+03 -0.42212165323E+02  0.42718511774E+03  0.45655752688E+03  0.10566000000E+00 0. -1.
         -4    1    4    4    0  503 -0.58604578913E+00  0.45690798258E+02 -0.56593198046E+03  0.56777372166E+03  0.00000000000E+00 0. -1.
<mgrwt>
<rscale>  2 0.10124582E+04</rscale>
<asrwt>0</asrwt>
<pdfrwt beam="1">  1       21 0.26578904E+00 0.10148910E+04</pdfrwt>
<pdfrwt beam="2">  1       21 0.11971433E+00 0.10148910E+04</pdfrwt>
<totfact> 0.11421287E+01</totfact>
</mgrwt>
</event>
<event>
 8    1  0.7631533E-006  0.9830967E+03  0.7818608E-02  0.8797508E-01
         21   -1    0    0  501  502  0.00000000000E+00  0.00000000000E+00  0.12068609777E+04  0.12068609777E+04  0.00000000000E+00 0. -1.
         21   -1    0    0  502  503 -0.00000000000E+00 -0.00000000000E+00 -0.99827075288E+03  0.99827075288E+03  0.00000000000E+00 0. -1.
    9000010    2    1    2  501    0  0.18735894860E+02  0.22635526276E+01  0.62335212918E+03  0.11640648909E+04  0.98291557916E+03 0.  0.
   -9000010    2    1    2    0  503 -0.18735894860E+02 -0.22635526276E+01 -0.41476190432E+03  0.10410668398E+04  0.95469187184E+03 0.  0.
        -13    1    3    3    0    0 -0.27698581511E+03  0.85120989225E+02 -0.15406834413E+03  0.32818255652E+03  0.10566000000E+00 0.  1.
          4    1    3    3  501    0  0.29572170997E+03 -0.82857436597E+02  0.77742047331E+03  0.83588233434E+03  0.00000000000E+00 0.  1.
         13    1    4    4    0    0 -0.27727912769E+03  0.92843097189E+02  0.20883830584E+03  0.35932854673E+03  0.10566000000E+00 0. -1.
         -4    1    4    4    0  503  0.25854323283E+03 -0.95106649817E+02 -0.62360021015E+03  0.68173829303E+03  0.00000000000E+00 0. -1.
<mgrwt>
<rscale>  2 0.97596492E+03</rscale>
<asrwt>0</asrwt>
<pdfrwt beam="1">  1       21 0.18567092E+00 0.98309674E+03</pdfrwt>
<pdfrwt beam="2">  1       21 0.15358012E+00 0.98309674E+03</pdfrwt>
<totfact> 0.22123941E+01</totfact>
</mgrwt>
</event>
<event>
 8    1  0.7631533E-006  0.1008530E+04  0.7818608E-02  0.8769000E-01
         21   -1    0    0  501  502  0.00000000000E+00  0.00000000000E+00  0.76839968441E+03  0.76839968441E+03  0.00000000000E+00 0. -1.
         21   -1    0    0  502  503 -0.00000000000E+00 -0.00000000000E+00 -0.13593316406E+04  0.13593316406E+04  0.00000000000E+00 0. -1.
    9000010    2    1    2  501    0 -0.35326804977E+02  0.98056574407E+02 -0.94988510708E+02  0.10129936304E+04  0.10031302025E+04 0.  0.
   -9000010    2    1    2    0  503  0.35326804977E+02 -0.98056574407E+02 -0.49594344547E+03  0.11147376946E+04  0.99288325182E+03 0.  0.
        -13    1    3    3    0    0 -0.23403190459E+02  0.51465934510E+03  0.14087922876E+03  0.53410571901E+03  0.10566000000E+00 0.  1.
          4    1    3    3  501    0 -0.11923614517E+02 -0.41660277069E+03 -0.23586773947E+03  0.47888791137E+03  0.00000000000E+00 0.  1.
         13    1    4    4    0    0 -0.21660632722E+03 -0.79001903967E+02  0.24229381972E+03  0.33446361246E+03  0.10566000000E+00 0. -1.
         -4    1    4    4    0  503  0.25193313220E+03 -0.19054670440E+02 -0.73823726519E+03  0.78027408215E+03  0.00000000000E+00 0. -1.
<mgrwt>
<rscale>  2 0.10059727E+04</rscale>
<asrwt>0</asrwt>
<pdfrwt beam="1">  1       21 0.11821534E+00 0.10085303E+04</pdfrwt>
<pdfrwt beam="2">  1       21 0.20912794E+00 0.10085303E+04</pdfrwt>
<totfact> 0.31039519E+01</totfact>
</mgrwt>
</event>
<event>
 8    1  0.7631533E-006  0.1037211E+04  0.7818608E-02  0.8741433E-01
         21   -1    0    0  501  502  0.00000000000E+00  0.00000000000E+00  0.82726721714E+03  0.82726721714E+03  0.00000000000E+00 0.  1.
         21   -1    0    0  502  503 -0.00000000000E+00 -0.00000000000E+00 -0.13891581683E+04  0.13891581683E+04  0.00000000000E+00 0.  1.
    9000010    2    1    2  501    0  0.27833599919E+03  0.27366532250E+02  0.75196282940E+01  0.10372377741E+04  0.99879217044E+03 0.  0.
   -9000010    2    1    2    0  503 -0.27833599919E+03 -0.27366532250E+02 -0.56941057945E+03  0.11791876113E+04  0.99399957702E+03 0.  0.
        -13    1    3    3    0    0 -0.30919094596E+03  0.16462997027E+03 -0.19487541560E+03  0.40084723642E+03  0.10566000000E+00 0.  1.
          4    1    3    3  501    0  0.58752694515E+03 -0.13726343802E+03  0.20239504389E+03  0.63639053771E+03  0.00000000000E+00 0.  1.
         13    1    4    4    0    0 -0.64708466759E+03  0.45095248460E+02 -0.28807807952E+03  0.70974723636E+03  0.10566000000E+00 0. -1.
         -4    1    4    4    0  503  0.36874866839E+03 -0.72461780710E+02 -0.28133249993E+03  0.46944037494E+03  0.00000000000E+00 0. -1.
<mgrwt>
<rscale>  2 0.10360550E+04</rscale>
<asrwt>0</asrwt>
<pdfrwt beam="1">  1       21 0.12727188E+00 0.10372105E+04</pdfrwt>
<pdfrwt beam="2">  1       21 0.21371664E+00 0.10372105E+04</pdfrwt>
<totfact> 0.23097992E+01</totfact>
</mgrwt>
</event>
<event>
 8    1  0.7631533E-006  0.1043653E+04  0.7818608E-02  0.8738750E-01
         21   -1    0    0  503  502  0.00000000000E+00  0.00000000000E+00  0.71733805134E+03  0.71733805134E+03  0.00000000000E+00 0.  1.
         21   -1    0    0  501  503 -0.00000000000E+00 -0.00000000000E+00 -0.15522111985E+04  0.15522111985E+04  0.00000000000E+00 0.  1.
    9000010    2    1    2  501    0 -0.10681842101E+03 -0.25833094828E+03 -0.19724209411E+03  0.10621278556E+04  0.10055178188E+04 0.  0.
   -9000010    2    1    2    0  502  0.10681842101E+03  0.25833094828E+03 -0.63763105309E+03  0.12074213943E+04  0.98648264538E+03 0.  0.
        -13    1    3    3    0    0  0.30101939162E+03  0.19585987597E+03  0.11418988202E+03  0.37684626237E+03  0.10566000000E+00 0.  1.
          4    1    3    3  501    0 -0.40783781263E+03 -0.45419082424E+03 -0.31143197614E+03  0.68528159321E+03  0.00000000000E+00 0.  1.
         13    1    4    4    0    0  0.36326190340E+03  0.15554749305E+03  0.11015655574E+03  0.41023007081E+03  0.10566000000E+00 0. -1.
         -4    1    4    4    0  502 -0.25644348240E+03  0.10278345523E+03 -0.74778760882E+03  0.79719132349E+03  0.00000000000E+00 0. -1.
<mgrwt>
<rscale>  2 0.10390406E+04</rscale>
<asrwt>0</asrwt>
<pdfrwt beam="1">  1       21 0.11035970E+00 0.10436528E+04</pdfrwt>
<pdfrwt beam="2">  1       21 0.23880172E+00 0.10436528E+04</pdfrwt>
<totfact> 0.22283530E+01</totfact>
</mgrwt>
</event>
<event>
 8    1  0.7631533E-006  0.1031305E+04  0.7818608E-02  0.8757016E-01
         21   -1    0    0  501  502  0.00000000000E+00  0.00000000000E+00  0.80476362859E+03  0.80476362859E+03  0.00000000000E+00 0. -1.
         21   -1    0    0  502  503 -0.00000000000E+00 -0.00000000000E+00 -0.13474149985E+04  0.13474149985E+04  0.00000000000E+00 0. -1.
    9000010    2    1    2  501    0  0.20196976712E+03 -0.99232125820E+02 -0.34384363001E+01  0.10313102901E+04  0.10064543159E+04 0.  0.
   -9000010    2    1    2    0  503 -0.20196976712E+03  0.99232125820E+02 -0.53921293363E+03  0.11208683370E+04  0.95653355376E+03 0.  0.
        -13    1    3    3    0    0 -0.28815680782E+03  0.57455671059E+02 -0.31420434158E+03  0.43018586618E+03  0.10566000000E+00 0.  1.
          4    1    3    3  501    0  0.49012657494E+03 -0.15668779688E+03  0.31076590528E+03  0.60112442392E+03  0.00000000000E+00 0.  1.
         13    1    4    4    0    0 -0.16286823043E+03  0.25791971720E+02  0.26513406676E+03  0.31222967638E+03  0.10566000000E+00 0. -1.
         -4    1    4    4    0  503 -0.39101536681E+02  0.73440154100E+02 -0.80434700039E+03  0.80863866062E+03  0.00000000000E+00 0. -1.
<mgrwt>
<rscale>  2 0.10189188E+04</rscale>
<asrwt>0</asrwt>
<pdfrwt beam="1">  1       21 0.12380979E+00 0.10313046E+04</pdfrwt>
<pdfrwt beam="2">  1       21 0.20729461E+00 0.10313046E+04</pdfrwt>
<totfact> 0.28019897E+01</totfact>
</mgrwt>
</event>
<event>
 8    1  0.7631533E-006  0.9947750E+03  0.7818608E-02  0.8793395E-01
         21   -1    0    0  501  502  0.00000000000E+00  0.00000000000E+00  0.91703805387E+03  0.91703805387E+03  0.00000000000E+00 0.  1.
         21   -1    0    0  502  503 -0.00000000000E+00 -0.00000000000E+00 -0.10459672927E+04  0.10459672927E+04  0.00000000000E+00 0.  1.
    9000010    2    1    2  501    0  0.20928740338E+03  0.20357154267E+02  0.97155208719E+02  0.94286248905E+03  0.91396657912E+03 0.  0.
   -9000010    2    1    2    0  503 -0.20928740338E+03 -0.20357154267E+02 -0.22608444752E+03  0.10201428575E+04  0.97229709520E+03 0.  0.
        -13    1    3    3    0    0  0.17818190272E+03 -0.10437499674E+03  0.48881567145E+03  0.53064461009E+03  0.10566000000E+00 0.  1.
          4    1    3    3  501    0  0.31105500661E+02  0.12473215101E+03 -0.39166046273E+03  0.41221787896E+03  0.00000000000E+00 0.  1.
         13    1    4    4    0    0  0.37341254599E+03 -0.19161493210E+02  0.46595688904E+02  0.37679604790E+03  0.10566000000E+00 0. -1.
         -4    1    4    4    0  503 -0.58269994937E+03 -0.11956610570E+01 -0.27268013643E+03  0.64334680959E+03  0.00000000000E+00 0. -1.
<mgrwt>
<rscale>  2 0.98022605E+03</rscale>
<asrwt>0</asrwt>
<pdfrwt beam="1">  1       21 0.14108278E+00 0.99477499E+03</pdfrwt>
<pdfrwt beam="2">  1       21 0.16091804E+00 0.99477499E+03</pdfrwt>
<totfact> 0.45888048E+01</totfact>
</mgrwt>
</event>
<event>
 8    1  0.7631533E-006  0.1040460E+04  0.7818608E-02  0.8745939E-01
         21   -1    0    0  501  502  0.00000000000E+00  0.00000000000E+00  0.57851459850E+03  0.57851459850E+03  0.00000000000E+00 0. -1.
         21   -1    0    0  502  503 -0.00000000000E+00 -0.00000000000E+00 -0.18064985388E+04  0.18064985388E+04  0.00000000000E+00 0. -1.
    9000010    2    1    2  501    0  0.32771552839E+02  0.73518566017E+00 -0.59291855420E+03  0.11975434169E+04  0.10399438967E+04 0.  0.
   -9000010    2    1    2    0  503 -0.32771552839E+02 -0.73518566017E+00 -0.63506538606E+03  0.11874697203E+04  0.10028468362E+04 0.  0.
        -13    1    3    3    0    0 -0.14904598108E+03 -0.50925150205E+02  0.27086015966E+03  0.31332620806E+03  0.10566000000E+00 0.  1.
          4    1    3    3  501    0  0.18181753391E+03  0.51660335865E+02 -0.86377871387E+03  0.88421720888E+03  0.00000000000E+00 0.  1.
         13    1    4    4    0    0 -0.47235578926E+03 -0.15745152585E+03 -0.49044686317E+03  0.69889134448E+03  0.10566000000E+00 0. -1.
         -4    1    4    4    0  503  0.43958423642E+03  0.15671634018E+03 -0.14461852289E+03  0.48857837585E+03  0.00000000000E+00 0. -1.
<mgrwt>
<rscale>  2 0.10310644E+04</rscale>
<asrwt>0</asrwt>
<pdfrwt beam="1">  1       21 0.89002247E-01 0.10404604E+04</pdfrwt>
<pdfrwt beam="2">  1       21 0.27792285E+00 0.10404604E+04</pdfrwt>
<totfact> 0.20398801E+01</totfact>
</mgrwt>
</event>
<event>
 8    1  0.7631533E-006  0.1075756E+04  0.7818608E-02  0.8707933E-01
         21   -1    0    0  501  502  0.00000000000E+00  0.00000000000E+00  0.16013043988E+04  0.16013043988E+04  0.00000000000E+00 0. -1.
         21   -1    0    0  502  503 -0.00000000000E+00 -0.00000000000E+00 -0.76661500603E+03  0.76661500603E+03  0.00000000000E+00 0. -1.
    9000010    2    1    2  501    0 -0.38552616726E+03  0.29087316353E+02  0.71358114349E+03  0.12853674654E+04  0.99674218091E+03 0.  0.
   -9000010    2    1    2    0  503  0.38552616726E+03 -0.29087316353E+02  0.12110824928E+03  0.10825519394E+04  0.10038799708E+04 0.  0.
        -13    1    3    3    0    0 -0.58091476855E+03 -0.27315403204E+03  0.66141655707E+03  0.92170872117E+03  0.10566000000E+00 0.  1.
          4    1    3    3  501    0  0.19538860129E+03  0.30224134839E+03  0.52164586413E+02  0.36365874425E+03  0.00000000000E+00 0.  1.
         13    1    4    4    0    0 -0.10398901766E+03 -0.30504394493E+03  0.35000366108E+03  0.47578156550E+03  0.10566000000E+00 0. -1.
         -4    1    4    4    0  503  0.48951518492E+03  0.27595662858E+03 -0.22889541180E+03  0.60677037392E+03  0.00000000000E+00 0. -1.
<mgrwt>
<rscale>  2 0.10740879E+04</rscale>
<asrwt>0</asrwt>
<pdfrwt beam="1">  1       21 0.24635452E+00 0.10757562E+04</pdfrwt>
<pdfrwt beam="2">  1       21 0.11794077E+00 0.10757562E+04</pdfrwt>
<totfact> 0.16228770E+01</totfact>
</mgrwt>
</event>
<event>
 8    1  0.7631533E-006  0.1031921E+04  0.7818608E-02  0.8756062E-01
         21   -1    0    0  503  502  0.00000000000E+00  0.00000000000E+00  0.50319814310E+03  0.50319814310E+03  0.00000000000E+00 0.  1.
         21   -1    0    0  501  503 -0.00000000000E+00 -0.00000000000E+00 -0.21485000753E+04  0.21485000753E+04  0.00000000000E+00 0.  1.
    9000010    2    1    2  501    0 -0.53501701718E+02 -0.23424645874E+03 -0.11277057605E+04  0.14972428458E+04  0.95513455681E+03 0.  0.
   -9000010    2    1    2    0  502  0.53501701718E+02  0.23424645874E+03 -0.51759617171E+03  0.11544553726E+04  0.10035574596E+04 0.  0.
        -13    1    3    3    0    0 -0.18846541376E+03 -0.54454039444E+03 -0.42079514157E+03  0.71352085862E+03  0.10566000000E+00 0.  1.
          4    1    3    3  501    0  0.13496371204E+03  0.31029393569E+03 -0.70691061888E+03  0.78372198717E+03  0.00000000000E+00 0.  1.
         13    1    4    4    0    0 -0.94117187413E+02  0.48743892797E+03 -0.66221216311E+03  0.82763501231E+03  0.10566000000E+00 0. -1.
         -4    1    4    4    0  502  0.14761888913E+03 -0.25319246922E+03  0.14461599140E+03  0.32682036024E+03  0.00000000000E+00 0. -1.
<mgrwt>
<rscale>  2 0.10199579E+04</rscale>
<asrwt>0</asrwt>
<pdfrwt beam="1">  1       21 0.77415099E-01 0.10319212E+04</pdfrwt>
<pdfrwt beam="2">  1       21 0.33053847E+00 0.10319212E+04</pdfrwt>
<totfact> 0.12290949E+01</totfact>
</mgrwt>
</event>
<event>
 8    1  0.7631533E-006  0.1105328E+04  0.7818608E-02  0.8683483E-01
         21   -1    0    0  501  502  0.00000000000E+00  0.00000000000E+00  0.16978866270E+04  0.16978866270E+04  0.00000000000E+00 0.  1.
         21   -1    0    0  502  503 -0.00000000000E+00 -0.00000000000E+00 -0.88745928012E+03  0.88745928012E+03  0.00000000000E+00 0.  1.
    9000010    2    1    2  501    0 -0.10818280553E+03  0.42581277414E+03  0.97920204987E+03  0.14766806997E+04  0.10142628832E+04 0.  0.
   -9000010    2    1    2    0  503  0.10818280553E+03 -0.42581277414E+03 -0.16877470296E+03  0.11086652075E+04  0.10038095456E+04 0.  0.
        -13    1    3    3    0    0 -0.55532830761E+03  0.13529568227E+03  0.48392091008E+03  0.74891515491E+03  0.10566000000E+00 0.  1.
          4    1    3    3  501    0  0.44714550208E+03  0.29051709186E+03  0.49528113979E+03  0.72776554476E+03  0.00000000000E+00 0.  1.
         13    1    4    4    0    0 -0.33564889635E+03 -0.45336354172E+03  0.12228601640E+03  0.57719369673E+03  0.10566000000E+00 0. -1.
         -4    1    4    4    0  503  0.44383170187E+03  0.27550767582E+02 -0.29106071936E+03  0.53147151075E+03  0.00000000000E+00 0. -1.
<mgrwt>
<rscale>  2 0.11029238E+04</rscale>
<asrwt>0</asrwt>
<pdfrwt beam="1">  1       21 0.26121333E+00 0.11053277E+04</pdfrwt>
<pdfrwt beam="2">  1       21 0.13653220E+00 0.11053277E+04</pdfrwt>
<totfact> 0.82706471E+00</totfact>
</mgrwt>
</event>
<event>
 8    1  0.7631533E-006  0.1030422E+04  0.7818608E-02  0.8749862E-01
         21   -1    0    0  503  502  0.00000000000E+00  0.00000000000E+00  0.75610252537E+03  0.75610252537E+03  0.00000000000E+00 0. -1.
         21   -1    0    0  501  503 -0.00000000000E+00 -0.00000000000E+00 -0.14042165360E+04  0.14042165360E+04  0.00000000000E+00 0. -1.
    9000010    2    1    2  501    0 -0.19680500583E+03  0.62522162577E+02 -0.19800433859E+03  0.10492734920E+04  0.10095186535E+04 0.  0.
   -9000010    2    1    2    0  502  0.19680500583E+03 -0.62522162577E+02 -0.45010967202E+03  0.11110455693E+04  0.99457644713E+03 0.  0.
        -13    1    3    3    0    0  0.23027739534E+03 -0.28735487810E+03  0.14893172107E+03  0.39721678398E+03  0.10566000000E+00 0.  1.
          4    1    3    3  501    0 -0.42708240116E+03  0.34987704068E+03 -0.34693605966E+03  0.65205670802E+03  0.00000000000E+00 0.  1.
         13    1    4    4    0    0 -0.28692599400E+03  0.21724048240E+03 -0.41762261502E+03  0.55129720929E+03  0.10566000000E+00 0. -1.
         -4    1    4    4    0  502  0.48373099982E+03 -0.27976264498E+03 -0.32487056994E+02  0.55974836006E+03  0.00000000000E+00 0. -1.
<mgrwt>
<rscale>  2 0.10267435E+04</rscale>
<asrwt>0</asrwt>
<pdfrwt beam="1">  1       21 0.11632347E+00 0.10304218E+04</pdfrwt>
<pdfrwt beam="2">  1       21 0.21603331E+00 0.10304218E+04</pdfrwt>
<totfact> 0.28610321E+01</totfact>
</mgrwt>
</event>
<event>
 8    1  0.7631533E-006  0.9974702E+03  0.7818608E-02  0.8790647E-01
         21   -1    0    0  503  502  0.00000000000E+00  0.00000000000E+00  0.13468988315E+04  0.13468988315E+04  0.00000000000E+00 0.  1.
         21   -1    0    0  501  503 -0.00000000000E+00 -0.00000000000E+00 -0.78788097160E+03  0.78788097160E+03  0.00000000000E+00 0.  1.
    9000010    2    1    2  501    0  0.98399489264E+02  0.86484430239E+02 -0.74515045788E+02  0.10002495749E+04  0.98882996713E+03 0.  0.
   -9000010    2    1    2    0  502 -0.98399489264E+02 -0.86484430239E+02  0.63353290569E+03  0.11345302282E+04  0.93200476389E+03 0.  0.
        -13    1    3    3    0    0  0.20701311824E+03  0.34432973172E+03  0.32205594283E+03  0.51491498011E+03  0.10566000000E+00 0.  1.
          4    1    3    3  501    0 -0.10861362898E+03 -0.25784530148E+03 -0.39657098862E+03  0.48533459480E+03  0.00000000000E+00 0.  1.
         13    1    4    4    0    0 -0.42988805621E+03 -0.24599427468E+03  0.58013332584E+03  0.76280509369E+03  0.10566000000E+00 0. -1.
         -4    1    4    4    0  502  0.33148856694E+03  0.15950984444E+03  0.53399579853E+02  0.37172513450E+03  0.00000000000E+00 0. -1.
<mgrwt>
<rscale>  2 0.98308616E+03</rscale>
<asrwt>0</asrwt>
<pdfrwt beam="1">  1       21 0.20721520E+00 0.99747016E+03</pdfrwt>
<pdfrwt beam="2">  1       21 0.12121246E+00 0.99747016E+03</pdfrwt>
<totfact> 0.30018638E+01</totfact>
</mgrwt>
</event>
<event>
 8    1  0.7631533E-006  0.1180260E+04  0.7818608E-02  0.8623066E-01
         21   -1    0    0  503  502  0.00000000000E+00  0.00000000000E+00  0.41180035429E+03  0.41180035429E+03  0.00000000000E+00 0.  1.
         21   -1    0    0  501  503 -0.00000000000E+00 -0.00000000000E+00 -0.34886146793E+04  0.34886146793E+04  0.00000000000E+00 0. -1.
    9000010    2    1    2  501    0 -0.50910066063E+03 -0.35413546734E+03 -0.19167902322E+04  0.22510215511E+04  0.10042000882E+04 0.  0.
   -9000010    2    1    2    0  502  0.50910066063E+03  0.35413546734E+03 -0.11600240927E+04  0.16493934825E+04  0.99511182908E+03 0.  0.
        -13    1    3    3    0    0  0.24195668724E+03 -0.26877448318E+03 -0.31402218309E+03  0.47894958392E+03  0.10566000000E+00 0.  1.
          4    1    3    3  501    0 -0.75105734787E+03 -0.85360984167E+02 -0.16027680491E+04  0.17720719672E+04  0.00000000000E+00 0.  1.
         13    1    4    4    0    0  0.40558527633E+03  0.68358236501E+03 -0.97395178883E+03  0.12571262324E+04  0.10566000000E+00 0. -1.
         -4    1    4    4    0  502  0.10351538430E+03 -0.32944689767E+03 -0.18607230392E+03  0.39226725004E+03  0.00000000000E+00 0. -1.
<mgrwt>
<rscale>  2 0.11783243E+04</rscale>
<asrwt>0</asrwt>
<pdfrwt beam="1">  1       21 0.63353899E-01 0.11802598E+04</pdfrwt>
<pdfrwt beam="2">  1       21 0.53670997E+00 0.11802598E+04</pdfrwt>
<totfact> 0.69695345E-01</totfact>
</mgrwt>
</event>
<event>
 8    1  0.7631533E-006  0.1043236E+04  0.7818608E-02  0.8737066E-01
         21   -1    0    0  503  502  0.00000000000E+00  0.00000000000E+00  0.11180030970E+04  0.11180030970E+04  0.00000000000E+00 0. -1.
         21   -1    0    0  501  503 -0.00000000000E+00 -0.00000000000E+00 -0.20959050813E+04  0.20959050813E+04  0.00000000000E+00 0. -1.
    9000010    2    1    2  501    0  0.12446545739E+03 -0.23015823654E+03 -0.16704176124E+04  0.19694251486E+04  0.10098890793E+04 0.  0.
   -9000010    2    1    2    0  502 -0.12446545739E+03  0.23015823654E+03  0.69251562802E+03  0.12444830297E+04  0.10003477657E+04 0.  0.
        -13    1    3    3    0    0  0.13068063001E+03 -0.83573550849E+02  0.10541114112E+03  0.18754595516E+03  0.10566000000E+00 0.  1.
          4    1    3    3  501    0 -0.62151726201E+01 -0.14658468570E+03 -0.17758287535E+04  0.17818791935E+04  0.00000000000E+00 0.  1.
         13    1    4    4    0    0 -0.37895317716E+03 -0.22980069699E+03  0.10369257084E+03  0.45515495298E+03  0.10566000000E+00 0. -1.
         -4    1    4    4    0  502  0.25448771977E+03  0.45995893354E+03  0.58882305718E+03  0.78932807673E+03  0.00000000000E+00 0. -1.
<mgrwt>
<rscale>  2 0.10409195E+04</rscale>
<asrwt>0</asrwt>
<pdfrwt beam="1">  1       21 0.17200048E+00 0.10432356E+04</pdfrwt>
<pdfrwt beam="2">  1       21 0.32244693E+00 0.10432356E+04</pdfrwt>
<totfact> 0.15022549E+00</totfact>
</mgrwt>
</event>
<event>
 8    1  0.7631533E-006  0.1226263E+04  0.7818608E-02  0.8646318E-01
         21   -1    0    0  501  502  0.00000000000E+00  0.00000000000E+00  0.15458978893E+04  0.15458978893E+04  0.00000000000E+00 0.  1.
         21   -1    0    0  502  503 -0.00000000000E+00 -0.00000000000E+00 -0.90724415203E+03  0.90724415203E+03  0.00000000000E+00 0.  1.
    9000010    2    1    2  501    0 -0.36394213295E+02  0.11517727051E+03  0.77239508867E+03  0.12196076486E+04  0.93608669528E+03 0.  0.
   -9000010    2    1    2    0  503  0.36394213295E+02 -0.11517727051E+03 -0.13374135136E+03  0.12335343928E+04  0.12202991464E+04 0.  0.
        -13    1    3    3    0    0  0.29907292836E+01  0.19159844274E+03 -0.18025894318E+03  0.26308212688E+03  0.10566000000E+00 0.  1.
          4    1    3    3  501    0 -0.39384942578E+02 -0.76421172233E+02  0.95265403185E+03  0.95652552171E+03  0.00000000000E+00 0.  1.
         13    1    4    4    0    0  0.31141524218E+03  0.21610584491E+02 -0.59932955083E+03  0.67575320354E+03  0.10566000000E+00 0. -1.
         -4    1    4    4    0  503 -0.27502102888E+03 -0.13678785500E+03  0.46558819947E+03  0.55778118926E+03  0.00000000000E+00 0. -1.
<mgrwt>
<rscale>  2 0.11485850E+04</rscale>
<asrwt>0</asrwt>
<pdfrwt beam="1">  1       21 0.23783044E+00 0.12262628E+04</pdfrwt>
<pdfrwt beam="2">  1       21 0.13957602E+00 0.12262628E+04</pdfrwt>
<totfact> 0.11180936E+01</totfact>
</mgrwt>
</event>
<event>
 8    1  0.7631533E-006  0.1009745E+04  0.7818608E-02  0.8765755E-01
         21   -1    0    0  503  502  0.00000000000E+00  0.00000000000E+00  0.13874085870E+04  0.13874085870E+04  0.00000000000E+00 0. -1.
         21   -1    0    0  501  503 -0.00000000000E+00 -0.00000000000E+00 -0.94446062112E+03  0.94446062112E+03  0.00000000000E+00 0. -1.
    9000010    2    1    2  501    0  0.60293982061E+02  0.66390485140E+02 -0.32874827107E+03  0.10619131888E+04  0.10057540127E+04 0.  0.
   -9000010    2    1    2    0  502 -0.60293982061E+02 -0.66390485140E+02  0.77169623700E+03  0.12699560194E+04  0.10046044735E+04 0.  0.
        -13    1    3    3    0    0  0.29146974178E+02  0.66049010314E+02  0.36267394334E+03  0.36978969457E+03  0.10566000000E+00 0.  1.
          4    1    3    3  501    0  0.31147007883E+02  0.34147482607E+00 -0.69142221441E+03  0.69212349424E+03  0.00000000000E+00 0.  1.
         13    1    4    4    0    0  0.29505679888E+03  0.19369781329E+03 -0.31090074968E+02  0.35432183303E+03  0.10566000000E+00 0. -1.
         -4    1    4    4    0  502 -0.35535078094E+03 -0.26008829843E+03  0.80278631197E+03  0.91563418633E+03  0.00000000000E+00 0. -1.
<mgrwt>
<rscale>  2 0.10094582E+04</rscale>
<asrwt>0</asrwt>
<pdfrwt beam="1">  1       21 0.21344747E+00 0.10097446E+04</pdfrwt>
<pdfrwt beam="2">  1       21 0.14530163E+00 0.10097446E+04</pdfrwt>
<totfact> 0.15812603E+01</totfact>
</mgrwt>
</event>
<event>
 8    1  0.7631533E-006  0.1038480E+04  0.7818608E-02  0.8742810E-01
         21   -1    0    0  503  502  0.00000000000E+00  0.00000000000E+00  0.70459843844E+03  0.70459843844E+03  0.00000000000E+00 0. -1.
         21   -1    0    0  501  503 -0.00000000000E+00 -0.00000000000E+00 -0.15508791198E+04  0.15508791198E+04  0.00000000000E+00 0. -1.
    9000010    2    1    2  501    0  0.61588873213E+02 -0.19929905559E+03 -0.23765580278E+03  0.10653265247E+04  0.10173136295E+04 0.  0.
   -9000010    2    1    2    0  502 -0.61588873213E+02  0.19929905559E+03 -0.60862487856E+03  0.11901510335E+04  0.10012601744E+04 0.  0.
        -13    1    3    3    0    0  0.25752822614E+03 -0.41517455431E+03  0.20945353552E+03  0.53156513478E+03  0.10566000000E+00 0.  1.
          4    1    3    3  501    0 -0.19593935293E+03  0.21587549873E+03 -0.44710933830E+03  0.53376138992E+03  0.00000000000E+00 0.  1.
         13    1    4    4    0    0  0.13327974716E+03 -0.20468912405E+03 -0.69208335693E+03  0.73392132590E+03  0.10566000000E+00 0. -1.
         -4    1    4    4    0  502 -0.19486862037E+03  0.40398817964E+03  0.83458478369E+02  0.45622970761E+03  0.00000000000E+00 0. -1.
<mgrwt>
<rscale>  2 0.10345270E+04</rscale>
<asrwt>0</asrwt>
<pdfrwt beam="1">  1       21 0.10839976E+00 0.10384798E+04</pdfrwt>
<pdfrwt beam="2">  1       21 0.23859679E+00 0.10384798E+04</pdfrwt>
<totfact> 0.23497545E+01</totfact>
</mgrwt>
</event>
<event>
 8    1  0.7631533E-006  0.9966709E+03  0.7818608E-02  0.8781720E-01
         21   -1    0    0  501  502  0.00000000000E+00  0.00000000000E+00  0.56017255368E+03  0.56017255368E+03  0.00000000000E+00 0.  1.
         21   -1    0    0  502  503 -0.00000000000E+00 -0.00000000000E+00 -0.17600946580E+04  0.17600946580E+04  0.00000000000E+00 0.  1.
    9000010    2    1    2  501    0  0.12414435277E+03 -0.26321744648E+02 -0.49256684575E+03  0.11117440747E+04  0.98855861510E+03 0.  0.
   -9000010    2    1    2    0  503 -0.12414435277E+03  0.26321744648E+02 -0.70735525853E+03  0.12085231370E+04  0.97163370477E+03 0.  0.
        -13    1    3    3    0    0 -0.36065465915E+03 -0.15509479301E+03 -0.46614289613E+03  0.60943858490E+03  0.10566000000E+00 0.  1.
          4    1    3    3  501    0  0.48479901193E+03  0.12877304836E+03 -0.26423949621E+02  0.50230548978E+03  0.00000000000E+00 0.  1.
         13    1    4    4    0    0 -0.24275697549E+03 -0.42269267985E+03 -0.21830342830E+03  0.53409404482E+03  0.10566000000E+00 0. -1.
         -4    1    4    4    0  503  0.11861262272E+03  0.44901442449E+03 -0.48905183023E+03  0.67442909214E+03  0.00000000000E+00 0. -1.
<mgrwt>
<rscale>  2 0.99244789E+03</rscale>
<asrwt>0</asrwt>
<pdfrwt beam="1">  1       21 0.86180393E-01 0.99667085E+03</pdfrwt>
<pdfrwt beam="2">  1       21 0.27078379E+00 0.99667085E+03</pdfrwt>
<totfact> 0.25159986E+01</totfact>
</mgrwt>
</event>
<event>
 8    1  0.7631533E-006  0.1184499E+04  0.7818608E-02  0.8620036E-01
         21   -1    0    0  501  502  0.00000000000E+00  0.00000000000E+00  0.14643805807E+04  0.14643805807E+04  0.00000000000E+00 0. -1.
         21   -1    0    0  502  503 -0.00000000000E+00 -0.00000000000E+00 -0.10426890948E+04  0.10426890948E+04  0.00000000000E+00 0. -1.
    9000010    2    1    2  501    0 -0.13277474557E+03 -0.60842169275E+03  0.58343947495E+03  0.13203940163E+04  0.10075875387E+04 0.  0.
   -9000010    2    1    2    0  503  0.13277474557E+03  0.60842169275E+03 -0.16174798908E+03  0.11866756592E+04  0.99711113668E+03 0.  0.
        -13    1    3    3    0    0  0.29364539340E+03 -0.69020832825E+03  0.35696197374E+03  0.83068466659E+03  0.10566000000E+00 0.  1.
          4    1    3    3  501    0 -0.42642013897E+03  0.81786635501E+02  0.22647750122E+03  0.48970934974E+03  0.00000000000E+00 0.  1.
         13    1    4    4    0    0  0.21892646369E+03  0.87118502428E+03 -0.14222271533E+03  0.90946107941E+03  0.10566000000E+00 0. -1.
         -4    1    4    4    0  503 -0.86151718115E+02 -0.26276333153E+03 -0.19525273750E+02  0.27721457979E+03  0.00000000000E+00 0. -1.
<mgrwt>
<rscale>  2 0.11822684E+04</rscale>
<asrwt>0</asrwt>
<pdfrwt beam="1">  1       21 0.22528932E+00 0.11844994E+04</pdfrwt>
<pdfrwt beam="2">  1       21 0.16041371E+00 0.11844994E+04</pdfrwt>
<totfact> 0.90976027E+00</totfact>
</mgrwt>
</event>
<event>
 8    1  0.7631533E-006  0.1022432E+04  0.7818608E-02  0.8778260E-01
         21   -1    0    0  501  502  0.00000000000E+00  0.00000000000E+00  0.95619027761E+03  0.95619027761E+03  0.00000000000E+00 0.  1.
         21   -1    0    0  502  503 -0.00000000000E+00 -0.00000000000E+00 -0.10400894058E+04  0.10400894058E+04  0.00000000000E+00 0.  1.
    9000010    2    1    2  501    0  0.23840105592E+03  0.38302461055E+02  0.18403299113E+03  0.93932380615E+03  0.88890884178E+03 0.  0.
   -9000010    2    1    2    0  503 -0.23840105592E+03 -0.38302461055E+02 -0.26793211933E+03  0.10569558773E+04  0.99351193446E+03 0.  0.
        -13    1    3    3    0    0 -0.26995694552E+03 -0.15543767138E+03  0.23885709486E+03  0.39254343078E+03  0.10566000000E+00 0.  1.
          4    1    3    3  501    0  0.50835800144E+03  0.19374013244E+03 -0.54824103729E+02  0.54678037537E+03  0.00000000000E+00 0.  1.
         13    1    4    4    0    0  0.20746421467E+03  0.35253945621E+03 -0.21383367556E+03  0.46157374331E+03  0.10566000000E+00 0. -1.
         -4    1    4    4    0  503 -0.44586527059E+03 -0.39084191726E+03 -0.54098443777E+02  0.59538213395E+03  0.00000000000E+00 0. -1.
<mgrwt>
<rscale>  2 0.99610463E+03</rscale>
<asrwt>0</asrwt>
<pdfrwt beam="1">  1       21 0.14710620E+00 0.10224324E+04</pdfrwt>
<pdfrwt beam="2">  1       21 0.16001375E+00 0.10224324E+04</pdfrwt>
<totfact> 0.40928018E+01</totfact>
</mgrwt>
</event>
<event>
 8    1  0.7631533E-006  0.1027924E+04  0.7818608E-02  0.8749531E-01
         21   -1    0    0  503  502  0.00000000000E+00  0.00000000000E+00  0.98243411401E+03  0.98243411401E+03  0.00000000000E+00 0.  1.
         21   -1    0    0  501  503 -0.00000000000E+00 -0.00000000000E+00 -0.11394570275E+04  0.11394570275E+04  0.00000000000E+00 0.  1.
    9000010    2    1    2  501    0  0.16300356567E+03  0.12019390970E+03  0.17930745922E+03  0.10434452916E+04  0.10077748624E+04 0.  0.
   -9000010    2    1    2    0  502 -0.16300356567E+03 -0.12019390970E+03 -0.33633037274E+03  0.10784458500E+04  0.10044454158E+04 0.  0.
        -13    1    3    3    0    0  0.15922151485E+03  0.48526891274E+03 -0.16989155916E+03  0.53823838724E+03  0.10566000000E+00 0.  1.
          4    1    3    3  501    0  0.37820508243E+01 -0.36507500303E+03  0.34919901838E+03  0.50520690434E+03  0.00000000000E+00 0.  1.
         13    1    4    4    0    0  0.29354111377E+03 -0.38264076488E+03 -0.25521127774E+03  0.54563096308E+03  0.10566000000E+00 0. -1.
         -4    1    4    4    0  502 -0.45654467944E+03  0.26244685517E+03 -0.81119094994E+02  0.53281488689E+03  0.00000000000E+00 0. -1.
<mgrwt>
<rscale>  2 0.10271066E+04</rscale>
<asrwt>0</asrwt>
<pdfrwt beam="1">  1       21 0.15114371E+00 0.10279236E+04</pdfrwt>
<pdfrwt beam="2">  1       21 0.17530108E+00 0.10279236E+04</pdfrwt>
<totfact> 0.27946161E+01</totfact>
</mgrwt>
</event>
<event>
 8    1  0.7631533E-006  0.1024704E+04  0.7818608E-02  0.8754223E-01
         21   -1    0    0  503  502  0.00000000000E+00  0.00000000000E+00  0.16967164961E+04  0.16967164961E+04  0.00000000000E+00 0.  1.
         21   -1    0    0  501  503 -0.00000000000E+00 -0.00000000000E+00 -0.69066832796E+03  0.69066832796E+03  0.00000000000E+00 0.  1.
    9000010    2    1    2  501    0  0.12684714838E+03  0.12822541842E+03  0.10327181449E+03  0.10298952962E+04  0.10087057532E+04 0.  0.
   -9000010    2    1    2    0  502 -0.12684714838E+03 -0.12822541842E+03  0.90277635370E+03  0.13574895278E+04  0.99761752012E+03 0.  0.
        -13    1    3    3    0    0  0.47834423832E+03 -0.18019032660E+03 -0.98565087557E+02  0.52057357961E+03  0.10566000000E+00 0.  1.
          4    1    3    3  501    0 -0.35149708994E+03  0.30841574502E+03  0.20183690204E+03  0.50932171664E+03  0.00000000000E+00 0.  1.
         13    1    4    4    0    0  0.10233210592E+03  0.83763082708E+02 -0.18409554396E+03  0.22667001213E+03  0.10566000000E+00 0. -1.
         -4    1    4    4    0  502 -0.22917925430E+03 -0.21198850112E+03  0.10868718977E+04  0.11308195157E+04  0.00000000000E+00 0. -1.
<mgrwt>
<rscale>  2 0.10219652E+04</rscale>
<asrwt>0</asrwt>
<pdfrwt beam="1">  1       21 0.26103331E+00 0.10247045E+04</pdfrwt>
<pdfrwt beam="2">  1       21 0.10625667E+00 0.10247045E+04</pdfrwt>
<totfact> 0.17075666E+01</totfact>
</mgrwt>
</event>
<event>
 8    1  0.7631533E-006  0.1071012E+04  0.7818608E-02  0.8712403E-01
         21   -1    0    0  503  502  0.00000000000E+00  0.00000000000E+00  0.73223675665E+03  0.73223675665E+03  0.00000000000E+00 0. -1.
         21   -1    0    0  501  503 -0.00000000000E+00 -0.00000000000E+00 -0.17925773298E+04  0.17925773298E+04  0.00000000000E+00 0. -1.
    9000010    2    1    2  501    0 -0.16370041344E+03 -0.33249989448E+03 -0.98860480871E+03  0.14514027035E+04  0.99592988440E+03 0.  0.
   -9000010    2    1    2    0  502  0.16370041344E+03  0.33249989448E+03 -0.71735764412E+02  0.10734113830E+04  0.10048442526E+04 0.  0.
        -13    1    3    3    0    0  0.39940056695E+02  0.92053215460E+02 -0.97519689166E+03  0.98034585289E+03  0.10566000000E+00 0.  1.
          4    1    3    3  501    0 -0.20364047013E+03 -0.42455310994E+03 -0.13407917047E+02  0.47105685058E+03  0.00000000000E+00 0.  1.
         13    1    4    4    0    0  0.17204167873E+03  0.36677058041E+03  0.41817772340E+03  0.58222986645E+03  0.10566000000E+00 0. -1.
         -4    1    4    4    0  502 -0.83412652945E+01 -0.34270685929E+02 -0.48991348781E+03  0.49118151651E+03  0.00000000000E+00 0. -1.
<mgrwt>
<rscale>  2 0.10689157E+04</rscale>
<asrwt>0</asrwt>
<pdfrwt beam="1">  1       21 0.11265181E+00 0.10710117E+04</pdfrwt>
<pdfrwt beam="2">  1       21 0.27578113E+00 0.10710117E+04</pdfrwt>
<totfact> 0.11308031E+01</totfact>
</mgrwt>
</event>
<event>
 8    1  0.7631533E-006  0.1041258E+04  0.7818608E-02  0.8741173E-01
         21   -1    0    0  501  502  0.00000000000E+00  0.00000000000E+00  0.17972632688E+04  0.17972632688E+04  0.00000000000E+00 0.  1.
         21   -1    0    0  502  503 -0.00000000000E+00 -0.00000000000E+00 -0.67597335890E+03  0.67597335890E+03  0.00000000000E+00 0.  1.
    9000010    2    1    2  501    0 -0.13523874278E+03  0.64895740830E+02  0.10011099437E+04  0.14444509176E+04  0.10303962146E+04 0.  0.
   -9000010    2    1    2    0  503  0.13523874278E+03 -0.64895740830E+02  0.12017996616E+03  0.10287857101E+04  0.10106709842E+04 0.  0.
        -13    1    3    3    0    0 -0.35072888241E+03 -0.39712268088E+03  0.55054401209E+03  0.76407846000E+03  0.10566000000E+00 0.  1.
          4    1    3    3  501    0  0.21549013962E+03  0.46201842171E+03  0.45056593165E+03  0.68037245759E+03  0.00000000000E+00 0.  1.
         13    1    4    4    0    0  0.38502816882E+03 -0.13207727205E+03  0.45185947535E+03  0.60816781665E+03  0.10566000000E+00 0. -1.
         -4    1    4    4    0  503 -0.24978942604E+03  0.67181531221E+02 -0.33167950919E+03  0.42061789348E+03  0.00000000000E+00 0. -1.
<mgrwt>
<rscale>  2 0.10363440E+04</rscale>
<asrwt>0</asrwt>
<pdfrwt beam="1">  1       21 0.27650204E+00 0.10412576E+04</pdfrwt>
<pdfrwt beam="2">  1       21 0.10399590E+00 0.10412576E+04</pdfrwt>
<totfact> 0.13954036E+01</totfact>
</mgrwt>
</event>
<event>
 8    1  0.7631533E-006  0.1103872E+04  0.7818608E-02  0.8691243E-01
         21   -1    0    0  503  502  0.00000000000E+00  0.00000000000E+00  0.20314856917E+04  0.20314856917E+04  0.00000000000E+00 0.  1.
         21   -1    0    0  501  503 -0.00000000000E+00 -0.00000000000E+00 -0.64548715812E+03  0.64548715812E+03  0.00000000000E+00 0.  1.
    9000010    2    1    2  501    0  0.39332494042E+02  0.38071764513E+03  0.11136981460E+04  0.15400117217E+04  0.99238075968E+03 0.  0.
   -9000010    2    1    2    0  502 -0.39332494042E+02 -0.38071764513E+03  0.27230038765E+03  0.11369611282E+04  0.10353937104E+04 0.  0.
        -13    1    3    3    0    0  0.49750035638E+03  0.79001522480E+02  0.42173082452E+03  0.65696631928E+03  0.10566000000E+00 0.  1.
          4    1    3    3  501    0 -0.45816786234E+03  0.30171612265E+03  0.69196732145E+03  0.88304540240E+03  0.00000000000E+00 0.  1.
         13    1    4    4    0    0  0.31274691073E+03 -0.16145798315E+03  0.53907676628E+03  0.64380360484E+03  0.10566000000E+00 0. -1.
         -4    1    4    4    0  502 -0.35207940477E+03 -0.21925966198E+03 -0.26677637863E+03  0.49315752335E+03  0.00000000000E+00 0. -1.
<mgrwt>
<rscale>  2 0.10936713E+04</rscale>
<asrwt>0</asrwt>
<pdfrwt beam="1">  1       21 0.31253626E+00 0.11038719E+04</pdfrwt>
<pdfrwt beam="2">  1       21 0.99305717E-01 0.11038719E+04</pdfrwt>
<totfact> 0.86328441E+00</totfact>
</mgrwt>
</event>
<event>
 8    1  0.7631533E-006  0.1065380E+04  0.7818608E-02  0.8716681E-01
         21   -1    0    0  501  502  0.00000000000E+00  0.00000000000E+00  0.10692926313E+04  0.10692926313E+04  0.00000000000E+00 0. -1.
         21   -1    0    0  502  503 -0.00000000000E+00 -0.00000000000E+00 -0.10909204288E+04  0.10909204288E+04  0.00000000000E+00 0.  1.
    9000010    2    1    2  501    0 -0.30303480517E+03 -0.21872471158E+03  0.18252151187E+03  0.10754496342E+04  0.99176974182E+03 0.  0.
   -9000010    2    1    2    0  503  0.30303480517E+03  0.21872471158E+03 -0.20414930932E+03  0.10847634259E+04  0.99767938596E+03 0.  0.
        -13    1    3    3    0    0  0.32012465253E+03  0.38815243331E+02  0.23517504687E+03  0.39911618623E+03  0.10566000000E+00 0.  1.
          4    1    3    3  501    0 -0.62315945770E+03 -0.25753995491E+03 -0.52653535003E+02  0.67633344797E+03  0.00000000000E+00 0.  1.
         13    1    4    4    0    0  0.56647384607E+03  0.36524315906E+03 -0.33907959745E+03  0.75449994572E+03  0.10566000000E+00 0. -1.
         -4    1    4    4    0  503 -0.26343904089E+03 -0.14651844748E+03  0.13493028813E+03  0.33026348023E+03  0.00000000000E+00 0. -1.
<mgrwt>
<rscale>  2 0.10639944E+04</rscale>
<asrwt>0</asrwt>
<pdfrwt beam="1">  1       21 0.16450656E+00 0.10653801E+04</pdfrwt>
<pdfrwt beam="2">  1       21 0.16783391E+00 0.10653801E+04</pdfrwt>
<totfact> 0.24483913E+01</totfact>
</mgrwt>
</event>
<event>
 8    1  0.7631533E-006  0.1013905E+04  0.7818608E-02  0.8839166E-01
         21   -1    0    0  503  502  0.00000000000E+00  0.00000000000E+00  0.14026855911E+04  0.14026855911E+04  0.00000000000E+00 0. -1.
         21   -1    0    0  501  503 -0.00000000000E+00 -0.00000000000E+00 -0.10027495823E+04  0.10027495823E+04  0.00000000000E+00 0. -1.
    9000010    2    1    2  501    0 -0.64614669046E+02 -0.14222179404E+02 -0.59170423754E+03  0.11739325731E+04  0.10117442640E+04 0.  0.
   -9000010    2    1    2    0  502  0.64614669046E+02  0.14222179404E+02  0.99164024640E+03  0.12315026003E+04  0.72723514107E+03 0.  0.
        -13    1    3    3    0    0  0.40217008115E+03 -0.18946383942E+03 -0.66081454417E+02  0.44944865158E+03  0.10566000000E+00 0.  1.
          4    1    3    3  501    0 -0.46678475020E+03  0.17524166002E+03 -0.52562278313E+03  0.72448392154E+03  0.00000000000E+00 0.  1.
         13    1    4    4    0    0 -0.97786272480E+01 -0.75727048912E+02  0.10815008183E+04  0.10841928973E+04  0.10566000000E+00 0. -1.
         -4    1    4    4    0  502  0.74393296294E+02  0.89949228317E+02 -0.89860571887E+02  0.14730970297E+03  0.00000000000E+00 0. -1.
<mgrwt>
<rscale>  2 0.93403726E+03</rscale>
<asrwt>0</asrwt>
<pdfrwt beam="1">  1       21 0.21579779E+00 0.10139052E+04</pdfrwt>
<pdfrwt beam="2">  1       21 0.15426916E+00 0.10139052E+04</pdfrwt>
<totfact> 0.12609682E+01</totfact>
</mgrwt>
</event>
<event>
 8    1  0.7631533E-006  0.1053877E+04  0.7818608E-02  0.8746691E-01
         21   -1    0    0  503  502  0.00000000000E+00  0.00000000000E+00  0.14962593795E+04  0.14962593795E+04  0.00000000000E+00 0.  1.
         21   -1    0    0  501  503 -0.00000000000E+00 -0.00000000000E+00 -0.77693946151E+03  0.77693946151E+03  0.00000000000E+00 0.  1.
    9000010    2    1    2  501    0 -0.15950889194E+03  0.27412099795E+03 -0.57194514060E+02  0.96414170334E+03  0.90868729691E+03 0.  0.
   -9000010    2    1    2    0  502  0.15950889194E+03 -0.27412099795E+03  0.77651443206E+03  0.13090571377E+04  0.10050226457E+04 0.  0.
        -13    1    3    3    0    0  0.28157288451E+03  0.53565846091E+02 -0.29960936471E+03  0.41463040379E+03  0.10566000000E+00 0.  1.
          4    1    3    3  501    0 -0.44108177644E+03  0.22055515186E+03  0.24241485065E+03  0.54951129955E+03  0.00000000000E+00 0.  1.
         13    1    4    4    0    0  0.55515778008E+03  0.23633559987E+02  0.36085175694E+03  0.66255015477E+03  0.10566000000E+00 0. -1.
         -4    1    4    4    0  502 -0.39564888814E+03 -0.29775455793E+03  0.41566267512E+03  0.64650698290E+03  0.00000000000E+00 0. -1.
<mgrwt>
<rscale>  2 0.10302347E+04</rscale>
<asrwt>0</asrwt>
<pdfrwt beam="1">  1       21 0.23019375E+00 0.10538766E+04</pdfrwt>
<pdfrwt beam="2">  1       21 0.11952915E+00 0.10538766E+04</pdfrwt>
<totfact> 0.20665099E+01</totfact>
</mgrwt>
</event>
<event>
 8    1  0.7631533E-006  0.1049040E+04  0.7818608E-02  0.8731654E-01
         21   -1    0    0  503  502  0.00000000000E+00  0.00000000000E+00  0.67553959261E+03  0.67553959261E+03  0.00000000000E+00 0. -1.
         21   -1    0    0  501  503 -0.00000000000E+00 -0.00000000000E+00 -0.19263405752E+04  0.19263405752E+04  0.00000000000E+00 0. -1.
    9000010    2    1    2  501    0  0.27369403005E+03  0.23631686395E+03 -0.11452106128E+04  0.15475398437E+04  0.97602158679E+03 0.  0.
   -9000010    2    1    2    0  502 -0.27369403005E+03 -0.23631686395E+03 -0.10559036982E+03  0.10543403242E+04  0.98474875510E+03 0.  0.
        -13    1    3    3    0    0  0.38679491274E+03  0.44495515442E+03 -0.28434136495E+03  0.65455742067E+03  0.10566000000E+00 0.  1.
          4    1    3    3  501    0 -0.11310088270E+03 -0.20863829048E+03 -0.86086924787E+03  0.89298242303E+03  0.00000000000E+00 0.  1.
         13    1    4    4    0    0  0.43833660651E+02 -0.57370914884E+03  0.15056866046E+02  0.57557822896E+03  0.10566000000E+00 0. -1.
         -4    1    4    4    0  502 -0.31752769070E+03  0.33739228490E+03 -0.12064723587E+03  0.47876209519E+03  0.00000000000E+00 0. -1.
<mgrwt>
<rscale>  2 0.10469866E+04</rscale>
<asrwt>0</asrwt>
<pdfrwt beam="1">  1       21 0.10392917E+00 0.10490397E+04</pdfrwt>
<pdfrwt beam="2">  1       21 0.29636008E+00 0.10490397E+04</pdfrwt>
<totfact> 0.10083999E+01</totfact>
</mgrwt>
</event>
<event>
 8    1  0.7631533E-006  0.1016868E+04  0.7818608E-02  0.8760027E-01
         21   -1    0    0  503  502  0.00000000000E+00  0.00000000000E+00  0.92268799565E+03  0.92268799565E+03  0.00000000000E+00 0.  1.
         21   -1    0    0  501  503 -0.00000000000E+00 -0.00000000000E+00 -0.11492368740E+04  0.11492368740E+04  0.00000000000E+00 0.  1.
    9000010    2    1    2  501    0 -0.17819783998E+03  0.32017770712E+01 -0.29156989061E+03  0.10578438843E+04  0.10011273450E+04 0.  0.
   -9000010    2    1    2    0  502  0.17819783998E+03 -0.32017770712E+01  0.65021012300E+02  0.10140809853E+04  0.99617658632E+03 0.  0.
        -13    1    3    3    0    0 -0.57485777054E+03 -0.20502078080E+02 -0.18175147833E+02  0.57551032894E+03  0.10566000000E+00 0.  1.
          4    1    3    3  501    0  0.39665993056E+03  0.23703855151E+02 -0.27339474278E+03  0.48233355538E+03  0.00000000000E+00 0.  1.
         13    1    4    4    0    0  0.32455993112E+03  0.23292900003E+03  0.40913063139E+03  0.57182423230E+03  0.10566000000E+00 0. -1.
         -4    1    4    4    0  502 -0.14636209114E+03 -0.23613077710E+03 -0.34410961909E+03  0.44225675299E+03  0.00000000000E+00 0. -1.
<mgrwt>
<rscale>  2 0.10156474E+04</rscale>
<asrwt>0</asrwt>
<pdfrwt beam="1">  1       21 0.14195200E+00 0.10168681E+04</pdfrwt>
<pdfrwt beam="2">  1       21 0.17680567E+00 0.10168681E+04</pdfrwt>
<totfact> 0.32959674E+01</totfact>
</mgrwt>
</event>
<event>
 8    1  0.7631533E-006  0.1082052E+04  0.7818608E-02  0.8709739E-01
         21   -1    0    0  503  502  0.00000000000E+00  0.00000000000E+00  0.11826621148E+04  0.11826621148E+04  0.00000000000E+00 0.  1.
         21   -1    0    0  501  503 -0.00000000000E+00 -0.00000000000E+00 -0.18674702185E+04  0.18674702185E+04  0.00000000000E+00 0.  1.
    9000010    2    1    2  501    0 -0.23420964320E+03 -0.14385233123E+03 -0.14056387441E+04  0.17499653751E+04  0.10054903704E+04 0.  0.
   -9000010    2    1    2    0  502  0.23420964320E+03  0.14385233123E+03  0.72083064043E+03  0.13001669582E+04  0.10465608711E+04 0.  0.
        -13    1    3    3    0    0  0.17108737928E+02  0.25516171927E+02 -0.14441406640E+04  0.14444673941E+04  0.10566000000E+00 0.  1.
          4    1    3    3  501    0 -0.25131838112E+03 -0.16936850316E+03  0.38501919933E+02  0.30549798099E+03  0.00000000000E+00 0.  1.
         13    1    4    4    0    0 -0.35023542211E+03  0.20183164498E+03  0.56105439512E+03  0.69150770730E+03  0.10566000000E+00 0. -1.
         -4    1    4    4    0  502  0.58444506530E+03 -0.57979313753E+02  0.15977624532E+03  0.60865925093E+03  0.00000000000E+00 0. -1.
<mgrwt>
<rscale>  2 0.10719952E+04</rscale>
<asrwt>0</asrwt>
<pdfrwt beam="1">  1       21 0.18194802E+00 0.10820524E+04</pdfrwt>
<pdfrwt beam="2">  1       21 0.28730311E+00 0.10820524E+04</pdfrwt>
<totfact> 0.21808400E+00</totfact>
</mgrwt>
</event>
<event>
 8    1  0.7631533E-006  0.1030040E+04  0.7818608E-02  0.8750072E-01
         21   -1    0    0  503  502  0.00000000000E+00  0.00000000000E+00  0.79703247349E+03  0.79703247349E+03  0.00000000000E+00 0. -1.
         21   -1    0    0  501  503 -0.00000000000E+00 -0.00000000000E+00 -0.13300876273E+04  0.13300876273E+04  0.00000000000E+00 0. -1.
    9000010    2    1    2  501    0 -0.89956481007E+02  0.11943361561E+03 -0.14447463549E+03  0.10262217097E+04  0.10049385654E+04 0.  0.
   -9000010    2    1    2    0  502  0.89956481007E+02 -0.11943361561E+03 -0.38858051836E+03  0.11008983911E+04  0.10191299678E+04 0.  0.
        -13    1    3    3    0    0 -0.45380388344E+03  0.34874073467E+03 -0.16505532726E+03  0.59565202666E+03  0.10566000000E+00 0.  1.
          4    1    3    3  501    0  0.36384740244E+03 -0.22930711906E+03  0.20580691767E+02  0.43056968308E+03  0.00000000000E+00 0.  1.
         13    1    4    4    0    0 -0.24956887758E+03  0.33565393035E+03 -0.32474290031E+03  0.52953389702E+03  0.10566000000E+00 0. -1.
         -4    1    4    4    0  502  0.33952535859E+03 -0.45508754596E+03 -0.63837618048E+02  0.57136449408E+03  0.00000000000E+00 0. -1.
<mgrwt>
<rscale>  2 0.10265122E+04</rscale>
<asrwt>0</asrwt>
<pdfrwt beam="1">  1       21 0.12262038E+00 0.10300400E+04</pdfrwt>
<pdfrwt beam="2">  1       21 0.20462886E+00 0.10300400E+04</pdfrwt>
<totfact> 0.30199730E+01</totfact>
</mgrwt>
</event>
<event>
 8    1  0.7631533E-006  0.1379158E+04  0.7818608E-02  0.8483786E-01
         21   -1    0    0  501  502  0.00000000000E+00  0.00000000000E+00  0.21405200028E+04  0.21405200028E+04  0.00000000000E+00 0.  1.
         21   -1    0    0  502  503 -0.00000000000E+00 -0.00000000000E+00 -0.11771934092E+04  0.11771934092E+04  0.00000000000E+00 0.  1.
    9000010    2    1    2  501    0  0.35744501368E+03  0.86558995223E+03  0.13105670849E+04  0.19025413252E+04  0.10124546938E+04 0.  0.
   -9000010    2    1    2    0  503 -0.35744501368E+03 -0.86558995223E+03 -0.34724049122E+03  0.14151720868E+04  0.10025583141E+04 0.  0.
        -13    1    3    3    0    0  0.17395436866E+03 -0.11496530910E+03 -0.50979284563E+02  0.21465330953E+03  0.10566000000E+00 0.  1.
          4    1    3    3  501    0  0.18349064501E+03  0.98055526133E+03  0.13615463695E+04  0.16878880157E+04  0.00000000000E+00 0.  1.
         13    1    4    4    0    0 -0.12399597587E+03 -0.10406360529E+04 -0.39409558020E+03  0.11196471471E+04  0.10566000000E+00 0. -1.
         -4    1    4    4    0  503 -0.23344903780E+03  0.17504610064E+03  0.46855088983E+02  0.29552493966E+03  0.00000000000E+00 0. -1.
<mgrwt>
<rscale>  2 0.13773425E+04</rscale>
<asrwt>0</asrwt>
<pdfrwt beam="1">  1       21 0.32931077E+00 0.13791582E+04</pdfrwt>
<pdfrwt beam="2">  1       21 0.18110668E+00 0.13791582E+04</pdfrwt>
<totfact> 0.10481923E+00</totfact>
</mgrwt>
</event>
<event>
 8    1  0.7631533E-006  0.1115334E+04  0.7818608E-02  0.8674647E-01
         21   -1    0    0  503  502  0.00000000000E+00  0.00000000000E+00  0.14073302274E+04  0.14073302274E+04  0.00000000000E+00 0. -1.
         21   -1    0    0  501  503 -0.00000000000E+00 -0.00000000000E+00 -0.95691335957E+03  0.95691335957E+03  0.00000000000E+00 0. -1.
    9000010    2    1    2  501    0  0.31415458082E+03  0.39119748575E+03 -0.11410277759E+03  0.11141828775E+04  0.98825880579E+03 0.  0.
   -9000010    2    1    2    0  502 -0.31415458082E+03 -0.39119748575E+03  0.56451964544E+03  0.12500607095E+04  0.99611283183E+03 0.  0.
        -13    1    3    3    0    0  0.59104289363E+03  0.11127367983E+03 -0.30754513067E+03  0.67549800333E+03  0.10566000000E+00 0.  1.
          4    1    3    3  501    0 -0.27688831281E+03  0.27992380592E+03  0.19344235308E+03  0.43868487421E+03  0.00000000000E+00 0.  1.
         13    1    4    4    0    0 -0.90800042290E+02 -0.20053280031E+03  0.82723957509E+03  0.85602767329E+03  0.10566000000E+00 0. -1.
         -4    1    4    4    0  502 -0.22335453853E+03 -0.19066468544E+03 -0.26271992965E+03  0.39403303616E+03  0.00000000000E+00 0. -1.
<mgrwt>
<rscale>  2 0.11135774E+04</rscale>
<asrwt>0</asrwt>
<pdfrwt beam="1">  1       21 0.21651234E+00 0.11153337E+04</pdfrwt>
<pdfrwt beam="2">  1       21 0.14721744E+00 0.11153337E+04</pdfrwt>
<totfact> 0.14058655E+01</totfact>
</mgrwt>
</event>
<event>
 8    1  0.7631533E-006  0.1013185E+04  0.7818608E-02  0.8763444E-01
         21   -1    0    0  503  502  0.00000000000E+00  0.00000000000E+00  0.24526074932E+04  0.24526074932E+04  0.00000000000E+00 0.  1.
         21   -1    0    0  501  503 -0.00000000000E+00 -0.00000000000E+00 -0.48919311504E+03  0.48919311504E+03  0.00000000000E+00 0.  1.
    9000010    2    1    2  501    0  0.70370445080E+02  0.15209677329E+03  0.41273057925E+03  0.10894604842E+04  0.99422944411E+03 0.  0.
   -9000010    2    1    2    0  502 -0.70370445080E+02 -0.15209677329E+03  0.15506837989E+04  0.18523401240E+04  0.99922883418E+03 0.  0.
        -13    1    3    3    0    0  0.39832800147E+03  0.23426493458E+03  0.55539236548E+03  0.72249979040E+03  0.10566000000E+00 0.  1.
          4    1    3    3  501    0 -0.32795755639E+03 -0.82168161283E+02 -0.14266178623E+03  0.36696069377E+03  0.00000000000E+00 0.  1.
         13    1    4    4    0    0  0.83380535885E+02 -0.21334100788E+03 -0.57095828497E+02  0.23606491524E+03  0.10566000000E+00 0. -1.
         -4    1    4    4    0  502 -0.15375098097E+03  0.61244234590E+02  0.16077796274E+04  0.16162752088E+04  0.00000000000E+00 0. -1.
<mgrwt>
<rscale>  2 0.10119501E+04</rscale>
<asrwt>0</asrwt>
<pdfrwt beam="1">  1       21 0.37732422E+00 0.10131849E+04</pdfrwt>
<pdfrwt beam="2">  1       21 0.75260481E-01 0.10131849E+04</pdfrwt>
<totfact> 0.62050882E+00</totfact>
</mgrwt>
</event>
<event>
 8    1  0.7631533E-006  0.1068159E+04  0.7818608E-02  0.8719921E-01
         21   -1    0    0  503  502  0.00000000000E+00  0.00000000000E+00  0.12103986546E+04  0.12103986546E+04  0.00000000000E+00 0.  1.
         21   -1    0    0  501  503 -0.00000000000E+00 -0.00000000000E+00 -0.10450788201E+04  0.10450788201E+04  0.00000000000E+00 0.  1.
    9000010    2    1    2  501    0  0.32877922127E+03 -0.47594083031E+02  0.48102760252E+03  0.11714739304E+04  0.10151860135E+04 0.  0.
   -9000010    2    1    2    0  502 -0.32877922127E+03  0.47594083031E+02 -0.31570776797E+03  0.10840035443E+04  0.98236007468E+03 0.  0.
        -13    1    3    3    0    0  0.48421088738E+03  0.15067811835E+03  0.68152594180E+03  0.84949496721E+03  0.10566000000E+00 0.  1.
          4    1    3    3  501    0 -0.15543166611E+03 -0.19827220139E+03 -0.20049833927E+03  0.32197896317E+03  0.00000000000E+00 0.  1.
         13    1    4    4    0    0 -0.33733339123E+03 -0.37978271794E+03  0.64340456885E+02  0.51202386198E+03  0.10566000000E+00 0. -1.
         -4    1    4    4    0  502  0.85541699616E+01  0.42737680097E+03 -0.38004822485E+03  0.57197968237E+03  0.00000000000E+00 0. -1.
<mgrwt>
<rscale>  2 0.10602854E+04</rscale>
<asrwt>0</asrwt>
<pdfrwt beam="1">  1       21 0.18621518E+00 0.10681590E+04</pdfrwt>
<pdfrwt beam="2">  1       21 0.16078136E+00 0.10681590E+04</pdfrwt>
<totfact> 0.18586422E+01</totfact>
</mgrwt>
</event>
<event>
 8    1  0.7631533E-006  0.9937124E+03  0.7818608E-02  0.8782028E-01
         21   -1    0    0  501  502  0.00000000000E+00  0.00000000000E+00  0.71659458508E+03  0.71659458508E+03  0.00000000000E+00 0.  1.
         21   -1    0    0  502  503 -0.00000000000E+00 -0.00000000000E+00 -0.13916381999E+04  0.13916381999E+04  0.00000000000E+00 0.  1.
    9000010    2    1    2  501    0  0.29695365184E+02  0.14092691747E+02 -0.47027391584E+03  0.10936417428E+04  0.98682029113E+03 0.  0.
   -9000010    2    1    2    0  503 -0.29695365184E+02 -0.14092691747E+02 -0.20476969897E+03  0.10145910422E+04  0.99316863351E+03 0.  0.
        -13    1    3    3    0    0  0.46939281501E+03 -0.12524541008E+03 -0.86155467082E+02  0.49339517955E+03  0.10566000000E+00 0.  1.
          4    1    3    3  501    0 -0.43969744983E+03  0.13933810182E+03 -0.38411844876E+03  0.60024656324E+03  0.00000000000E+00 0.  1.
         13    1    4    4    0    0  0.15943906829E+03 -0.33110686565E+03 -0.44273971575E+03  0.57538773018E+03  0.10566000000E+00 0. -1.
         -4    1    4    4    0  503 -0.18913443347E+03  0.31701417391E+03  0.23797001678E+03  0.43920331200E+03  0.00000000000E+00 0. -1.
<mgrwt>
<rscale>  2 0.99212239E+03</rscale>
<asrwt>0</asrwt>
<pdfrwt beam="1">  1       21 0.11024532E+00 0.99371241E+03</pdfrwt>
<pdfrwt beam="2">  1       21 0.21409818E+00 0.99371241E+03</pdfrwt>
<totfact> 0.34564222E+01</totfact>
</mgrwt>
</event>
<event>
 8    1  0.7631533E-006  0.1031982E+04  0.7818608E-02  0.8746235E-01
         21   -1    0    0  503  502  0.00000000000E+00  0.00000000000E+00  0.78309190983E+03  0.78309190983E+03  0.00000000000E+00 0.  1.
         21   -1    0    0  501  503 -0.00000000000E+00 -0.00000000000E+00 -0.14579737669E+04  0.14579737669E+04  0.00000000000E+00 0.  1.
    9000010    2    1    2  501    0  0.17917741050E+03  0.19711156274E+03 -0.63672686800E+03  0.12083786162E+04  0.99186705914E+03 0.  0.
   -9000010    2    1    2    0  502 -0.17917741050E+03 -0.19711156274E+03 -0.38154989032E+02  0.10326870605E+04  0.99701015500E+03 0.  0.
        -13    1    3    3    0    0  0.41124768393E+03  0.23680701478E+03  0.54952979947E+02  0.47772592661E+03  0.10566000000E+00 0.  1.
          4    1    3    3  501    0 -0.23207027343E+03 -0.39695452042E+02 -0.69167984795E+03  0.73065268957E+03  0.00000000000E+00 0.  1.
         13    1    4    4    0    0  0.75030670868E+02 -0.56561254440E+03  0.62053014654E+02  0.57393182500E+03  0.10566000000E+00 0. -1.
         -4    1    4    4    0  502 -0.25420808137E+03  0.36850098166E+03 -0.10020800369E+03  0.45875523552E+03  0.00000000000E+00 0. -1.
<mgrwt>
<rscale>  2 0.10307377E+04</rscale>
<asrwt>0</asrwt>
<pdfrwt beam="1">  1       21 0.12047568E+00 0.10319820E+04</pdfrwt>
<pdfrwt beam="2">  1       21 0.22430366E+00 0.10319820E+04</pdfrwt>
<totfact> 0.22476408E+01</totfact>
</mgrwt>
</event>
<event>
 8    1  0.7631533E-006  0.9962433E+03  0.7818608E-02  0.8779060E-01
         21   -1    0    0  501  502  0.00000000000E+00  0.00000000000E+00  0.17522279185E+04  0.17522279185E+04  0.00000000000E+00 0. -1.
         21   -1    0    0  502  503 -0.00000000000E+00 -0.00000000000E+00 -0.62948672985E+03  0.62948672985E+03  0.00000000000E+00 0. -1.
    9000010    2    1    2  501    0 -0.21587855113E+02  0.48908563159E+02  0.94392728426E+03  0.13695510695E+04  0.99086494083E+03 0.  0.
   -9000010    2    1    2    0  503  0.21587855113E+02 -0.48908563159E+02  0.17881390435E+03  0.10121635788E+04  0.99480782810E+03 0.  0.
        -13    1    3    3    0    0  0.32684275575E+03  0.17106325428E+03  0.92951877237E+03  0.10000469905E+04  0.10566000000E+00 0.  1.
          4    1    3    3  501    0 -0.34843061086E+03 -0.12215469112E+03  0.14408511895E+02  0.36950407895E+03  0.00000000000E+00 0.  1.
         13    1    4    4    0    0  0.20428910507E+03  0.33402609547E+03 -0.20329562176E+03  0.44117637278E+03  0.10566000000E+00 0. -1.
         -4    1    4    4    0  503 -0.18270124996E+03 -0.38293465863E+03  0.38210952611E+03  0.57098720604E+03  0.00000000000E+00 0. -1.
<mgrwt>
<rscale>  2 0.99525753E+03</rscale>
<asrwt>0</asrwt>
<pdfrwt beam="1">  1       21 0.26957352E+00 0.99624329E+03</pdfrwt>
<pdfrwt beam="2">  1       21 0.96844113E-01 0.99624329E+03</pdfrwt>
<totfact> 0.19048170E+01</totfact>
</mgrwt>
</event>
<event>
 8    1  0.7631533E-006  0.1013872E+04  0.7818608E-02  0.8762601E-01
         21   -1    0    0  501  502  0.00000000000E+00  0.00000000000E+00  0.16494177235E+04  0.16494177235E+04  0.00000000000E+00 0.  1.
         21   -1    0    0  502  503 -0.00000000000E+00 -0.00000000000E+00 -0.77070466608E+03  0.77070466608E+03  0.00000000000E+00 0.  1.
    9000010    2    1    2  501    0  0.11205270826E+03  0.26749617443E+02  0.97385218454E+03  0.14058178950E+04  0.10073055768E+04 0.  0.
   -9000010    2    1    2    0  503 -0.11205270826E+03 -0.26749617443E+02 -0.95139127111E+02  0.10143044946E+04  0.10032401521E+04 0.  0.
        -13    1    3    3    0    0  0.46069272797E+03  0.26618248196E+03  0.30163116030E+03  0.61161447934E+03  0.10566000000E+00 0.  1.
          4    1    3    3  501    0 -0.34864001971E+03 -0.23943286452E+03  0.67222102423E+03  0.79420341561E+03  0.00000000000E+00 0.  1.
         13    1    4    4    0    0  0.17411384391E+03 -0.99025075546E+02  0.39458461868E+03  0.44251398700E+03  0.10566000000E+00 0. -1.
         -4    1    4    4    0  503 -0.28616655217E+03  0.72275458103E+02 -0.48972374579E+03  0.57179050764E+03  0.00000000000E+00 0. -1.
<mgrwt>
<rscale>  2 0.10128605E+04</rscale>
<asrwt>0</asrwt>
<pdfrwt beam="1">  1       21 0.25375657E+00 0.10138717E+04</pdfrwt>
<pdfrwt beam="2">  1       21 0.11856995E+00 0.10138717E+04</pdfrwt>
<totfact> 0.14328763E+01</totfact>
</mgrwt>
</event>
<event>
 8    1  0.7631533E-006  0.1185132E+04  0.7818608E-02  0.8621302E-01
         21   -1    0    0  501  502  0.00000000000E+00  0.00000000000E+00  0.77154999575E+03  0.77154999575E+03  0.00000000000E+00 0.  1.
         21   -1    0    0  502  503 -0.00000000000E+00 -0.00000000000E+00 -0.20638161906E+04  0.20638161906E+04  0.00000000000E+00 0.  1.
    9000010    2    1    2  501    0 -0.55847710333E+03 -0.22170133069E+03 -0.12825440406E+03  0.11742034059E+04  0.10006279485E+04 0.  0.
   -9000010    2    1    2    0  503  0.55847710333E+03  0.22170133069E+03 -0.11640117908E+04  0.16611627805E+04  0.10215136706E+04 0.  0.
        -13    1    3    3    0    0 -0.25332428802E+03 -0.51969422082E+03  0.22500514565E+03  0.62038907533E+03  0.10566000000E+00 0.  1.
          4    1    3    3  501    0 -0.30515281531E+03  0.29799289013E+03 -0.35325954971E+03  0.55381433055E+03  0.00000000000E+00 0.  1.
         13    1    4    4    0    0  0.37628259979E+03  0.28377358907E+03  0.10078703462E+02  0.47139965655E+03  0.10566000000E+00 0. -1.
         -4    1    4    4    0  503  0.18219450354E+03 -0.62072258386E+02 -0.11740904943E+04  0.11897631240E+04  0.00000000000E+00 0. -1.
<mgrwt>
<rscale>  2 0.11806179E+04</rscale>
<asrwt>0</asrwt>
<pdfrwt beam="1">  1       21 0.11870000E+00 0.11851322E+04</pdfrwt>
<pdfrwt beam="2">  1       21 0.31751018E+00 0.11851322E+04</pdfrwt>
<totfact> 0.48344352E+00</totfact>
</mgrwt>
</event>
<event>
 8    1  0.7631533E-006  0.1044148E+04  0.7818608E-02  0.8743053E-01
         21   -1    0    0  503  502  0.00000000000E+00  0.00000000000E+00  0.73467699414E+03  0.73467699414E+03  0.00000000000E+00 0.  1.
         21   -1    0    0  501  503 -0.00000000000E+00 -0.00000000000E+00 -0.15840167868E+04  0.15840167868E+04  0.00000000000E+00 0.  1.
    9000010    2    1    2  501    0 -0.86495631737E+02 -0.30486089045E+03 -0.69419195616E+02  0.10464532303E+04  0.99489882984E+03 0.  0.
   -9000010    2    1    2    0  502  0.86495631737E+02  0.30486089045E+03 -0.77992059702E+03  0.12722405506E+04  0.95388585489E+03 0.  0.
        -13    1    3    3    0    0 -0.44239630931E+03  0.11753161556E+03  0.10034459465E+03  0.46861201861E+03  0.10566000000E+00 0.  1.
          4    1    3    3  501    0  0.35590067757E+03 -0.42239250601E+03 -0.16976379027E+03  0.57784121168E+03  0.00000000000E+00 0.  1.
         13    1    4    4    0    0  0.46067464559E+03  0.71893151521E+02 -0.12484015009E+03  0.48267466120E+03  0.10566000000E+00 0. -1.
         -4    1    4    4    0  502 -0.37417901385E+03  0.23296773893E+03 -0.65508044694E+03  0.78956588943E+03  0.00000000000E+00 0. -1.
<mgrwt>
<rscale>  2 0.10342581E+04</rscale>
<asrwt>0</asrwt>
<pdfrwt beam="1">  1       21 0.11302723E+00 0.10441481E+04</pdfrwt>
<pdfrwt beam="2">  1       21 0.24369489E+00 0.10441481E+04</pdfrwt>
<totfact> 0.19220485E+01</totfact>
</mgrwt>
</event>
<event>
 8    1  0.7631533E-006  0.1146494E+04  0.7818608E-02  0.8649359E-01
         21   -1    0    0  503  502  0.00000000000E+00  0.00000000000E+00  0.16517140328E+04  0.16517140328E+04  0.00000000000E+00 0.  1.
         21   -1    0    0  501  503 -0.00000000000E+00 -0.00000000000E+00 -0.97126756148E+03  0.97126756148E+03  0.00000000000E+00 0.  1.
    9000010    2    1    2  501    0  0.52326269858E+03 -0.23469602408E+03 -0.22558282389E+03  0.11617025495E+04  0.98477364282E+03 0.  0.
   -9000010    2    1    2    0  502 -0.52326269858E+03  0.23469602408E+03  0.90602929518E+03  0.14612790448E+04  0.99275439436E+03 0.  0.
        -13    1    3    3    0    0 -0.15234299638E+03  0.16697737843E+03 -0.29614640033E+03  0.37254870157E+03  0.10566000000E+00 0.  1.
          4    1    3    3  501    0  0.67560569496E+03 -0.40167340251E+03  0.70563576437E+02  0.78915384791E+03  0.00000000000E+00 0.  1.
         13    1    4    4    0    0 -0.25456892968E+03  0.31015632808E+03  0.10664029446E+04  0.11393934962E+04  0.10566000000E+00 0. -1.
         -4    1    4    4    0  502 -0.26869376890E+03 -0.75460303993E+02 -0.16037364944E+03  0.32188554854E+03  0.00000000000E+00 0. -1.
<mgrwt>
<rscale>  2 0.11447637E+04</rscale>
<asrwt>0</asrwt>
<pdfrwt beam="1">  1       21 0.25410985E+00 0.11464935E+04</pdfrwt>
<pdfrwt beam="2">  1       21 0.14942578E+00 0.11464935E+04</pdfrwt>
<totfact> 0.70273342E+00</totfact>
</mgrwt>
</event>
<event>
 8    1  0.7631533E-006  0.1004926E+04  0.7818608E-02  0.8808642E-01
         21   -1    0    0  501  502  0.00000000000E+00  0.00000000000E+00  0.53634964868E+03  0.53634964868E+03  0.00000000000E+00 0. -1.
         21   -1    0    0  502  503 -0.00000000000E+00 -0.00000000000E+00 -0.16683951729E+04  0.16683951729E+04  0.00000000000E+00 0. -1.
    9000010    2    1    2  501    0  0.32917677644E+02 -0.11211825829E+03 -0.40290722670E+03  0.10826863589E+04  0.99810893244E+03 0.  0.
   -9000010    2    1    2    0  503 -0.32917677644E+02  0.11211825829E+03 -0.72913829752E+03  0.11220584627E+04  0.84481859560E+03 0.  0.
        -13    1    3    3    0    0 -0.30247184362E+03 -0.25575178260E+03  0.14721149350E+03  0.42257475725E+03  0.10566000000E+00 0.  1.
          4    1    3    3  501    0  0.33538952127E+03  0.14363352430E+03 -0.55011872020E+03  0.66011160162E+03  0.00000000000E+00 0.  1.
         13    1    4    4    0    0 -0.33681241066E+03 -0.12872741075E+03 -0.62335309919E+03  0.72012668586E+03  0.10566000000E+00 0. -1.
         -4    1    4    4    0  503  0.30389473301E+03  0.24084566905E+03 -0.10578519833E+03  0.40193177684E+03  0.00000000000E+00 0. -1.
<mgrwt>
<rscale>  2 0.96453958E+03</rscale>
<asrwt>0</asrwt>
<pdfrwt beam="1">  1       21 0.82515332E-01 0.10049256E+04</pdfrwt>
<pdfrwt beam="2">  1       21 0.25667618E+00 0.10049256E+04</pdfrwt>
<totfact> 0.35362763E+01</totfact>
</mgrwt>
</event>
<event>
 8    1  0.7631533E-006  0.1050620E+04  0.7818608E-02  0.8729017E-01
         21   -1    0    0  503  502  0.00000000000E+00  0.00000000000E+00  0.14452731144E+04  0.14452731144E+04  0.00000000000E+00 0.  1.
         21   -1    0    0  501  503 -0.00000000000E+00 -0.00000000000E+00 -0.94306269342E+03  0.94306269342E+03  0.00000000000E+00 0.  1.
    9000010    2    1    2  501    0 -0.16614038182E+03  0.29329403364E+03 -0.27267650291E+03  0.10828657705E+04  0.99228110178E+03 0.  0.
   -9000010    2    1    2    0  502  0.16614038182E+03 -0.29329403364E+03  0.77488692387E+03  0.13054700373E+04  0.99507701058E+03 0.  0.
        -13    1    3    3    0    0 -0.25994564304E+03 -0.21756432093E+03 -0.42308047037E+03  0.54212827509E+03  0.10566000000E+00 0.  1.
          4    1    3    3  501    0  0.93805261217E+02  0.51085835457E+03  0.15040396747E+03  0.54073749537E+03  0.00000000000E+00 0.  1.
         13    1    4    4    0    0 -0.31508390355E+03 -0.35394767883E+03  0.65039328522E+03  0.80471626195E+03  0.10566000000E+00 0. -1.
         -4    1    4    4    0  502  0.48122428537E+03  0.60653645196E+02  0.12449363866E+03  0.50075377539E+03  0.00000000000E+00 0. -1.
<mgrwt>
<rscale>  2 0.10499574E+04</rscale>
<asrwt>0</asrwt>
<pdfrwt beam="1">  1       21 0.22234971E+00 0.10506199E+04</pdfrwt>
<pdfrwt beam="2">  1       21 0.14508657E+00 0.10506199E+04</pdfrwt>
<totfact> 0.13473042E+01</totfact>
</mgrwt>
</event>
<event>
 8    1  0.7631533E-006  0.1069529E+04  0.7818608E-02  0.8715143E-01
         21   -1    0    0  503  502  0.00000000000E+00  0.00000000000E+00  0.11215299475E+04  0.11215299475E+04  0.00000000000E+00 0.  1.
         21   -1    0    0  501  503 -0.00000000000E+00 -0.00000000000E+00 -0.12541170262E+04  0.12541170262E+04  0.00000000000E+00 0. -1.
    9000010    2    1    2  501    0 -0.37253066427E+02  0.36708784735E+03 -0.59457545039E+03  0.12106040348E+04  0.98787695801E+03 0.  0.
   -9000010    2    1    2    0  502  0.37253066427E+02 -0.36708784735E+03  0.46198837170E+03  0.11650429389E+04  0.10038677778E+04 0.  0.
        -13    1    3    3    0    0 -0.75529063477E+02  0.19917907287E+03  0.26155467134E+03  0.33732447252E+03  0.10566000000E+00 0.  1.
          4    1    3    3  501    0  0.38275997051E+02  0.16790877448E+03 -0.85613012173E+03  0.87327956225E+03  0.00000000000E+00 0.  1.
         13    1    4    4    0    0  0.30494767451E+03 -0.59701752730E+03  0.45841860813E+03  0.81213954684E+03  0.10566000000E+00 0. -1.
         -4    1    4    4    0  502 -0.26769460809E+03  0.22992967995E+03  0.35697635648E+01  0.35290339207E+03  0.00000000000E+00 0. -1.
<mgrwt>
<rscale>  2 0.10657602E+04</rscale>
<asrwt>0</asrwt>
<pdfrwt beam="1">  1       21 0.17254307E+00 0.10695288E+04</pdfrwt>
<pdfrwt beam="2">  1       21 0.19294108E+00 0.10695288E+04</pdfrwt>
<totfact> 0.13055831E+01</totfact>
</mgrwt>
</event>
<event>
 8    1  0.7631533E-006  0.1189717E+04  0.7818608E-02  0.8615119E-01
         21   -1    0    0  503  502  0.00000000000E+00  0.00000000000E+00  0.12461767597E+04  0.12461767597E+04  0.00000000000E+00 0. -1.
         21   -1    0    0  501  503 -0.00000000000E+00 -0.00000000000E+00 -0.17054304786E+04  0.17054304786E+04  0.00000000000E+00 0. -1.
    9000010    2    1    2  501    0 -0.29660214461E+03 -0.53198540021E+03 -0.10851639529E+04  0.16072895450E+04  0.10172598382E+04 0.  0.
   -9000010    2    1    2    0  502  0.29660214461E+03  0.53198540021E+03  0.62591023402E+03  0.13443176934E+04  0.10219809888E+04 0.  0.
        -13    1    3    3    0    0 -0.45714851724E+03  0.75521355984E+02 -0.78353222054E+03  0.91028072253E+03  0.10566000000E+00 0.  1.
          4    1    3    3  501    0  0.16054637263E+03 -0.60750675620E+03 -0.30163173236E+03  0.69700882244E+03  0.00000000000E+00 0.  1.
         13    1    4    4    0    0 -0.17554551473E+03  0.34466421578E+03 -0.15172308435E+03  0.41548712961E+03  0.10566000000E+00 0. -1.
         -4    1    4    4    0  502  0.47214765935E+03  0.18732118444E+03  0.77763331837E+03  0.92883056378E+03  0.00000000000E+00 0. -1.
<mgrwt>
<rscale>  2 0.11887024E+04</rscale>
<asrwt>0</asrwt>
<pdfrwt beam="1">  1       21 0.19171950E+00 0.11897170E+04</pdfrwt>
<pdfrwt beam="2">  1       21 0.26237392E+00 0.11897170E+04</pdfrwt>
<totfact> 0.26742529E+00</totfact>
</mgrwt>
</event>
<event>
 8    1  0.7631533E-006  0.1047730E+04  0.7818608E-02  0.8737495E-01
         21   -1    0    0  501  502  0.00000000000E+00  0.00000000000E+00  0.81798055085E+03  0.81798055085E+03  0.00000000000E+00 0.  1.
         21   -1    0    0  502  503 -0.00000000000E+00 -0.00000000000E+00 -0.15527874722E+04  0.15527874722E+04  0.00000000000E+00 0.  1.
    9000010    2    1    2  501    0  0.85059743340E+02  0.11879831549E+03  0.11010448815E+03  0.10248060634E+04  0.10083433293E+04 0.  0.
   -9000010    2    1    2    0  503 -0.85059743340E+02 -0.11879831549E+03 -0.84491140947E+03  0.13459619596E+04  0.10374922203E+04 0.  0.
        -13    1    3    3    0    0  0.22048912022E+03 -0.40610210509E+03  0.13721142762E+03  0.48203875251E+03  0.10566000000E+00 0.  1.
          4    1    3    3  501    0 -0.13542937688E+03  0.52490042058E+03 -0.27106939471E+02  0.54276731093E+03  0.00000000000E+00 0.  1.
         13    1    4    4    0    0 -0.20918391603E+03  0.41396740448E+03 -0.21366260884E+03  0.51066490409E+03  0.10566000000E+00 0. -1.
         -4    1    4    4    0  503  0.12412417269E+03 -0.53276571996E+03 -0.63124880063E+03  0.83529705549E+03  0.00000000000E+00 0. -1.
<mgrwt>
<rscale>  2 0.10404404E+04</rscale>
<asrwt>0</asrwt>
<pdfrwt beam="1">  1       21 0.12584316E+00 0.10477301E+04</pdfrwt>
<pdfrwt beam="2">  1       21 0.23889038E+00 0.10477301E+04</pdfrwt>
<totfact> 0.15431683E+01</totfact>
</mgrwt>
</event>
<event>
 8    1  0.7631533E-006  0.1065884E+04  0.7818608E-02  0.8720212E-01
         21   -1    0    0  501  502  0.00000000000E+00  0.00000000000E+00  0.21455254150E+04  0.21455254150E+04  0.00000000000E+00 0. -1.
         21   -1    0    0  502  503 -0.00000000000E+00 -0.00000000000E+00 -0.11239466983E+04  0.11239466983E+04  0.00000000000E+00 0. -1.
    9000010    2    1    2  501    0  0.26963862625E+03  0.31966687272E+02  0.17085324690E+04  0.20013970279E+04  0.10063697171E+04 0.  0.
   -9000010    2    1    2    0  503 -0.26963862625E+03 -0.31966687272E+02 -0.68695375234E+03  0.12680750854E+04  0.10307192181E+04 0.  0.
        -13    1    3    3    0    0 -0.26323563756E+02 -0.13114981064E+03 -0.96539708606E+02  0.16496402438E+03  0.10566000000E+00 0.  1.
          4    1    3    3  501    0  0.29596219001E+03  0.16311649791E+03  0.18050721776E+04  0.18364330035E+04  0.00000000000E+00 0.  1.
         13    1    4    4    0    0 -0.62687580788E+03  0.17439601841E+03 -0.37651708320E+03  0.75176617032E+03  0.10566000000E+00 0. -1.
         -4    1    4    4    0  503  0.35723718162E+03 -0.20636270568E+03 -0.31043666914E+03  0.51630891507E+03  0.00000000000E+00 0. -1.
<mgrwt>
<rscale>  2 0.10599529E+04</rscale>
<asrwt>0</asrwt>
<pdfrwt beam="1">  1       21 0.33008083E+00 0.10658841E+04</pdfrwt>
<pdfrwt beam="2">  1       21 0.17291488E+00 0.10658841E+04</pdfrwt>
<totfact> 0.12969264E+00</totfact>
</mgrwt>
</event>
<event>
 8    1  0.7631533E-006  0.1048312E+04  0.7818608E-02  0.8733548E-01
         21   -1    0    0  503  502  0.00000000000E+00  0.00000000000E+00  0.80459802167E+03  0.80459802167E+03  0.00000000000E+00 0.  1.
         21   -1    0    0  501  503 -0.00000000000E+00 -0.00000000000E+00 -0.18524108054E+04  0.18524108054E+04  0.00000000000E+00 0.  1.
    9000010    2    1    2  501    0  0.21231202608E+03 -0.21039603882E+03 -0.12196577268E+04  0.16082670056E+04  0.10047959500E+04 0.  0.
   -9000010    2    1    2    0  502 -0.21231202608E+03  0.21039603882E+03  0.17184494316E+03  0.10487418214E+04  0.99044728985E+03 0.  0.
        -13    1    3    3    0    0  0.32742644931E+03  0.23335880183E+03 -0.10415118851E+04  0.11164279771E+04  0.10566000000E+00 0.  1.
          4    1    3    3  501    0 -0.11511442323E+03 -0.44375484065E+03 -0.17814584179E+03  0.49183902853E+03  0.00000000000E+00 0.  1.
         13    1    4    4    0    0 -0.13691070979E+03  0.44235353901E+03 -0.27579533520E+03  0.53896593029E+03  0.10566000000E+00 0. -1.
         -4    1    4    4    0  502 -0.75401316292E+02 -0.23195750019E+03  0.44764027835E+03  0.50977589115E+03  0.00000000000E+00 0. -1.
<mgrwt>
<rscale>  2 0.10448586E+04</rscale>
<asrwt>0</asrwt>
<pdfrwt beam="1">  1       21 0.12378431E+00 0.10483119E+04</pdfrwt>
<pdfrwt beam="2">  1       21 0.28498627E+00 0.10483119E+04</pdfrwt>
<totfact> 0.75211718E+00</totfact>
</mgrwt>
</event>
<event>
 8    1  0.7631533E-006  0.1161973E+04  0.7818608E-02  0.8638841E-01
         21   -1    0    0  503  502  0.00000000000E+00  0.00000000000E+00  0.91261211995E+03  0.91261211995E+03  0.00000000000E+00 0.  1.
         21   -1    0    0  501  503 -0.00000000000E+00 -0.00000000000E+00 -0.15170926313E+04  0.15170926313E+04  0.00000000000E+00 0.  1.
    9000010    2    1    2  501    0 -0.52559900566E+02  0.57063056590E+03 -0.53667222421E+03  0.12657547858E+04  0.99284254324E+03 0.  0.
   -9000010    2    1    2    0  502  0.52559900566E+02 -0.57063056590E+03 -0.67808287107E+02  0.11639499654E+04  0.10108411212E+04 0.  0.
        -13    1    3    3    0    0 -0.19642534328E+03  0.80027133336E+03 -0.55603774927E+03  0.99408003312E+03  0.10566000000E+00 0.  1.
          4    1    3    3  501    0  0.14386544271E+03 -0.22964076746E+03  0.19365525062E+02  0.27167475268E+03  0.00000000000E+00 0.  1.
         13    1    4    4    0    0  0.43846760945E+03  0.38387690655E+02 -0.42807725693E+01  0.44016564553E+03  0.10566000000E+00 0. -1.
         -4    1    4    4    0  502 -0.38590770888E+03 -0.60901825655E+03 -0.63527514538E+02  0.72378431987E+03  0.00000000000E+00 0. -1.
<mgrwt>
<rscale>  2 0.11580475E+04</rscale>
<asrwt>0</asrwt>
<pdfrwt beam="1">  1       21 0.14040187E+00 0.11619731E+04</pdfrwt>
<pdfrwt beam="2">  1       21 0.23339886E+00 0.11619731E+04</pdfrwt>
<totfact> 0.12002649E+01</totfact>
</mgrwt>
</event>
<event>
 8    1  0.7631533E-006  0.1048892E+04  0.7818608E-02  0.8731458E-01
         21   -1    0    0  501  502  0.00000000000E+00  0.00000000000E+00  0.83366858896E+03  0.83366858896E+03  0.00000000000E+00 0. -1.
         21   -1    0    0  502  503 -0.00000000000E+00 -0.00000000000E+00 -0.14374961371E+04  0.14374961371E+04  0.00000000000E+00 0. -1.
    9000010    2    1    2  501    0  0.14219510878E+02 -0.22661916999E+03 -0.63757979797E+03  0.12217297977E+04  0.10171318779E+04 0.  0.
   -9000010    2    1    2    0  503 -0.14219510878E+02  0.22661916999E+03  0.33752249822E+02  0.10494349284E+04  0.10240195368E+04 0.  0.
        -13    1    3    3    0    0  0.28277725270E+03  0.29185688677E+03 -0.79622056735E+02  0.41410517998E+03  0.10566000000E+00 0.  1.
          4    1    3    3  501    0 -0.26855774182E+03 -0.51847605676E+03 -0.55795774123E+03  0.80762461771E+03  0.00000000000E+00 0.  1.
         13    1    4    4    0    0 -0.37041325847E+03 -0.25325729348E+03 -0.21724734538E+02  0.44924070831E+03  0.10566000000E+00 0. -1.
         -4    1    4    4    0  503  0.35619374759E+03  0.47987646346E+03  0.55476984360E+02  0.60019422007E+03  0.00000000000E+00 0. -1.
<mgrwt>
<rscale>  2 0.10472071E+04</rscale>
<asrwt>0</asrwt>
<pdfrwt beam="1">  1       21 0.12825671E+00 0.10488920E+04</pdfrwt>
<pdfrwt beam="2">  1       21 0.22115325E+00 0.10488920E+04</pdfrwt>
<totfact> 0.19796373E+01</totfact>
</mgrwt>
</event>
<event>
 8    1  0.7631533E-006  0.1117226E+04  0.7818608E-02  0.8675080E-01
         21   -1    0    0  501  502  0.00000000000E+00  0.00000000000E+00  0.14003321994E+04  0.14003321994E+04  0.00000000000E+00 0. -1.
         21   -1    0    0  502  503 -0.00000000000E+00 -0.00000000000E+00 -0.16574329448E+04  0.16574329448E+04  0.00000000000E+00 0. -1.
    9000010    2    1    2  501    0 -0.35522622093E+03 -0.36646734616E+03  0.92028081915E+03  0.14346752708E+04  0.97513709949E+03 0.  0.
   -9000010    2    1    2    0  503  0.35522622093E+03  0.36646734616E+03 -0.11773815645E+04  0.16230898733E+04  0.99383570303E+03 0.  0.
        -13    1    3    3    0    0  0.96507606211E+02 -0.50754059559E+03  0.16310500572E+03  0.54176971887E+03  0.10566000000E+00 0.  1.
          4    1    3    3  501    0 -0.45173382714E+03  0.14107324943E+03  0.75717581343E+03  0.89290555196E+03  0.00000000000E+00 0.  1.
         13    1    4    4    0    0  0.30476742060E+03  0.70804239684E+03 -0.84593171824E+03  0.11444683043E+04  0.10566000000E+00 0. -1.
         -4    1    4    4    0  503  0.50458800328E+02 -0.34157505068E+03 -0.33144984628E+03  0.47862156907E+03  0.00000000000E+00 0. -1.
<mgrwt>
<rscale>  2 0.11130523E+04</rscale>
<asrwt>0</asrwt>
<pdfrwt beam="1">  1       21 0.21543572E+00 0.11172258E+04</pdfrwt>
<pdfrwt beam="2">  1       21 0.25498968E+00 0.11172258E+04</pdfrwt>
<totfact> 0.20126461E+00</totfact>
</mgrwt>
</event>
<event>
 8    1  0.7631533E-006  0.1050639E+04  0.7818608E-02  0.8737803E-01
         21   -1    0    0  501  502  0.00000000000E+00  0.00000000000E+00  0.12149714649E+04  0.12149714649E+04  0.00000000000E+00 0. -1.
         21   -1    0    0  502  503 -0.00000000000E+00 -0.00000000000E+00 -0.18348024479E+04  0.18348024479E+04  0.00000000000E+00 0. -1.
    9000010    2    1    2  501    0  0.17513503158E+03  0.11323114122E+03  0.79701095605E+03  0.12858910524E+04  0.98731745852E+03 0.  0.
   -9000010    2    1    2    0  503 -0.17513503158E+03 -0.11323114122E+03 -0.14168419390E+04  0.17638828604E+04  0.10297320499E+04 0.  0.
        -13    1    3    3    0    0 -0.37957481133E+03  0.11441161492E+03  0.12750789459E+03  0.41644366890E+03  0.10566000000E+00 0.  1.
          4    1    3    3  501    0  0.55470984291E+03 -0.11804736964E+01  0.66950306146E+03  0.86944738348E+03  0.00000000000E+00 0.  1.
         13    1    4    4    0    0 -0.24865504124E+03  0.18145442168E+03 -0.14271695937E+04  0.14599890743E+04  0.10566000000E+00 0. -1.
         -4    1    4    4    0  503  0.73520009654E+02 -0.29468556290E+03  0.10327654695E+02  0.30389378614E+03  0.00000000000E+00 0. -1.
<mgrwt>
<rscale>  2 0.10400972E+04</rscale>
<asrwt>0</asrwt>
<pdfrwt beam="1">  1       21 0.18691869E+00 0.10506387E+04</pdfrwt>
<pdfrwt beam="2">  1       21 0.28227730E+00 0.10506387E+04</pdfrwt>
<totfact> 0.21758688E+00</totfact>
</mgrwt>
</event>
<event>
 8    1  0.7631533E-006  0.1005498E+04  0.7818608E-02  0.8829212E-01
         21   -1    0    0  503  502  0.00000000000E+00  0.00000000000E+00  0.74934634553E+03  0.74934634553E+03  0.00000000000E+00 0. -1.
         21   -1    0    0  501  503 -0.00000000000E+00 -0.00000000000E+00 -0.10688051361E+04  0.10688051361E+04  0.00000000000E+00 0. -1.
    9000010    2    1    2  501    0 -0.55408736280E+01 -0.42730721922E+00 -0.23758050710E+03  0.10331847420E+04  0.10054826353E+04 0.  0.
   -9000010    2    1    2    0  502  0.55408736280E+01  0.42730721922E+00 -0.81878283518E+02  0.78496673967E+03  0.78066500191E+03 0.  0.
        -13    1    3    3    0    0  0.79858492855E+02 -0.20850153109E+03 -0.58113739986E+03  0.62255197054E+03  0.10566000000E+00 0.  1.
          4    1    3    3  501    0 -0.85399366483E+02  0.20807422387E+03  0.34355689276E+03  0.41063277146E+03  0.00000000000E+00 0.  1.
         13    1    4    4    0    0 -0.27826408831E+03  0.10989922432E+03 -0.28978790321E+03  0.41651624501E+03  0.10566000000E+00 0. -1.
         -4    1    4    4    0  502  0.28380496194E+03 -0.10947191710E+03  0.20790961969E+03  0.36845049466E+03  0.00000000000E+00 0. -1.
<mgrwt>
<rscale>  2 0.94385403E+03</rscale>
<asrwt>0</asrwt>
<pdfrwt beam="1">  1       21 0.11528405E+00 0.10054980E+04</pdfrwt>
<pdfrwt beam="2">  1       21 0.16443156E+00 0.10054980E+04</pdfrwt>
<totfact> 0.76203003E+01</totfact>
</mgrwt>
</event>
<event>
 8    1  0.7631533E-006  0.1055252E+04  0.7818608E-02  0.8731903E-01
         21   -1    0    0  501  502  0.00000000000E+00  0.00000000000E+00  0.59201942184E+03  0.59201942184E+03  0.00000000000E+00 0.  1.
         21   -1    0    0  502  503 -0.00000000000E+00 -0.00000000000E+00 -0.18414693481E+04  0.18414693481E+04  0.00000000000E+00 0.  1.
    9000010    2    1    2  501    0  0.21703255144E+03  0.70194351842E+02 -0.50723770063E+03  0.11708321203E+04  0.10303045150E+04 0.  0.
   -9000010    2    1    2    0  503 -0.21703255144E+03 -0.70194351842E+02 -0.74221222565E+03  0.12626566496E+04  0.99568692445E+03 0.  0.
        -13    1    3    3    0    0 -0.22946882507E+03  0.31207335293E+03 -0.53702735790E+03  0.66215112594E+03  0.10566000000E+00 0.  1.
          4    1    3    3  501    0  0.44650137651E+03 -0.24187900108E+03  0.29789657265E+02  0.50868099440E+03  0.00000000000E+00 0.  1.
         13    1    4    4    0    0  0.14419176065E+03  0.35869499743E+03 -0.54511889933E+03  0.66828735630E+03  0.10566000000E+00 0. -1.
         -4    1    4    4    0  503 -0.36122431209E+03 -0.42888934927E+03 -0.19709332632E+03  0.59436929332E+03  0.00000000000E+00 0. -1.
<mgrwt>
<rscale>  2 0.10467063E+04</rscale>
<asrwt>0</asrwt>
<pdfrwt beam="1">  1       21 0.91079911E-01 0.10552525E+04</pdfrwt>
<pdfrwt beam="2">  1       21 0.28330298E+00 0.10552525E+04</pdfrwt>
<totfact> 0.17544956E+01</totfact>
</mgrwt>
</event>
<event>
 8    1  0.7631533E-006  0.1010159E+04  0.7818608E-02  0.8775721E-01
         21   -1    0    0  501  502  0.00000000000E+00  0.00000000000E+00  0.14950133119E+04  0.14950133119E+04  0.00000000000E+00 0.  1.
         21   -1    0    0  502  503 -0.00000000000E+00 -0.00000000000E+00 -0.78989936749E+03  0.78989936749E+03  0.00000000000E+00 0.  1.
    9000010    2    1    2  501    0 -0.21055931160E+03  0.64891869997E+02  0.83518743302E+03  0.13107092866E+04  0.98583700850E+03 0.  0.
   -9000010    2    1    2    0  503  0.21055931160E+03 -0.64891869997E+02 -0.13007348863E+03  0.97420339273E+03  0.94000370183E+03 0.  0.
        -13    1    3    3    0    0 -0.52746190771E+03  0.48663076632E+02  0.84033294695E+03  0.99334970278E+03  0.10566000000E+00 0.  1.
          4    1    3    3  501    0  0.31690259611E+03  0.16228793365E+02 -0.51455139311E+01  0.31735958387E+03  0.00000000000E+00 0.  1.
         13    1    4    4    0    0 -0.19811035444E+03  0.25720523863E+03  0.17723955565E+03  0.36988662934E+03  0.10566000000E+00 0. -1.
         -4    1    4    4    0  503  0.40866966604E+03 -0.32209710862E+03 -0.30731304428E+03  0.60431676339E+03  0.00000000000E+00 0. -1.
<mgrwt>
<rscale>  2 0.99879910E+03</rscale>
<asrwt>0</asrwt>
<pdfrwt beam="1">  1       21 0.23000205E+00 0.10101588E+04</pdfrwt>
<pdfrwt beam="2">  1       21 0.12152298E+00 0.10101588E+04</pdfrwt>
<totfact> 0.19994134E+01</totfact>
</mgrwt>
</event>
<event>
 8    1  0.7631533E-006  0.1008754E+04  0.7818608E-02  0.8768183E-01
         21   -1    0    0  501  502  0.00000000000E+00  0.00000000000E+00  0.13569998306E+04  0.13569998306E+04  0.00000000000E+00 0.  1.
         21   -1    0    0  502  503 -0.00000000000E+00 -0.00000000000E+00 -0.75357068502E+03  0.75357068502E+03  0.00000000000E+00 0.  1.
    9000010    2    1    2  501    0 -0.18065118136E+02 -0.67262037024E+02  0.41801948382E+03  0.10849185035E+04  0.99872786098E+03 0.  0.
   -9000010    2    1    2    0  503  0.18065118136E+02  0.67262037024E+02  0.18540966173E+03  0.10256520121E+04  0.10063472448E+04 0.  0.
        -13    1    3    3    0    0 -0.27578783086E+03  0.38622276776E+03  0.25316496009E+03  0.53788424607E+03  0.10566000000E+00 0.  1.
          4    1    3    3  501    0  0.25772271273E+03 -0.45348480478E+03  0.16485452372E+03  0.54703425744E+03  0.00000000000E+00 0.  1.
         13    1    4    4    0    0  0.31999729398E+03  0.31632685039E+03  0.37963015138E+03  0.58871046146E+03  0.10566000000E+00 0. -1.
         -4    1    4    4    0  503 -0.30193217585E+03 -0.24906481336E+03 -0.19422048965E+03  0.43694155063E+03  0.00000000000E+00 0. -1.
<mgrwt>
<rscale>  2 0.10068487E+04</rscale>
<asrwt>0</asrwt>
<pdfrwt beam="1">  1       21 0.20876920E+00 0.10087543E+04</pdfrwt>
<pdfrwt beam="2">  1       21 0.11593395E+00 0.10087543E+04</pdfrwt>
<totfact> 0.32965134E+01</totfact>
</mgrwt>
</event>
<event>
 8    1  0.7631533E-006  0.1215197E+04  0.7818608E-02  0.8629838E-01
         21   -1    0    0  501  502  0.00000000000E+00  0.00000000000E+00  0.14371434331E+04  0.14371434331E+04  0.00000000000E+00 0.  1.
         21   -1    0    0  502  503 -0.00000000000E+00 -0.00000000000E+00 -0.10479326617E+04  0.10479326617E+04  0.00000000000E+00 0.  1.
    9000010    2    1    2  501    0  0.13488641064E+03 -0.21997216642E+03  0.69313906943E+03  0.13989805006E+04  0.11874858204E+04 0.  0.
   -9000010    2    1    2    0  503 -0.13488641064E+03  0.21997216642E+03 -0.30392829806E+03  0.10860955942E+04  0.10102718108E+04 0.  0.
        -13    1    3    3    0    0  0.44811071657E+03 -0.12321159825E+03 -0.15482467738E+03  0.48985202270E+03  0.10566000000E+00 0.  1.
          4    1    3    3  501    0 -0.31322430593E+03 -0.96760568170E+02  0.84796374681E+03  0.90912847787E+03  0.00000000000E+00 0.  1.
         13    1    4    4    0    0  0.71219801252E+02 -0.36026329499E+03 -0.29373450901E+03  0.47025724317E+03  0.10566000000E+00 0. -1.
         -4    1    4    4    0  503 -0.20610621189E+03  0.58023546141E+03 -0.10193789047E+02  0.61583835103E+03  0.00000000000E+00 0. -1.
<mgrwt>
<rscale>  2 0.11695677E+04</rscale>
<asrwt>0</asrwt>
<pdfrwt beam="1">  1       21 0.22109899E+00 0.12151974E+04</pdfrwt>
<pdfrwt beam="2">  1       21 0.16122041E+00 0.12151974E+04</pdfrwt>
<totfact> 0.95661590E+00</totfact>
</mgrwt>
</event>
<event>
 8    1  0.7631533E-006  0.1119181E+04  0.7818608E-02  0.8671273E-01
         21   -1    0    0  503  502  0.00000000000E+00  0.00000000000E+00  0.80162564350E+03  0.80162564350E+03  0.00000000000E+00 0. -1.
         21   -1    0    0  501  503 -0.00000000000E+00 -0.00000000000E+00 -0.17120603894E+04  0.17120603894E+04  0.00000000000E+00 0.  1.
    9000010    2    1    2  501    0  0.51192608312E+03 -0.49617986325E+02 -0.83800859890E+03  0.13981500607E+04  0.99399945737E+03 0.  0.
   -9000010    2    1    2    0  502 -0.51192608312E+03  0.49617986325E+02 -0.72426147006E+02  0.11155359722E+04  0.98724095305E+03 0.  0.
        -13    1    3    3    0    0  0.31873063067E+03  0.26589963152E+03  0.66988150856E+02  0.42045124865E+03  0.10566000000E+00 0.  1.
          4    1    3    3  501    0  0.19319545244E+03 -0.31551761785E+03 -0.90499674975E+03  0.97769881205E+03  0.00000000000E+00 0.  1.
         13    1    4    4    0    0 -0.41251152707E+03  0.17032496529E+03  0.41145229876E+03  0.60701677002E+03  0.10566000000E+00 0. -1.
         -4    1    4    4    0  502 -0.99414556052E+02 -0.12070697897E+03 -0.48387844576E+03  0.50851920219E+03  0.00000000000E+00 0. -1.
<mgrwt>
<rscale>  2 0.11176780E+04</rscale>
<asrwt>0</asrwt>
<pdfrwt beam="1">  1       21 0.12332702E+00 0.11191806E+04</pdfrwt>
<pdfrwt beam="2">  1       21 0.26339390E+00 0.11191806E+04</pdfrwt>
<totfact> 0.10671936E+01</totfact>
</mgrwt>
</event>
<event>
 8    1  0.7631533E-006  0.1004712E+04  0.7818608E-02  0.8776330E-01
         21   -1    0    0  501  502  0.00000000000E+00  0.00000000000E+00  0.57795547475E+03  0.57795547475E+03  0.00000000000E+00 0.  1.
         21   -1    0    0  502  503 -0.00000000000E+00 -0.00000000000E+00 -0.24777044503E+04  0.24777044503E+04  0.00000000000E+00 0.  1.
    9000010    2    1    2  501    0  0.55267336222E+02 -0.10895743229E+03 -0.86346862512E+02  0.98252884433E+03  0.97107206158E+03 0.  0.
   -9000010    2    1    2    0  503 -0.55267336222E+02  0.10895743229E+03 -0.18134021131E+04  0.20731310807E+04  0.99725576144E+03 0.  0.
        -13    1    3    3    0    0  0.33059092757E+03  0.16138058433E+03  0.27076312509E+03  0.45677865040E+03  0.10566000000E+00 0.  1.
          4    1    3    3  501    0 -0.27532359135E+03 -0.27033801662E+03 -0.35710998760E+03  0.52575019394E+03  0.00000000000E+00 0.  1.
         13    1    4    4    0    0 -0.19359456387E+03  0.47649644938E+03 -0.14483401437E+04  0.15369505212E+04  0.10566000000E+00 0. -1.
         -4    1    4    4    0  503  0.13832722765E+03 -0.36753901709E+03 -0.36506196932E+03  0.53618055955E+03  0.00000000000E+00 0. -1.
<mgrwt>
<rscale>  2 0.99815150E+03</rscale>
<asrwt>0</asrwt>
<pdfrwt beam="1">  1       21 0.88916227E-01 0.10047115E+04</pdfrwt>
<pdfrwt beam="2">  1       21 0.38118530E+00 0.10047115E+04</pdfrwt>
<totfact> 0.38671306E+00</totfact>
</mgrwt>
</event>
<event>
 8    1  0.7631533E-006  0.1012342E+04  0.7818608E-02  0.8765176E-01
         21   -1    0    0  503  502  0.00000000000E+00  0.00000000000E+00  0.11050622493E+04  0.11050622493E+04  0.00000000000E+00 0. -1.
         21   -1    0    0  501  503 -0.00000000000E+00 -0.00000000000E+00 -0.97541465397E+03  0.97541465397E+03  0.00000000000E+00 0. -1.
    9000010    2    1    2  501    0  0.11975626401E+02 -0.10124918535E+03 -0.18524836861E+03  0.10202898078E+04  0.99813802683E+03 0.  0.
   -9000010    2    1    2    0  502 -0.11975626401E+02  0.10124918535E+03  0.31489596397E+03  0.10601870955E+04  0.10071953119E+04 0.  0.
        -13    1    3    3    0    0  0.17624884225E+03 -0.67900119567E+02  0.38342773472E+03  0.42742358329E+03  0.10566000000E+00 0.  1.
          4    1    3    3  501    0 -0.16427321585E+03 -0.33349065784E+02 -0.56867610333E+03  0.59286622449E+03  0.00000000000E+00 0.  1.
         13    1    4    4    0    0 -0.29280186718E+03 -0.30542068511E+03 -0.76251203400E+02  0.42991741707E+03  0.10566000000E+00 0. -1.
         -4    1    4    4    0  502  0.28082624078E+03  0.40666987046E+03  0.39114716737E+03  0.63026967846E+03  0.00000000000E+00 0. -1.
<mgrwt>
<rscale>  2 0.10100822E+04</rscale>
<asrwt>0</asrwt>
<pdfrwt beam="1">  1       21 0.17000958E+00 0.10123424E+04</pdfrwt>
<pdfrwt beam="2">  1       21 0.15006379E+00 0.10123424E+04</pdfrwt>
<totfact> 0.31733833E+01</totfact>
</mgrwt>
</event>
<event>
 8    1  0.7631533E-006  0.1009941E+04  0.7818608E-02  0.8773391E-01
         21   -1    0    0  501  502  0.00000000000E+00  0.00000000000E+00  0.18615337111E+04  0.18615337111E+04  0.00000000000E+00 0. -1.
         21   -1    0    0  502  503 -0.00000000000E+00 -0.00000000000E+00 -0.82403273660E+03  0.82403273660E+03  0.00000000000E+00 0. -1.
    9000010    2    1    2  501    0 -0.13791415197E+03  0.11211009884E+02  0.13271726146E+04  0.16677435889E+04  0.10004176775E+04 0.  0.
   -9000010    2    1    2    0  503  0.13791415197E+03 -0.11211009884E+02 -0.28967164010E+03  0.10178228588E+04  0.96587147837E+03 0.  0.
        -13    1    3    3    0    0 -0.33303520037E+03 -0.16769795206E+03  0.13514115104E+04  0.14019087450E+04  0.10566000000E+00 0.  1.
          4    1    3    3  501    0  0.19512104840E+03  0.17890896194E+03 -0.24238895728E+02  0.26583484395E+03  0.00000000000E+00 0.  1.
         13    1    4    4    0    0  0.33263964773E+03  0.38707682210E+03 -0.26181711727E+03  0.57360771918E+03  0.10566000000E+00 0. -1.
         -4    1    4    4    0  503 -0.19472549576E+03 -0.39828783199E+03 -0.27854522831E+02  0.44421513960E+03  0.00000000000E+00 0. -1.
<mgrwt>
<rscale>  2 0.10012783E+04</rscale>
<asrwt>0</asrwt>
<pdfrwt beam="1">  1       21 0.28638980E+00 0.10099413E+04</pdfrwt>
<pdfrwt beam="2">  1       21 0.12677427E+00 0.10099413E+04</pdfrwt>
<totfact> 0.69320903E+00</totfact>
</mgrwt>
</event>
<event>
 8    1  0.7631533E-006  0.1082645E+04  0.7818608E-02  0.8712762E-01
         21   -1    0    0  503  502  0.00000000000E+00  0.00000000000E+00  0.61145799707E+03  0.61145799707E+03  0.00000000000E+00 0.  1.
         21   -1    0    0  501  503 -0.00000000000E+00 -0.00000000000E+00 -0.19627303191E+04  0.19627303191E+04  0.00000000000E+00 0.  1.
    9000010    2    1    2  501    0  0.35638444472E+03  0.15049448557E+03 -0.10391227653E+04  0.15006318614E+04  0.10111683339E+04 0.  0.
   -9000010    2    1    2    0  502 -0.35638444472E+03 -0.15049448557E+03 -0.31214955673E+03  0.10735564547E+04  0.95153962248E+03 0.  0.
        -13    1    3    3    0    0  0.37398344161E+03  0.33541314308E+03 -0.11700752860E+04  0.12733584638E+04  0.10566000000E+00 0.  1.
          4    1    3    3  501    0 -0.17598996888E+02 -0.18491865751E+03  0.13095252073E+03  0.22727339763E+03  0.00000000000E+00 0.  1.
         13    1    4    4    0    0 -0.69878687970E+02  0.31481287785E+03 -0.40666235786E+03  0.51900333675E+03  0.10566000000E+00 0. -1.
         -4    1    4    4    0  502 -0.28650575675E+03 -0.46530736342E+03  0.94512801129E+02  0.55455311800E+03  0.00000000000E+00 0. -1.
<mgrwt>
<rscale>  2 0.10685024E+04</rscale>
<asrwt>0</asrwt>
<pdfrwt beam="1">  1       21 0.94070460E-01 0.10826448E+04</pdfrwt>
<pdfrwt beam="2">  1       21 0.30195851E+00 0.10826448E+04</pdfrwt>
<totfact> 0.11842553E+01</totfact>
</mgrwt>
</event>
<event>
 8    1  0.7631533E-006  0.1044289E+04  0.7818608E-02  0.8735536E-01
         21   -1    0    0  503  502  0.00000000000E+00  0.00000000000E+00  0.13672775576E+04  0.13672775576E+04  0.00000000000E+00 0. -1.
         21   -1    0    0  501  503 -0.00000000000E+00 -0.00000000000E+00 -0.83456525794E+03  0.83456525794E+03  0.00000000000E+00 0. -1.
    9000010    2    1    2  501    0  0.24197675589E+03 -0.10221963758E+03  0.20147474784E+02  0.10444831647E+04  0.10107114108E+04 0.  0.
   -9000010    2    1    2    0  502 -0.24197675589E+03  0.10221963758E+03  0.51256482487E+03  0.11573596508E+04  0.10038710360E+04 0.  0.
        -13    1    3    3    0    0  0.11700727003E+03  0.33688156791E+03 -0.31684249117E+03  0.47704199753E+03  0.10566000000E+00 0.  1.
          4    1    3    3  501    0  0.12496948585E+03 -0.43910120549E+03  0.33698996595E+03  0.56744116718E+03  0.00000000000E+00 0.  1.
         13    1    4    4    0    0  0.25488983267E+03 -0.30338504058E+03  0.19965168936E+03  0.44370273594E+03  0.10566000000E+00 0. -1.
         -4    1    4    4    0  502 -0.49686658856E+03  0.40560467816E+03  0.31291313551E+03  0.71365691488E+03  0.00000000000E+00 0. -1.
<mgrwt>
<rscale>  2 0.10426301E+04</rscale>
<asrwt>0</asrwt>
<pdfrwt beam="1">  1       21 0.21035039E+00 0.10442888E+04</pdfrwt>
<pdfrwt beam="2">  1       21 0.12839465E+00 0.10442888E+04</pdfrwt>
<totfact> 0.23858248E+01</totfact>
</mgrwt>
</event>
<event>
 8    1  0.7631533E-006  0.1008490E+04  0.7818608E-02  0.8769276E-01
         21   -1    0    0  501  502  0.00000000000E+00  0.00000000000E+00  0.25775254261E+04  0.25775254261E+04  0.00000000000E+00 0. -1.
         21   -1    0    0  502  503 -0.00000000000E+00 -0.00000000000E+00 -0.39736429714E+03  0.39736429714E+03  0.00000000000E+00 0. -1.
    9000010    2    1    2  501    0  0.40947736134E+02  0.12958371914E+03  0.12836493310E+04  0.16255245578E+04  0.98798068074E+03 0.  0.
   -9000010    2    1    2    0  503 -0.40947736134E+02 -0.12958371914E+03  0.89651179794E+03  0.13493651655E+04  0.99929189358E+03 0.  0.
        -13    1    3    3    0    0  0.50710267051E+03  0.28954964408E+01  0.75403526409E+03  0.90869725046E+03  0.10566000000E+00 0.  1.
          4    1    3    3  501    0 -0.46615493437E+03  0.12668822270E+03  0.52961406693E+03  0.71682730731E+03  0.00000000000E+00 0.  1.
         13    1    4    4    0    0  0.16442838486E+03  0.40089784917E+03  0.46319359302E+03  0.63427446346E+03  0.10566000000E+00 0. -1.
         -4    1    4    4    0  503 -0.20537612100E+03 -0.53048156831E+03  0.43331820492E+03  0.71509070201E+03  0.00000000000E+00 0. -1.
<mgrwt>
<rscale>  2 0.10056770E+04</rscale>
<asrwt>0</asrwt>
<pdfrwt beam="1">  1       21 0.39654236E+00 0.10084904E+04</pdfrwt>
<pdfrwt beam="2">  1       21 0.61132970E-01 0.10084904E+04</pdfrwt>
<totfact> 0.74343111E+00</totfact>
</mgrwt>
</event>
<event>
 8    1  0.7631533E-006  0.1027557E+04  0.7818608E-02  0.8751723E-01
         21   -1    0    0  501  502  0.00000000000E+00  0.00000000000E+00  0.63157653901E+03  0.63157653901E+03  0.00000000000E+00 0.  1.
         21   -1    0    0  502  503 -0.00000000000E+00 -0.00000000000E+00 -0.27095628012E+04  0.27095628012E+04  0.00000000000E+00 0.  1.
    9000010    2    1    2  501    0  0.89234987798E+02 -0.11836636752E+03  0.48351100530E+00  0.10275569124E+04  0.10168084846E+04 0.  0.
   -9000010    2    1    2    0  503 -0.89234987798E+02  0.11836636752E+03 -0.20784697732E+04  0.23135824278E+04  0.10053126739E+04 0.  0.
        -13    1    3    3    0    0  0.25047855196E+02 -0.10356460853E+03 -0.50585335973E+03  0.51695324344E+03  0.10566000000E+00 0.  1.
          4    1    3    3  501    0  0.64187132603E+02 -0.14801758990E+02  0.50633687073E+03  0.51060366893E+03  0.00000000000E+00 0.  1.
         13    1    4    4    0    0  0.39074566379E+03 -0.20100759005E+03 -0.92404844171E+03  0.10232066061E+04  0.10566000000E+00 0. -1.
         -4    1    4    4    0  503 -0.47998065159E+03  0.31937395757E+03 -0.11544213314E+04  0.12903758217E+04  0.00000000000E+00 0. -1.
<mgrwt>
<rscale>  2 0.10247014E+04</rscale>
<asrwt>0</asrwt>
<pdfrwt beam="1">  1       21 0.97165620E-01 0.10275568E+04</pdfrwt>
<pdfrwt beam="2">  1       21 0.41685582E+00 0.10275568E+04</pdfrwt>
<totfact> 0.17317179E+00</totfact>
</mgrwt>
</event>
<event>
 8    1  0.7631533E-006  0.1049760E+04  0.7818608E-02  0.8731481E-01
         21   -1    0    0  501  502  0.00000000000E+00  0.00000000000E+00  0.18509188480E+04  0.18509188480E+04  0.00000000000E+00 0.  1.
         21   -1    0    0  502  503 -0.00000000000E+00 -0.00000000000E+00 -0.75188458621E+03  0.75188458621E+03  0.00000000000E+00 0.  1.
    9000010    2    1    2  501    0 -0.28562677387E+03  0.11062416620E+03  0.11563120914E+04  0.15617473060E+04  0.10040799942E+04 0.  0.
   -9000010    2    1    2    0  503  0.28562677387E+03 -0.11062416620E+03 -0.57277829625E+02  0.10410561283E+04  0.99332610576E+03 0.  0.
        -13    1    3    3    0    0 -0.35563825776E+03 -0.10382684224E+03  0.12600947335E+04  0.13134296069E+04  0.10566000000E+00 0.  1.
          4    1    3    3  501    0  0.70011483886E+02  0.21445100843E+03 -0.10378264207E+03  0.24831769911E+03  0.00000000000E+00 0.  1.
         13    1    4    4    0    0 -0.34790477998E+03 -0.74160421218E+02  0.13109287532E+03  0.37910797556E+03  0.10566000000E+00 0. -1.
         -4    1    4    4    0  503  0.63353155385E+03 -0.36463744977E+02 -0.18837070495E+03  0.66194815273E+03  0.00000000000E+00 0. -1.
<mgrwt>
<rscale>  2 0.10471807E+04</rscale>
<asrwt>0</asrwt>
<pdfrwt beam="1">  1       21 0.28475674E+00 0.10497604E+04</pdfrwt>
<pdfrwt beam="2">  1       21 0.11567455E+00 0.10497604E+04</pdfrwt>
<totfact> 0.91192337E+00</totfact>
</mgrwt>
</event>
<event>
 8    1  0.7631533E-006  0.1009016E+04  0.7818608E-02  0.8768570E-01
         21   -1    0    0  503  502  0.00000000000E+00  0.00000000000E+00  0.13698727659E+04  0.13698727659E+04  0.00000000000E+00 0.  1.
         21   -1    0    0  501  503 -0.00000000000E+00 -0.00000000000E+00 -0.12772147488E+04  0.12772147488E+04  0.00000000000E+00 0.  1.
    9000010    2    1    2  501    0  0.76754370720E+02  0.76557722194E+02 -0.81537171299E+03  0.12972838189E+04  0.10031759357E+04 0.  0.
   -9000010    2    1    2    0  502 -0.76754370720E+02 -0.76557722194E+02  0.90802973010E+03  0.13498036959E+04  0.99282410748E+03 0.  0.
        -13    1    3    3    0    0 -0.85251679376E+02 -0.18091926717E+03 -0.94549598572E+03  0.96641724956E+03  0.10566000000E+00 0.  1.
          4    1    3    3  501    0  0.16200605010E+03  0.25747698937E+03  0.13012427273E+03  0.33086656929E+03  0.00000000000E+00 0.  1.
         13    1    4    4    0    0 -0.52638174221E+03 -0.36607649447E+02  0.35508840210E+03  0.63600758093E+03  0.10566000000E+00 0. -1.
         -4    1    4    4    0  502  0.44962737149E+03 -0.39950072747E+02  0.55294132800E+03  0.71379611495E+03  0.00000000000E+00 0. -1.
<mgrwt>
<rscale>  2 0.10064338E+04</rscale>
<asrwt>0</asrwt>
<pdfrwt beam="1">  1       21 0.21074965E+00 0.10090165E+04</pdfrwt>
<pdfrwt beam="2">  1       21 0.19649458E+00 0.10090165E+04</pdfrwt>
<totfact> 0.61680564E+00</totfact>
</mgrwt>
</event>
<event>
 8    1  0.7631533E-006  0.1016865E+04  0.7818608E-02  0.8766146E-01
         21   -1    0    0  501  502  0.00000000000E+00  0.00000000000E+00  0.10756928408E+04  0.10756928408E+04  0.00000000000E+00 0.  1.
         21   -1    0    0  502  503 -0.00000000000E+00 -0.00000000000E+00 -0.10478319770E+04  0.10478319770E+04  0.00000000000E+00 0.  1.
    9000010    2    1    2  501    0 -0.20775040483E+02  0.19603070810E+03  0.36637961062E+03  0.10517932455E+04  0.96601002651E+03 0.  0.
   -9000010    2    1    2    0  503  0.20775040483E+02 -0.19603070810E+03 -0.33851874679E+03  0.10717315724E+04  0.99757404759E+03 0.  0.
        -13    1    3    3    0    0  0.28540958311E+03  0.37684264061E+03  0.48468352502E+03  0.67704293549E+03  0.10566000000E+00 0.  1.
          4    1    3    3  501    0 -0.30618462359E+03 -0.18081193251E+03 -0.11830391440E+03  0.37475030997E+03  0.00000000000E+00 0.  1.
         13    1    4    4    0    0  0.38042509921E+03  0.20665069456E+03 -0.30733074204E+03  0.53092368740E+03  0.10566000000E+00 0. -1.
         -4    1    4    4    0  503 -0.35965005873E+03 -0.40268140266E+03 -0.31188004746E+02  0.54080788495E+03  0.00000000000E+00 0. -1.
<mgrwt>
<rscale>  2 0.10090381E+04</rscale>
<asrwt>0</asrwt>
<pdfrwt beam="1">  1       21 0.16549121E+00 0.10168646E+04</pdfrwt>
<pdfrwt beam="2">  1       21 0.16120492E+00 0.10168646E+04</pdfrwt>
<totfact> 0.27649289E+01</totfact>
</mgrwt>
</event>
<event>
 8    1  0.7631533E-006  0.1017160E+04  0.7818608E-02  0.8764274E-01
         21   -1    0    0  501  502  0.00000000000E+00  0.00000000000E+00  0.74928668074E+03  0.74928668074E+03  0.00000000000E+00 0. -1.
         21   -1    0    0  502  503 -0.00000000000E+00 -0.00000000000E+00 -0.18077232523E+04  0.18077232523E+04  0.00000000000E+00 0. -1.
    9000010    2    1    2  501    0 -0.14315105729E+03 -0.97096082734E+02  0.12014071057E+03  0.10001994038E+04  0.97777562994E+03 0.  0.
   -9000010    2    1    2    0  503  0.14315105729E+03  0.97096082734E+02 -0.11785772822E+04  0.15568105293E+04  0.10023446212E+04 0.  0.
        -13    1    3    3    0    0 -0.53241972831E+03 -0.22705343731E+03  0.11304945934E+03  0.58974928734E+03  0.10566000000E+00 0.  1.
          4    1    3    3  501    0  0.38926867102E+03  0.12995735457E+03  0.70912512294E+01  0.41045011645E+03  0.00000000000E+00 0.  1.
         13    1    4    4    0    0 -0.34063944649E+03 -0.94703056583E+02 -0.89904357385E+03  0.96606586747E+03  0.10566000000E+00 0. -1.
         -4    1    4    4    0  503  0.48379050378E+03  0.19179913932E+03 -0.27953370831E+03  0.59074466183E+03  0.00000000000E+00 0. -1.
<mgrwt>
<rscale>  2 0.10110547E+04</rscale>
<asrwt>0</asrwt>
<pdfrwt beam="1">  1       21 0.11527487E+00 0.10171601E+04</pdfrwt>
<pdfrwt beam="2">  1       21 0.27811127E+00 0.10171601E+04</pdfrwt>
<totfact> 0.10346237E+01</totfact>
</mgrwt>
</event>
<event>
 8    1  0.7631533E-006  0.1095853E+04  0.7818608E-02  0.8695793E-01
         21   -1    0    0  501  502  0.00000000000E+00  0.00000000000E+00  0.10570843831E+04  0.10570843831E+04  0.00000000000E+00 0.  1.
         21   -1    0    0  502  503 -0.00000000000E+00 -0.00000000000E+00 -0.13784846457E+04  0.13784846457E+04  0.00000000000E+00 0.  1.
    9000010    2    1    2  501    0  0.18380141158E+03  0.24223470494E+03  0.38325242420E+03  0.11327147729E+04  0.10216162317E+04 0.  0.
   -9000010    2    1    2    0  503 -0.18380141158E+03 -0.24223470494E+03 -0.70465268682E+03  0.13028542559E+04  0.10528215385E+04 0.  0.
        -13    1    3    3    0    0 -0.77082394316E+02  0.60994878891E+03  0.23318465550E+03  0.65753655057E+03  0.10566000000E+00 0.  1.
          4    1    3    3  501    0  0.26088380590E+03 -0.36771408397E+03  0.15006776870E+03  0.47517822229E+03  0.00000000000E+00 0.  1.
         13    1    4    4    0    0 -0.51101436920E+03 -0.44693564011E+03 -0.59208619477E+03  0.90080698550E+03  0.10566000000E+00 0. -1.
         -4    1    4    4    0  503  0.32721295762E+03  0.20470093517E+03 -0.11256649205E+03  0.40204727039E+03  0.00000000000E+00 0. -1.
<mgrwt>
<rscale>  2 0.10882888E+04</rscale>
<asrwt>0</asrwt>
<pdfrwt beam="1">  1       21 0.16262837E+00 0.10958530E+04</pdfrwt>
<pdfrwt beam="2">  1       21 0.21207456E+00 0.10958530E+04</pdfrwt>
<totfact> 0.11172350E+01</totfact>
</mgrwt>
</event>
<event>
 8    1  0.7631533E-006  0.1015003E+04  0.7818608E-02  0.8775429E-01
         21   -1    0    0  503  502  0.00000000000E+00  0.00000000000E+00  0.63803157778E+03  0.63803157778E+03  0.00000000000E+00 0.  1.
         21   -1    0    0  501  503 -0.00000000000E+00 -0.00000000000E+00 -0.15559918548E+04  0.15559918548E+04  0.00000000000E+00 0.  1.
    9000010    2    1    2  501    0 -0.25446231751E+03 -0.91489844423E+02 -0.30048273527E+03  0.10585463717E+04  0.97831952053E+03 0.  0.
   -9000010    2    1    2    0  502  0.25446231751E+03  0.91489844423E+02 -0.61747754181E+03  0.11354770609E+04  0.91373310026E+03 0.  0.
        -13    1    3    3    0    0  0.28169302612E+03  0.15262256896E+03  0.11198768627E+03  0.33939042792E+03  0.10566000000E+00 0.  1.
          4    1    3    3  501    0 -0.53615534363E+03 -0.24411241339E+03 -0.41247042154E+03  0.71915594381E+03  0.00000000000E+00 0.  1.
         13    1    4    4    0    0  0.46415628572E+03  0.19665616430E+03 -0.32418369502E+02  0.50513925444E+03  0.10566000000E+00 0. -1.
         -4    1    4    4    0  502 -0.20969396821E+03 -0.10516631988E+03 -0.58505917230E+03  0.63033780645E+03  0.00000000000E+00 0. -1.
<mgrwt>
<rscale>  2 0.99910909E+03</rscale>
<asrwt>0</asrwt>
<pdfrwt beam="1">  1       21 0.98158705E-01 0.10150027E+04</pdfrwt>
<pdfrwt beam="2">  1       21 0.23938336E+00 0.10150027E+04</pdfrwt>
<totfact> 0.30310018E+01</totfact>
</mgrwt>
</event>
<event>
 8    1  0.7631533E-006  0.1255936E+04  0.7818608E-02  0.8567819E-01
         21   -1    0    0  503  502  0.00000000000E+00  0.00000000000E+00  0.16867533027E+04  0.16867533027E+04  0.00000000000E+00 0.  1.
         21   -1    0    0  501  503 -0.00000000000E+00 -0.00000000000E+00 -0.10673337371E+04  0.10673337371E+04  0.00000000000E+00 0.  1.
    9000010    2    1    2  501    0  0.28454904476E+03  0.71416795850E+03  0.80961116773E+03  0.14838322960E+04  0.97738631453E+03 0.  0.
   -9000010    2    1    2    0  502 -0.28454904476E+03 -0.71416795850E+03 -0.19019160212E+03  0.12702547438E+04  0.99316173743E+03 0.  0.
        -13    1    3    3    0    0 -0.44436488817E+02  0.86382931489E+03  0.67858402601E+03  0.10993870921E+04  0.10566000000E+00 0.  1.
          4    1    3    3  501    0  0.32898553357E+03 -0.14966135639E+03  0.13102714172E+03  0.38444520385E+03  0.00000000000E+00 0.  1.
         13    1    4    4    0    0 -0.12508811237E+03 -0.48587731615E+03 -0.59538829088E+03  0.77859554988E+03  0.10566000000E+00 0. -1.
         -4    1    4    4    0  502 -0.15946093238E+03 -0.22829064235E+03  0.40519668876E+03  0.49165919388E+03  0.00000000000E+00 0. -1.
<mgrwt>
<rscale>  2 0.12528147E+04</rscale>
<asrwt>0</asrwt>
<pdfrwt beam="1">  1       21 0.25950051E+00 0.12559356E+04</pdfrwt>
<pdfrwt beam="2">  1       21 0.16420519E+00 0.12559356E+04</pdfrwt>
<totfact> 0.46605497E+00</totfact>
</mgrwt>
</event>
<event>
 8    1  0.7631533E-006  0.1032861E+04  0.7818608E-02  0.8746989E-01
         21   -1    0    0  501  502  0.00000000000E+00  0.00000000000E+00  0.61705304231E+03  0.61705304231E+03  0.00000000000E+00 0.  1.
         21   -1    0    0  502  503 -0.00000000000E+00 -0.00000000000E+00 -0.18604042267E+04  0.18604042267E+04  0.00000000000E+00 0.  1.
    9000010    2    1    2  501    0 -0.21666311493E+03  0.28440215829E+01 -0.97151513141E+03  0.14094233473E+04  0.99783842758E+03 0.  0.
   -9000010    2    1    2    0  503  0.21666311493E+03 -0.28440215829E+01 -0.27183605300E+03  0.10680339217E+04  0.10098765392E+04 0.  0.
        -13    1    3    3    0    0 -0.46858935021E+03  0.28653931606E+03 -0.84814784157E+03  0.10104630281E+04  0.10566000000E+00 0.  1.
          4    1    3    3  501    0  0.25192623528E+03 -0.28369529447E+03 -0.12336728984E+03  0.39896031924E+03  0.00000000000E+00 0.  1.
         13    1    4    4    0    0  0.57979229259E+03 -0.17354230687E+03 -0.44457892028E+02  0.60683815812E+03  0.10566000000E+00 0. -1.
         -4    1    4    4    0  503 -0.36312917766E+03  0.17069828529E+03 -0.22737816097E+03  0.46119576359E+03  0.00000000000E+00 0. -1.
<mgrwt>
<rscale>  2 0.10299065E+04</rscale>
<asrwt>0</asrwt>
<pdfrwt beam="1">  1       21 0.94931240E-01 0.10328609E+04</pdfrwt>
<pdfrwt beam="2">  1       21 0.28621603E+00 0.10328609E+04</pdfrwt>
<totfact> 0.15125233E+01</totfact>
</mgrwt>
</event>
<event>
 8    1  0.7631533E-006  0.1069493E+04  0.7818608E-02  0.8713699E-01
         21   -1    0    0  501  502  0.00000000000E+00  0.00000000000E+00  0.12564138847E+04  0.12564138847E+04  0.00000000000E+00 0.  1.
         21   -1    0    0  502  503 -0.00000000000E+00 -0.00000000000E+00 -0.99170962240E+03  0.99170962240E+03  0.00000000000E+00 0.  1.
    9000010    2    1    2  501    0  0.45998675163E+02  0.35673741071E+03  0.46738388802E+03  0.11595946127E+04  0.99841599980E+03 0.  0.
   -9000010    2    1    2    0  503 -0.45998675163E+02 -0.35673741071E+03 -0.20267962571E+03  0.10885288944E+04  0.10071934596E+04 0.  0.
        -13    1    3    3    0    0 -0.98694938886E+02  0.49044172210E+03  0.69642177043E+03  0.85748298363E+03  0.10566000000E+00 0.  1.
          4    1    3    3  501    0  0.14469361405E+03 -0.13370431138E+03 -0.22903788241E+03  0.30211162905E+03  0.00000000000E+00 0.  1.
         13    1    4    4    0    0  0.11449285080E+03 -0.60812341473E+03  0.13978404434E+03  0.63439915719E+03  0.10566000000E+00 0. -1.
         -4    1    4    4    0  503 -0.16049152596E+03  0.25138600402E+03 -0.34246367006E+03  0.45412973722E+03  0.00000000000E+00 0. -1.
<mgrwt>
<rscale>  2 0.10674219E+04</rscale>
<asrwt>0</asrwt>
<pdfrwt beam="1">  1       21 0.19329444E+00 0.10694934E+04</pdfrwt>
<pdfrwt beam="2">  1       21 0.15257071E+00 0.10694934E+04</pdfrwt>
<totfact> 0.19240636E+01</totfact>
</mgrwt>
</event>
<event>
 8    1  0.7631533E-006  0.1049826E+04  0.7818608E-02  0.8735933E-01
         21   -1    0    0  503  502  0.00000000000E+00  0.00000000000E+00  0.10165284019E+04  0.10165284019E+04  0.00000000000E+00 0. -1.
         21   -1    0    0  501  503 -0.00000000000E+00 -0.00000000000E+00 -0.11391250148E+04  0.11391250148E+04  0.00000000000E+00 0. -1.
    9000010    2    1    2  501    0 -0.13494003727E+03 -0.15930102859E+03 -0.35642667260E+03  0.10801014183E+04  0.99799472416E+03 0.  0.
   -9000010    2    1    2    0  502  0.13494003727E+03  0.15930102859E+03  0.23383005969E+03  0.10755519985E+04  0.10288585779E+04 0.  0.
        -13    1    3    3    0    0 -0.49152685626E+03  0.74047667894E+02  0.39198342594E+02  0.49861631419E+03  0.10566000000E+00 0.  1.
          4    1    3    3  501    0  0.35658681899E+03 -0.23334869649E+03 -0.39562501519E+03  0.58148510409E+03  0.00000000000E+00 0.  1.
         13    1    4    4    0    0  0.56131479744E+03  0.90832056226E+02  0.29302178709E+03  0.63967690527E+03  0.10566000000E+00 0. -1.
         -4    1    4    4    0  502 -0.42637476017E+03  0.68468972367E+02 -0.59191727397E+02  0.43587509321E+03  0.00000000000E+00 0. -1.
<mgrwt>
<rscale>  2 0.10421862E+04</rscale>
<asrwt>0</asrwt>
<pdfrwt beam="1">  1       21 0.15638899E+00 0.10498265E+04</pdfrwt>
<pdfrwt beam="2">  1       21 0.17525000E+00 0.10498265E+04</pdfrwt>
<totfact> 0.25029793E+01</totfact>
</mgrwt>
</event>
<event>
 8    1  0.7631533E-006  0.1015626E+04  0.7818608E-02  0.8760973E-01
         21   -1    0    0  503  502  0.00000000000E+00  0.00000000000E+00  0.16620295709E+04  0.16620295709E+04  0.00000000000E+00 0.  1.
         21   -1    0    0  501  503 -0.00000000000E+00 -0.00000000000E+00 -0.65149148187E+03  0.65149148187E+03  0.00000000000E+00 0.  1.
    9000010    2    1    2  501    0  0.54735630369E+02 -0.21729235080E+03  0.24463919524E+03  0.10446741717E+04  0.99059771567E+03 0.  0.
   -9000010    2    1    2    0  502 -0.54735630369E+02  0.21729235080E+03  0.76589889379E+03  0.12688468810E+04  0.98648838668E+03 0.  0.
        -13    1    3    3    0    0 -0.19918930790E+03 -0.48843610682E+03  0.37912396904E+03  0.64960080502E+03  0.10566000000E+00 0.  1.
          4    1    3    3  501    0  0.25392493826E+03  0.27114375601E+03 -0.13448477380E+03  0.39507336671E+03  0.00000000000E+00 0.  1.
         13    1    4    4    0    0  0.42003430022E+03  0.22073322220E+03  0.60210646277E+03  0.76660561726E+03  0.10566000000E+00 0. -1.
         -4    1    4    4    0  502 -0.47476993059E+03 -0.34408713974E+01  0.16379243102E+03  0.50224126378E+03  0.00000000000E+00 0. -1.
<mgrwt>
<rscale>  2 0.10146224E+04</rscale>
<asrwt>0</asrwt>
<pdfrwt beam="1">  1       21 0.25569686E+00 0.10156258E+04</pdfrwt>
<pdfrwt beam="2">  1       21 0.10022946E+00 0.10156258E+04</pdfrwt>
<totfact> 0.21826017E+01</totfact>
</mgrwt>
</event>
<event>
 8    1  0.7631533E-006  0.1042065E+04  0.7818608E-02  0.8745295E-01
         21   -1    0    0  503  502  0.00000000000E+00  0.00000000000E+00  0.10496581397E+04  0.10496581397E+04  0.00000000000E+00 0. -1.
         21   -1    0    0  501  503 -0.00000000000E+00 -0.00000000000E+00 -0.10491861379E+04  0.10491861379E+04  0.00000000000E+00 0. -1.
    9000010    2    1    2  501    0 -0.33165123494E+03  0.55110161735E+02 -0.23895831288E+03  0.10296262280E+04  0.94339780711E+03 0.  0.
   -9000010    2    1    2    0  502  0.33165123494E+03 -0.55110161735E+02  0.23943031468E+03  0.10692180496E+04  0.98634207582E+03 0.  0.
        -13    1    3    3    0    0 -0.19047079083E+03  0.30267084982E+03  0.26878985853E+03  0.44736647695E+03  0.10566000000E+00 0.  1.
          4    1    3    3  501    0 -0.14118044411E+03 -0.24756068808E+03 -0.50774817141E+03  0.58225975102E+03  0.00000000000E+00 0.  1.
         13    1    4    4    0    0  0.10491843154E+03  0.43165305909E+03  0.28900046444E+03  0.52995614942E+03  0.10566000000E+00 0. -1.
         -4    1    4    4    0  502  0.22673280340E+03 -0.48676322083E+03 -0.49570149758E+02  0.53926190022E+03  0.00000000000E+00 0. -1.
<mgrwt>
<rscale>  2 0.10317760E+04</rscale>
<asrwt>0</asrwt>
<pdfrwt beam="1">  1       21 0.16148587E+00 0.10420654E+04</pdfrwt>
<pdfrwt beam="2">  1       21 0.16141325E+00 0.10420654E+04</pdfrwt>
<totfact> 0.29622356E+01</totfact>
</mgrwt>
</event>
<event>
 8    1  0.7631533E-006  0.1127443E+04  0.7818608E-02  0.8673834E-01
         21   -1    0    0  503  502  0.00000000000E+00  0.00000000000E+00  0.19743236498E+04  0.19743236498E+04  0.00000000000E+00 0.  1.
         21   -1    0    0  501  503 -0.00000000000E+00 -0.00000000000E+00 -0.81792273264E+03  0.81792273264E+03  0.00000000000E+00 0.  1.
    9000010    2    1    2  501    0  0.25234407722E+03  0.30672430342E+03 -0.10666579698E+03  0.11324770149E+04  0.10551631463E+04 0.  0.
   -9000010    2    1    2    0  502 -0.25234407722E+03 -0.30672430342E+03  0.12630667142E+04  0.16597693676E+04  0.10008693708E+04 0.  0.
        -13    1    3    3    0    0 -0.88183610124E+02  0.39518369331E+03 -0.47429484896E+03  0.62362016923E+03  0.10566000000E+00 0.  1.
          4    1    3    3  501    0  0.34052768735E+03 -0.88459389886E+02  0.36762905199E+03  0.50885684566E+03  0.00000000000E+00 0.  1.
         13    1    4    4    0    0  0.14372312136E+03 -0.56208536127E+03  0.87209859287E+03  0.10474503596E+04  0.10566000000E+00 0. -1.
         -4    1    4    4    0  502 -0.39606719859E+03  0.25536105785E+03  0.39096812129E+03  0.61231900798E+03  0.00000000000E+00 0. -1.
<mgrwt>
<rscale>  2 0.11145627E+04</rscale>
<asrwt>0</asrwt>
<pdfrwt beam="1">  1       21 0.30374210E+00 0.11274425E+04</pdfrwt>
<pdfrwt beam="2">  1       21 0.12583427E+00 0.11274425E+04</pdfrwt>
<totfact> 0.51894949E+00</totfact>
</mgrwt>
</event>
<event>
 8    1  0.7631533E-006  0.1037630E+04  0.7818608E-02  0.8742686E-01
         21   -1    0    0  501  502  0.00000000000E+00  0.00000000000E+00  0.10755310997E+04  0.10755310997E+04  0.00000000000E+00 0. -1.
         21   -1    0    0  502  503 -0.00000000000E+00 -0.00000000000E+00 -0.10550088913E+04  0.10550088913E+04  0.00000000000E+00 0. -1.
    9000010    2    1    2  501    0 -0.20107505992E+03  0.14284632444E+03 -0.25472269240E+03  0.10684382025E+04  0.10078890268E+04 0.  0.
   -9000010    2    1    2    0  503  0.20107505992E+03 -0.14284632444E+03  0.27524490080E+03  0.10621017885E+04  0.99572295428E+03 0.  0.
        -13    1    3    3    0    0 -0.16167661319E+03  0.94245053446E+02 -0.64581010966E+03  0.67237799359E+03  0.10566000000E+00 0.  1.
          4    1    3    3  501    0 -0.39398446735E+02  0.48601270991E+02  0.39108741726E+03  0.39606020891E+03  0.00000000000E+00 0.  1.
         13    1    4    4    0    0 -0.34429319873E+03 -0.20901781865E+03 -0.76226514570E+02  0.40992285603E+03  0.10566000000E+00 0. -1.
         -4    1    4    4    0  503  0.54536825865E+03  0.66171494209E+02  0.35147141537E+03  0.65217893251E+03  0.00000000000E+00 0. -1.
<mgrwt>
<rscale>  2 0.10346642E+04</rscale>
<asrwt>0</asrwt>
<pdfrwt beam="1">  1       21 0.16546632E+00 0.10376303E+04</pdfrwt>
<pdfrwt beam="2">  1       21 0.16230906E+00 0.10376303E+04</pdfrwt>
<totfact> 0.26937493E+01</totfact>
</mgrwt>
</event>
<event>
 8    1  0.7631533E-006  0.1046557E+04  0.7818608E-02  0.8738093E-01
         21   -1    0    0  503  502  0.00000000000E+00  0.00000000000E+00  0.14972596770E+04  0.14972596770E+04  0.00000000000E+00 0.  1.
         21   -1    0    0  501  503 -0.00000000000E+00 -0.00000000000E+00 -0.71595807808E+03  0.71595807808E+03  0.00000000000E+00 0.  1.
    9000010    2    1    2  501    0 -0.93268900844E+01  0.17083753803E+03  0.45834373303E+03  0.11179631875E+04  0.10052314439E+04 0.  0.
   -9000010    2    1    2    0  502  0.93268900844E+01 -0.17083753803E+03  0.32295786594E+03  0.10952545676E+04  0.10324767937E+04 0.  0.
        -13    1    3    3    0    0  0.41338052923E+03 -0.19661941025E+03  0.23955910659E+03  0.51665387945E+03  0.10566000000E+00 0.  1.
          4    1    3    3  501    0 -0.42270741932E+03  0.36745694828E+03  0.21878462644E+03  0.60130930805E+03  0.00000000000E+00 0.  1.
         13    1    4    4    0    0  0.67189657175E+02  0.22820634116E+03 -0.28155811637E+03  0.36860218154E+03  0.10566000000E+00 0. -1.
         -4    1    4    4    0  502 -0.57862767091E+02 -0.39904387920E+03  0.60451598231E+03  0.72665238609E+03  0.00000000000E+00 0. -1.
<mgrwt>
<rscale>  2 0.10397737E+04</rscale>
<asrwt>0</asrwt>
<pdfrwt beam="1">  1       21 0.23034764E+00 0.10465566E+04</pdfrwt>
<pdfrwt beam="2">  1       21 0.11014740E+00 0.10465566E+04</pdfrwt>
<totfact> 0.25851195E+01</totfact>
</mgrwt>
</event>
<event>
 8    1  0.7631533E-006  0.1197936E+04  0.7818608E-02  0.8630445E-01
         21   -1    0    0  503  502  0.00000000000E+00  0.00000000000E+00  0.18967971873E+04  0.18967971873E+04  0.00000000000E+00 0.  1.
         21   -1    0    0  501  503 -0.00000000000E+00 -0.00000000000E+00 -0.70101674123E+03  0.70101674123E+03  0.00000000000E+00 0.  1.
    9000010    2    1    2  501    0 -0.23503054065E+02 -0.35124460455E+03  0.75093009172E+03  0.13199471739E+04  0.10268589842E+04 0.  0.
   -9000010    2    1    2    0  502  0.23503054065E+02  0.35124460455E+03  0.44485035434E+03  0.12778667546E+04  0.11450442957E+04 0.  0.
        -13    1    3    3    0    0  0.23808761814E+03  0.25553294758E+03  0.50687509672E+03  0.61555274027E+03  0.10566000000E+00 0.  1.
          4    1    3    3  501    0 -0.26159067221E+03 -0.60677755213E+03  0.24405499500E+03  0.70439443364E+03  0.00000000000E+00 0.  1.
         13    1    4    4    0    0  0.16556944731E+03  0.51652412467E+03  0.73593801753E+03  0.91422928746E+03  0.10566000000E+00 0. -1.
         -4    1    4    4    0  502 -0.14206639324E+03 -0.16527952012E+03 -0.29108766318E+03  0.36363746715E+03  0.00000000000E+00 0. -1.
<mgrwt>
<rscale>  2 0.11687867E+04</rscale>
<asrwt>0</asrwt>
<pdfrwt beam="1">  1       21 0.29181495E+00 0.11979364E+04</pdfrwt>
<pdfrwt beam="2">  1       21 0.10784873E+00 0.11979364E+04</pdfrwt>
<totfact> 0.95289502E+00</totfact>
</mgrwt>
</event>
<event>
 8    1  0.7631533E-006  0.1009380E+04  0.7818608E-02  0.8767248E-01
         21   -1    0    0  503  502  0.00000000000E+00  0.00000000000E+00  0.39863672233E+03  0.39863672233E+03  0.00000000000E+00 0.  1.
         21   -1    0    0  501  503 -0.00000000000E+00 -0.00000000000E+00 -0.25881198027E+04  0.25881198027E+04  0.00000000000E+00 0.  1.
    9000010    2    1    2  501    0  0.63198223874E+02  0.67240495797E+02 -0.89525484017E+03  0.13491959606E+04  0.10051533274E+04 0.  0.
   -9000010    2    1    2    0  502 -0.63198223874E+02 -0.67240495797E+02 -0.12942282402E+04  0.16375605644E+04  0.99903081260E+03 0.  0.
        -13    1    3    3    0    0 -0.10543837062E+03 -0.38959169325E+03 -0.98566330778E+02  0.41546873550E+03  0.10566000000E+00 0.  1.
          4    1    3    3  501    0  0.16863659450E+03  0.45683218905E+03 -0.79668850939E+03  0.93372722513E+03  0.00000000000E+00 0.  1.
         13    1    4    4    0    0 -0.10552906108E+03 -0.23505783720E+03  0.66312035255E+02  0.26605613458E+03  0.10566000000E+00 0. -1.
         -4    1    4    4    0  502  0.42330837206E+02  0.16781734141E+03 -0.13605402754E+04  0.13715044298E+04  0.00000000000E+00 0. -1.
<mgrwt>
<rscale>  2 0.10078526E+04</rscale>
<asrwt>0</asrwt>
<pdfrwt beam="1">  1       21 0.61328726E-01 0.10093803E+04</pdfrwt>
<pdfrwt beam="2">  1       21 0.39817228E+00 0.10093803E+04</pdfrwt>
<totfact> 0.71884543E+00</totfact>
</mgrwt>
</event>
<event>
 8    1  0.7631533E-006  0.1229737E+04  0.7818608E-02  0.8584846E-01
         21   -1    0    0  501  502  0.00000000000E+00  0.00000000000E+00  0.19168280809E+04  0.19168280809E+04  0.00000000000E+00 0. -1.
         21   -1    0    0  502  503 -0.00000000000E+00 -0.00000000000E+00 -0.95382508053E+03  0.95382508053E+03  0.00000000000E+00 0. -1.
    9000010    2    1    2  501    0 -0.16491635633E+03 -0.70347366105E+03  0.10807814569E+04  0.16371747868E+04  0.99507795099E+03 0.  0.
   -9000010    2    1    2    0  503  0.16491635633E+03  0.70347366105E+03 -0.11777845659E+03  0.12334783746E+04  0.99273588601E+03 0.  0.
        -13    1    3    3    0    0 -0.25000459130E+03 -0.84454022841E+03  0.11582789486E+04  0.14551153312E+04  0.10566000000E+00 0.  1.
          4    1    3    3  501    0  0.85088234969E+02  0.14106656736E+03 -0.77497491705E+02  0.18205945561E+03  0.00000000000E+00 0.  1.
         13    1    4    4    0    0  0.47732128226E+02  0.81203311508E+03 -0.40207221583E+03  0.90737986200E+03  0.10566000000E+00 0. -1.
         -4    1    4    4    0  503  0.11718422811E+03 -0.10855945403E+03  0.28429375924E+03  0.32609851260E+03  0.00000000000E+00 0. -1.
<mgrwt>
<rscale>  2 0.12292630E+04</rscale>
<asrwt>0</asrwt>
<pdfrwt beam="1">  1       21 0.29489663E+00 0.12297369E+04</pdfrwt>
<pdfrwt beam="2">  1       21 0.14674232E+00 0.12297369E+04</pdfrwt>
<totfact> 0.37257532E+00</totfact>
</mgrwt>
</event>
<event>
 8    1  0.7631533E-006  0.1064970E+04  0.7818608E-02  0.8715907E-01
         21   -1    0    0  501  502  0.00000000000E+00  0.00000000000E+00  0.76875571847E+03  0.76875571847E+03  0.00000000000E+00 0.  1.
         21   -1    0    0  502  503 -0.00000000000E+00 -0.00000000000E+00 -0.15184544524E+04  0.15184544524E+04  0.00000000000E+00 0.  1.
    9000010    2    1    2  501    0 -0.32346541616E+03  0.17649335210E+03 -0.56872339837E+03  0.12073141485E+04  0.99919035750E+03 0.  0.
   -9000010    2    1    2    0  503  0.32346541616E+03 -0.17649335210E+03 -0.18097533552E+03  0.10798960223E+04  0.99882108919E+03 0.  0.
        -13    1    3    3    0    0 -0.79906388423E+02  0.58434695226E+03 -0.30518553422E+03  0.66406672329E+03  0.10566000000E+00 0.  1.
          4    1    3    3  501    0 -0.24355902774E+03 -0.40785360015E+03 -0.26353786415E+03  0.54324742520E+03  0.00000000000E+00 0.  1.
         13    1    4    4    0    0  0.87919318188E+02 -0.53052079094E+03  0.12981158960E+03  0.55320265373E+03  0.10566000000E+00 0. -1.
         -4    1    4    4    0  503  0.23554609797E+03  0.35402743884E+03 -0.31078692512E+03  0.52669336862E+03  0.00000000000E+00 0. -1.
<mgrwt>
<rscale>  2 0.10648834E+04</rscale>
<asrwt>0</asrwt>
<pdfrwt beam="1">  1       21 0.11827011E+00 0.10649700E+04</pdfrwt>
<pdfrwt beam="2">  1       21 0.23360837E+00 0.10649700E+04</pdfrwt>
<totfact> 0.20027800E+01</totfact>
</mgrwt>
</event>
<event>
 8    1  0.7631533E-006  0.1027866E+04  0.7818608E-02  0.8761647E-01
         21   -1    0    0  501  502  0.00000000000E+00  0.00000000000E+00  0.18358429706E+04  0.18358429706E+04  0.00000000000E+00 0. -1.
         21   -1    0    0  502  503 -0.00000000000E+00 -0.00000000000E+00 -0.90856225438E+03  0.90856225438E+03  0.00000000000E+00 0. -1.
    9000010    2    1    2  501    0 -0.15552881258E+03  0.23289519340E+03  0.13235708285E+04  0.16427905522E+04  0.93192900898E+03 0.  0.
   -9000010    2    1    2    0  503  0.15552881258E+03 -0.23289519340E+03 -0.39629011234E+03  0.11016146727E+04  0.98897909548E+03 0.  0.
        -13    1    3    3    0    0  0.31799697362E+03  0.31021817824E+03  0.89615484242E+03  0.10002254276E+04  0.10566000000E+00 0.  1.
          4    1    3    3  501    0 -0.47352578621E+03 -0.77322984837E+02  0.42741598611E+03  0.64256512461E+03  0.00000000000E+00 0.  1.
         13    1    4    4    0    0 -0.19734728382E+03  0.18027965060E+03 -0.48237535268E+03  0.55148227069E+03  0.10566000000E+00 0. -1.
         -4    1    4    4    0  503  0.35287609641E+03 -0.41317484399E+03  0.86085240338E+02  0.55013240200E+03  0.00000000000E+00 0. -1.
<mgrwt>
<rscale>  2 0.10138920E+04</rscale>
<asrwt>0</asrwt>
<pdfrwt beam="1">  1       21 0.28243738E+00 0.10278663E+04</pdfrwt>
<pdfrwt beam="2">  1       21 0.13977881E+00 0.10278663E+04</pdfrwt>
<totfact> 0.55371165E+00</totfact>
</mgrwt>
</event>
<event>
 8    1  0.7631533E-006  0.1373183E+04  0.7818608E-02  0.8490198E-01
         21   -1    0    0  501  502  0.00000000000E+00  0.00000000000E+00  0.14246606767E+04  0.14246606767E+04  0.00000000000E+00 0.  1.
         21   -1    0    0  502  503 -0.00000000000E+00 -0.00000000000E+00 -0.14197273882E+04  0.14197273882E+04  0.00000000000E+00 0. -1.
    9000010    2    1    2  501    0  0.94691191428E+03 -0.48111106700E+02 -0.40840342955E+03  0.14103449557E+04  0.96089681071E+03 0.  0.
   -9000010    2    1    2    0  503 -0.94691191428E+03  0.48111106700E+02  0.41333671804E+03  0.14340431092E+04  0.99331543058E+03 0.  0.
        -13    1    3    3    0    0 -0.91909817338E+02 -0.19969887074E+03  0.10278841715E+03  0.24267781803E+03  0.10566000000E+00 0.  1.
          4    1    3    3  501    0  0.10388217316E+04  0.15158776404E+03 -0.51119184670E+03  0.11676671377E+04  0.00000000000E+00 0.  1.
         13    1    4    4    0    0 -0.54575036362E+03 -0.44826742324E+03  0.71001744425E+02  0.70980870733E+03  0.10566000000E+00 0. -1.
         -4    1    4    4    0  503 -0.40116155066E+03  0.49637852994E+03  0.34233497361E+03  0.72423440189E+03  0.00000000000E+00 0. -1.
<mgrwt>
<rscale>  2 0.13673297E+04</rscale>
<asrwt>0</asrwt>
<pdfrwt beam="1">  1       21 0.21917856E+00 0.13731833E+04</pdfrwt>
<pdfrwt beam="2">  1       21 0.21841960E+00 0.13731833E+04</pdfrwt>
<totfact> 0.33275536E+00</totfact>
</mgrwt>
</event>
<event>
 8    1  0.7631533E-006  0.9999430E+03  0.7818608E-02  0.8777196E-01
         21   -1    0    0  503  502  0.00000000000E+00  0.00000000000E+00  0.32073492486E+03  0.32073492486E+03  0.00000000000E+00 0. -1.
         21   -1    0    0  501  503 -0.00000000000E+00 -0.00000000000E+00 -0.36451002722E+04  0.36451002722E+04  0.00000000000E+00 0. -1.
    9000010    2    1    2  501    0  0.88545583054E+02  0.74555891609E+02 -0.24478526432E+04  0.26442141689E+04  0.99322057306E+03 0.  0.
   -9000010    2    1    2    0  502 -0.88545583054E+02 -0.74555891609E+02 -0.87651270414E+03  0.13216210282E+04  0.98234857376E+03 0.  0.
        -13    1    3    3    0    0 -0.76811117774E+02 -0.10315756246E+03 -0.23915757257E+04  0.23950315015E+04  0.10566000000E+00 0.  1.
          4    1    3    3  501    0  0.16535670083E+03  0.17771345407E+03 -0.56276917555E+02  0.24918266737E+03  0.00000000000E+00 0.  1.
         13    1    4    4    0    0 -0.44704083544E+03 -0.30401935186E+03 -0.34767724673E+03  0.64276959629E+03  0.10566000000E+00 0. -1.
         -4    1    4    4    0  502  0.35849525239E+03  0.22946346025E+03 -0.52883545741E+03  0.67885143190E+03  0.00000000000E+00 0. -1.
<mgrwt>
<rscale>  2 0.99723247E+03</rscale>
<asrwt>0</asrwt>
<pdfrwt beam="1">  1       21 0.49343836E-01 0.99994300E+03</pdfrwt>
<pdfrwt beam="2">  1       21 0.56078464E+00 0.99994300E+03</pdfrwt>
<totfact> 0.85282583E-01</totfact>
</mgrwt>
</event>
<event>
 8    1  0.7631533E-006  0.1034825E+04  0.7818608E-02  0.8777350E-01
         21   -1    0    0  503  502  0.00000000000E+00  0.00000000000E+00  0.78048849530E+03  0.78048849530E+03  0.00000000000E+00 0.  1.
         21   -1    0    0  501  503 -0.00000000000E+00 -0.00000000000E+00 -0.12260808762E+04  0.12260808762E+04  0.00000000000E+00 0.  1.
    9000010    2    1    2  501    0  0.14413693555E+02  0.82815197902E+02 -0.41273190864E+03  0.11140965684E+04  0.10314055573E+04 0.  0.
   -9000010    2    1    2    0  502 -0.14413693555E+02 -0.82815197902E+02 -0.32860472266E+02  0.89247280313E+03  0.88789739391E+03 0.  0.
        -13    1    3    3    0    0  0.50932194091E+03  0.10888137051E+03 -0.31585978038E+03  0.60912347218E+03  0.10566000000E+00 0.  1.
          4    1    3    3  501    0 -0.49490824735E+03 -0.26066172607E+02 -0.96872128257E+02  0.50497309620E+03  0.00000000000E+00 0.  1.
         13    1    4    4    0    0 -0.12544771932E+03  0.15402722307E+03  0.36544933598E+03  0.41595041058E+03  0.10566000000E+00 0. -1.
         -4    1    4    4    0  502  0.11103402577E+03 -0.23684242098E+03 -0.39830980825E+03  0.47652239254E+03  0.00000000000E+00 0. -1.
<mgrwt>
<rscale>  2 0.99706943E+03</rscale>
<asrwt>0</asrwt>
<pdfrwt beam="1">  1       21 0.12007515E+00 0.10348254E+04</pdfrwt>
<pdfrwt beam="2">  1       21 0.18862783E+00 0.10348254E+04</pdfrwt>
<totfact> 0.42742455E+01</totfact>
</mgrwt>
</event>
<event>
 8    1  0.7631533E-006  0.1034631E+04  0.7818608E-02  0.8744876E-01
         21   -1    0    0  503  502  0.00000000000E+00  0.00000000000E+00  0.68989431678E+03  0.68989431678E+03  0.00000000000E+00 0. -1.
         21   -1    0    0  501  503 -0.00000000000E+00 -0.00000000000E+00 -0.16034335161E+04  0.16034335161E+04  0.00000000000E+00 0. -1.
    9000010    2    1    2  501    0  0.13077941681E+03 -0.20212166465E+03 -0.22198601536E+03  0.10488574770E+04  0.99642751511E+03 0.  0.
   -9000010    2    1    2    0  502 -0.13077941681E+03  0.20212166465E+03 -0.69155318392E+03  0.12444703558E+04  0.10062326954E+04 0.  0.
        -13    1    3    3    0    0 -0.13276137036E+03  0.35212946201E+03 -0.21844437283E+03  0.43513066389E+03  0.10566000000E+00 0.  1.
          4    1    3    3  501    0  0.26354078717E+03 -0.55425112665E+03 -0.35416425329E+01  0.61372681311E+03  0.00000000000E+00 0.  1.
         13    1    4    4    0    0 -0.36015246690E+03 -0.58432488622E+02  0.10154652962E+03  0.37872927531E+03  0.10566000000E+00 0. -1.
         -4    1    4    4    0  502  0.22937305009E+03  0.26055415327E+03 -0.79309971354E+03  0.86574108052E+03  0.00000000000E+00 0. -1.
<mgrwt>
<rscale>  2 0.10322390E+04</rscale>
<asrwt>0</asrwt>
<pdfrwt beam="1">  1       21 0.10613759E+00 0.10346307E+04</pdfrwt>
<pdfrwt beam="2">  1       21 0.24668208E+00 0.10346307E+04</pdfrwt>
<totfact> 0.21713766E+01</totfact>
</mgrwt>
</event>
<event>
 8    1  0.7631533E-006  0.9994459E+03  0.7818608E-02  0.8777135E-01
         21   -1    0    0  501  502  0.00000000000E+00  0.00000000000E+00  0.81657501673E+03  0.81657501673E+03  0.00000000000E+00 0. -1.
         21   -1    0    0  502  503 -0.00000000000E+00 -0.00000000000E+00 -0.12542427128E+04  0.12542427128E+04  0.00000000000E+00 0. -1.
    9000010    2    1    2  501    0 -0.50175110496E+02 -0.80276176696E+02 -0.29730906381E+02  0.99132496796E+03  0.98634652078E+03 0.  0.
   -9000010    2    1    2    0  503  0.50175110496E+02  0.80276176696E+02 -0.40793678972E+03  0.10794927616E+04  0.99495245700E+03 0.  0.
        -13    1    3    3    0    0 -0.27310914962E+03 -0.19889616808E+03  0.38096821931E+03  0.50920044047E+03  0.10566000000E+00 0.  1.
          4    1    3    3  501    0  0.22293403913E+03  0.11861999138E+03 -0.41069912570E+03  0.48212452749E+03  0.00000000000E+00 0.  1.
         13    1    4    4    0    0 -0.41204074539E+03  0.27661058178E+03 -0.17883262624E+03  0.52751503219E+03  0.10566000000E+00 0. -1.
         -4    1    4    4    0  503  0.46221585588E+03 -0.19633440509E+03 -0.22910416347E+03  0.55197772942E+03  0.00000000000E+00 0. -1.
<mgrwt>
<rscale>  2 0.99729730E+03</rscale>
<asrwt>0</asrwt>
<pdfrwt beam="1">  1       21 0.12562693E+00 0.99944595E+03</pdfrwt>
<pdfrwt beam="2">  1       21 0.19296042E+00 0.99944595E+03</pdfrwt>
<totfact> 0.35027629E+01</totfact>
</mgrwt>
</event>
<event>
 8    1  0.7631533E-006  0.1001302E+04  0.7818608E-02  0.8776321E-01
         21   -1    0    0  501  502  0.00000000000E+00  0.00000000000E+00  0.98159980534E+03  0.98159980534E+03  0.00000000000E+00 0. -1.
         21   -1    0    0  502  503 -0.00000000000E+00 -0.00000000000E+00 -0.10973289867E+04  0.10973289867E+04  0.00000000000E+00 0. -1.
    9000010    2    1    2  501    0  0.37829577960E+02 -0.14042091346E+02  0.23790217770E+03  0.10170147352E+04  0.98797432570E+03 0.  0.
   -9000010    2    1    2    0  503 -0.37829577960E+02  0.14042091346E+02 -0.35363135906E+03  0.10619140568E+04  0.10004889148E+04 0.  0.
        -13    1    3    3    0    0  0.31676789160E+03 -0.59170989976E+02  0.52383595211E+03  0.61501806404E+03  0.10566000000E+00 0.  1.
          4    1    3    3  501    0 -0.27893831364E+03  0.45128898630E+02 -0.28593377441E+03  0.40199667120E+03  0.00000000000E+00 0.  1.
         13    1    4    4    0    0  0.29970983865E+03  0.13861197098E+03  0.21137971477E+03  0.39207226485E+03  0.10566000000E+00 0. -1.
         -4    1    4    4    0  503 -0.33753941661E+03 -0.12456987963E+03 -0.56501107384E+03  0.66984179194E+03  0.00000000000E+00 0. -1.
<mgrwt>
<rscale>  2 0.99816149E+03</rscale>
<asrwt>0</asrwt>
<pdfrwt beam="1">  1       21 0.15101536E+00 0.10013023E+04</pdfrwt>
<pdfrwt beam="2">  1       21 0.16881984E+00 0.10013023E+04</pdfrwt>
<totfact> 0.31924994E+01</totfact>
</mgrwt>
</event>
<event>
 8    1  0.7631533E-006  0.1126016E+04  0.7818608E-02  0.8667397E-01
         21   -1    0    0  501  502  0.00000000000E+00  0.00000000000E+00  0.90553574303E+03  0.90553574303E+03  0.00000000000E+00 0.  1.
         21   -1    0    0  502  503 -0.00000000000E+00 -0.00000000000E+00 -0.21416017933E+04  0.21416017933E+04  0.00000000000E+00 0.  1.
    9000010    2    1    2  501    0 -0.37040645369E+03  0.34574415616E+03  0.28653576238E+03  0.11619012899E+04  0.10055704361E+04 0.  0.
   -9000010    2    1    2    0  503  0.37040645369E+03 -0.34574415616E+03 -0.15226018126E+04  0.18852362464E+04  0.98947433636E+03 0.  0.
        -13    1    3    3    0    0 -0.71683110302E+03  0.27254572088E+03  0.14443840739E+03  0.78037841136E+03  0.10566000000E+00 0.  1.
          4    1    3    3  501    0  0.34642464933E+03  0.73198435288E+02  0.14209735500E+03  0.38152287859E+03  0.00000000000E+00 0.  1.
         13    1    4    4    0    0  0.43343020340E+03  0.17707355125E+03 -0.30539977197E+03  0.55900430736E+03  0.10566000000E+00 0. -1.
         -4    1    4    4    0  503 -0.63023749708E+02 -0.52281770742E+03 -0.12172020407E+04  0.13262319390E+04  0.00000000000E+00 0. -1.
<mgrwt>
<rscale>  2 0.11224110E+04</rscale>
<asrwt>0</asrwt>
<pdfrwt beam="1">  1       21 0.13931319E+00 0.11260159E+04</pdfrwt>
<pdfrwt beam="2">  1       21 0.32947720E+00 0.11260159E+04</pdfrwt>
<totfact> 0.25426387E+00</totfact>
</mgrwt>
</event>
<event>
 8    1  0.7631533E-006  0.1199450E+04  0.7818608E-02  0.8611917E-01
         21   -1    0    0  503  502  0.00000000000E+00  0.00000000000E+00  0.10584492704E+04  0.10584492704E+04  0.00000000000E+00 0. -1.
         21   -1    0    0  501  503 -0.00000000000E+00 -0.00000000000E+00 -0.14552116556E+04  0.14552116556E+04  0.00000000000E+00 0. -1.
    9000010    2    1    2  501    0  0.65057532560E+03  0.42412860803E+00 -0.56899265262E+03  0.13275664716E+04  0.10076862923E+04 0.  0.
   -9000010    2    1    2    0  502 -0.65057532560E+03 -0.42412860803E+00  0.17223026743E+03  0.11860944544E+04  0.97668232072E+03 0.  0.
        -13    1    3    3    0    0  0.40649525833E+02  0.12464972732E+03 -0.68239190376E+03  0.69487312507E+03  0.10566000000E+00 0.  1.
          4    1    3    3  501    0  0.60992579976E+03 -0.12422559872E+03  0.11339925113E+03  0.63269334654E+03  0.00000000000E+00 0.  1.
         13    1    4    4    0    0 -0.55402480287E+03  0.35754548529E+03  0.38004590595E+03  0.76106317612E+03  0.10566000000E+00 0. -1.
         -4    1    4    4    0  502 -0.96550522730E+02 -0.35796961390E+03 -0.20781563852E+03  0.42503127829E+03  0.00000000000E+00 0. -1.
<mgrwt>
<rscale>  2 0.11929150E+04</rscale>
<asrwt>0</asrwt>
<pdfrwt beam="1">  1       21 0.16283835E+00 0.11994499E+04</pdfrwt>
<pdfrwt beam="2">  1       21 0.22387872E+00 0.11994499E+04</pdfrwt>
<totfact> 0.88564751E+00</totfact>
</mgrwt>
</event>
<event>
 8    1  0.7631533E-006  0.1010073E+04  0.7818608E-02  0.8794806E-01
         21   -1    0    0  503  502  0.00000000000E+00  0.00000000000E+00  0.59233032177E+03  0.59233032177E+03  0.00000000000E+00 0.  1.
         21   -1    0    0  501  503 -0.00000000000E+00 -0.00000000000E+00 -0.16878219045E+04  0.16878219045E+04  0.00000000000E+00 0.  1.
    9000010    2    1    2  501    0  0.11705964235E+02  0.12040847615E+03 -0.87050975317E+03  0.12453266841E+04  0.88227891789E+03 0.  0.
   -9000010    2    1    2    0  502 -0.11705964235E+02 -0.12040847615E+03 -0.22498182958E+03  0.10348255422E+04  0.10028019986E+04 0.  0.
        -13    1    3    3    0    0  0.13643017944E+03 -0.36476330002E+03 -0.36962186416E+03  0.53692252004E+03  0.10566000000E+00 0.  1.
          4    1    3    3  501    0 -0.12472421521E+03  0.48517177617E+03 -0.50088788901E+03  0.70840416402E+03  0.00000000000E+00 0.  1.
         13    1    4    4    0    0 -0.16517797842E+03 -0.49818961353E+03  0.72827530144E+02  0.52988726715E+03  0.10566000000E+00 0. -1.
         -4    1    4    4    0  502  0.15347201418E+03  0.37778113738E+03 -0.29780935972E+03  0.50493827508E+03  0.00000000000E+00 0. -1.
<mgrwt>
<rscale>  2 0.97876216E+03</rscale>
<asrwt>0</asrwt>
<pdfrwt beam="1">  1       21 0.91127742E-01 0.10100728E+04</pdfrwt>
<pdfrwt beam="2">  1       21 0.25966491E+00 0.10100728E+04</pdfrwt>
<totfact> 0.26131348E+01</totfact>
</mgrwt>
</event>
<event>
 8    1  0.7631533E-006  0.1049626E+04  0.7818608E-02  0.8736142E-01
         21   -1    0    0  501  502  0.00000000000E+00  0.00000000000E+00  0.63984592935E+03  0.63984592935E+03  0.00000000000E+00 0. -1.
         21   -1    0    0  502  503 -0.00000000000E+00 -0.00000000000E+00 -0.22093173113E+04  0.22093173113E+04  0.00000000000E+00 0. -1.
    9000010    2    1    2  501    0  0.22331334101E+03  0.21475829371E+03 -0.73794367115E+02  0.10219346058E+04  0.97103797915E+03 0.  0.
   -9000010    2    1    2    0  503 -0.22331334101E+03 -0.21475829371E+03 -0.14956770148E+04  0.18272286348E+04  0.10028583042E+04 0.  0.
        -13    1    3    3    0    0  0.54194917898E+03  0.27618142062E+03 -0.24414954695E+03  0.65543428514E+03  0.10566000000E+00 0.  1.
          4    1    3    3  501    0 -0.31863583797E+03 -0.61423126919E+02  0.17035517983E+03  0.36650032068E+03  0.00000000000E+00 0.  1.
         13    1    4    4    0    0 -0.56815482103E+02 -0.37367651825E+03 -0.71627194895E+02  0.38469807058E+03  0.10566000000E+00 0. -1.
         -4    1    4    4    0  503 -0.16649785891E+03  0.15891822454E+03 -0.14240498199E+04  0.14425305643E+04  0.00000000000E+00 0. -1.
<mgrwt>
<rscale>  2 0.10419525E+04</rscale>
<asrwt>0</asrwt>
<pdfrwt beam="1">  1       21 0.98437835E-01 0.10496260E+04</pdfrwt>
<pdfrwt beam="2">  1       21 0.33989497E+00 0.10496260E+04</pdfrwt>
<totfact> 0.57438885E+00</totfact>
</mgrwt>
</event>
<event>
 8    1  0.7631533E-006  0.1034426E+04  0.7818608E-02  0.8744158E-01
         21   -1    0    0  501  502  0.00000000000E+00  0.00000000000E+00  0.11158190909E+04  0.11158190909E+04  0.00000000000E+00 0. -1.
         21   -1    0    0  502  503 -0.00000000000E+00 -0.00000000000E+00 -0.11041812243E+04  0.11041812243E+04  0.00000000000E+00 0. -1.
    9000010    2    1    2  501    0 -0.18143288587E+03 -0.11174583319E+03  0.41540884816E+03  0.11095646219E+04  0.10065605375E+04 0.  0.
   -9000010    2    1    2    0  503  0.18143288587E+03  0.11174583319E+03 -0.40377098160E+03  0.11104356934E+04  0.10122407817E+04 0.  0.
        -13    1    3    3    0    0 -0.40171256879E+03  0.33833818942E+03  0.17345788543E+03  0.55311243661E+03  0.10566000000E+00 0.  1.
          4    1    3    3  501    0  0.22027968292E+03 -0.45008402262E+03  0.24195096273E+03  0.55645218527E+03  0.00000000000E+00 0.  1.
         13    1    4    4    0    0  0.44700714132E+03  0.19544970743E+03  0.13305679276E+03  0.50568774336E+03  0.10566000000E+00 0. -1.
         -4    1    4    4    0  503 -0.26557425545E+03 -0.83703874232E+02 -0.53682777436E+03  0.60474795001E+03  0.00000000000E+00 0. -1.
<mgrwt>
<rscale>  2 0.10330334E+04</rscale>
<asrwt>0</asrwt>
<pdfrwt beam="1">  1       21 0.17166448E+00 0.10344256E+04</pdfrwt>
<pdfrwt beam="2">  1       21 0.16987403E+00 0.10344256E+04</pdfrwt>
<totfact> 0.20628518E+01</totfact>
</mgrwt>
</event>
<event>
 8    1  0.7631533E-006  0.1091298E+04  0.7818608E-02  0.8696228E-01
         21   -1    0    0  501  502  0.00000000000E+00  0.00000000000E+00  0.11744128928E+04  0.11744128928E+04  0.00000000000E+00 0.  1.
         21   -1    0    0  502  503 -0.00000000000E+00 -0.00000000000E+00 -0.10087824090E+04  0.10087824090E+04  0.00000000000E+00 0.  1.
    9000010    2    1    2  501    0 -0.20824262941E+03  0.38144236746E+03 -0.12023466055E+02  0.10913638304E+04  0.10010330535E+04 0.  0.
   -9000010    2    1    2    0  503  0.20824262941E+03 -0.38144236746E+03  0.17765394984E+03  0.10918314713E+04  0.98573412415E+03 0.  0.
        -13    1    3    3    0    0 -0.42858452178E+02  0.58716780646E+03 -0.33253289579E+03  0.67615162339E+03  0.10566000000E+00 0.  1.
          4    1    3    3  501    0 -0.16538417723E+03 -0.20572543900E+03  0.32050942973E+03  0.41521220704E+03  0.00000000000E+00 0.  1.
         13    1    4    4    0    0  0.57224353444E+03 -0.63860042637E+02 -0.37977471991E+01  0.57580830300E+03  0.10566000000E+00 0. -1.
         -4    1    4    4    0  503 -0.36400090503E+03 -0.31758232482E+03  0.18145169703E+03  0.51602316834E+03  0.00000000000E+00 0. -1.
<mgrwt>
<rscale>  2 0.10877765E+04</rscale>
<asrwt>0</asrwt>
<pdfrwt beam="1">  1       21 0.18067891E+00 0.10912976E+04</pdfrwt>
<pdfrwt beam="2">  1       21 0.15519729E+00 0.10912976E+04</pdfrwt>
<totfact> 0.22929070E+01</totfact>
</mgrwt>
</event>
<event>
 8    1  0.7631533E-006  0.1071262E+04  0.7818608E-02  0.8739565E-01
         21   -1    0    0  501  502  0.00000000000E+00  0.00000000000E+00  0.97190902610E+03  0.97190902610E+03  0.00000000000E+00 0. -1.
         21   -1    0    0  502  503 -0.00000000000E+00 -0.00000000000E+00 -0.13478658851E+04  0.13478658851E+04  0.00000000000E+00 0. -1.
    9000010    2    1    2  501    0 -0.17673585833E+03  0.30039793719E+03  0.36972859686E+03  0.10145362238E+04  0.87812870915E+03 0.  0.
   -9000010    2    1    2    0  503  0.17673585833E+03 -0.30039793719E+03 -0.74568545590E+03  0.13052386874E+04  0.10129791448E+04 0.  0.
        -13    1    3    3    0    0 -0.52626737994E+03  0.27386806261E+03  0.25448459631E+03  0.64554123945E+03  0.10566000000E+00 0.  1.
          4    1    3    3  501    0  0.34953152160E+03  0.26529874580E+02  0.11524400055E+03  0.36899498438E+03  0.00000000000E+00 0.  1.
         13    1    4    4    0    0  0.26248891081E+02 -0.52634640667E+03 -0.86164799778E+03  0.10100330823E+04  0.10566000000E+00 0. -1.
         -4    1    4    4    0  503  0.15048696725E+03  0.22594846948E+03  0.11596254188E+03  0.29520560512E+03  0.00000000000E+00 0. -1.
<mgrwt>
<rscale>  2 0.10381325E+04</rscale>
<asrwt>0</asrwt>
<pdfrwt beam="1">  1       21 0.14952446E+00 0.10712615E+04</pdfrwt>
<pdfrwt beam="2">  1       21 0.20736398E+00 0.10712615E+04</pdfrwt>
<totfact> 0.15897779E+01</totfact>
</mgrwt>
</event>
<event>
 8    1  0.7631533E-006  0.1067840E+04  0.7818608E-02  0.8713990E-01
         21   -1    0    0  501  502  0.00000000000E+00  0.00000000000E+00  0.11287882253E+04  0.11287882253E+04  0.00000000000E+00 0.  1.
         21   -1    0    0  502  503 -0.00000000000E+00 -0.00000000000E+00 -0.11091070083E+04  0.11091070083E+04  0.00000000000E+00 0.  1.
    9000010    2    1    2  501    0 -0.20414823846E+03 -0.29942652487E+03  0.34877532620E+03  0.11204944312E+04  0.10012645980E+04 0.  0.
   -9000010    2    1    2    0  503  0.20414823846E+03  0.29942652487E+03 -0.32909410920E+03  0.11174008024E+04  0.10044644709E+04 0.  0.
        -13    1    3    3    0    0 -0.20780631494E+03  0.31467033734E+03  0.33782800647E+03  0.50628910600E+03  0.10566000000E+00 0.  1.
          4    1    3    3  501    0  0.36580764776E+01 -0.61409686221E+03  0.10947319725E+02  0.61420532520E+03  0.00000000000E+00 0.  1.
         13    1    4    4    0    0  0.32519442606E+03 -0.25509233213E+03 -0.36122628879E+03  0.54891525350E+03  0.10566000000E+00 0. -1.
         -4    1    4    4    0  503 -0.12104618760E+03  0.55451885700E+03  0.32132179587E+02  0.56848554886E+03  0.00000000000E+00 0. -1.
<mgrwt>
<rscale>  2 0.10670865E+04</rscale>
<asrwt>0</asrwt>
<pdfrwt beam="1">  1       21 0.17365973E+00 0.10678397E+04</pdfrwt>
<pdfrwt beam="2">  1       21 0.17063185E+00 0.10678397E+04</pdfrwt>
<totfact> 0.19417731E+01</totfact>
</mgrwt>
</event>
<event>
 8    1  0.7631533E-006  0.9991235E+03  0.7818608E-02  0.8785619E-01
         21   -1    0    0  503  502  0.00000000000E+00  0.00000000000E+00  0.17345645644E+04  0.17345645644E+04  0.00000000000E+00 0.  1.
         21   -1    0    0  501  503 -0.00000000000E+00 -0.00000000000E+00 -0.64671645331E+03  0.64671645331E+03  0.00000000000E+00 0.  1.
    9000010    2    1    2  501    0 -0.15782383401E+02  0.66567829292E+02  0.10111526409E+04  0.14215053088E+04  0.99677847103E+03 0.  0.
   -9000010    2    1    2    0  502  0.15782383401E+02 -0.66567829292E+02  0.76695470128E+02  0.95977570883E+03  0.95425722769E+03 0.  0.
        -13    1    3    3    0    0 -0.49786570574E+03  0.42920431209E+02  0.38448547901E+03  0.63050893658E+03  0.10566000000E+00 0.  1.
          4    1    3    3  501    0  0.48208332234E+03  0.23647398083E+02  0.62666716191E+03  0.79099637226E+03  0.00000000000E+00 0.  1.
         13    1    4    4    0    0 -0.10674849337E+03 -0.12745054991E+03 -0.41623524999E+03  0.44820829757E+03  0.10566000000E+00 0. -1.
         -4    1    4    4    0  502  0.12253087677E+03  0.60882720619E+02  0.49293072012E+03  0.51156741126E+03  0.00000000000E+00 0. -1.
<mgrwt>
<rscale>  2 0.98834607E+03</rscale>
<asrwt>0</asrwt>
<pdfrwt beam="1">  1       21 0.26685609E+00 0.99912346E+03</pdfrwt>
<pdfrwt beam="2">  1       21 0.99494839E-01 0.99912346E+03</pdfrwt>
<totfact> 0.18562902E+01</totfact>
</mgrwt>
</event>
<event>
 8    1  0.7631533E-006  0.1193021E+04  0.7818608E-02  0.8613146E-01
         21   -1    0    0  503  502  0.00000000000E+00  0.00000000000E+00  0.83939391075E+03  0.83939391075E+03  0.00000000000E+00 0.  1.
         21   -1    0    0  501  503 -0.00000000000E+00 -0.00000000000E+00 -0.18607756291E+04  0.18607756291E+04  0.00000000000E+00 0.  1.
    9000010    2    1    2  501    0 -0.16664469690E+03  0.60937798028E+03 -0.92597328436E+03  0.15102072658E+04  0.10120214842E+04 0.  0.
   -9000010    2    1    2    0  502  0.16664469690E+03 -0.60937798028E+03 -0.95408434008E+02  0.11899622741E+04  0.10038901666E+04 0.  0.
        -13    1    3    3    0    0 -0.40802410830E+03 -0.92749856425E+02 -0.17310993292E+03  0.45282807870E+03  0.10566000000E+00 0.  1.
          4    1    3    3  501    0  0.24137941140E+03  0.70212783670E+03 -0.75286335144E+03  0.10573791871E+04  0.00000000000E+00 0.  1.
         13    1    4    4    0    0  0.42083695000E+03 -0.49557961655E+03  0.29209696452E+03  0.71275770264E+03  0.10566000000E+00 0. -1.
         -4    1    4    4    0  502 -0.25419225311E+03 -0.11379836372E+03 -0.38750539853E+03  0.47720457145E+03  0.00000000000E+00 0. -1.
<mgrwt>
<rscale>  2 0.11912949E+04</rscale>
<asrwt>0</asrwt>
<pdfrwt beam="1">  1       21 0.12913753E+00 0.11930211E+04</pdfrwt>
<pdfrwt beam="2">  1       21 0.28627317E+00 0.11930211E+04</pdfrwt>
<totfact> 0.63174944E+00</totfact>
</mgrwt>
</event>
<event>
 8    1  0.7631533E-006  0.1045553E+04  0.7818608E-02  0.8736635E-01
         21   -1    0    0  501  502  0.00000000000E+00  0.00000000000E+00  0.13368243249E+04  0.13368243249E+04  0.00000000000E+00 0.  1.
         21   -1    0    0  502  503 -0.00000000000E+00 -0.00000000000E+00 -0.87400311800E+03  0.87400311800E+03  0.00000000000E+00 0.  1.
    9000010    2    1    2  501    0 -0.20199489166E+03  0.95970893815E+02 -0.81139113797E+02  0.10322374818E+04  0.10044492592E+04 0.  0.
   -9000010    2    1    2    0  503  0.20199489166E+03 -0.95970893815E+02  0.54396032072E+03  0.11785899611E+04  0.10213565084E+04 0.  0.
        -13    1    3    3    0    0 -0.52633239068E+03 -0.22365161035E+03 -0.75503365598E+02  0.57684191740E+03  0.10566000000E+00 0.  1.
          4    1    3    3  501    0  0.32433749902E+03  0.31962250417E+03 -0.56357481993E+01  0.45539556443E+03  0.00000000000E+00 0.  1.
         13    1    4    4    0    0  0.31160328251E+03 -0.21935532876E+03 -0.19034738674E+03  0.42596420593E+03  0.10566000000E+00 0. -1.
         -4    1    4    4    0  503 -0.10960839085E+03  0.12338443495E+03  0.73430770746E+03  0.75262575518E+03  0.00000000000E+00 0. -1.
<mgrwt>
<rscale>  2 0.10414011E+04</rscale>
<asrwt>0</asrwt>
<pdfrwt beam="1">  1       21 0.20566528E+00 0.10455532E+04</pdfrwt>
<pdfrwt beam="2">  1       21 0.13446202E+00 0.10455532E+04</pdfrwt>
<totfact> 0.22667779E+01</totfact>
</mgrwt>
</event>
<event>
 8    1  0.7631533E-006  0.1079456E+04  0.7818608E-02  0.8704901E-01
         21   -1    0    0  501  502  0.00000000000E+00  0.00000000000E+00  0.69917956189E+03  0.69917956189E+03  0.00000000000E+00 0.  1.
         21   -1    0    0  502  503 -0.00000000000E+00 -0.00000000000E+00 -0.17516356376E+04  0.17516356376E+04  0.00000000000E+00 0.  1.
    9000010    2    1    2  501    0 -0.12980249921E+03 -0.38532435694E+03 -0.81540173446E+03  0.13528139503E+04  0.99995102218E+03 0.  0.
   -9000010    2    1    2    0  503  0.12980249921E+03  0.38532435694E+03 -0.23705434127E+03  0.10980012492E+04  0.99201231528E+03 0.  0.
        -13    1    3    3    0    0 -0.32363022234E+02 -0.60857122999E+03 -0.12691307028E+03  0.62250561905E+03  0.10566000000E+00 0.  1.
          4    1    3    3  501    0 -0.97439476979E+02  0.22324687305E+03 -0.68848866419E+03  0.73030833127E+03  0.00000000000E+00 0.  1.
         13    1    4    4    0    0 -0.63854380622E+02  0.18328527657E+03  0.37652776063E+03  0.42360835712E+03  0.10566000000E+00 0. -1.
         -4    1    4    4    0  503  0.19365687983E+03  0.20203908037E+03 -0.61358210190E+03  0.67439289207E+03  0.00000000000E+00 0. -1.
<mgrwt>
<rscale>  2 0.10776140E+04</rscale>
<asrwt>0</asrwt>
<pdfrwt beam="1">  1       21 0.10756609E+00 0.10794562E+04</pdfrwt>
<pdfrwt beam="2">  1       21 0.26948240E+00 0.10794562E+04</pdfrwt>
<totfact> 0.14193058E+01</totfact>
</mgrwt>
</event>
<event>
 8    1  0.7631533E-006  0.1055951E+04  0.7818608E-02  0.8724153E-01
         21   -1    0    0  501  502  0.00000000000E+00  0.00000000000E+00  0.13754410714E+04  0.13754410714E+04  0.00000000000E+00 0.  1.
         21   -1    0    0  502  503 -0.00000000000E+00 -0.00000000000E+00 -0.93263528039E+03  0.93263528039E+03  0.00000000000E+00 0.  1.
    9000010    2    1    2  501    0  0.33204009508E+03 -0.13188031972E+02  0.64109444993E+03  0.12336690040E+04  0.10002562515E+04 0.  0.
   -9000010    2    1    2    0  503 -0.33204009508E+03  0.13188031972E+02 -0.19828865895E+03  0.10744073478E+04  0.10023014555E+04 0.  0.
        -13    1    3    3    0    0  0.82877573929E+02 -0.31596779488E+02 -0.27247732787E+03  0.28655009004E+03  0.10566000000E+00 0.  1.
          4    1    3    3  501    0  0.24916252115E+03  0.18408747516E+02  0.91357177779E+03  0.94711891392E+03  0.00000000000E+00 0.  1.
         13    1    4    4    0    0 -0.45742369777E+03 -0.32945890156E+03 -0.36675649424E+03  0.67252505108E+03  0.10566000000E+00 0. -1.
         -4    1    4    4    0  503  0.12538360269E+03  0.34264693353E+03  0.16846783529E+03  0.40188229671E+03  0.00000000000E+00 0. -1.
<mgrwt>
<rscale>  2 0.10554655E+04</rscale>
<asrwt>0</asrwt>
<pdfrwt beam="1">  1       21 0.21160632E+00 0.10559511E+04</pdfrwt>
<pdfrwt beam="2">  1       21 0.14348235E+00 0.10559511E+04</pdfrwt>
<totfact> 0.16783189E+01</totfact>
</mgrwt>
</event>
<event>
 8    1  0.7631533E-006  0.1062555E+04  0.7818608E-02  0.8725490E-01
         21   -1    0    0  503  502  0.00000000000E+00  0.00000000000E+00  0.82519079360E+03  0.82519079360E+03  0.00000000000E+00 0. -1.
         21   -1    0    0  501  503 -0.00000000000E+00 -0.00000000000E+00 -0.15024613118E+04  0.15024613118E+04  0.00000000000E+00 0. -1.
    9000010    2    1    2  501    0 -0.42297048068E+02 -0.23708033974E+03 -0.73399596283E+03  0.12635835799E+04  0.99994862980E+03 0.  0.
   -9000010    2    1    2    0  502  0.42297048068E+02  0.23708033974E+03  0.56725444611E+02  0.10640685255E+04  0.10349047894E+04 0.  0.
        -13    1    3    3    0    0  0.35822639963E+03 -0.65151444654E+02  0.49061102232E+02  0.36739334105E+03  0.10566000000E+00 0.  1.
          4    1    3    3  501    0 -0.40052344769E+03 -0.17192889508E+03 -0.78305706506E+03  0.89619023888E+03  0.00000000000E+00 0.  1.
         13    1    4    4    0    0  0.19892018630E+03 -0.28285665466E+03 -0.26252234650E+03  0.43416024828E+03  0.10566000000E+00 0. -1.
         -4    1    4    4    0  502 -0.15662313824E+03  0.51993699440E+03  0.31924779111E+03  0.62990827722E+03  0.00000000000E+00 0. -1.
<mgrwt>
<rscale>  2 0.10539474E+04</rscale>
<asrwt>0</asrwt>
<pdfrwt beam="1">  1       21 0.12695243E+00 0.10625554E+04</pdfrwt>
<pdfrwt beam="2">  1       21 0.23114789E+00 0.10625554E+04</pdfrwt>
<totfact> 0.17111368E+01</totfact>
</mgrwt>
</event>
<event>
 8    1  0.7631533E-006  0.1069381E+04  0.7818608E-02  0.8717891E-01
         21   -1    0    0  503  502  0.00000000000E+00  0.00000000000E+00  0.15278773437E+04  0.15278773437E+04  0.00000000000E+00 0.  1.
         21   -1    0    0  501  503 -0.00000000000E+00 -0.00000000000E+00 -0.10418682457E+04  0.10418682457E+04  0.00000000000E+00 0.  1.
    9000010    2    1    2  501    0  0.34063341550E+03  0.54360068361E+02 -0.46230929152E+03  0.11404508095E+04  0.98382520148E+03 0.  0.
   -9000010    2    1    2    0  502 -0.34063341550E+03 -0.54360068361E+02  0.94831838956E+03  0.14292947799E+04  0.10122201634E+04 0.  0.
        -13    1    3    3    0    0  0.31241596053E+03 -0.23299208744E+03 -0.67664546688E+03  0.78085731361E+03  0.10566000000E+00 0.  1.
          4    1    3    3  501    0  0.28217454973E+02  0.28735215580E+03  0.21433617537E+03  0.35959349588E+03  0.00000000000E+00 0.  1.
         13    1    4    4    0    0  0.66502490238E+02  0.42689909213E+03  0.46678627819E+03  0.63604626933E+03  0.10566000000E+00 0. -1.
         -4    1    4    4    0  502 -0.40713590574E+03 -0.48125916049E+03  0.48153211137E+03  0.79324851061E+03  0.00000000000E+00 0. -1.
<mgrwt>
<rscale>  2 0.10626077E+04</rscale>
<asrwt>0</asrwt>
<pdfrwt beam="1">  1       21 0.23505805E+00 0.10693810E+04</pdfrwt>
<pdfrwt beam="2">  1       21 0.16028742E+00 0.10693810E+04</pdfrwt>
<totfact> 0.79149462E+00</totfact>
</mgrwt>
</event>
<event>
 8    1  0.7631533E-006  0.1049279E+04  0.7818608E-02  0.8736236E-01
         21   -1    0    0  501  502  0.00000000000E+00  0.00000000000E+00  0.13204236301E+04  0.13204236301E+04  0.00000000000E+00 0.  1.
         21   -1    0    0  502  503 -0.00000000000E+00 -0.00000000000E+00 -0.89556985952E+03  0.89556985952E+03  0.00000000000E+00 0.  1.
    9000010    2    1    2  501    0 -0.28988676049E+03 -0.33434611581E+02 -0.12609014192E+03  0.10568280014E+04  0.10078861511E+04 0.  0.
   -9000010    2    1    2    0  503  0.28988676049E+03  0.33434611581E+02  0.55094391246E+03  0.11591654882E+04  0.97722731599E+03 0.  0.
        -13    1    3    3    0    0  0.23982727726E+03 -0.35101180632E+03  0.63617679461E+01  0.42516690175E+03  0.10566000000E+00 0.  1.
          4    1    3    3  501    0 -0.52971403775E+03  0.31757719473E+03 -0.13245190987E+03  0.63166109966E+03  0.00000000000E+00 0.  1.
         13    1    4    4    0    0  0.81558159425E+02 -0.34347211656E+03  0.62919427814E+03  0.72146398318E+03  0.10566000000E+00 0. -1.
         -4    1    4    4    0  503  0.20832860107E+03  0.37690672814E+03 -0.78250365677E+02  0.43770150498E+03  0.00000000000E+00 0. -1.
<mgrwt>
<rscale>  2 0.10418471E+04</rscale>
<asrwt>0</asrwt>
<pdfrwt beam="1">  1       21 0.20314210E+00 0.10492791E+04</pdfrwt>
<pdfrwt beam="2">  1       21 0.13777998E+00 0.10492791E+04</pdfrwt>
<totfact> 0.22045251E+01</totfact>
</mgrwt>
</event>
<event>
 8    1  0.7631533E-006  0.1052873E+04  0.7818608E-02  0.8749314E-01
         21   -1    0    0  501  502  0.00000000000E+00  0.00000000000E+00  0.10688925022E+04  0.10688925022E+04  0.00000000000E+00 0.  1.
         21   -1    0    0  502  503 -0.00000000000E+00 -0.00000000000E+00 -0.11278421058E+04  0.11278421058E+04  0.00000000000E+00 0.  1.
    9000010    2    1    2  501    0 -0.30155419941E+03  0.15508173950E+03  0.41427056687E+03  0.11314425942E+04  0.99677327428E+03 0.  0.
   -9000010    2    1    2    0  503  0.30155419941E+03 -0.15508173950E+03 -0.47322017048E+03  0.10652920138E+04  0.89214598796E+03 0.  0.
        -13    1    3    3    0    0  0.24715548995E+03  0.18451085726E+03 -0.15073371691E+03  0.34329398078E+03  0.10566000000E+00 0.  1.
          4    1    3    3  501    0 -0.54870968936E+03 -0.29429117761E+02  0.56500428378E+03  0.78814861344E+03  0.00000000000E+00 0.  1.
         13    1    4    4    0    0 -0.18743963078E+03 -0.15935897541E+02  0.16437554756E+03  0.24981373025E+03  0.10566000000E+00 0. -1.
         -4    1    4    4    0  503  0.48899383019E+03 -0.13914584196E+03 -0.63759571804E+03  0.81547828357E+03  0.00000000000E+00 0. -1.
<mgrwt>
<rscale>  2 0.10273455E+04</rscale>
<asrwt>0</asrwt>
<pdfrwt beam="1">  1       21 0.16444500E+00 0.10528733E+04</pdfrwt>
<pdfrwt beam="2">  1       21 0.17351417E+00 0.10528733E+04</pdfrwt>
<totfact> 0.22032541E+01</totfact>
</mgrwt>
</event>
<event>
 8    1  0.7631533E-006  0.1159140E+04  0.7818608E-02  0.8641582E-01
         21   -1    0    0  501  502  0.00000000000E+00  0.00000000000E+00  0.23048457638E+04  0.23048457638E+04  0.00000000000E+00 0.  1.
         21   -1    0    0  502  503 -0.00000000000E+00 -0.00000000000E+00 -0.10094378456E+04  0.10094378456E+04  0.00000000000E+00 0.  1.
    9000010    2    1    2  501    0 -0.32755005054E+03  0.45156353930E+03  0.17391779270E+04  0.20900587315E+04  0.10160742954E+04 0.  0.
   -9000010    2    1    2    0  503  0.32755005054E+03 -0.45156353930E+03 -0.44377000888E+03  0.12242248779E+04  0.99528692608E+03 0.  0.
        -13    1    3    3    0    0 -0.23545294463E+03 -0.15883394862E+03  0.13045172247E+04  0.13350773435E+04  0.10566000000E+00 0.  1.
          4    1    3    3  501    0 -0.92097105911E+02  0.61039748791E+03  0.43466070234E+03  0.75498138807E+03  0.00000000000E+00 0.  1.
         13    1    4    4    0    0  0.18950987608E+03  0.29381973531E+03 -0.28179121945E+03  0.44905493262E+03  0.10566000000E+00 0. -1.
         -4    1    4    4    0  503  0.13804017446E+03 -0.74538327460E+03 -0.16197878943E+03  0.77516994527E+03  0.00000000000E+00 0. -1.
<mgrwt>
<rscale>  2 0.11545686E+04</rscale>
<asrwt>0</asrwt>
<pdfrwt beam="1">  1       21 0.35459165E+00 0.11591400E+04</pdfrwt>
<pdfrwt beam="2">  1       21 0.15529813E+00 0.11591400E+04</pdfrwt>
<totfact> 0.12065264E+00</totfact>
</mgrwt>
</event>
<event>
 8    1  0.7631533E-006  0.1081434E+04  0.7818608E-02  0.8702977E-01
         21   -1    0    0  501  502  0.00000000000E+00  0.00000000000E+00  0.11045488919E+04  0.11045488919E+04  0.00000000000E+00 0.  1.
         21   -1    0    0  502  503 -0.00000000000E+00 -0.00000000000E+00 -0.18433179800E+04  0.18433179800E+04  0.00000000000E+00 0.  1.
    9000010    2    1    2  501    0 -0.36063650991E+03  0.14420343001E+03  0.59655501204E+03  0.12295567804E+04  0.10025361202E+04 0.  0.
   -9000010    2    1    2    0  503  0.36063650991E+03 -0.14420343001E+03 -0.13353241001E+04  0.17183100914E+04  0.10092798405E+04 0.  0.
        -13    1    3    3    0    0 -0.51739379355E+03  0.45833210509E+03  0.53285836153E+03  0.87275580822E+03  0.10566000000E+00 0.  1.
          4    1    3    3  501    0  0.15675728364E+03 -0.31412867508E+03  0.63696650513E+02  0.35680097221E+03  0.00000000000E+00 0.  1.
         13    1    4    4    0    0 -0.24647012926E+03 -0.12669171696E+03 -0.97164526359E+03  0.10103924214E+04  0.10566000000E+00 0. -1.
         -4    1    4    4    0  503  0.60710663917E+03 -0.17511713049E+02 -0.36367883652E+03  0.70791767004E+03  0.00000000000E+00 0. -1.
<mgrwt>
<rscale>  2 0.10798576E+04</rscale>
<asrwt>0</asrwt>
<pdfrwt beam="1">  1       21 0.16993060E+00 0.10814338E+04</pdfrwt>
<pdfrwt beam="2">  1       21 0.28358738E+00 0.10814338E+04</pdfrwt>
<totfact> 0.29126528E+00</totfact>
</mgrwt>
</event>
<event>
 8    1  0.7631533E-006  0.1020728E+04  0.7818608E-02  0.8757243E-01
         21   -1    0    0  501  502  0.00000000000E+00  0.00000000000E+00  0.12652592712E+04  0.12652592712E+04  0.00000000000E+00 0. -1.
         21   -1    0    0  502  503 -0.00000000000E+00 -0.00000000000E+00 -0.93171183462E+03  0.93171183462E+03  0.00000000000E+00 0. -1.
    9000010    2    1    2  501    0 -0.92978383538E+02 -0.12617232591E+03  0.55186555969E+03  0.11531570400E+04  0.10003255106E+04 0.  0.
   -9000010    2    1    2    0  503  0.92978383538E+02  0.12617232591E+03 -0.21831812316E+03  0.10438140658E+04  0.10086231037E+04 0.  0.
        -13    1    3    3    0    0 -0.51577037413E+03  0.87166699726E+02  0.18763111332E+03  0.55571805641E+03  0.10566000000E+00 0.  1.
          4    1    3    3  501    0  0.42279199059E+03 -0.21333902563E+03  0.36423444638E+03  0.59743898357E+03  0.00000000000E+00 0.  1.
         13    1    4    4    0    0  0.31440275293E+03  0.12636035993E+03  0.31731062896E+03  0.46422201372E+03  0.10566000000E+00 0. -1.
         -4    1    4    4    0  503 -0.22142436939E+03 -0.18803402373E+00 -0.53562875212E+03  0.57959205206E+03  0.00000000000E+00 0. -1.
<mgrwt>
<rscale>  2 0.10186719E+04</rscale>
<asrwt>0</asrwt>
<pdfrwt beam="1">  1       21 0.19465527E+00 0.10207277E+04</pdfrwt>
<pdfrwt beam="2">  1       21 0.14334028E+00 0.10207277E+04</pdfrwt>
<totfact> 0.22973628E+01</totfact>
</mgrwt>
</event>
<event>
 8    1  0.7631533E-006  0.1089343E+04  0.7818608E-02  0.8694937E-01
         21   -1    0    0  503  502  0.00000000000E+00  0.00000000000E+00  0.79653829247E+03  0.79653829247E+03  0.00000000000E+00 0.  1.
         21   -1    0    0  501  503 -0.00000000000E+00 -0.00000000000E+00 -0.17637984906E+04  0.17637984906E+04  0.00000000000E+00 0.  1.
    9000010    2    1    2  501    0 -0.34073866177E+03  0.25407450364E+03 -0.98846720719E+03  0.14709645176E+04  0.10030017465E+04 0.  0.
   -9000010    2    1    2    0  502  0.34073866177E+03 -0.25407450364E+03  0.21207009026E+02  0.10893722655E+04  0.10028088086E+04 0.  0.
        -13    1    3    3    0    0 -0.20897784540E+03  0.17423294860E+03  0.15770572975E+03  0.31448365396E+03  0.10566000000E+00 0.  1.
          4    1    3    3  501    0 -0.13176081637E+03  0.79841555045E+02 -0.11461729369E+04  0.11564808637E+04  0.00000000000E+00 0.  1.
         13    1    4    4    0    0  0.16697182282E+03 -0.25818063823E+03  0.49610872264E+03  0.58366146645E+03  0.10566000000E+00 0. -1.
         -4    1    4    4    0  502  0.17376683895E+03  0.41061345880E+01 -0.47490171361E+03  0.50571079903E+03  0.00000000000E+00 0. -1.
<mgrwt>
<rscale>  2 0.10892991E+04</rscale>
<asrwt>0</asrwt>
<pdfrwt beam="1">  1       21 0.12254435E+00 0.10893435E+04</pdfrwt>
<pdfrwt beam="2">  1       21 0.27135361E+00 0.10893435E+04</pdfrwt>
<totfact> 0.95892421E+00</totfact>
</mgrwt>
</event>
<event>
 8    1  0.7631533E-006  0.1025438E+04  0.7818608E-02  0.8753442E-01
         21   -1    0    0  501  502  0.00000000000E+00  0.00000000000E+00  0.99081176388E+03  0.99081176388E+03  0.00000000000E+00 0. -1.
         21   -1    0    0  502  503 -0.00000000000E+00 -0.00000000000E+00 -0.12772325891E+04  0.12772325891E+04  0.00000000000E+00 0. -1.
    9000010    2    1    2  501    0 -0.52995867751E+02 -0.19456336008E+03  0.33397681896E+03  0.10784538032E+04  0.10054146542E+04 0.  0.
   -9000010    2    1    2    0  503  0.52995867751E+02  0.19456336008E+03 -0.62039764417E+03  0.11895905498E+04  0.99477081587E+03 0.  0.
        -13    1    3    3    0    0  0.60879568185E+02 -0.27880274551E+03  0.66214420948E+03  0.72102167654E+03  0.10566000000E+00 0.  1.
          4    1    3    3  501    0 -0.11387543594E+03  0.84239385429E+02 -0.32816739052E+03  0.35743212666E+03  0.00000000000E+00 0.  1.
         13    1    4    4    0    0 -0.21130245662E+03 -0.34223672516E+03 -0.15297865474E+03  0.43032218649E+03  0.10566000000E+00 0. -1.
         -4    1    4    4    0  503  0.26429832437E+03  0.53680008524E+03 -0.46741898943E+03  0.75926836327E+03  0.00000000000E+00 0. -1.
<mgrwt>
<rscale>  2 0.10228190E+04</rscale>
<asrwt>0</asrwt>
<pdfrwt beam="1">  1       21 0.15243258E+00 0.10254375E+04</pdfrwt>
<pdfrwt beam="2">  1       21 0.19649732E+00 0.10254375E+04</pdfrwt>
<totfact> 0.18388501E+01</totfact>
</mgrwt>
</event>
<event>
 8    1  0.7631533E-006  0.1241376E+04  0.7818608E-02  0.8581254E-01
         21   -1    0    0  501  502  0.00000000000E+00  0.00000000000E+00  0.21763417476E+04  0.21763417476E+04  0.00000000000E+00 0.  1.
         21   -1    0    0  502  503 -0.00000000000E+00 -0.00000000000E+00 -0.92772294761E+03  0.92772294761E+03  0.00000000000E+00 0.  1.
    9000010    2    1    2  501    0 -0.25525231345E+03  0.63358785531E+03  0.14013487537E+04  0.18533285500E+04  0.10022280532E+04 0.  0.
   -9000010    2    1    2    0  503  0.25525231345E+03 -0.63358785531E+03 -0.15272995371E+03  0.12507361453E+04  0.10365457792E+04 0.  0.
        -13    1    3    3    0    0 -0.26356085683E+03  0.40723847528E+03  0.55152344098E+02  0.48821029611E+03  0.10566000000E+00 0.  1.
          4    1    3    3  501    0  0.83085433830E+01  0.22634938003E+03  0.13461964097E+04  0.13651182539E+04  0.00000000000E+00 0.  1.
         13    1    4    4    0    0 -0.38918049224E+03 -0.39383389719E+03 -0.76201941889E+02  0.55890369585E+03  0.10566000000E+00 0. -1.
         -4    1    4    4    0  503  0.64443280569E+03 -0.23975395812E+03 -0.76528011818E+02  0.69183244942E+03  0.00000000000E+00 0. -1.
<mgrwt>
<rscale>  2 0.12341868E+04</rscale>
<asrwt>0</asrwt>
<pdfrwt beam="1">  1       21 0.33482181E+00 0.12413760E+04</pdfrwt>
<pdfrwt beam="2">  1       21 0.14272661E+00 0.12413760E+04</pdfrwt>
<totfact> 0.21146155E+00</totfact>
</mgrwt>
</event>
<event>
 8    1  0.7631533E-006  0.1019838E+04  0.7818608E-02  0.8793713E-01
         21   -1    0    0  503  502  0.00000000000E+00  0.00000000000E+00  0.13389826053E+04  0.13389826053E+04  0.00000000000E+00 0. -1.
         21   -1    0    0  501  503 -0.00000000000E+00 -0.00000000000E+00 -0.72446800237E+03  0.72446800237E+03  0.00000000000E+00 0. -1.
    9000010    2    1    2  501    0  0.23016357327E+03  0.41018162701E+02  0.57628205105E+03  0.10428958021E+04  0.83718151643E+03 0.  0.
   -9000010    2    1    2    0  502 -0.23016357327E+03 -0.41018162701E+02  0.38232551871E+02  0.10205548056E+04  0.99267951681E+03 0.  0.
        -13    1    3    3    0    0 -0.24303530505E+02 -0.37754031720E+03  0.27662071955E+03  0.46866447097E+03  0.10566000000E+00 0.  1.
          4    1    3    3  501    0  0.25446710377E+03  0.41855847990E+03  0.29966133150E+03  0.57423133108E+03  0.00000000000E+00 0.  1.
         13    1    4    4    0    0  0.31420377657E+03  0.48666967437E+02  0.27482072245E+03  0.42026054726E+03  0.10566000000E+00 0. -1.
         -4    1    4    4    0  502 -0.54436734984E+03 -0.89685130139E+02 -0.23658817058E+03  0.60029425834E+03  0.00000000000E+00 0. -1.
<mgrwt>
<rscale>  2 0.97989611E+03</rscale>
<asrwt>0</asrwt>
<pdfrwt beam="1">  1       21 0.20599732E+00 0.10198384E+04</pdfrwt>
<pdfrwt beam="2">  1       21 0.11145662E+00 0.10198384E+04</pdfrwt>
<totfact> 0.38477784E+01</totfact>
</mgrwt>
</event>
<event>
 8    1  0.7631533E-006  0.1034318E+04  0.7818608E-02  0.8751246E-01
         21   -1    0    0  503  502  0.00000000000E+00  0.00000000000E+00  0.85532874439E+03  0.85532874439E+03  0.00000000000E+00 0.  1.
         21   -1    0    0  501  503 -0.00000000000E+00 -0.00000000000E+00 -0.12801036898E+04  0.12801036898E+04  0.00000000000E+00 0.  1.
    9000010    2    1    2  501    0  0.20626500398E+03 -0.19829945066E+03 -0.46268953226E+03  0.11004201016E+04  0.95654318911E+03 0.  0.
   -9000010    2    1    2    0  502 -0.20626500398E+03  0.19829945066E+03  0.37914586841E+02  0.10350123326E+04  0.99395426899E+03 0.  0.
        -13    1    3    3    0    0  0.46057888696E+03 -0.83812137413E+02 -0.62257412993E+03  0.77894540497E+03  0.10566000000E+00 0.  1.
          4    1    3    3  501    0 -0.25431388298E+03 -0.11448731325E+03  0.15988459767E+03  0.32147469658E+03  0.00000000000E+00 0.  1.
         13    1    4    4    0    0 -0.12498958125E+02 -0.76214136753E+02 -0.44225763316E+03  0.44895060291E+03  0.10566000000E+00 0. -1.
         -4    1    4    4    0  502 -0.19376604586E+03  0.27451358741E+03  0.48017222001E+03  0.58606172974E+03  0.00000000000E+00 0. -1.
<mgrwt>
<rscale>  2 0.10252241E+04</rscale>
<asrwt>0</asrwt>
<pdfrwt beam="1">  1       21 0.13158904E+00 0.10343177E+04</pdfrwt>
<pdfrwt beam="2">  1       21 0.19693903E+00 0.10343177E+04</pdfrwt>
<totfact> 0.28298662E+01</totfact>
</mgrwt>
</event>
<event>
 8    1  0.7631533E-006  0.1143380E+04  0.7818608E-02  0.8657870E-01
         21   -1    0    0  503  502  0.00000000000E+00  0.00000000000E+00  0.99634815906E+03  0.99634815906E+03  0.00000000000E+00 0.  1.
         21   -1    0    0  501  503 -0.00000000000E+00 -0.00000000000E+00 -0.13602759839E+04  0.13602759839E+04  0.00000000000E+00 0.  1.
    9000010    2    1    2  501    0 -0.46470184992E+03 -0.15998479287E+03  0.11781149961E+03  0.11494334656E+04  0.10323636952E+04 0.  0.
   -9000010    2    1    2    0  502  0.46470184992E+03  0.15998479287E+03 -0.48173932448E+03  0.12071906774E+04  0.99181329472E+03 0.  0.
        -13    1    3    3    0    0  0.25361041859E+03  0.42471983944E+02  0.28580977348E+03  0.38445981795E+03  0.10566000000E+00 0.  1.
          4    1    3    3  501    0 -0.71831226850E+03 -0.20245677681E+03 -0.16799827388E+03  0.76497364764E+03  0.00000000000E+00 0.  1.
         13    1    4    4    0    0  0.18351611134E+03 -0.22222013072E+03  0.21826505189E+03  0.36152398767E+03  0.10566000000E+00 0. -1.
         -4    1    4    4    0  502  0.28118573857E+03  0.38220492359E+03 -0.70000437636E+03  0.84566668973E+03  0.00000000000E+00 0. -1.
<mgrwt>
<rscale>  2 0.11341498E+04</rscale>
<asrwt>0</asrwt>
<pdfrwt beam="1">  1       21 0.15328433E+00 0.11433800E+04</pdfrwt>
<pdfrwt beam="2">  1       21 0.20927323E+00 0.11433800E+04</pdfrwt>
<totfact> 0.14008811E+01</totfact>
</mgrwt>
</event>
<event>
 8    1  0.7631533E-006  0.1035444E+04  0.7818608E-02  0.8742892E-01
         21   -1    0    0  503  502  0.00000000000E+00  0.00000000000E+00  0.90567434684E+03  0.90567434684E+03  0.00000000000E+00 0. -1.
         21   -1    0    0  501  503 -0.00000000000E+00 -0.00000000000E+00 -0.12153951758E+04  0.12153951758E+04  0.00000000000E+00 0. -1.
    9000010    2    1    2  501    0 -0.18295578022E+03 -0.14959586940E+03  0.27834560851E+02  0.10358182148E+04  0.10081135202E+04 0.  0.
   -9000010    2    1    2    0  502  0.18295578022E+03  0.14959586940E+03 -0.33755538978E+03  0.10852513078E+04  0.10039795906E+04 0.  0.
        -13    1    3    3    0    0 -0.37652790349E+03 -0.40126919414E+03 -0.25878557897E+03  0.60807911929E+03  0.10566000000E+00 0.  1.
          4    1    3    3  501    0  0.19357212326E+03  0.25167332474E+03  0.28662013982E+03  0.42773909552E+03  0.00000000000E+00 0.  1.
         13    1    4    4    0    0  0.81794687238E+02  0.53815190947E+03 -0.40453568792E+03  0.67819391216E+03  0.10566000000E+00 0. -1.
         -4    1    4    4    0  502  0.10116109298E+03 -0.38855604006E+03  0.66980298140E+02  0.40705739564E+03  0.00000000000E+00 0. -1.
<mgrwt>
<rscale>  2 0.10344366E+04</rscale>
<asrwt>0</asrwt>
<pdfrwt beam="1">  1       21 0.13933452E+00 0.10354442E+04</pdfrwt>
<pdfrwt beam="2">  1       21 0.18698387E+00 0.10354442E+04</pdfrwt>
<totfact> 0.28682327E+01</totfact>
</mgrwt>
</event>
<event>
 8    1  0.7631533E-006  0.1129315E+04  0.7818608E-02  0.8664827E-01
         21   -1    0    0  501  502  0.00000000000E+00  0.00000000000E+00  0.16925959474E+04  0.16925959474E+04  0.00000000000E+00 0. -1.
         21   -1    0    0  502  503 -0.00000000000E+00 -0.00000000000E+00 -0.12239345036E+04  0.12239345036E+04  0.00000000000E+00 0. -1.
    9000010    2    1    2  501    0  0.48955975974E+03  0.19003531609E+03  0.11488471144E+04  0.16109629824E+04  0.99978490621E+03 0.  0.
   -9000010    2    1    2    0  503 -0.48955975974E+03 -0.19003531609E+03 -0.68018567050E+03  0.13055674686E+04  0.98288945923E+03 0.  0.
        -13    1    3    3    0    0 -0.24655621169E+03  0.24387700742E+03  0.17335398995E+03  0.38770810833E+03  0.10566000000E+00 0.  1.
          4    1    3    3  501    0  0.73611597142E+03 -0.53841691325E+02  0.97549312442E+03  0.12232548741E+04  0.00000000000E+00 0.  1.
         13    1    4    4    0    0 -0.45913634173E+03  0.33117043037E+03 -0.21264869884E+03  0.60473094392E+03  0.10566000000E+00 0. -1.
         -4    1    4    4    0  503 -0.30423418010E+02 -0.52120574646E+03 -0.46753697166E+03  0.70083652471E+03  0.00000000000E+00 0. -1.
<mgrwt>
<rscale>  2 0.11255637E+04</rscale>
<asrwt>0</asrwt>
<pdfrwt beam="1">  1       21 0.26039938E+00 0.11293149E+04</pdfrwt>
<pdfrwt beam="2">  1       21 0.18829762E+00 0.11293149E+04</pdfrwt>
<totfact> 0.29839608E+00</totfact>
</mgrwt>
</event>
<event>
 8    1  0.7631533E-006  0.1304360E+04  0.7818608E-02  0.8575318E-01
         21   -1    0    0  503  502  0.00000000000E+00  0.00000000000E+00  0.15140466741E+04  0.15140466741E+04  0.00000000000E+00 0.  1.
         21   -1    0    0  501  503 -0.00000000000E+00 -0.00000000000E+00 -0.96043924094E+03  0.96043924094E+03  0.00000000000E+00 0.  1.
    9000010    2    1    2  501    0  0.40427250145E+03  0.11625581168E+03  0.97271127819E+02  0.13079821257E+04  0.12346675260E+04 0.  0.
   -9000010    2    1    2    0  502 -0.40427250145E+03 -0.11625581168E+03  0.45633630536E+03  0.11665037894E+04  0.98769256241E+03 0.  0.
        -13    1    3    3    0    0 -0.29524077255E+03  0.29279994856E+03 -0.27264501679E+03  0.49722654796E+03  0.10566000000E+00 0.  1.
          4    1    3    3  501    0  0.69951327401E+03 -0.17654413688E+03  0.36991614461E+03  0.81075557773E+03  0.00000000000E+00 0.  1.
         13    1    4    4    0    0 -0.62914190338E+03 -0.23928341796E+03  0.57385329656E+03  0.88452456486E+03  0.10566000000E+00 0. -1.
         -4    1    4    4    0  502  0.22486940193E+03  0.12302760629E+03 -0.11751699120E+03  0.28197922451E+03  0.00000000000E+00 0. -1.
<mgrwt>
<rscale>  2 0.12423751E+04</rscale>
<asrwt>0</asrwt>
<pdfrwt beam="1">  1       21 0.23293026E+00 0.13043602E+04</pdfrwt>
<pdfrwt beam="2">  1       21 0.14775988E+00 0.13043602E+04</pdfrwt>
<totfact> 0.10078301E+01</totfact>
</mgrwt>
</event>
<event>
 8    1  0.7631533E-006  0.9964771E+03  0.7818608E-02  0.8778767E-01
         21   -1    0    0  503  502  0.00000000000E+00  0.00000000000E+00  0.16504180053E+04  0.16504180053E+04  0.00000000000E+00 0.  1.
         21   -1    0    0  501  503 -0.00000000000E+00 -0.00000000000E+00 -0.61787035106E+03  0.61787035106E+03  0.00000000000E+00 0.  1.
    9000010    2    1    2  501    0  0.51806931515E+02  0.50924307661E+02  0.71116113008E+03  0.12212659283E+04  0.99018335245E+03 0.  0.
   -9000010    2    1    2    0  502 -0.51806931515E+02 -0.50924307661E+02  0.32138652412E+03  0.10470224280E+04  0.99382565050E+03 0.  0.
        -13    1    3    3    0    0 -0.23266111696E+03  0.44046981958E+02 -0.17247171697E+03  0.29294681476E+03  0.10566000000E+00 0.  1.
          4    1    3    3  501    0  0.28446804847E+03  0.68773257030E+01  0.88363284705E+03  0.92831911356E+03  0.00000000000E+00 0.  1.
         13    1    4    4    0    0  0.41181620462E+03  0.20794335766E+03  0.10194730795E+03  0.47246829644E+03  0.10566000000E+00 0. -1.
         -4    1    4    4    0  502 -0.46362313613E+03 -0.25886766532E+03  0.21943921617E+03  0.57455413156E+03  0.00000000000E+00 0. -1.
<mgrwt>
<rscale>  2 0.99556774E+03</rscale>
<asrwt>0</asrwt>
<pdfrwt beam="1">  1       21 0.25391046E+00 0.99647713E+03</pdfrwt>
<pdfrwt beam="2">  1       21 0.95056978E-01 0.99647713E+03</pdfrwt>
<totfact> 0.25902165E+01</totfact>
</mgrwt>
</event>
<event>
 8    1  0.7631533E-006  0.1046129E+04  0.7818608E-02  0.8735519E-01
         21   -1    0    0  501  502  0.00000000000E+00  0.00000000000E+00  0.12366503826E+04  0.12366503826E+04  0.00000000000E+00 0. -1.
         21   -1    0    0  502  503 -0.00000000000E+00 -0.00000000000E+00 -0.96802511419E+03  0.96802511419E+03  0.00000000000E+00 0. -1.
    9000010    2    1    2  501    0 -0.70470611121E+02 -0.12126830203E+03 -0.20973278480E+03  0.10669458115E+04  0.10366838551E+04 0.  0.
   -9000010    2    1    2    0  503  0.70470611121E+02  0.12126830203E+03  0.47835805317E+03  0.11377296853E+04  0.10227073392E+04 0.  0.
        -13    1    3    3    0    0 -0.14206906628E+03 -0.28073016583E+03  0.35583261866E+03  0.47498411475E+03  0.10566000000E+00 0.  1.
          4    1    3    3  501    0  0.71598455159E+02  0.15946186379E+03 -0.56556540346E+03  0.59196169671E+03  0.00000000000E+00 0.  1.
         13    1    4    4    0    0 -0.17862136884E+03  0.11560236231E+03  0.74382281376E+03  0.77365489012E+03  0.10566000000E+00 0. -1.
         -4    1    4    4    0  503  0.24909197996E+03  0.56659397272E+01 -0.26546476059E+03  0.36407479516E+03  0.00000000000E+00 0. -1.
<mgrwt>
<rscale>  2 0.10426493E+04</rscale>
<asrwt>0</asrwt>
<pdfrwt beam="1">  1       21 0.19025391E+00 0.10461288E+04</pdfrwt>
<pdfrwt beam="2">  1       21 0.14892694E+00 0.10461288E+04</pdfrwt>
<totfact> 0.22032578E+01</totfact>
</mgrwt>
</event>
<event>
 8    1  0.7631533E-006  0.9981646E+03  0.7818608E-02  0.8777326E-01
         21   -1    0    0  501  502  0.00000000000E+00  0.00000000000E+00  0.69918347603E+03  0.69918347603E+03  0.00000000000E+00 0. -1.
         21   -1    0    0  502  503 -0.00000000000E+00 -0.00000000000E+00 -0.14960504205E+04  0.14960504205E+04  0.00000000000E+00 0. -1.
    9000010    2    1    2  501    0 -0.97325865084E+02 -0.88651902175E+02 -0.14836510684E+03  0.10049032017E+04  0.98513286210E+03 0.  0.
   -9000010    2    1    2    0  503  0.97325865084E+02  0.88651902175E+02 -0.64850183761E+03  0.11903306949E+04  0.98944481705E+03 0.  0.
        -13    1    3    3    0    0 -0.25367862258E+03 -0.49556195948E+03 -0.10826978542E+03  0.56714800259E+03  0.10566000000E+00 0.  1.
          4    1    3    3  501    0  0.15635275750E+03  0.40691005730E+03 -0.40095321419E+02  0.43775519907E+03  0.00000000000E+00 0.  1.
         13    1    4    4    0    0 -0.32200432002E+03  0.14941467119E+03 -0.67830126036E+03  0.76557438375E+03  0.10566000000E+00 0. -1.
         -4    1    4    4    0  503  0.41933018511E+03 -0.60762769015E+02  0.29799422749E+02  0.42475631112E+03  0.00000000000E+00 0. -1.
<mgrwt>
<rscale>  2 0.99709433E+03</rscale>
<asrwt>0</asrwt>
<pdfrwt beam="1">  1       21 0.10756669E+00 0.99816458E+03</pdfrwt>
<pdfrwt beam="2">  1       21 0.23016160E+00 0.99816458E+03</pdfrwt>
<totfact> 0.27949004E+01</totfact>
</mgrwt>
</event>
<event>
 8    1  0.7631533E-006  0.1067281E+04  0.7818608E-02  0.8717542E-01
         21   -1    0    0  503  502  0.00000000000E+00  0.00000000000E+00  0.18648234705E+04  0.18648234705E+04  0.00000000000E+00 0. -1.
         21   -1    0    0  501  503 -0.00000000000E+00 -0.00000000000E+00 -0.64310177382E+03  0.64310177382E+03  0.00000000000E+00 0.  1.
    9000010    2    1    2  501    0 -0.17317677403E+03  0.32856261277E+03  0.28598532527E+03  0.10885271139E+04  0.98242561342E+03 0.  0.
   -9000010    2    1    2    0  502  0.17317677403E+03 -0.32856261277E+03  0.93573637138E+03  0.14193981304E+04  0.10005722913E+04 0.  0.
        -13    1    3    3    0    0  0.99776720492E+02 -0.12839638675E+02 -0.32334453156E+03  0.33863246673E+03  0.10566000000E+00 0.  1.
          4    1    3    3  501    0 -0.27295349452E+03  0.34140225145E+03  0.60932985683E+03  0.74989464719E+03  0.00000000000E+00 0.  1.
         13    1    4    4    0    0 -0.19163564859E+03  0.65159974724E+02  0.85253415812E+03  0.87623315735E+03  0.10566000000E+00 0. -1.
         -4    1    4    4    0  502  0.36481242262E+03 -0.39372258750E+03  0.83202213251E+02  0.54316497300E+03  0.00000000000E+00 0. -1.
<mgrwt>
<rscale>  2 0.10630069E+04</rscale>
<asrwt>0</asrwt>
<pdfrwt beam="1">  1       21 0.28689592E+00 0.10672809E+04</pdfrwt>
<pdfrwt beam="2">  1       21 0.98938735E-01 0.10672809E+04</pdfrwt>
<totfact> 0.13341878E+01</totfact>
</mgrwt>
</event>
<event>
 8    1  0.7631533E-006  0.1035738E+04  0.7818608E-02  0.8744483E-01
         21   -1    0    0  501  502  0.00000000000E+00  0.00000000000E+00  0.29576650743E+04  0.29576650743E+04  0.00000000000E+00 0.  1.
         21   -1    0    0  502  503 -0.00000000000E+00 -0.00000000000E+00 -0.41458244325E+03  0.41458244325E+03  0.00000000000E+00 0.  1.
    9000010    2    1    2  501    0  0.96776456263E+02 -0.28701742750E+03  0.18985121409E+04  0.21626606781E+04  0.99045856721E+03 0.  0.
   -9000010    2    1    2    0  503 -0.96776456263E+02  0.28701742750E+03  0.64457049021E+03  0.12095868395E+04  0.97769346897E+03 0.  0.
        -13    1    3    3    0    0  0.48300619923E+03 -0.23966163924E+02  0.13915277021E+04  0.14731662236E+04  0.10566000000E+00 0.  1.
          4    1    3    3  501    0 -0.38622974297E+03 -0.26305126358E+03  0.50698443882E+03  0.68949445453E+03  0.00000000000E+00 0.  1.
         13    1    4    4    0    0  0.13749368258E+03 -0.16893919501E+03  0.66175299428E+03  0.69667926692E+03  0.10566000000E+00 0. -1.
         -4    1    4    4    0  503 -0.23427013884E+03  0.45595662251E+03 -0.17182504067E+02  0.51290757258E+03  0.00000000000E+00 0. -1.
<mgrwt>
<rscale>  2 0.10326742E+04</rscale>
<asrwt>0</asrwt>
<pdfrwt beam="1">  1       21 0.45502538E+00 0.10357378E+04</pdfrwt>
<pdfrwt beam="2">  1       21 0.63781916E-01 0.10357378E+04</pdfrwt>
<totfact> 0.26382180E+00</totfact>
</mgrwt>
</event>
<event>
 8    1  0.7631533E-006  0.1145481E+04  0.7818608E-02  0.8651972E-01
         21   -1    0    0  501  502  0.00000000000E+00  0.00000000000E+00  0.14521033497E+04  0.14521033497E+04  0.00000000000E+00 0.  1.
         21   -1    0    0  502  503 -0.00000000000E+00 -0.00000000000E+00 -0.11270136801E+04  0.11270136801E+04  0.00000000000E+00 0. -1.
    9000010    2    1    2  501    0  0.48357625360E+03  0.24768762458E+03  0.75339533380E+03  0.13710331777E+04  0.10084306088E+04 0.  0.
   -9000010    2    1    2    0  503 -0.48357625360E+03 -0.24768762458E+03 -0.42830566425E+03  0.12080838522E+04  0.99036644703E+03 0.  0.
        -13    1    3    3    0    0 -0.12998978708E+03  0.43899710049E+03  0.50593677186E+03  0.68233996458E+03  0.10566000000E+00 0.  1.
          4    1    3    3  501    0  0.61356604068E+03 -0.19130947591E+03  0.24745856194E+03  0.68869321307E+03  0.00000000000E+00 0.  1.
         13    1    4    4    0    0  0.71787477719E+02 -0.71750059508E+02  0.27599706678E+03  0.29406785787E+03  0.10566000000E+00 0. -1.
         -4    1    4    4    0  503 -0.55536373132E+03 -0.17593756507E+03 -0.70430273103E+03  0.91401599429E+03  0.00000000000E+00 0. -1.
<mgrwt>
<rscale>  2 0.11414929E+04</rscale>
<asrwt>0</asrwt>
<pdfrwt beam="1">  1       21 0.22340052E+00 0.11454813E+04</pdfrwt>
<pdfrwt beam="2">  1       21 0.17338672E+00 0.11454813E+04</pdfrwt>
<totfact> 0.73583953E+00</totfact>
</mgrwt>
</event>
<event>
 8    1  0.7631533E-006  0.1703702E+04  0.7818608E-02  0.8306865E-01
         21   -1    0    0  501  502  0.00000000000E+00  0.00000000000E+00  0.16446389585E+04  0.16446389585E+04  0.00000000000E+00 0.  1.
         21   -1    0    0  502  503 -0.00000000000E+00 -0.00000000000E+00 -0.24058970329E+04  0.24058970329E+04  0.00000000000E+00 0. -1.
    9000010    2    1    2  501    0 -0.12852659316E+04  0.30475064276E+03  0.70683290233E+03  0.18015606400E+04  0.10006130714E+04 0.  0.
   -9000010    2    1    2    0  503  0.12852659316E+04 -0.30475064276E+03 -0.14680909767E+04  0.22489753513E+04  0.10760193054E+04 0.  0.
        -13    1    3    3    0    0 -0.10364967898E+04  0.52805960411E+03  0.17925805608E+03  0.11769902304E+04  0.10566000000E+00 0.  1.
          4    1    3    3  501    0 -0.24876914184E+03 -0.22330896135E+03  0.52757484625E+03  0.62457040960E+03  0.00000000000E+00 0.  1.
         13    1    4    4    0    0  0.10563774431E+04 -0.60528007652E+03 -0.14163025003E+04  0.18676750405E+04  0.10566000000E+00 0. -1.
         -4    1    4    4    0  503  0.22888848856E+03  0.30052943376E+03 -0.51788476432E+02  0.38130031083E+03  0.00000000000E+00 0. -1.
<mgrwt>
<rscale>  2 0.16919318E+04</rscale>
<asrwt>0</asrwt>
<pdfrwt beam="1">  1       21 0.25302138E+00 0.17037016E+04</pdfrwt>
<pdfrwt beam="2">  1       21 0.37013800E+00 0.17037016E+04</pdfrwt>
<totfact> 0.14381617E-01</totfact>
</mgrwt>
</event>
<event>
 8    1  0.7631533E-006  0.1384467E+04  0.7818608E-02  0.8514851E-01
         21   -1    0    0  503  502  0.00000000000E+00  0.00000000000E+00  0.17578668515E+04  0.17578668515E+04  0.00000000000E+00 0.  1.
         21   -1    0    0  501  503 -0.00000000000E+00 -0.00000000000E+00 -0.11777206492E+04  0.11777206492E+04  0.00000000000E+00 0.  1.
    9000010    2    1    2  501    0  0.54885589384E+03 -0.42529524125E+03 -0.35774319958E+03  0.14299403940E+04  0.11977606185E+04 0.  0.
   -9000010    2    1    2    0  502 -0.54885589384E+03  0.42529524125E+03  0.93788940191E+03  0.15056471067E+04  0.95142936951E+03 0.  0.
        -13    1    3    3    0    0  0.60256099673E+03 -0.58389864955E+03 -0.67124777941E+03  0.10745189530E+04  0.10566000000E+00 0.  1.
          4    1    3    3  501    0 -0.53705102884E+02  0.15860340830E+03  0.31350457983E+03  0.35542144107E+03  0.00000000000E+00 0.  1.
         13    1    4    4    0    0 -0.50283502499E+02  0.62501491806E+03  0.39005625095E+03  0.73845512287E+03  0.10566000000E+00 0. -1.
         -4    1    4    4    0  502 -0.49857239134E+03 -0.19971967681E+03  0.54783315096E+03  0.76719198380E+03  0.00000000000E+00 0. -1.
<mgrwt>
<rscale>  2 0.13296420E+04</rscale>
<asrwt>0</asrwt>
<pdfrwt beam="1">  1       21 0.27044105E+00 0.13844672E+04</pdfrwt>
<pdfrwt beam="2">  1       21 0.18118779E+00 0.13844672E+04</pdfrwt>
<totfact> 0.27339207E+00</totfact>
</mgrwt>
</event>
<event>
 8    1  0.7631533E-006  0.1088352E+04  0.7818608E-02  0.8697264E-01
         21   -1    0    0  501  502  0.00000000000E+00  0.00000000000E+00  0.70441391812E+03  0.70441391812E+03  0.00000000000E+00 0. -1.
         21   -1    0    0  502  503 -0.00000000000E+00 -0.00000000000E+00 -0.18178962223E+04  0.18178962223E+04  0.00000000000E+00 0. -1.
    9000010    2    1    2  501    0 -0.41192125150E+03 -0.59714471551E+02 -0.19932243207E+03  0.11064538709E+04  0.10056171244E+04 0.  0.
   -9000010    2    1    2    0  503  0.41192125150E+03  0.59714471551E+02 -0.91415987208E+03  0.14158562695E+04  0.99785558511E+03 0.  0.
        -13    1    3    3    0    0  0.33672092924E+03  0.59302813017E+01 -0.56119524395E+02  0.34141699519E+03  0.10566000000E+00 0.  1.
          4    1    3    3  501    0 -0.74864218074E+03 -0.65644752853E+02 -0.14320290768E+03  0.76503687566E+03  0.00000000000E+00 0.  1.
         13    1    4    4    0    0  0.69019422437E+03 -0.17143309430E+03 -0.52098541386E+03  0.88157993727E+03  0.10566000000E+00 0. -1.
         -4    1    4    4    0  503 -0.27827297287E+03  0.23114756585E+03 -0.39317445822E+03  0.53427633227E+03  0.00000000000E+00 0. -1.
<mgrwt>
<rscale>  2 0.10865560E+04</rscale>
<asrwt>0</asrwt>
<pdfrwt beam="1">  1       21 0.10837137E+00 0.10883523E+04</pdfrwt>
<pdfrwt beam="2">  1       21 0.27967634E+00 0.10883523E+04</pdfrwt>
<totfact> 0.11739133E+01</totfact>
</mgrwt>
</event>
<event>
 8    1  0.7631533E-006  0.1005131E+04  0.7818608E-02  0.8770433E-01
         21   -1    0    0  501  502  0.00000000000E+00  0.00000000000E+00  0.33398123651E+04  0.33398123651E+04  0.00000000000E+00 0.  1.
         21   -1    0    0  502  503 -0.00000000000E+00 -0.00000000000E+00 -0.36118059195E+03  0.36118059195E+03  0.00000000000E+00 0.  1.
    9000010    2    1    2  501    0  0.54261471439E+02 -0.23317120113E+02  0.73642918711E+03  0.12438074947E+04  0.10006203780E+04 0.  0.
   -9000010    2    1    2    0  503 -0.54261471439E+02  0.23317120113E+02  0.22422025860E+04  0.24571854623E+04  0.10033942216E+04 0.  0.
        -13    1    3    3    0    0 -0.32352842120E+03 -0.18169322205E+03 -0.32592324143E+02  0.37248535141E+03  0.10566000000E+00 0.  1.
          4    1    3    3  501    0  0.37778989264E+03  0.15837610194E+03  0.76902151126E+03  0.87132214331E+03  0.00000000000E+00 0.  1.
         13    1    4    4    0    0  0.17889942700E+03  0.13954926088E+03  0.21767770776E+04  0.21885697289E+04  0.10566000000E+00 0. -1.
         -4    1    4    4    0  503 -0.23316089843E+03 -0.11623214076E+03  0.65425508380E+02  0.26861573344E+03  0.00000000000E+00 0. -1.
<mgrwt>
<rscale>  2 0.10044378E+04</rscale>
<asrwt>0</asrwt>
<pdfrwt beam="1">  1       21 0.51381726E+00 0.10051308E+04</pdfrwt>
<pdfrwt beam="2">  1       21 0.55566247E-01 0.10051308E+04</pdfrwt>
<totfact> 0.14188935E+00</totfact>
</mgrwt>
</event>
<event>
 8    1  0.7631533E-006  0.1059142E+04  0.7818608E-02  0.8723160E-01
         21   -1    0    0  501  502  0.00000000000E+00  0.00000000000E+00  0.25152298895E+04  0.25152298895E+04  0.00000000000E+00 0. -1.
         21   -1    0    0  502  503 -0.00000000000E+00 -0.00000000000E+00 -0.65002825664E+03  0.65002825664E+03  0.00000000000E+00 0. -1.
    9000010    2    1    2  501    0  0.25710791786E+03 -0.17253111030E+03  0.18254340895E+04  0.21053693461E+04  0.10022469772E+04 0.  0.
   -9000010    2    1    2    0  503 -0.25710791786E+03  0.17253111030E+03  0.39767543412E+02  0.10598888000E+04  0.10128728180E+04 0.  0.
        -13    1    3    3    0    0  0.72827578014E+02  0.41197330997E+03  0.55680926059E+03  0.69646423317E+03  0.10566000000E+00 0.  1.
          4    1    3    3  501    0  0.18428033985E+03 -0.58450442027E+03  0.12686248289E+04  0.14089051130E+04  0.00000000000E+00 0.  1.
         13    1    4    4    0    0  0.35791210184E+03 -0.11487784095E+03 -0.31936671794E+02  0.37725051776E+03  0.10566000000E+00 0. -1.
         -4    1    4    4    0  503 -0.61502001970E+03  0.28740895125E+03  0.71704215206E+02  0.68263828223E+03  0.00000000000E+00 0. -1.
<mgrwt>
<rscale>  2 0.10565940E+04</rscale>
<asrwt>0</asrwt>
<pdfrwt beam="1">  1       21 0.38695844E+00 0.10591425E+04</pdfrwt>
<pdfrwt beam="2">  1       21 0.10000435E+00 0.10591425E+04</pdfrwt>
<totfact> 0.25717740E+00</totfact>
</mgrwt>
</event>
<event>
 8    1  0.7631533E-006  0.1031643E+04  0.7818608E-02  0.8748397E-01
         21   -1    0    0  503  502  0.00000000000E+00  0.00000000000E+00  0.97041286577E+03  0.97041286577E+03  0.00000000000E+00 0. -1.
         21   -1    0    0  501  503 -0.00000000000E+00 -0.00000000000E+00 -0.11472057640E+04  0.11472057640E+04  0.00000000000E+00 0. -1.
    9000010    2    1    2  501    0 -0.18205614738E+03 -0.70867334400E+02 -0.33967417683E+03  0.10861245605E+04  0.10129765025E+04 0.  0.
   -9000010    2    1    2    0  502  0.18205614738E+03  0.70867334400E+02  0.16288127857E+03  0.10314940693E+04  0.99964147780E+03 0.  0.
        -13    1    3    3    0    0 -0.27110415054E+03 -0.33960023118E+03 -0.57308907468E+03  0.71920572588E+03  0.10566000000E+00 0.  1.
          4    1    3    3  501    0  0.89048003151E+02  0.26873289678E+03  0.23341489785E+03  0.36691883465E+03  0.00000000000E+00 0.  1.
         13    1    4    4    0    0  0.76271856053E+02  0.41056505857E+03  0.42019771542E+03  0.59240796294E+03  0.10566000000E+00 0. -1.
         -4    1    4    4    0  502  0.10578429133E+03 -0.33969772417E+03 -0.25731643685E+03  0.43908610633E+03  0.00000000000E+00 0. -1.
<mgrwt>
<rscale>  2 0.10283550E+04</rscale>
<asrwt>0</asrwt>
<pdfrwt beam="1">  1       21 0.14929429E+00 0.10316434E+04</pdfrwt>
<pdfrwt beam="2">  1       21 0.17649320E+00 0.10316434E+04</pdfrwt>
<totfact> 0.28354103E+01</totfact>
</mgrwt>
</event>
<event>
 8    1  0.7631533E-006  0.1016652E+04  0.7818608E-02  0.8763651E-01
         21   -1    0    0  501  502  0.00000000000E+00  0.00000000000E+00  0.10667099179E+04  0.10667099179E+04  0.00000000000E+00 0. -1.
         21   -1    0    0  502  503 -0.00000000000E+00 -0.00000000000E+00 -0.11428639055E+04  0.11428639055E+04  0.00000000000E+00 0. -1.
    9000010    2    1    2  501    0  0.14102023835E+03 -0.12454667334E+03  0.41498159990E+03  0.10980851456E+04  0.99909092538E+03 0.  0.
   -9000010    2    1    2    0  503 -0.14102023835E+03  0.12454667334E+03 -0.49113558753E+03  0.11114886778E+04  0.97918043998E+03 0.  0.
        -13    1    3    3    0    0  0.11760152066E+03  0.38718198107E+03  0.42351257432E+03  0.58574987486E+03  0.10566000000E+00 0.  1.
          4    1    3    3  501    0  0.23418717689E+02 -0.51172865441E+03 -0.85309744184E+01  0.51233527070E+03  0.00000000000E+00 0.  1.
         13    1    4    4    0    0  0.28065882244E+02 -0.10067647076E+01  0.29566177224E+03  0.29699259595E+03  0.10566000000E+00 0. -1.
         -4    1    4    4    0  503 -0.16908612060E+03  0.12555343805E+03 -0.78679735977E+03  0.81449608183E+03  0.00000000000E+00 0. -1.
<mgrwt>
<rscale>  2 0.10117264E+04</rscale>
<asrwt>0</asrwt>
<pdfrwt beam="1">  1       21 0.16410922E+00 0.10166520E+04</pdfrwt>
<pdfrwt beam="2">  1       21 0.17582522E+00 0.10166520E+04</pdfrwt>
<totfact> 0.21399351E+01</totfact>
</mgrwt>
</event>
<event>
 8    1  0.7631533E-006  0.1026101E+04  0.7818608E-02  0.8755997E-01
         21   -1    0    0  503  502  0.00000000000E+00  0.00000000000E+00  0.97318980561E+03  0.97318980561E+03  0.00000000000E+00 0.  1.
         21   -1    0    0  501  503 -0.00000000000E+00 -0.00000000000E+00 -0.10690019628E+04  0.10690019628E+04  0.00000000000E+00 0.  1.
    9000010    2    1    2  501    0  0.17900708837E+02  0.92548900104E+02  0.62375573482E+02  0.10039688780E+04  0.99758561616E+03 0.  0.
   -9000010    2    1    2    0  502 -0.17900708837E+02 -0.92548900104E+02 -0.15818773063E+03  0.10382228903E+04  0.10217620455E+04 0.  0.
        -13    1    3    3    0    0  0.45516268581E+03  0.72245031808E+02  0.25389687890E+03  0.52617112373E+03  0.10566000000E+00 0.  1.
          4    1    3    3  501    0 -0.43726197697E+03  0.20303868296E+02 -0.19152130541E+03  0.47779775428E+03  0.00000000000E+00 0.  1.
         13    1    4    4    0    0  0.45998812435E+03 -0.24349619792E+03 -0.12901545577E+03  0.53621308445E+03  0.10566000000E+00 0. -1.
         -4    1    4    4    0  502 -0.47788883319E+03  0.15094729781E+03 -0.29172274859E+02  0.50200980590E+03  0.00000000000E+00 0. -1.
<mgrwt>
<rscale>  2 0.10200295E+04</rscale>
<asrwt>0</asrwt>
<pdfrwt beam="1">  1       21 0.14972151E+00 0.10261011E+04</pdfrwt>
<pdfrwt beam="2">  1       21 0.16446184E+00 0.10261011E+04</pdfrwt>
<totfact> 0.35484593E+01</totfact>
</mgrwt>
</event>
<event>
 8    1  0.7631533E-006  0.1020162E+04  0.7818608E-02  0.8756403E-01
         21   -1    0    0  503  502  0.00000000000E+00  0.00000000000E+00  0.62400953195E+03  0.62400953195E+03  0.00000000000E+00 0.  1.
         21   -1    0    0  501  503 -0.00000000000E+00 -0.00000000000E+00 -0.17779833996E+04  0.17779833996E+04  0.00000000000E+00 0.  1.
    9000010    2    1    2  501    0 -0.18309988128E+03 -0.97737864268E+02 -0.88161345681E+03  0.13483219566E+04  0.99882508718E+03 0.  0.
   -9000010    2    1    2    0  502  0.18309988128E+03  0.97737864268E+02 -0.27236041086E+03  0.10536709750E+04  0.99647582683E+03 0.  0.
        -13    1    3    3    0    0 -0.53710042056E+03  0.10195146121E+03 -0.73548829722E+03  0.91641366681E+03  0.10566000000E+00 0.  1.
          4    1    3    3  501    0  0.35400053928E+03 -0.19968932548E+03 -0.14612515959E+03  0.43190828978E+03  0.00000000000E+00 0.  1.
         13    1    4    4    0    0 -0.13871927097E+03  0.48386642429E+03 -0.21642050495E+03  0.54791203566E+03  0.10566000000E+00 0. -1.
         -4    1    4    4    0  502  0.32181915225E+03 -0.38612856002E+03 -0.55939905911E+02  0.50575893931E+03  0.00000000000E+00 0. -1.
<mgrwt>
<rscale>  2 0.10195862E+04</rscale>
<asrwt>0</asrwt>
<pdfrwt beam="1">  1       21 0.96001468E-01 0.10201617E+04</pdfrwt>
<pdfrwt beam="2">  1       21 0.27353590E+00 0.10201617E+04</pdfrwt>
<totfact> 0.18147381E+01</totfact>
</mgrwt>
</event>
<event>
 8    1  0.7631533E-006  0.1026112E+04  0.7818608E-02  0.8754372E-01
         21   -1    0    0  503  502  0.00000000000E+00  0.00000000000E+00  0.70382622899E+03  0.70382622899E+03  0.00000000000E+00 0.  1.
         21   -1    0    0  501  503 -0.00000000000E+00 -0.00000000000E+00 -0.14991022121E+04  0.14991022121E+04  0.00000000000E+00 0.  1.
    9000010    2    1    2  501    0  0.51098286672E+01 -0.39256703367E+02 -0.54487873103E+03  0.11467068686E+04  0.10082046478E+04 0.  0.
   -9000010    2    1    2    0  502 -0.51098286672E+01  0.39256703367E+02 -0.25039725209E+03  0.10562215725E+04  0.10253477592E+04 0.  0.
        -13    1    3    3    0    0 -0.39185741018E+03 -0.30451882481E+03 -0.42759696844E+03  0.65507489889E+03  0.10566000000E+00 0.  1.
          4    1    3    3  501    0  0.39696723885E+03  0.26526212144E+03 -0.11728176259E+03  0.49163196970E+03  0.00000000000E+00 0.  1.
         13    1    4    4    0    0  0.54018879630E+02 -0.20219897025E+03  0.34921065780E+03  0.40712474454E+03  0.10566000000E+00 0. -1.
         -4    1    4    4    0  502 -0.59128708297E+02  0.24145567362E+03 -0.59960790989E+03  0.64909682796E+03  0.00000000000E+00 0. -1.
<mgrwt>
<rscale>  2 0.10218021E+04</rscale>
<asrwt>0</asrwt>
<pdfrwt beam="1">  1       21 0.10828096E+00 0.10261117E+04</pdfrwt>
<pdfrwt beam="2">  1       21 0.23063111E+00 0.10261117E+04</pdfrwt>
<totfact> 0.27064191E+01</totfact>
</mgrwt>
</event>
<event>
 8    1  0.7631533E-006  0.9960539E+03  0.7818608E-02  0.8787861E-01
         21   -1    0    0  503  502  0.00000000000E+00  0.00000000000E+00  0.24759614123E+04  0.24759614123E+04  0.00000000000E+00 0.  1.
         21   -1    0    0  501  503 -0.00000000000E+00 -0.00000000000E+00 -0.49654826352E+03  0.49654826352E+03  0.00000000000E+00 0.  1.
    9000010    2    1    2  501    0  0.61996403152E+01  0.11188785207E+03  0.16787141748E+04  0.19320562947E+04  0.94984362823E+03 0.  0.
   -9000010    2    1    2    0  502 -0.61996403152E+01 -0.11188785207E+03  0.30069897393E+03  0.10404533811E+04  0.98973028566E+03 0.  0.
        -13    1    3    3    0    0  0.68179784685E+01 -0.20345799630E+02 -0.12332196757E+03  0.12517489861E+03  0.10566000000E+00 0.  1.
          4    1    3    3  501    0 -0.61833815328E+00  0.13223365170E+03  0.18020361424E+04  0.18068813961E+04  0.00000000000E+00 0.  1.
         13    1    4    4    0    0  0.33862840442E+03  0.25179653163E+03 -0.55467613150E+02  0.42561409386E+03  0.10566000000E+00 0. -1.
         -4    1    4    4    0  502 -0.34482804474E+03 -0.36368438370E+03  0.35616658709E+03  0.61483928725E+03  0.00000000000E+00 0. -1.
<mgrwt>
<rscale>  2 0.98599688E+03</rscale>
<asrwt>0</asrwt>
<pdfrwt beam="1">  1       21 0.38091713E+00 0.99605390E+03</pdfrwt>
<pdfrwt beam="2">  1       21 0.76392042E-01 0.99605390E+03</pdfrwt>
<totfact> 0.56710821E+00</totfact>
</mgrwt>
</event>
<event>
 8    1  0.7631533E-006  0.1133061E+04  0.7818608E-02  0.8659723E-01
         21   -1    0    0  501  502  0.00000000000E+00  0.00000000000E+00  0.67289460881E+03  0.67289460881E+03  0.00000000000E+00 0.  1.
         21   -1    0    0  502  503 -0.00000000000E+00 -0.00000000000E+00 -0.23498261275E+04  0.23498261275E+04  0.00000000000E+00 0.  1.
    9000010    2    1    2  501    0  0.26901808621E+03 -0.45059340801E+03 -0.17562486345E+03  0.11418301275E+04  0.99876263317E+03 0.  0.
   -9000010    2    1    2    0  503 -0.26901808621E+03  0.45059340801E+03 -0.15013066553E+04  0.18808906088E+04  0.10042024991E+04 0.  0.
        -13    1    3    3    0    0  0.41946925961E+03 -0.66130725871E+03  0.68321230155E+02  0.78609767322E+03  0.10566000000E+00 0.  1.
          4    1    3    3  501    0 -0.15045117340E+03  0.21071385071E+03 -0.24394609361E+03  0.35573245430E+03  0.00000000000E+00 0.  1.
         13    1    4    4    0    0 -0.89740583822E+02  0.19749769140E+03  0.10774828487E+03  0.24221563647E+03  0.10566000000E+00 0. -1.
         -4    1    4    4    0  503 -0.17927750239E+03  0.25309571660E+03 -0.16090549401E+04  0.16386749723E+04  0.00000000000E+00 0. -1.
<mgrwt>
<rscale>  2 0.11318547E+04</rscale>
<asrwt>0</asrwt>
<pdfrwt beam="1">  1       21 0.10352225E+00 0.11330613E+04</pdfrwt>
<pdfrwt beam="2">  1       21 0.36151171E+00 0.11330613E+04</pdfrwt>
<totfact> 0.34826604E+00</totfact>
</mgrwt>
</event>
<event>
 8    1  0.7631533E-006  0.1071113E+04  0.7818608E-02  0.8710920E-01
         21   -1    0    0  503  502  0.00000000000E+00  0.00000000000E+00  0.18800705056E+04  0.18800705056E+04  0.00000000000E+00 0. -1.
         21   -1    0    0  501  503 -0.00000000000E+00 -0.00000000000E+00 -0.63818921709E+03  0.63818921709E+03  0.00000000000E+00 0. -1.
    9000010    2    1    2  501    0  0.16555031792E+03 -0.32064513363E+03  0.35279752397E+03  0.11277185848E+04  0.10084953665E+04 0.  0.
   -9000010    2    1    2    0  502 -0.16555031792E+03  0.32064513363E+03  0.88908376457E+03  0.13905411379E+04  0.10064365386E+04 0.  0.
        -13    1    3    3    0    0 -0.22615866190E+03  0.20338665695E+03  0.36274703392E+03  0.47339126984E+03  0.10566000000E+00 0.  1.
          4    1    3    3  501    0  0.39170897982E+03 -0.52403179059E+03 -0.99495099497E+01  0.65432731501E+03  0.00000000000E+00 0.  1.
         13    1    4    4    0    0  0.19912038291E+03  0.28518223608E+03 -0.77931247980E+02  0.35644231685E+03  0.10566000000E+00 0. -1.
         -4    1    4    4    0  502 -0.36467070082E+03  0.35462897557E+02  0.96701501255E+03  0.10340988210E+04  0.00000000000E+00 0. -1.
<mgrwt>
<rscale>  2 0.10706281E+04</rscale>
<asrwt>0</asrwt>
<pdfrwt beam="1">  1       21 0.28924161E+00 0.10711130E+04</pdfrwt>
<pdfrwt beam="2">  1       21 0.98182957E-01 0.10711130E+04</pdfrwt>
<totfact> 0.13088474E+01</totfact>
</mgrwt>
</event>
<event>
 8    1  0.7631533E-006  0.1034804E+04  0.7818608E-02  0.8757902E-01
         21   -1    0    0  503  502  0.00000000000E+00  0.00000000000E+00  0.94647825666E+03  0.94647825666E+03  0.00000000000E+00 0.  1.
         21   -1    0    0  501  503 -0.00000000000E+00 -0.00000000000E+00 -0.12876651607E+04  0.12876651607E+04  0.00000000000E+00 0.  1.
    9000010    2    1    2  501    0 -0.31914093711E+02  0.93187991894E+02 -0.63485076037E+03  0.11584769382E+04  0.96401805853E+03 0.  0.
   -9000010    2    1    2    0  502  0.31914093711E+02 -0.93187991894E+02  0.29366385635E+03  0.10756664791E+04  0.10301055298E+04 0.  0.
        -13    1    3    3    0    0 -0.17442865255E+03  0.50445449951E+03 -0.35322060108E+03  0.64005038950E+03  0.10566000000E+00 0.  1.
          4    1    3    3  501    0  0.14251455884E+03 -0.41126650762E+03 -0.28163015929E+03  0.51842654869E+03  0.00000000000E+00 0.  1.
         13    1    4    4    0    0 -0.47788832163E+03  0.91512029378E+02  0.19674729278E+03  0.52484398429E+03  0.10566000000E+00 0. -1.
         -4    1    4    4    0  502  0.50980241534E+03 -0.18470002127E+03  0.96916563568E+02  0.55082249485E+03  0.00000000000E+00 0. -1.
<mgrwt>
<rscale>  2 0.10179555E+04</rscale>
<asrwt>0</asrwt>
<pdfrwt beam="1">  1       21 0.14561204E+00 0.10348043E+04</pdfrwt>
<pdfrwt beam="2">  1       21 0.19810233E+00 0.10348043E+04</pdfrwt>
<totfact> 0.20514231E+01</totfact>
</mgrwt>
</event>
<event>
 8    1  0.7631533E-006  0.1084769E+04  0.7818608E-02  0.8703322E-01
         21   -1    0    0  503  502  0.00000000000E+00  0.00000000000E+00  0.58939807496E+03  0.58939807496E+03  0.00000000000E+00 0.  1.
         21   -1    0    0  501  503 -0.00000000000E+00 -0.00000000000E+00 -0.20193261626E+04  0.20193261626E+04  0.00000000000E+00 0.  1.
    9000010    2    1    2  501    0 -0.29142299036E+03  0.23875031525E+03 -0.93574715480E+03  0.14166932728E+04  0.99472007070E+03 0.  0.
   -9000010    2    1    2    0  502  0.29142299036E+03 -0.23875031525E+03 -0.49418093282E+03  0.11920309648E+04  0.10172482265E+04 0.  0.
        -13    1    3    3    0    0 -0.13166784380E+03  0.51617513075E+03 -0.95761764473E+03  0.10958123705E+04  0.10566000000E+00 0.  1.
          4    1    3    3  501    0 -0.15975514656E+03 -0.27742481551E+03  0.21870489922E+02  0.32088090227E+03  0.00000000000E+00 0.  1.
         13    1    4    4    0    0 -0.35105582100E+03  0.66524637876E+02 -0.26450115543E+03  0.44455212213E+03  0.10566000000E+00 0. -1.
         -4    1    4    4    0  502  0.64247881136E+03 -0.30527495312E+03 -0.22967977739E+03  0.74747884264E+03  0.00000000000E+00 0. -1.
<mgrwt>
<rscale>  2 0.10794555E+04</rscale>
<asrwt>0</asrwt>
<pdfrwt beam="1">  1       21 0.90676628E-01 0.10847687E+04</pdfrwt>
<pdfrwt beam="2">  1       21 0.31066556E+00 0.10847687E+04</pdfrwt>
<totfact> 0.11286253E+01</totfact>
</mgrwt>
</event>
<event>
 8    1  0.7631533E-006  0.1054145E+04  0.7818608E-02  0.8729584E-01
         21   -1    0    0  503  502  0.00000000000E+00  0.00000000000E+00  0.10585781277E+04  0.10585781277E+04  0.00000000000E+00 0.  1.
         21   -1    0    0  501  503 -0.00000000000E+00 -0.00000000000E+00 -0.13372204871E+04  0.13372204871E+04  0.00000000000E+00 0.  1.
    9000010    2    1    2  501    0  0.76829106724E+02  0.23752067395E+03 -0.71379028802E+03  0.12730741950E+04  0.10241594351E+04 0.  0.
   -9000010    2    1    2    0  502 -0.76829106724E+02 -0.23752067395E+03  0.43514792861E+03  0.11227244199E+04  0.10044090905E+04 0.  0.
        -13    1    3    3    0    0 -0.85751468815E+02  0.51363173239E+03 -0.34353755805E+02  0.52187264981E+03  0.10566000000E+00 0.  1.
          4    1    3    3  501    0  0.16258057554E+03 -0.27611105844E+03 -0.67943653221E+03  0.75120154515E+03  0.00000000000E+00 0.  1.
         13    1    4    4    0    0 -0.47275675490E+03 -0.21252596706E+03  0.50065130615E+03  0.72063720241E+03  0.10566000000E+00 0. -1.
         -4    1    4    4    0  502  0.39592764818E+03 -0.24994706895E+02 -0.65503377542E+02  0.40208721745E+03  0.00000000000E+00 0. -1.
<mgrwt>
<rscale>  2 0.10493173E+04</rscale>
<asrwt>0</asrwt>
<pdfrwt beam="1">  1       21 0.16285817E+00 0.10541448E+04</pdfrwt>
<pdfrwt beam="2">  1       21 0.20572623E+00 0.10541448E+04</pdfrwt>
<totfact> 0.12563404E+01</totfact>
</mgrwt>
</event>
<event>
 8    1  0.7631533E-006  0.9974407E+03  0.7818608E-02  0.8781542E-01
         21   -1    0    0  501  502  0.00000000000E+00  0.00000000000E+00  0.15231383887E+04  0.15231383887E+04  0.00000000000E+00 0. -1.
         21   -1    0    0  502  503 -0.00000000000E+00 -0.00000000000E+00 -0.64745725461E+03  0.64745725461E+03  0.00000000000E+00 0. -1.
    9000010    2    1    2  501    0  0.61540793763E+02  0.12135160045E+02  0.33154400145E+03  0.10510991298E+04  0.99546643561E+03 0.  0.
   -9000010    2    1    2    0  503 -0.61540793763E+02 -0.12135160045E+02  0.54413713259E+03  0.11194965134E+04  0.97634660502E+03 0.  0.
        -13    1    3    3    0    0  0.24677486869E+03 -0.43099534071E+03  0.62421371736E+02  0.50055095479E+03  0.10566000000E+00 0.  1.
          4    1    3    3  501    0 -0.18523407493E+03  0.44313050075E+03  0.26912262972E+03  0.55054817504E+03  0.00000000000E+00 0.  1.
         13    1    4    4    0    0 -0.24541042092E+01  0.32332876634E+03  0.67985393620E+03  0.75282727070E+03  0.10566000000E+00 0. -1.
         -4    1    4    4    0  503 -0.59086689554E+02 -0.33546392639E+03 -0.13571680361E+03  0.36666924274E+03  0.00000000000E+00 0. -1.
<mgrwt>
<rscale>  2 0.99263578E+03</rscale>
<asrwt>0</asrwt>
<pdfrwt beam="1">  1       21 0.23432898E+00 0.99744070E+03</pdfrwt>
<pdfrwt beam="2">  1       21 0.99608809E-01 0.99744070E+03</pdfrwt>
<totfact> 0.31912764E+01</totfact>
</mgrwt>
</event>
<event>
 8    1  0.7631533E-006  0.1019045E+04  0.7818608E-02  0.8759248E-01
         21   -1    0    0  501  502  0.00000000000E+00  0.00000000000E+00  0.16393225952E+04  0.16393225952E+04  0.00000000000E+00 0. -1.
         21   -1    0    0  502  503 -0.00000000000E+00 -0.00000000000E+00 -0.10789930150E+04  0.10789930150E+04  0.00000000000E+00 0. -1.
    9000010    2    1    2  501    0 -0.14509496062E+03  0.60593390318E+02  0.11605046747E+04  0.15444170043E+04  0.10068409391E+04 0.  0.
   -9000010    2    1    2    0  503  0.14509496062E+03 -0.60593390318E+02 -0.60017509456E+03  0.11738986059E+04  0.99654587760E+03 0.  0.
        -13    1    3    3    0    0  0.53280778753E+02  0.49868447107E+03  0.79664831026E+03  0.94136793257E+03  0.10566000000E+00 0.  1.
          4    1    3    3  501    0 -0.19837573937E+03 -0.43809108075E+03  0.36385636444E+03  0.60304907176E+03  0.00000000000E+00 0.  1.
         13    1    4    4    0    0  0.56776750999E+03  0.55578148142E+02 -0.34497255158E+03  0.66667454464E+03  0.10566000000E+00 0. -1.
         -4    1    4    4    0  503 -0.42267254938E+03 -0.11617153846E+03 -0.25520254297E+03  0.50722406122E+03  0.00000000000E+00 0. -1.
<mgrwt>
<rscale>  2 0.10164928E+04</rscale>
<asrwt>0</asrwt>
<pdfrwt beam="1">  1       21 0.25220348E+00 0.10190450E+04</pdfrwt>
<pdfrwt beam="2">  1       21 0.16599892E+00 0.10190450E+04</pdfrwt>
<totfact> 0.53641955E+00</totfact>
</mgrwt>
</event>
<event>
 8    1  0.7631533E-006  0.1072315E+04  0.7818608E-02  0.8723025E-01
         21   -1    0    0  503  502  0.00000000000E+00  0.00000000000E+00  0.12661718850E+04  0.12661718850E+04  0.00000000000E+00 0.  1.
         21   -1    0    0  501  503 -0.00000000000E+00 -0.00000000000E+00 -0.92741941580E+03  0.92741941580E+03  0.00000000000E+00 0.  1.
    9000010    2    1    2  501    0  0.28762062881E+03 -0.93509790851E+02 -0.12756978502E+03  0.10798768081E+04  0.10287809114E+04 0.  0.
   -9000010    2    1    2    0  502 -0.28762062881E+03  0.93509790851E+02  0.46632225420E+03  0.11137144927E+04  0.96510819045E+03 0.  0.
        -13    1    3    3    0    0  0.22861014239E+03 -0.41527868482E+03 -0.42580293310E+03  0.63720258338E+03  0.10566000000E+00 0.  1.
          4    1    3    3  501    0  0.59010486413E+02  0.32176889397E+03  0.29823314809E+03  0.44267422474E+03  0.00000000000E+00 0.  1.
         13    1    4    4    0    0 -0.51168970937E+03  0.15137074568E+03  0.63345433579E+03  0.82825350468E+03  0.10566000000E+00 0. -1.
         -4    1    4    4    0  502  0.22406908057E+03 -0.57860954829E+02 -0.16713208158E+03  0.28546098797E+03  0.00000000000E+00 0. -1.
<mgrwt>
<rscale>  2 0.10567474E+04</rscale>
<asrwt>0</asrwt>
<pdfrwt beam="1">  1       21 0.19479568E+00 0.10723152E+04</pdfrwt>
<pdfrwt beam="2">  1       21 0.14267991E+00 0.10723152E+04</pdfrwt>
<totfact> 0.22967373E+01</totfact>
</mgrwt>
</event>
<event>
 8    1  0.7631533E-006  0.1122922E+04  0.7818608E-02  0.8667248E-01
         21   -1    0    0  501  502  0.00000000000E+00  0.00000000000E+00  0.24598451615E+04  0.24598451615E+04  0.00000000000E+00 0.  1.
         21   -1    0    0  502  503 -0.00000000000E+00 -0.00000000000E+00 -0.10226597424E+04  0.10226597424E+04  0.00000000000E+00 0.  1.
    9000010    2    1    2  501    0  0.49767517895E+03  0.14853014694E+02  0.19492291247E+04  0.22495439221E+04  0.10065050825E+04 0.  0.
   -9000010    2    1    2    0  503 -0.49767517895E+03 -0.14853014694E+02 -0.51204370561E+03  0.12329609817E+04  0.10050387208E+04 0.  0.
        -13    1    3    3    0    0  0.12702674422E+03 -0.47519437567E+03  0.67822804846E+03  0.83781787120E+03  0.10566000000E+00 0.  1.
          4    1    3    3  501    0  0.37064843473E+03  0.49004739036E+03  0.12710010763E+04  0.14117260509E+04  0.00000000000E+00 0.  1.
         13    1    4    4    0    0 -0.55744630130E+03  0.38554364961E+03 -0.47245071238E+03  0.82619608531E+03  0.10566000000E+00 0. -1.
         -4    1    4    4    0  503  0.59771122350E+02 -0.40039666431E+03 -0.39592993234E+02  0.40676489643E+03  0.00000000000E+00 0. -1.
<mgrwt>
<rscale>  2 0.11225933E+04</rscale>
<asrwt>0</asrwt>
<pdfrwt beam="1">  1       21 0.37843772E+00 0.11229219E+04</pdfrwt>
<pdfrwt beam="2">  1       21 0.15733227E+00 0.11229219E+04</pdfrwt>
<totfact> 0.79459752E-01</totfact>
</mgrwt>
</event>
<event>
 8    1  0.7631533E-006  0.1053736E+04  0.7818608E-02  0.8729983E-01
         21   -1    0    0  503  502  0.00000000000E+00  0.00000000000E+00  0.20604914836E+04  0.20604914836E+04  0.00000000000E+00 0. -1.
         21   -1    0    0  501  503 -0.00000000000E+00 -0.00000000000E+00 -0.55495429423E+03  0.55495429423E+03  0.00000000000E+00 0. -1.
    9000010    2    1    2  501    0 -0.24894809083E+03  0.29314730842E+03  0.47682192622E+03  0.11565982597E+04  0.98104530413E+03 0.  0.
   -9000010    2    1    2    0  502  0.24894809083E+03 -0.29314730842E+03  0.10287152632E+04  0.14588475181E+04  0.96024501667E+03 0.  0.
        -13    1    3    3    0    0 -0.88570997776E+02 -0.35969923562E+03  0.25081945661E+03  0.44736872122E+03  0.10566000000E+00 0.  1.
          4    1    3    3  501    0 -0.16037709305E+03  0.65284654404E+03  0.22600246961E+03  0.70922953852E+03  0.00000000000E+00 0.  1.
         13    1    4    4    0    0  0.61806334827E+03 -0.16055304087E+03  0.57726602233E+03  0.86082266066E+03  0.10566000000E+00 0. -1.
         -4    1    4    4    0  502 -0.36911525744E+03 -0.13259426755E+03  0.45144924085E+03  0.59802485745E+03  0.00000000000E+00 0. -1.
<mgrwt>
<rscale>  2 0.10488684E+04</rscale>
<asrwt>0</asrwt>
<pdfrwt beam="1">  1       21 0.31699869E+00 0.10537364E+04</pdfrwt>
<pdfrwt beam="2">  1       21 0.85377585E-01 0.10537364E+04</pdfrwt>
<totfact> 0.11966409E+01</totfact>
</mgrwt>
</event>
<event>
 8    1  0.7631533E-006  0.1162619E+04  0.7818608E-02  0.8637291E-01
         21   -1    0    0  501  502  0.00000000000E+00  0.00000000000E+00  0.11972733118E+04  0.11972733118E+04  0.00000000000E+00 0. -1.
         21   -1    0    0  502  503 -0.00000000000E+00 -0.00000000000E+00 -0.12367372098E+04  0.12367372098E+04  0.00000000000E+00 0. -1.
    9000010    2    1    2  501    0 -0.27444945255E+03 -0.54813533482E+03 -0.39541382592E+03  0.12280208372E+04  0.98788067879E+03 0.  0.
   -9000010    2    1    2    0  503  0.27444945255E+03  0.54813533482E+03  0.35594992789E+03  0.12059896844E+04  0.97567203532E+03 0.  0.
        -13    1    3    3    0    0 -0.15761401213E+03 -0.81091626961E+03 -0.12919715129E+03  0.83613353491E+03  0.10566000000E+00 0.  1.
          4    1    3    3  501    0 -0.11683544041E+03  0.26278093479E+03 -0.26621667463E+03  0.39188730227E+03  0.00000000000E+00 0.  1.
         13    1    4    4    0    0 -0.21466459759E+03  0.10136433032E+03  0.47678114583E+03  0.53261232534E+03  0.10566000000E+00 0. -1.
         -4    1    4    4    0  503  0.48911405014E+03  0.44677100451E+03 -0.12083121794E+03  0.67337735909E+03  0.00000000000E+00 0. -1.
<mgrwt>
<rscale>  2 0.11600214E+04</rscale>
<asrwt>0</asrwt>
<pdfrwt beam="1">  1       21 0.18419589E+00 0.11626191E+04</pdfrwt>
<pdfrwt beam="2">  1       21 0.19026726E+00 0.11626191E+04</pdfrwt>
<totfact> 0.10776979E+01</totfact>
</mgrwt>
</event>
<event>
 8    1  0.7631533E-006  0.1178072E+04  0.7818608E-02  0.8624050E-01
         21   -1    0    0  503  502  0.00000000000E+00  0.00000000000E+00  0.62230744608E+03  0.62230744608E+03  0.00000000000E+00 0.  1.
         21   -1    0    0  501  503 -0.00000000000E+00 -0.00000000000E+00 -0.22388900836E+04  0.22388900836E+04  0.00000000000E+00 0.  1.
    9000010    2    1    2  501    0 -0.54626338646E+03  0.25683292408E+03 -0.93234800110E+03  0.15023734241E+04  0.10116749834E+04 0.  0.
   -9000010    2    1    2    0  502  0.54626338646E+03 -0.25683292408E+03 -0.68423463647E+03  0.13588241057E+04  0.10069056927E+04 0.  0.
        -13    1    3    3    0    0 -0.16615861682E+03  0.52592818217E+03 -0.11765373569E+03  0.56396059386E+03  0.10566000000E+00 0.  1.
          4    1    3    3  501    0 -0.38010476964E+03 -0.26909525808E+03 -0.81469426541E+03  0.93841283022E+03  0.00000000000E+00 0.  1.
         13    1    4    4    0    0  0.70893561173E+03 -0.13019781732E+03 -0.83526220563E+03  0.11032697479E+04  0.10566000000E+00 0. -1.
         -4    1    4    4    0  502 -0.16267222527E+03 -0.12663510676E+03  0.15102756916E+03  0.25555435779E+03  0.00000000000E+00 0. -1.
<mgrwt>
<rscale>  2 0.11770472E+04</rscale>
<asrwt>0</asrwt>
<pdfrwt beam="1">  1       21 0.95739606E-01 0.11780718E+04</pdfrwt>
<pdfrwt beam="2">  1       21 0.34444463E+00 0.11780718E+04</pdfrwt>
<totfact> 0.55762729E+00</totfact>
</mgrwt>
</event>
<event>
 8    1  0.7631533E-006  0.1342060E+04  0.7818608E-02  0.8514148E-01
         21   -1    0    0  503  502  0.00000000000E+00  0.00000000000E+00  0.71542640868E+03  0.71542640868E+03  0.00000000000E+00 0.  1.
         21   -1    0    0  501  503 -0.00000000000E+00 -0.00000000000E+00 -0.30476553453E+04  0.30476553453E+04  0.00000000000E+00 0.  1.
    9000010    2    1    2  501    0  0.40551839840E+03 -0.70426624393E+03 -0.19944166881E+04  0.23791587771E+04  0.10110699517E+04 0.  0.
   -9000010    2    1    2    0  502 -0.40551839840E+03  0.70426624393E+03 -0.33781224848E+03  0.13839229768E+04  0.10680307003E+04 0.  0.
        -13    1    3    3    0    0  0.70860768769E+03 -0.65911709480E+03 -0.16884240434E+04  0.19461079007E+04  0.10566000000E+00 0.  1.
          4    1    3    3  501    0 -0.30308928928E+03 -0.45149149128E+02 -0.30599264474E+03  0.43305087643E+03  0.00000000000E+00 0.  1.
         13    1    4    4    0    0 -0.67223514585E+03  0.75408881396E+03 -0.42919848263E+03  0.10976162259E+04  0.10566000000E+00 0. -1.
         -4    1    4    4    0  502  0.26671674745E+03 -0.49822570031E+02  0.91386234149E+02  0.28630675096E+03  0.00000000000E+00 0. -1.
<mgrwt>
<rscale>  2 0.13306989E+04</rscale>
<asrwt>0</asrwt>
<pdfrwt beam="1">  1       21 0.11006560E+00 0.13420602E+04</pdfrwt>
<pdfrwt beam="2">  1       21 0.46887005E+00 0.13420602E+04</pdfrwt>
<totfact> 0.50806241E-01</totfact>
</mgrwt>
</event>
<event>
 8    1  0.7631533E-006  0.1105727E+04  0.7818608E-02  0.8687679E-01
         21   -1    0    0  503  502  0.00000000000E+00  0.00000000000E+00  0.74170353542E+03  0.74170353542E+03  0.00000000000E+00 0. -1.
         21   -1    0    0  501  503 -0.00000000000E+00 -0.00000000000E+00 -0.18062169675E+04  0.18062169675E+04  0.00000000000E+00 0. -1.
    9000010    2    1    2  501    0 -0.25357908047E+03  0.39469076408E+03 -0.11126039244E+03  0.11113105468E+04  0.10012737424E+04 0.  0.
   -9000010    2    1    2    0  502  0.25357908047E+03 -0.39469076408E+03 -0.95325303965E+03  0.14366099561E+04  0.96699206778E+03 0.  0.
        -13    1    3    3    0    0  0.11498160644E+02  0.69590178338E+03 -0.41089452481E+01  0.69600890397E+03  0.10566000000E+00 0.  1.
          4    1    3    3  501    0 -0.26507724112E+03 -0.30121101930E+03 -0.10715144719E+03  0.41530164283E+03  0.00000000000E+00 0.  1.
         13    1    4    4    0    0 -0.12839659276E+03  0.13713204000E+03  0.87323722168E+02  0.20716255705E+03  0.10566000000E+00 0. -1.
         -4    1    4    4    0  502  0.38197567323E+03 -0.53182280408E+03 -0.10405767618E+04  0.12294473991E+04  0.00000000000E+00 0. -1.
<mgrwt>
<rscale>  2 0.10979083E+04</rscale>
<asrwt>0</asrwt>
<pdfrwt beam="1">  1       21 0.11410824E+00 0.11057270E+04</pdfrwt>
<pdfrwt beam="2">  1       21 0.27787953E+00 0.11057270E+04</pdfrwt>
<totfact> 0.10465192E+01</totfact>
</mgrwt>
</event>
<event>
 8    1  0.7631533E-006  0.1045938E+04  0.7818608E-02  0.8743488E-01
         21   -1    0    0  501  502  0.00000000000E+00  0.00000000000E+00  0.11055469983E+04  0.11055469983E+04  0.00000000000E+00 0.  1.
         21   -1    0    0  502  503 -0.00000000000E+00 -0.00000000000E+00 -0.12785451617E+04  0.12785451617E+04  0.00000000000E+00 0.  1.
    9000010    2    1    2  501    0  0.15043806524E+02  0.13514719714E+03  0.52088989315E+03  0.11684663337E+04  0.10370613343E+04 0.  0.
   -9000010    2    1    2    0  503 -0.15043806524E+02 -0.13514719714E+03 -0.69388805657E+03  0.12156258263E+04  0.98882477395E+03 0.  0.
        -13    1    3    3    0    0  0.24517754536E+03 -0.18856110436E+03  0.67496007845E+03  0.74245433361E+03  0.10566000000E+00 0.  1.
          4    1    3    3  501    0 -0.23013373883E+03  0.32370830150E+03 -0.15407018530E+03  0.42601200007E+03  0.00000000000E+00 0.  1.
         13    1    4    4    0    0  0.23451467139E+03 -0.43193035507E+03 -0.92579635864E+02  0.50013194546E+03  0.10566000000E+00 0. -1.
         -4    1    4    4    0  503 -0.24955847792E+03  0.29678315794E+03 -0.60130842071E+03  0.71549388086E+03  0.00000000000E+00 0. -1.
<mgrwt>
<rscale>  2 0.10337761E+04</rscale>
<asrwt>0</asrwt>
<pdfrwt beam="1">  1       21 0.17008415E+00 0.10459385E+04</pdfrwt>
<pdfrwt beam="2">  1       21 0.19669925E+00 0.10459385E+04</pdfrwt>
<totfact> 0.12855282E+01</totfact>
</mgrwt>
</event>
<event>
 8    1  0.7631533E-006  0.1189955E+04  0.7818608E-02  0.8627819E-01
         21   -1    0    0  501  502  0.00000000000E+00  0.00000000000E+00  0.69533488027E+03  0.69533488027E+03  0.00000000000E+00 0. -1.
         21   -1    0    0  502  503 -0.00000000000E+00 -0.00000000000E+00 -0.21430583255E+04  0.21430583255E+04  0.00000000000E+00 0. -1.
    9000010    2    1    2  501    0 -0.41528281307E+03  0.11422025677E+03 -0.28479447599E+03  0.12235609173E+04  0.11092733400E+04 0.  0.
   -9000010    2    1    2    0  503  0.41528281307E+03 -0.11422025677E+03 -0.11629289693E+04  0.16148322886E+04  0.10342985307E+04 0.  0.
        -13    1    3    3    0    0 -0.31245717775E+03 -0.26865676954E+03  0.30516776798E+03  0.51277024633E+03  0.10566000000E+00 0.  1.
          4    1    3    3  501    0 -0.10282563533E+03  0.38287702631E+03 -0.58996224397E+03  0.71079067092E+03  0.00000000000E+00 0.  1.
         13    1    4    4    0    0  0.64715161410E+03  0.19699565415E+03 -0.48045800785E+03  0.82973032237E+03  0.10566000000E+00 0. -1.
         -4    1    4    4    0  503 -0.23186880103E+03 -0.31121591092E+03 -0.68247096144E+03  0.78510196619E+03  0.00000000000E+00 0. -1.
<mgrwt>
<rscale>  2 0.11721698E+04</rscale>
<asrwt>0</asrwt>
<pdfrwt beam="1">  1       21 0.10697460E+00 0.11899552E+04</pdfrwt>
<pdfrwt beam="2">  1       21 0.32970128E+00 0.11899552E+04</pdfrwt>
<totfact> 0.52713734E+00</totfact>
</mgrwt>
</event>
<event>
 8    1  0.7631533E-006  0.1029024E+04  0.7818608E-02  0.8748336E-01
         21   -1    0    0  503  502  0.00000000000E+00  0.00000000000E+00  0.54400798748E+03  0.54400798748E+03  0.00000000000E+00 0.  1.
         21   -1    0    0  501  503 -0.00000000000E+00 -0.00000000000E+00 -0.21466791893E+04  0.21466791893E+04  0.00000000000E+00 0.  1.
    9000010    2    1    2  501    0  0.70773056383E+02  0.20275227642E+03 -0.12159977208E+04  0.15914116265E+04  0.10039039779E+04 0.  0.
   -9000010    2    1    2    0  502 -0.70773056383E+02 -0.20275227642E+03 -0.38667348100E+03  0.10992755503E+04  0.10063662571E+04 0.  0.
        -13    1    3    3    0    0 -0.46625451343E+03  0.11259080387E+03 -0.51520772233E+03  0.70392397936E+03  0.10566000000E+00 0.  1.
          4    1    3    3  501    0  0.53702756981E+03  0.90161472551E+02 -0.70078999850E+03  0.88748764716E+03  0.00000000000E+00 0.  1.
         13    1    4    4    0    0 -0.26866018276E+03  0.21362301740E+02  0.26768244906E+03  0.37985332227E+03  0.10566000000E+00 0. -1.
         -4    1    4    4    0  502  0.19788712638E+03 -0.22411457816E+03 -0.65435593006E+03  0.71942222800E+03  0.00000000000E+00 0. -1.
<mgrwt>
<rscale>  2 0.10284215E+04</rscale>
<asrwt>0</asrwt>
<pdfrwt beam="1">  1       21 0.83693536E-01 0.10290240E+04</pdfrwt>
<pdfrwt beam="2">  1       21 0.33025834E+00 0.10290240E+04</pdfrwt>
<totfact> 0.10206219E+01</totfact>
</mgrwt>
</event>
<event>
 8    1  0.7631533E-006  0.1012077E+04  0.7818608E-02  0.8771966E-01
         21   -1    0    0  503  502  0.00000000000E+00  0.00000000000E+00  0.40924669659E+03  0.40924669659E+03  0.00000000000E+00 0. -1.
         21   -1    0    0  501  503 -0.00000000000E+00 -0.00000000000E+00 -0.24705975822E+04  0.24705975822E+04  0.00000000000E+00 0. -1.
    9000010    2    1    2  501    0  0.87370978710E+02  0.14167399478E+03 -0.12686724745E+04  0.16229077531E+04  0.99829580720E+03 0.  0.
   -9000010    2    1    2    0  502 -0.87370978710E+02 -0.14167399478E+03 -0.79267841106E+03  0.12569365257E+04  0.96116864156E+03 0.  0.
        -13    1    3    3    0    0  0.45870546129E+03 -0.20086321454E+03 -0.54242117122E+03  0.73822589316E+03  0.10566000000E+00 0.  1.
          4    1    3    3  501    0 -0.37133448258E+03  0.34253720932E+03 -0.72625130333E+03  0.88468185994E+03  0.00000000000E+00 0.  1.
         13    1    4    4    0    0 -0.11324167868E+03  0.28545878437E+03 -0.76935885637E+03  0.82838605517E+03  0.10566000000E+00 0. -1.
         -4    1    4    4    0  502  0.25870699967E+02 -0.42713277915E+03 -0.23319554689E+02  0.42855047051E+03  0.00000000000E+00 0. -1.
<mgrwt>
<rscale>  2 0.10027995E+04</rscale>
<asrwt>0</asrwt>
<pdfrwt beam="1">  1       21 0.62961030E-01 0.10120769E+04</pdfrwt>
<pdfrwt beam="2">  1       21 0.38009194E+00 0.10120769E+04</pdfrwt>
<totfact> 0.90472524E+00</totfact>
</mgrwt>
</event>
<event>
 8    1  0.7631533E-006  0.1034735E+04  0.7818608E-02  0.8754844E-01
         21   -1    0    0  503  502  0.00000000000E+00  0.00000000000E+00  0.42126100692E+03  0.42126100692E+03  0.00000000000E+00 0.  1.
         21   -1    0    0  501  503 -0.00000000000E+00 -0.00000000000E+00 -0.25936096213E+04  0.25936096213E+04  0.00000000000E+00 0.  1.
    9000010    2    1    2  501    0 -0.96860254639E+02  0.18027118858E+02 -0.14566540759E+04  0.17567391197E+04  0.97702832695E+03 0.  0.
   -9000010    2    1    2    0  502  0.96860254639E+02 -0.18027118858E+02 -0.71569453844E+03  0.12581315086E+04  0.10300336570E+04 0.  0.
        -13    1    3    3    0    0 -0.19614866549E+03  0.24297326153E+03 -0.14773447979E+04  0.15099860820E+04  0.10566000000E+00 0.  1.
          4    1    3    3  501    0  0.99288410850E+02 -0.22494614267E+03  0.20690721945E+02  0.24675303768E+03  0.00000000000E+00 0.  1.
         13    1    4    4    0    0 -0.39622887454E+03  0.65600331686E+02 -0.63526775343E+03  0.75157558119E+03  0.10566000000E+00 0. -1.
         -4    1    4    4    0  502  0.49308912918E+03 -0.83627450544E+02 -0.80426785015E+02  0.50655592737E+03  0.00000000000E+00 0. -1.
<mgrwt>
<rscale>  2 0.10212871E+04</rscale>
<asrwt>0</asrwt>
<pdfrwt beam="1">  1       21 0.64809387E-01 0.10347349E+04</pdfrwt>
<pdfrwt beam="2">  1       21 0.39901686E+00 0.10347349E+04</pdfrwt>
<totfact> 0.62069356E+00</totfact>
</mgrwt>
</event>
<event>
 8    1  0.7631533E-006  0.1023311E+04  0.7818608E-02  0.8754235E-01
         21   -1    0    0  503  502  0.00000000000E+00  0.00000000000E+00  0.13107655032E+04  0.13107655032E+04  0.00000000000E+00 0. -1.
         21   -1    0    0  501  503 -0.00000000000E+00 -0.00000000000E+00 -0.86782416360E+03  0.86782416360E+03  0.00000000000E+00 0. -1.
    9000010    2    1    2  501    0 -0.20027011627E+03  0.84495462334E+02 -0.95337441252E+02  0.10223420440E+04  0.99440757471E+03 0.  0.
   -9000010    2    1    2    0  502  0.20027011627E+03 -0.84495462334E+02  0.53827878082E+03  0.11562476227E+04  0.99995845744E+03 0.  0.
        -13    1    3    3    0    0 -0.34312143137E+03 -0.31643486654E+03  0.19633754054E+03  0.50637119035E+03  0.10566000000E+00 0.  1.
          4    1    3    3  501    0  0.14285131511E+03  0.40093032888E+03 -0.29167498179E+03  0.51597085367E+03  0.00000000000E+00 0.  1.
         13    1    4    4    0    0 -0.25622102464E+03  0.28992121947E+03  0.38598153637E+03  0.54652107420E+03  0.10566000000E+00 0. -1.
         -4    1    4    4    0  502  0.45649114090E+03 -0.37441668180E+03  0.15229724445E+03  0.60972654854E+03  0.00000000000E+00 0. -1.
<mgrwt>
<rscale>  2 0.10219520E+04</rscale>
<asrwt>0</asrwt>
<pdfrwt beam="1">  1       21 0.20165623E+00 0.10233106E+04</pdfrwt>
<pdfrwt beam="2">  1       21 0.13351141E+00 0.10233106E+04</pdfrwt>
<totfact> 0.24983176E+01</totfact>
</mgrwt>
</event>
<event>
 8    1  0.7631533E-006  0.1122959E+04  0.7818608E-02  0.8676287E-01
         21   -1    0    0  503  502  0.00000000000E+00  0.00000000000E+00  0.19200664512E+04  0.19200664512E+04  0.00000000000E+00 0. -1.
         21   -1    0    0  501  503 -0.00000000000E+00 -0.00000000000E+00 -0.79136809327E+03  0.79136809327E+03  0.00000000000E+00 0. -1.
    9000010    2    1    2  501    0 -0.26097081836E+03  0.45451145211E+03  0.11657063655E+04  0.15878655230E+04  0.94220972200E+03 0.  0.
   -9000010    2    1    2    0  502  0.26097081836E+03 -0.45451145211E+03 -0.37008007583E+02  0.11235690215E+04  0.99315221663E+03 0.  0.
        -13    1    3    3    0    0 -0.58499826156E+03  0.47346123385E+03  0.84537521325E+03  0.11318338077E+04  0.10566000000E+00 0.  1.
          4    1    3    3  501    0  0.32402744320E+03 -0.18949781739E+02  0.32033115229E+03  0.45603171524E+03  0.00000000000E+00 0.  1.
         13    1    4    4    0    0  0.39687584307E+03  0.17400763688E+02  0.32516907579E+03  0.51336941904E+03  0.10566000000E+00 0. -1.
         -4    1    4    4    0  502 -0.13590502471E+03 -0.47191221580E+03 -0.36217708338E+03  0.61019960249E+03  0.00000000000E+00 0. -1.
<mgrwt>
<rscale>  2 0.11115900E+04</rscale>
<asrwt>0</asrwt>
<pdfrwt beam="1">  1       21 0.29539484E+00 0.11229594E+04</pdfrwt>
<pdfrwt beam="2">  1       21 0.12174894E+00 0.11229594E+04</pdfrwt>
<totfact> 0.65375599E+00</totfact>
</mgrwt>
</event>
<event>
 8    1  0.7631533E-006  0.1051594E+04  0.7818608E-02  0.8732777E-01
         21   -1    0    0  501  502  0.00000000000E+00  0.00000000000E+00  0.12389316905E+04  0.12389316905E+04  0.00000000000E+00 0.  1.
         21   -1    0    0  502  503 -0.00000000000E+00 -0.00000000000E+00 -0.11027295007E+04  0.11027295007E+04  0.00000000000E+00 0.  1.
    9000010    2    1    2  501    0 -0.17070890558E+03 -0.87294592442E+02  0.60316486191E+03  0.12122946905E+04  0.10339674510E+04 0.  0.
   -9000010    2    1    2    0  503  0.17070890558E+03  0.87294592442E+02 -0.46696267209E+03  0.11293665008E+04  0.10102735667E+04 0.  0.
        -13    1    3    3    0    0 -0.89404521643E+02  0.27534196266E+03  0.75670258020E+03  0.81018835523E+03  0.10566000000E+00 0.  1.
          4    1    3    3  501    0 -0.81304383936E+02 -0.36263655510E+03 -0.15353771829E+03  0.40210633529E+03  0.00000000000E+00 0.  1.
         13    1    4    4    0    0 -0.53104024118E+02 -0.25822942740E+03 -0.63281580818E+03  0.68553507043E+03  0.10566000000E+00 0. -1.
         -4    1    4    4    0  503  0.22381292970E+03  0.34552401984E+03  0.16585313609E+03  0.44383143032E+03  0.00000000000E+00 0. -1.
<mgrwt>
<rscale>  2 0.10457234E+04</rscale>
<asrwt>0</asrwt>
<pdfrwt beam="1">  1       21 0.19060488E+00 0.10515943E+04</pdfrwt>
<pdfrwt beam="2">  1       21 0.16965069E+00 0.10515943E+04</pdfrwt>
<totfact> 0.14465454E+01</totfact>
</mgrwt>
</event>
<event>
 8    1  0.7631533E-006  0.9918501E+03  0.7818608E-02  0.8787803E-01
         21   -1    0    0  501  502  0.00000000000E+00  0.00000000000E+00  0.12964115472E+04  0.12964115472E+04  0.00000000000E+00 0.  1.
         21   -1    0    0  502  503 -0.00000000000E+00 -0.00000000000E+00 -0.83787655270E+03  0.83787655270E+03  0.00000000000E+00 0.  1.
    9000010    2    1    2  501    0 -0.94281058998E+02  0.41902450491E+02 -0.13526229618E+03  0.97827689241E+03  0.96337171227E+03 0.  0.
   -9000010    2    1    2    0  503  0.94281058998E+02 -0.41902450491E+02  0.59379729066E+03  0.11560112075E+04  0.98646943997E+03 0.  0.
        -13    1    3    3    0    0  0.29600492685E+03 -0.53664983820E+02  0.27242961353E+03  0.40585311714E+03  0.10566000000E+00 0.  1.
          4    1    3    3  501    0 -0.39028598584E+03  0.95567434311E+02 -0.40769190970E+03  0.57242377526E+03  0.00000000000E+00 0.  1.
         13    1    4    4    0    0 -0.61016223604E+02  0.14685414431E+03  0.81256390249E+03  0.82797900097E+03  0.10566000000E+00 0. -1.
         -4    1    4    4    0  503  0.15529728260E+03 -0.18875659480E+03 -0.21876661183E+03  0.32803220652E+03  0.00000000000E+00 0. -1.
<mgrwt>
<rscale>  2 0.98605722E+03</rscale>
<asrwt>0</asrwt>
<pdfrwt beam="1">  1       21 0.19944793E+00 0.99185013E+03</pdfrwt>
<pdfrwt beam="2">  1       21 0.12890409E+00 0.99185013E+03</pdfrwt>
<totfact> 0.28984246E+01</totfact>
</mgrwt>
</event>
<event>
 8    1  0.7631533E-006  0.1053357E+04  0.7818608E-02  0.8731617E-01
         21   -1    0    0  503  502  0.00000000000E+00  0.00000000000E+00  0.18675734813E+04  0.18675734813E+04  0.00000000000E+00 0. -1.
         21   -1    0    0  501  503 -0.00000000000E+00 -0.00000000000E+00 -0.68240926233E+03  0.68240926233E+03  0.00000000000E+00 0. -1.
    9000010    2    1    2  501    0 -0.11208227189E+03 -0.27383133215E+03  0.10489093617E+03  0.10585667595E+04  0.10109477937E+04 0.  0.
   -9000010    2    1    2    0  502  0.11208227189E+03  0.27383133215E+03  0.10802732828E+04  0.14914159842E+04  0.98477674535E+03 0.  0.
        -13    1    3    3    0    0 -0.83207179758E+02 -0.65957043323E+03  0.36925101920E+02  0.66582284841E+03  0.10566000000E+00 0.  1.
          4    1    3    3  501    0 -0.28875092128E+02  0.38573910107E+03  0.67965834254E+02  0.39274391105E+03  0.00000000000E+00 0.  1.
         13    1    4    4    0    0  0.16803659920E+02  0.12402562531E+03  0.12437773263E+04  0.12500587055E+04  0.10566000000E+00 0. -1.
         -4    1    4    4    0  502  0.95278611966E+02  0.14980570685E+03 -0.16350404351E+03  0.24135727863E+03  0.00000000000E+00 0. -1.
<mgrwt>
<rscale>  2 0.10470276E+04</rscale>
<asrwt>0</asrwt>
<pdfrwt beam="1">  1       21 0.28731899E+00 0.10533572E+04</pdfrwt>
<pdfrwt beam="2">  1       21 0.10498604E+00 0.10533572E+04</pdfrwt>
<totfact> 0.11365424E+01</totfact>
</mgrwt>
</event>
<event>
 8    1  0.7631533E-006  0.1029291E+04  0.7818608E-02  0.8755658E-01
         21   -1    0    0  501  502  0.00000000000E+00  0.00000000000E+00  0.18079871212E+04  0.18079871212E+04  0.00000000000E+00 0. -1.
         21   -1    0    0  502  503 -0.00000000000E+00 -0.00000000000E+00 -0.62293745532E+03  0.62293745532E+03  0.00000000000E+00 0. -1.
    9000010    2    1    2  501    0 -0.22338594901E+03  0.68868281436E+02  0.96877440408E+03  0.14134938251E+04  0.10023955433E+04 0.  0.
   -9000010    2    1    2    0  503  0.22338594901E+03 -0.68868281436E+02  0.21627526183E+03  0.10174307514E+04  0.96630544999E+03 0.  0.
        -13    1    3    3    0    0 -0.51985833049E+03 -0.18279708916E+03  0.83849874942E+03  0.10033681396E+04  0.10566000000E+00 0.  1.
          4    1    3    3  501    0  0.29647238148E+03  0.25166537060E+03  0.13027565466E+03  0.41012568554E+03  0.00000000000E+00 0.  1.
         13    1    4    4    0    0 -0.19956101419E+03  0.34342366020E+03  0.14345472340E+03  0.42230756281E+03  0.10566000000E+00 0. -1.
         -4    1    4    4    0  503  0.42294696321E+03 -0.41229194164E+03  0.72820538427E+02  0.59512318863E+03  0.00000000000E+00 0. -1.
<mgrwt>
<rscale>  2 0.10203986E+04</rscale>
<asrwt>0</asrwt>
<pdfrwt beam="1">  1       21 0.27815186E+00 0.10292915E+04</pdfrwt>
<pdfrwt beam="2">  1       21 0.95836532E-01 0.10292915E+04</pdfrwt>
<totfact> 0.16861033E+01</totfact>
</mgrwt>
</event>
<event>
 8    1  0.7631533E-006  0.1015066E+04  0.7818608E-02  0.8764601E-01
         21   -1    0    0  501  502  0.00000000000E+00  0.00000000000E+00  0.92176836017E+03  0.92176836017E+03  0.00000000000E+00 0.  1.
         21   -1    0    0  502  503 -0.00000000000E+00 -0.00000000000E+00 -0.18993351861E+04  0.18993351861E+04  0.00000000000E+00 0.  1.
    9000010    2    1    2  501    0  0.82705321333E+02 -0.63429266986E+02  0.42939370885E+03  0.10861979308E+04  0.99226183316E+03 0.  0.
   -9000010    2    1    2    0  503 -0.82705321333E+02  0.63429266986E+02 -0.14069605348E+04  0.17349056155E+04  0.10097009984E+04 0.  0.
        -13    1    3    3    0    0 -0.13157982393E+03  0.30937103461E+03  0.54552199787E+03  0.64079477873E+03  0.10566000000E+00 0.  1.
          4    1    3    3  501    0  0.21428514526E+03 -0.37280030159E+03 -0.11612828903E+03  0.44540315205E+03  0.00000000000E+00 0.  1.
         13    1    4    4    0    0 -0.60749869826E+02 -0.13079045336E+03  0.12480684241E+03  0.19071824362E+03  0.10566000000E+00 0. -1.
         -4    1    4    4    0  503 -0.21955451507E+02  0.19421972034E+03 -0.15317673772E+04  0.15441873719E+04  0.00000000000E+00 0. -1.
<mgrwt>
<rscale>  2 0.10107019E+04</rscale>
<asrwt>0</asrwt>
<pdfrwt beam="1">  1       21 0.14181052E+00 0.10150663E+04</pdfrwt>
<pdfrwt beam="2">  1       21 0.29220542E+00 0.10150663E+04</pdfrwt>
<totfact> 0.45363917E+00</totfact>
</mgrwt>
</event>
<event>
 8    1  0.7631533E-006  0.1038191E+04  0.7818608E-02  0.8749965E-01
         21   -1    0    0  501  502  0.00000000000E+00  0.00000000000E+00  0.44903476503E+03  0.44903476503E+03  0.00000000000E+00 0.  1.
         21   -1    0    0  502  503 -0.00000000000E+00 -0.00000000000E+00 -0.25607802352E+04  0.25607802352E+04  0.00000000000E+00 0.  1.
    9000010    2    1    2  501    0 -0.13408360617E+03 -0.19583291135E+03 -0.59359795785E+03  0.11959095775E+04  0.10106988866E+04 0.  0.
   -9000010    2    1    2    0  503  0.13408360617E+03  0.19583291135E+03 -0.15181475123E+04  0.18139054227E+04  0.96392534501E+03 0.  0.
        -13    1    3    3    0    0  0.21294347257E+03  0.81582961989E+02 -0.70240739970E+03  0.73849635646E+03  0.10566000000E+00 0.  1.
          4    1    3    3  501    0 -0.34702707873E+03 -0.27741587334E+03  0.10880944185E+03  0.45741322105E+03  0.00000000000E+00 0.  1.
         13    1    4    4    0    0  0.38202121306E+03 -0.16287741850E+03 -0.27909895694E+03  0.50036536612E+03  0.10566000000E+00 0. -1.
         -4    1    4    4    0  503 -0.24793760689E+03  0.35871032986E+03 -0.12390485554E+04  0.13135400566E+04  0.00000000000E+00 0. -1.
<mgrwt>
<rscale>  2 0.10266303E+04</rscale>
<asrwt>0</asrwt>
<pdfrwt beam="1">  1       21 0.69082272E-01 0.10381913E+04</pdfrwt>
<pdfrwt beam="2">  1       21 0.39396619E+00 0.10381913E+04</pdfrwt>
<totfact> 0.57868592E+00</totfact>
</mgrwt>
</event>
<event>
 8    1  0.1287756E-005  0.9883863E+03  0.7818608E-02  0.8821052E-01
         21   -1    0    0  501  502  0.00000000000E+00  0.00000000000E+00  0.59371721680E+03  0.59371721680E+03  0.00000000000E+00 0. -1.
         21   -1    0    0  502  503 -0.00000000000E+00 -0.00000000000E+00 -0.14469067105E+04  0.14469067105E+04  0.00000000000E+00 0. -1.
    9000010    2    1    2  501    0 -0.10029178467E+03  0.16370247551E+03 -0.33036129985E+03  0.10421353765E+04  0.96956207227E+03 0.  0.
   -9000010    2    1    2    0  503  0.10029178467E+03 -0.16370247551E+03 -0.52282819381E+03  0.99848855076E+03  0.82871775846E+03 0.  0.
        -13    1    3    3    0    0  0.41965050591E+02  0.52879879376E+03 -0.37229112876E+03  0.64806629712E+03  0.10566000000E+00 0.  1.
          4    1    3    3  501    0 -0.14225683527E+03 -0.36509631825E+03  0.41929828913E+02  0.39406907939E+03  0.00000000000E+00 0.  1.
         13    1    4    4    0    0 -0.28019241322E+03 -0.32569506668E+03 -0.33244387138E+03  0.54323475926E+03  0.10566000000E+00 0. -1.
         -4    1    4    4    0  503  0.38048419790E+03  0.16199259117E+03 -0.19038432243E+03  0.45525379150E+03  0.00000000000E+00 0. -1.
<mgrwt>
<rscale>  2 0.95199491E+03</rscale>
<asrwt>0</asrwt>
<pdfrwt beam="1">  1       21 0.91341111E-01 0.98838634E+03</pdfrwt>
<pdfrwt beam="2">  1       21 0.22260103E+00 0.98838634E+03</pdfrwt>
<totfact> 0.48838142E+01</totfact>
</mgrwt>
</event>
<event>
 8    1  0.7631533E-006  0.1115156E+04  0.7818608E-02  0.8673488E-01
         21   -1    0    0  503  502  0.00000000000E+00  0.00000000000E+00  0.27024564526E+04  0.27024564526E+04  0.00000000000E+00 0. -1.
         21   -1    0    0  501  503 -0.00000000000E+00 -0.00000000000E+00 -0.62054508289E+03  0.62054508289E+03  0.00000000000E+00 0. -1.
    9000010    2    1    2  501    0 -0.39188258906E+03  0.31728977375E+03  0.19576690427E+03  0.11322091027E+04  0.99464969077E+03 0.  0.
   -9000010    2    1    2    0  502  0.39188258906E+03 -0.31728977375E+03  0.18861444655E+04  0.21907924328E+04  0.99387412423E+03 0.  0.
        -13    1    3    3    0    0  0.85874528684E+02  0.40658761710E+03  0.42537741573E+03  0.59467123861E+03  0.10566000000E+00 0.  1.
          4    1    3    3  501    0 -0.47775711774E+03 -0.89297843352E+02 -0.22961051146E+03  0.53753786411E+03  0.00000000000E+00 0.  1.
         13    1    4    4    0    0 -0.14392329580E+03  0.13969126791E+03  0.26543651147E+02  0.20231693450E+03  0.10566000000E+00 0. -1.
         -4    1    4    4    0  502  0.53580588486E+03 -0.45698104166E+03  0.18596008143E+04  0.19884754983E+04  0.00000000000E+00 0. -1.
<mgrwt>
<rscale>  2 0.11149830E+04</rscale>
<asrwt>0</asrwt>
<pdfrwt beam="1">  1       21 0.41576253E+00 0.11151559E+04</pdfrwt>
<pdfrwt beam="2">  1       21 0.95468476E-01 0.11151559E+04</pdfrwt>
<totfact> 0.18078399E+00</totfact>
</mgrwt>
</event>
<event>
 8    1  0.7631533E-006  0.1111535E+04  0.7818608E-02  0.8681938E-01
         21   -1    0    0  503  502  0.00000000000E+00  0.00000000000E+00  0.91552123560E+03  0.91552123560E+03  0.00000000000E+00 0.  1.
         21   -1    0    0  501  503 -0.00000000000E+00 -0.00000000000E+00 -0.18395448904E+04  0.18395448904E+04  0.00000000000E+00 0.  1.
    9000010    2    1    2  501    0 -0.29495536240E+03  0.35286669226E+03  0.26796986772E+03  0.11433802083E+04  0.10119273108E+04 0.  0.
   -9000010    2    1    2    0  502  0.29495536240E+03 -0.35286669226E+03 -0.11919935225E+04  0.16116859177E+04  0.98243033917E+03 0.  0.
        -13    1    3    3    0    0  0.48849582426E+02  0.51904263215E+03 -0.18294071582E+03  0.55250235507E+03  0.10566000000E+00 0.  1.
          4    1    3    3  501    0 -0.34380494483E+03 -0.16617593989E+03  0.45091058353E+03  0.59087785322E+03  0.00000000000E+00 0.  1.
         13    1    4    4    0    0  0.63840224123E+03 -0.11655683495E+03 -0.86759815651E+03  0.10834525784E+04  0.10566000000E+00 0. -1.
         -4    1    4    4    0  502 -0.34344687883E+03 -0.23630985731E+03 -0.32439536603E+03  0.52823333929E+03  0.00000000000E+00 0. -1.
<mgrwt>
<rscale>  2 0.11047776E+04</rscale>
<asrwt>0</asrwt>
<pdfrwt beam="1">  1       21 0.14084942E+00 0.11115352E+04</pdfrwt>
<pdfrwt beam="2">  1       21 0.28300691E+00 0.11115352E+04</pdfrwt>
<totfact> 0.52557257E+00</totfact>
</mgrwt>
</event>
<event>
 8    1  0.7631533E-006  0.1103328E+04  0.7818608E-02  0.8686234E-01
         21   -1    0    0  501  502  0.00000000000E+00  0.00000000000E+00  0.21184435862E+04  0.21184435862E+04  0.00000000000E+00 0. -1.
         21   -1    0    0  502  503 -0.00000000000E+00 -0.00000000000E+00 -0.70417601099E+03  0.70417601099E+03  0.00000000000E+00 0. -1.
    9000010    2    1    2  501    0 -0.40361725804E+03  0.22951433046E+03  0.13338454969E+04  0.17310334410E+04  0.10008742405E+04 0.  0.
   -9000010    2    1    2    0  503  0.40361725804E+03 -0.22951433046E+03  0.80422078266E+02  0.10915861562E+04  0.98463643384E+03 0.  0.
        -13    1    3    3    0    0 -0.11612301393E+03  0.59415616347E+03  0.53940231202E+03  0.81083966746E+03  0.10566000000E+00 0.  1.
          4    1    3    3  501    0 -0.28749424410E+03 -0.36464183301E+03  0.79444318489E+03  0.92019377350E+03  0.00000000000E+00 0.  1.
         13    1    4    4    0    0  0.22390893126E+03 -0.60569401409E+03  0.16430401281E+03  0.66633044955E+03  0.10566000000E+00 0. -1.
         -4    1    4    4    0  503  0.17970832678E+03  0.37617968363E+03 -0.83881934548E+02  0.42525570664E+03  0.00000000000E+00 0. -1.
<mgrwt>
<rscale>  2 0.10996325E+04</rscale>
<asrwt>0</asrwt>
<pdfrwt beam="1">  1       21 0.32591440E+00 0.11033281E+04</pdfrwt>
<pdfrwt beam="2">  1       21 0.10833477E+00 0.11033281E+04</pdfrwt>
<totfact> 0.55184264E+00</totfact>
</mgrwt>
</event>
<event>
 8    1  0.7631533E-006  0.1103786E+04  0.7818608E-02  0.8698294E-01
         21   -1    0    0  503  502  0.00000000000E+00  0.00000000000E+00  0.11457013291E+04  0.11457013291E+04  0.00000000000E+00 0. -1.
         21   -1    0    0  501  503 -0.00000000000E+00 -0.00000000000E+00 -0.12689742613E+04  0.12689742613E+04  0.00000000000E+00 0. -1.
    9000010    2    1    2  501    0 -0.11300855862E+03  0.33825914432E+03 -0.62051872758E+03  0.12040571773E+04  0.96825617060E+03 0.  0.
   -9000010    2    1    2    0  502  0.11300855862E+03 -0.33825914432E+03  0.49724579541E+03  0.12106184131E+04  0.10445828727E+04 0.  0.
        -13    1    3    3    0    0  0.41751486037E+03  0.26645014295E+03 -0.32716354137E+03  0.59359104716E+03  0.10566000000E+00 0.  1.
          4    1    3    3  501    0 -0.53052341899E+03  0.71809001367E+02 -0.29335518621E+03  0.61046613014E+03  0.00000000000E+00 0.  1.
         13    1    4    4    0    0  0.52425657152E+03 -0.27836697387E+03  0.52727694977E+03  0.79394843526E+03  0.10566000000E+00 0. -1.
         -4    1    4    4    0  502 -0.41124801289E+03 -0.59892170446E+02 -0.30031154363E+02  0.41666997783E+03  0.00000000000E+00 0. -1.
<mgrwt>
<rscale>  2 0.10853445E+04</rscale>
<asrwt>0</asrwt>
<pdfrwt beam="1">  1       21 0.17626174E+00 0.11037860E+04</pdfrwt>
<pdfrwt beam="2">  1       21 0.19522681E+00 0.11037860E+04</pdfrwt>
<totfact> 0.11575018E+01</totfact>
</mgrwt>
</event>
<event>
 8    1  0.7631533E-006  0.1129683E+04  0.7818608E-02  0.8677372E-01
         21   -1    0    0  501  502  0.00000000000E+00  0.00000000000E+00  0.93105891922E+03  0.93105891922E+03  0.00000000000E+00 0. -1.
         21   -1    0    0  502  503 -0.00000000000E+00 -0.00000000000E+00 -0.15020223348E+04  0.15020223348E+04  0.00000000000E+00 0. -1.
    9000010    2    1    2  501    0 -0.70415895106E+02  0.27578275103E+03  0.18996664418E+03  0.10710249179E+04  0.10148854737E+04 0.  0.
   -9000010    2    1    2    0  503  0.70415895106E+02 -0.27578275103E+03 -0.76093005974E+03  0.13620563361E+04  0.10932375693E+04 0.  0.
        -13    1    3    3    0    0 -0.53359608631E+03  0.18633039499E+03  0.75475484451E+01  0.56524399693E+03  0.10566000000E+00 0.  1.
          4    1    3    3  501    0  0.46318019120E+03  0.89452356039E+02  0.18241909574E+03  0.50578092096E+03  0.00000000000E+00 0.  1.
         13    1    4    4    0    0  0.38920357091E+03 -0.40513567498E+03 -0.83857911120E+03  0.10093707305E+04  0.10566000000E+00 0. -1.
         -4    1    4    4    0  503 -0.31878767581E+03  0.12935292395E+03  0.77649051452E+02  0.35268560556E+03  0.00000000000E+00 0. -1.
<mgrwt>
<rscale>  2 0.11102785E+04</rscale>
<asrwt>0</asrwt>
<pdfrwt beam="1">  1       21 0.14323983E+00 0.11296827E+04</pdfrwt>
<pdfrwt beam="2">  1       21 0.23108036E+00 0.11296827E+04</pdfrwt>
<totfact> 0.11840685E+01</totfact>
</mgrwt>
</event>
<event>
 8    1  0.7631533E-006  0.1128380E+04  0.7818608E-02  0.8662675E-01
         21   -1    0    0  501  502  0.00000000000E+00  0.00000000000E+00  0.19809814904E+04  0.19809814904E+04  0.00000000000E+00 0. -1.
         21   -1    0    0  502  503 -0.00000000000E+00 -0.00000000000E+00 -0.12752044804E+04  0.12752044804E+04  0.00000000000E+00 0. -1.
    9000010    2    1    2  501    0  0.19288976542E+03  0.47527870398E+03  0.14998846874E+04  0.18769378014E+04  0.10050597628E+04 0.  0.
   -9000010    2    1    2    0  503 -0.19288976542E+03 -0.47527870398E+03 -0.79410767738E+03  0.13792481695E+04  0.10043018479E+04 0.  0.
        -13    1    3    3    0    0 -0.12063921612E+03  0.67910097653E+03  0.64710425911E+03  0.94576735518E+03  0.10566000000E+00 0.  1.
          4    1    3    3  501    0  0.31352898154E+03 -0.20382227256E+03  0.85278042827E+03  0.93117044622E+03  0.00000000000E+00 0.  1.
         13    1    4    4    0    0  0.39634856590E+02 -0.64044915786E+01  0.22769631591E+03  0.23120891595E+03  0.10566000000E+00 0. -1.
         -4    1    4    4    0  503 -0.23252462201E+03 -0.46887421240E+03 -0.10218039933E+04  0.11480392535E+04  0.00000000000E+00 0. -1.
<mgrwt>
<rscale>  2 0.11282112E+04</rscale>
<asrwt>0</asrwt>
<pdfrwt beam="1">  1       21 0.30476638E+00 0.11283800E+04</pdfrwt>
<pdfrwt beam="2">  1       21 0.19618530E+00 0.11283800E+04</pdfrwt>
<totfact> 0.12473466E+00</totfact>
</mgrwt>
</event>
<event>
 8    1  0.7631533E-006  0.1078146E+04  0.7818608E-02  0.8704839E-01
         21   -1    0    0  503  502  0.00000000000E+00  0.00000000000E+00  0.10236872425E+04  0.10236872425E+04  0.00000000000E+00 0.  1.
         21   -1    0    0  501  503 -0.00000000000E+00 -0.00000000000E+00 -0.17437843547E+04  0.17437843547E+04  0.00000000000E+00 0.  1.
    9000010    2    1    2  501    0  0.40808192437E+03 -0.13537603089E+02 -0.11784059726E+04  0.15959573373E+04  0.99585393630E+03 0.  0.
   -9000010    2    1    2    0  502 -0.40808192437E+03  0.13537603089E+02  0.45830886036E+03  0.11715142599E+04  0.99783993003E+03 0.  0.
        -13    1    3    3    0    0 -0.16643956780E+03  0.35247533460E+03 -0.35427483287E+03  0.52673680296E+03  0.10566000000E+00 0.  1.
          4    1    3    3  501    0  0.57452149217E+03 -0.36601293769E+03 -0.82413113971E+03  0.10692205343E+04  0.00000000000E+00 0.  1.
         13    1    4    4    0    0 -0.41404981533E+03  0.26455508052E+03  0.67838120509E+03  0.83763220496E+03  0.10566000000E+00 0. -1.
         -4    1    4    4    0  502  0.59678909617E+01 -0.25101747743E+03 -0.22007234473E+03  0.33388205494E+03  0.00000000000E+00 0. -1.
<mgrwt>
<rscale>  2 0.10776862E+04</rscale>
<asrwt>0</asrwt>
<pdfrwt beam="1">  1       21 0.15749034E+00 0.10781459E+04</pdfrwt>
<pdfrwt beam="2">  1       21 0.26827452E+00 0.10781459E+04</pdfrwt>
<totfact> 0.47897110E+00</totfact>
</mgrwt>
</event>
<event>
 8    1  0.7631533E-006  0.1026995E+04  0.7818608E-02  0.8752910E-01
         21   -1    0    0  501  502  0.00000000000E+00  0.00000000000E+00  0.75886255432E+03  0.75886255432E+03  0.00000000000E+00 0.  1.
         21   -1    0    0  502  503 -0.00000000000E+00 -0.00000000000E+00 -0.18261753742E+04  0.18261753742E+04  0.00000000000E+00 0.  1.
    9000010    2    1    2  501    0  0.11858594242E+03 -0.19252953229E+03  0.10911113275E+03  0.10327749710E+04  0.10017927205E+04 0.  0.
   -9000010    2    1    2    0  503 -0.11858594242E+03  0.19252953229E+03 -0.11764239527E+04  0.15522629576E+04  0.98712548674E+03 0.  0.
        -13    1    3    3    0    0  0.14346276369E+03  0.28599479940E+02  0.53371236620E+03  0.55339714114E+03  0.10566000000E+00 0.  1.
          4    1    3    3  501    0 -0.24876821278E+02 -0.22112901223E+03 -0.42460123345E+03  0.47937782983E+03  0.00000000000E+00 0.  1.
         13    1    4    4    0    0 -0.15605090849E+03  0.31072809135E+03 -0.13185642944E+04  0.13636405840E+04  0.10566000000E+00 0. -1.
         -4    1    4    4    0  503  0.37464966073E+02 -0.11819855906E+03  0.14214034176E+03  0.18862237354E+03  0.00000000000E+00 0. -1.
<mgrwt>
<rscale>  2 0.10234007E+04</rscale>
<asrwt>0</asrwt>
<pdfrwt beam="1">  1       21 0.11674809E+00 0.10269951E+04</pdfrwt>
<pdfrwt beam="2">  1       21 0.28095005E+00 0.10269951E+04</pdfrwt>
<totfact> 0.95130553E+00</totfact>
</mgrwt>
</event>
<event>
 8    1  0.7631533E-006  0.1062295E+04  0.7818608E-02  0.8722458E-01
         21   -1    0    0  503  502  0.00000000000E+00  0.00000000000E+00  0.44618785797E+03  0.44618785797E+03  0.00000000000E+00 0.  1.
         21   -1    0    0  501  503 -0.00000000000E+00 -0.00000000000E+00 -0.25120624140E+04  0.25120624140E+04  0.00000000000E+00 0.  1.
    9000010    2    1    2  501    0  0.15226863460E+03  0.26459105567E+03 -0.12015153860E+04  0.16037796662E+04  0.10174850521E+04 0.  0.
   -9000010    2    1    2    0  502 -0.15226863460E+03 -0.26459105567E+03 -0.86435917006E+03  0.13544706058E+04  0.99713573960E+03 0.  0.
        -13    1    3    3    0    0  0.41756832556E+03  0.53758192647E+03 -0.80235134836E+03  0.10522002336E+04  0.10566000000E+00 0.  1.
          4    1    3    3  501    0 -0.26529969097E+03 -0.27299087079E+03 -0.39916403760E+03  0.55157943261E+03  0.00000000000E+00 0.  1.
         13    1    4    4    0    0 -0.11626430081E+03 -0.12521889788E+03 -0.10809698383E+04  0.10943915947E+04  0.10566000000E+00 0. -1.
         -4    1    4    4    0  502 -0.36004333784E+02 -0.13937215779E+03  0.21661066823E+03  0.26007901109E+03  0.00000000000E+00 0. -1.
<mgrwt>
<rscale>  2 0.10573922E+04</rscale>
<asrwt>0</asrwt>
<pdfrwt beam="1">  1       21 0.68644285E-01 0.10622947E+04</pdfrwt>
<pdfrwt beam="2">  1       21 0.38647114E+00 0.10622947E+04</pdfrwt>
<totfact> 0.65946839E+00</totfact>
</mgrwt>
</event>
<event>
 8    1  0.7631533E-006  0.1046794E+04  0.7818608E-02  0.8736046E-01
         21   -1    0    0  503  502  0.00000000000E+00  0.00000000000E+00  0.15629181442E+04  0.15629181442E+04  0.00000000000E+00 0. -1.
         21   -1    0    0  501  503 -0.00000000000E+00 -0.00000000000E+00 -0.79747393354E+03  0.79747393354E+03  0.00000000000E+00 0. -1.
    9000010    2    1    2  501    0 -0.17610698187E+03 -0.59956308978E+01 -0.50401692410E+02  0.10480071418E+04  0.10318570744E+04 0.  0.
   -9000010    2    1    2    0  502  0.17610698187E+03  0.59956308978E+01  0.81584590308E+03  0.13123849359E+04  0.10127685154E+04 0.  0.
        -13    1    3    3    0    0 -0.42241340386E+02  0.40787065861E+03 -0.33389747351E+03  0.52880085001E+03  0.10566000000E+00 0.  1.
          4    1    3    3  501    0 -0.13386564148E+03 -0.41386628951E+03  0.28349578110E+03  0.51920629182E+03  0.00000000000E+00 0.  1.
         13    1    4    4    0    0  0.22752544176E+03  0.46510352346E+03  0.62737110728E+03  0.81343938409E+03  0.10566000000E+00 0. -1.
         -4    1    4    4    0  502 -0.51418459894E+02 -0.45910789256E+03  0.18847479580E+03  0.49894555182E+03  0.00000000000E+00 0. -1.
<mgrwt>
<rscale>  2 0.10420596E+04</rscale>
<asrwt>0</asrwt>
<pdfrwt beam="1">  1       21 0.24044894E+00 0.10467945E+04</pdfrwt>
<pdfrwt beam="2">  1       21 0.12268830E+00 0.10467945E+04</pdfrwt>
<totfact> 0.16158168E+01</totfact>
</mgrwt>
</event>
<event>
 8    1  0.7631533E-006  0.1022913E+04  0.7818608E-02  0.8754769E-01
         21   -1    0    0  503  502  0.00000000000E+00  0.00000000000E+00  0.15708489532E+04  0.15708489532E+04  0.00000000000E+00 0. -1.
         21   -1    0    0  501  503 -0.00000000000E+00 -0.00000000000E+00 -0.84928692203E+03  0.84928692203E+03  0.00000000000E+00 0. -1.
    9000010    2    1    2  501    0  0.22843438381E+03  0.64942215119E+01 -0.20646564803E+03  0.10435419491E+04  0.99705932275E+03 0.  0.
   -9000010    2    1    2    0  502 -0.22843438381E+03 -0.64942215119E+01  0.92802767923E+03  0.13765939262E+04  0.99073256811E+03 0.  0.
        -13    1    3    3    0    0 -0.24170026268E+03  0.21197183668E+03  0.20891302846E+03  0.38340023624E+03  0.10566000000E+00 0.  1.
          4    1    3    3  501    0  0.47013464649E+03 -0.20547761517E+03 -0.41537867649E+03  0.66014171285E+03  0.00000000000E+00 0.  1.
         13    1    4    4    0    0 -0.24649668817E+03 -0.88120740220E+02 -0.14571765804E+03  0.29959894721E+03  0.10566000000E+00 0. -1.
         -4    1    4    4    0  502  0.18062304363E+02  0.81626518708E+02  0.10737453373E+04  0.10769949790E+04  0.00000000000E+00 0. -1.
<mgrwt>
<rscale>  2 0.10213684E+04</rscale>
<asrwt>0</asrwt>
<pdfrwt beam="1">  1       21 0.24166907E+00 0.10229134E+04</pdfrwt>
<pdfrwt beam="2">  1       21 0.13065953E+00 0.10229134E+04</pdfrwt>
<totfact> 0.13296290E+01</totfact>
</mgrwt>
</event>
<event>
 8    1  0.7631533E-006  0.1130652E+04  0.7818608E-02  0.8673368E-01
         21   -1    0    0  501  502  0.00000000000E+00  0.00000000000E+00  0.27734732425E+04  0.27734732425E+04  0.00000000000E+00 0. -1.
         21   -1    0    0  502  503 -0.00000000000E+00 -0.00000000000E+00 -0.62395284450E+03  0.62395284450E+03  0.00000000000E+00 0. -1.
    9000010    2    1    2  501    0 -0.12309952550E+03 -0.33349127115E+03  0.19849016440E+04  0.22548525836E+04  0.10090370242E+04 0.  0.
   -9000010    2    1    2    0  503  0.12309952550E+03  0.33349127115E+03  0.16461875404E+03  0.11425735034E+04  0.10733149377E+04 0.  0.
        -13    1    3    3    0    0 -0.56416482689E+03 -0.22912333922E+03  0.12690964990E+04  0.14076169193E+04  0.10566000000E+00 0.  1.
          4    1    3    3  501    0  0.44106530139E+03 -0.10436793193E+03  0.71580514501E+03  0.84723566434E+03  0.00000000000E+00 0.  1.
         13    1    4    4    0    0  0.34799284383E+03  0.40266022776E+03 -0.30780502238E+03  0.61479933421E+03  0.10566000000E+00 0. -1.
         -4    1    4    4    0  503 -0.22489331833E+03 -0.69168956604E+02  0.47242377641E+03  0.52777416923E+03  0.00000000000E+00 0. -1.
<mgrwt>
<rscale>  2 0.11151288E+04</rscale>
<asrwt>0</asrwt>
<pdfrwt beam="1">  1       21 0.42668819E+00 0.11306524E+04</pdfrwt>
<pdfrwt beam="2">  1       21 0.95992747E-01 0.11306524E+04</pdfrwt>
<totfact> 0.14936944E+00</totfact>
</mgrwt>
</event>
<event>
 8    1  0.7631533E-006  0.1238152E+04  0.7818608E-02  0.8589131E-01
         21   -1    0    0  501  502  0.00000000000E+00  0.00000000000E+00  0.87237783011E+03  0.87237783011E+03  0.00000000000E+00 0.  1.
         21   -1    0    0  502  503 -0.00000000000E+00 -0.00000000000E+00 -0.25978103972E+04  0.25978103972E+04  0.00000000000E+00 0.  1.
    9000010    2    1    2  501    0 -0.46559947483E+03  0.40936110046E+03  0.18392825798E+03  0.11945170621E+04  0.10043316315E+04 0.  0.
   -9000010    2    1    2    0  503  0.46559947483E+03 -0.40936110046E+03 -0.19093608250E+04  0.22756711652E+04  0.10717560872E+04 0.  0.
        -13    1    3    3    0    0 -0.72022551319E+03  0.33799084645E+02  0.56534648996E+02  0.72323118412E+03  0.10566000000E+00 0.  1.
          4    1    3    3  501    0  0.25462603837E+03  0.37556201581E+03  0.12739360899E+03  0.47128587794E+03  0.00000000000E+00 0.  1.
         13    1    4    4    0    0 -0.24923757994E+02 -0.65327149808E+03 -0.76039042406E+03  0.10027853470E+04  0.10566000000E+00 0. -1.
         -4    1    4    4    0  503  0.49052323282E+03  0.24391039762E+03 -0.11489704010E+04  0.12728858183E+04  0.00000000000E+00 0. -1.
<mgrwt>
<rscale>  2 0.12234212E+04</rscale>
<asrwt>0</asrwt>
<pdfrwt beam="1">  1       21 0.13421198E+00 0.12381520E+04</pdfrwt>
<pdfrwt beam="2">  1       21 0.39966313E+00 0.12381520E+04</pdfrwt>
<totfact> 0.89296788E-01</totfact>
</mgrwt>
</event>
<event>
 8    1  0.7631533E-006  0.1031614E+04  0.7818608E-02  0.8748789E-01
         21   -1    0    0  501  502  0.00000000000E+00  0.00000000000E+00  0.22672803244E+04  0.22672803244E+04  0.00000000000E+00 0.  1.
         21   -1    0    0  502  503 -0.00000000000E+00 -0.00000000000E+00 -0.62220500048E+03  0.62220500048E+03  0.00000000000E+00 0.  1.
    9000010    2    1    2  501    0  0.34663666335E+02 -0.10449281556E+03  0.15495702660E+04  0.18534601641E+04  0.10109531405E+04 0.  0.
   -9000010    2    1    2    0  503 -0.34663666335E+02  0.10449281556E+03  0.95505057840E+02  0.10360251608E+04  0.10257224768E+04 0.  0.
        -13    1    3    3    0    0 -0.23490798841E+03 -0.36826956304E+03  0.25659848002E+03  0.50660342003E+03  0.10566000000E+00 0.  1.
          4    1    3    3  501    0  0.26957165474E+03  0.26377674748E+03  0.12929717860E+04  0.13468567441E+04  0.00000000000E+00 0.  1.
         13    1    4    4    0    0  0.28597747791E+03 -0.16141842881E+02  0.45613659149E+03  0.53861329191E+03  0.10566000000E+00 0. -1.
         -4    1    4    4    0  503 -0.32064114425E+03  0.12063465844E+03 -0.36063153365E+03  0.49741186884E+03  0.00000000000E+00 0. -1.
<mgrwt>
<rscale>  2 0.10279230E+04</rscale>
<asrwt>0</asrwt>
<pdfrwt beam="1">  1       21 0.34881235E+00 0.10316137E+04</pdfrwt>
<pdfrwt beam="2">  1       21 0.95723847E-01 0.10316137E+04</pdfrwt>
<totfact> 0.53678144E+00</totfact>
</mgrwt>
</event>
<event>
 8    1  0.7631533E-006  0.1024736E+04  0.7818608E-02  0.8754745E-01
         21   -1    0    0  503  502  0.00000000000E+00  0.00000000000E+00  0.90937488232E+03  0.90937488232E+03  0.00000000000E+00 0. -1.
         21   -1    0    0  501  503 -0.00000000000E+00 -0.00000000000E+00 -0.15304150767E+04  0.15304150767E+04  0.00000000000E+00 0. -1.
    9000010    2    1    2  501    0  0.26875472259E+03 -0.98509446199E+02 -0.92832343862E+03  0.13827032241E+04  0.98394643517E+03 0.  0.
   -9000010    2    1    2    0  502 -0.26875472259E+03  0.98509446199E+02  0.30728324418E+03  0.10570867350E+04  0.97009080050E+03 0.  0.
        -13    1    3    3    0    0  0.13262686459E+03  0.21575541375E+03  0.11971278137E+03  0.28012755124E+03  0.10566000000E+00 0.  1.
          4    1    3    3  501    0  0.13612785800E+03 -0.31426485995E+03 -0.10480362200E+04  0.11025756728E+04  0.00000000000E+00 0.  1.
         13    1    4    4    0    0 -0.39346547326E+03  0.20292783245E+03  0.58596912017E+03  0.73440765572E+03  0.10566000000E+00 0. -1.
         -4    1    4    4    0  502  0.12471075067E+03 -0.10441838625E+03 -0.27868587599E+03  0.32267907926E+03  0.00000000000E+00 0. -1.
<mgrwt>
<rscale>  2 0.10213955E+04</rscale>
<asrwt>0</asrwt>
<pdfrwt beam="1">  1       21 0.13990383E+00 0.10247360E+04</pdfrwt>
<pdfrwt beam="2">  1       21 0.23544847E+00 0.10247360E+04</pdfrwt>
<totfact> 0.12079670E+01</totfact>
</mgrwt>
</event>
<event>
 8    1  0.7631533E-006  0.1031030E+04  0.7818608E-02  0.8751758E-01
         21   -1    0    0  503  502  0.00000000000E+00  0.00000000000E+00  0.21092532978E+04  0.21092532978E+04  0.00000000000E+00 0. -1.
         21   -1    0    0  501  503 -0.00000000000E+00 -0.00000000000E+00 -0.73815187611E+03  0.73815187611E+03  0.00000000000E+00 0. -1.
    9000010    2    1    2  501    0  0.11965411718E+03  0.12669804144E+03 -0.13135840552E+03  0.10393639866E+04  0.10161953377E+04 0.  0.
   -9000010    2    1    2    0  502 -0.11965411718E+03 -0.12669804144E+03  0.15024598272E+04  0.18080411874E+04  0.99058462602E+03 0.  0.
        -13    1    3    3    0    0 -0.12758434585E+03  0.36636619556E+03  0.29785354402E+03  0.48909988694E+03  0.10566000000E+00 0.  1.
          4    1    3    3  501    0  0.24723846303E+03 -0.23966815413E+03 -0.42921194954E+03  0.55026409962E+03  0.00000000000E+00 0.  1.
         13    1    4    4    0    0 -0.10516166888E+03 -0.40756276816E+03  0.18305239184E+03  0.45899300204E+03  0.10566000000E+00 0. -1.
         -4    1    4    4    0  502 -0.14492448300E+02  0.28086472673E+03  0.13194074354E+04  0.13490481853E+04  0.00000000000E+00 0. -1.
<mgrwt>
<rscale>  2 0.10246628E+04</rscale>
<asrwt>0</asrwt>
<pdfrwt beam="1">  1       21 0.32450050E+00 0.10310298E+04</pdfrwt>
<pdfrwt beam="2">  1       21 0.11356183E+00 0.10310298E+04</pdfrwt>
<totfact> 0.50510514E+00</totfact>
</mgrwt>
</event>
<event>
 8    1  0.7631533E-006  0.1165578E+04  0.7818608E-02  0.8667125E-01
         21   -1    0    0  503  502  0.00000000000E+00  0.00000000000E+00  0.11735555993E+04  0.11735555993E+04  0.00000000000E+00 0.  1.
         21   -1    0    0  501  503 -0.00000000000E+00 -0.00000000000E+00 -0.10350336725E+04  0.10350336725E+04  0.00000000000E+00 0.  1.
    9000010    2    1    2  501    0 -0.44056286322E+02 -0.50385202850E+03 -0.13179677932E+03  0.10120757489E+04  0.86667127997E+03 0.  0.
   -9000010    2    1    2    0  502  0.44056286322E+02  0.50385202850E+03  0.27031870616E+03  0.11965135229E+04  0.10501259851E+04 0.  0.
        -13    1    3    3    0    0 -0.15070601641E+03 -0.49155319759E+03 -0.44563228009E+03  0.68038591231E+03  0.10566000000E+00 0.  1.
          4    1    3    3  501    0  0.10664973008E+03 -0.12298830910E+02  0.31383550077E+03  0.33168983661E+03  0.00000000000E+00 0.  1.
         13    1    4    4    0    0 -0.33601433146E+03  0.62675219042E+03  0.34457116678E+03  0.79022353754E+03  0.10566000000E+00 0. -1.
         -4    1    4    4    0  502  0.38007061778E+03 -0.12290016192E+03 -0.74252460618E+02  0.40628998537E+03  0.00000000000E+00 0. -1.
<mgrwt>
<rscale>  2 0.11227441E+04</rscale>
<asrwt>0</asrwt>
<pdfrwt beam="1">  1       21 0.18054701E+00 0.11655781E+04</pdfrwt>
<pdfrwt beam="2">  1       21 0.15923595E+00 0.11655781E+04</pdfrwt>
<totfact> 0.20871735E+01</totfact>
</mgrwt>
</event>
<event>
 8    1  0.7631533E-006  0.1123488E+04  0.7818608E-02  0.8666814E-01
         21   -1    0    0  501  502  0.00000000000E+00  0.00000000000E+00  0.11848980361E+04  0.11848980361E+04  0.00000000000E+00 0. -1.
         21   -1    0    0  502  503 -0.00000000000E+00 -0.00000000000E+00 -0.20731558135E+04  0.20731558135E+04  0.00000000000E+00 0. -1.
    9000010    2    1    2  501    0  0.50508591290E+03  0.33817272884E+02  0.69264046776E+03  0.13186044677E+04  0.10013548508E+04 0.  0.
   -9000010    2    1    2    0  503 -0.50508591290E+03 -0.33817272884E+02 -0.15808982451E+04  0.19394493819E+04  0.10029801874E+04 0.  0.
        -13    1    3    3    0    0  0.39001254914E+02 -0.42363880436E+03  0.45687486251E+03  0.62428005383E+03  0.10566000000E+00 0.  1.
          4    1    3    3  501    0  0.46608465799E+03  0.45745607725E+03  0.23576560525E+03  0.69432441383E+03  0.00000000000E+00 0.  1.
         13    1    4    4    0    0  0.11634537632E+03  0.10113455428E+03  0.70744756057E+02  0.16961508286E+03  0.10566000000E+00 0. -1.
         -4    1    4    4    0  503 -0.62143128922E+03 -0.13495182716E+03 -0.16516430012E+04  0.17698342991E+04  0.00000000000E+00 0. -1.
<mgrwt>
<rscale>  2 0.11231248E+04</rscale>
<asrwt>0</asrwt>
<pdfrwt beam="1">  1       21 0.18229201E+00 0.11234877E+04</pdfrwt>
<pdfrwt beam="2">  1       21 0.31894704E+00 0.11234877E+04</pdfrwt>
<totfact> 0.12818450E+00</totfact>
</mgrwt>
</event>
<event>
 8    1  0.7631533E-006  0.1138904E+04  0.7818608E-02  0.8656818E-01
         21   -1    0    0  501  502  0.00000000000E+00  0.00000000000E+00  0.94761870371E+03  0.94761870371E+03  0.00000000000E+00 0.  1.
         21   -1    0    0  502  503 -0.00000000000E+00 -0.00000000000E+00 -0.15173783661E+04  0.15173783661E+04  0.00000000000E+00 0.  1.
    9000010    2    1    2  501    0 -0.14353284109E+03  0.52076102462E+03  0.12311900396E+03  0.11318864679E+04  0.98702328537E+03 0.  0.
   -9000010    2    1    2    0  503  0.14353284109E+03 -0.52076102462E+03 -0.69287866633E+03  0.13331106019E+04  0.10026511404E+04 0.  0.
        -13    1    3    3    0    0  0.63263017998E+02 -0.24580367037E+03 -0.14689896225E+03  0.29325921995E+03  0.10566000000E+00 0.  1.
          4    1    3    3  501    0 -0.20679585909E+03  0.76656469499E+03  0.27001796621E+03  0.83862724796E+03  0.00000000000E+00 0.  1.
         13    1    4    4    0    0  0.27355675291E+03  0.16463218413E+03  0.39431475922E+02  0.32170157844E+03  0.10566000000E+00 0. -1.
         -4    1    4    4    0  503 -0.13002391182E+03 -0.68539320875E+03 -0.73231014225E+03  0.10114090234E+04  0.00000000000E+00 0. -1.
<mgrwt>
<rscale>  2 0.11354552E+04</rscale>
<asrwt>0</asrwt>
<pdfrwt beam="1">  1       21 0.14578749E+00 0.11389043E+04</pdfrwt>
<pdfrwt beam="2">  1       21 0.23344282E+00 0.11389043E+04</pdfrwt>
<totfact> 0.10759199E+01</totfact>
</mgrwt>
</event>
<event>
 8    1  0.7631533E-006  0.1101817E+04  0.7818608E-02  0.8706526E-01
         21   -1    0    0  503  502  0.00000000000E+00  0.00000000000E+00  0.57701752230E+03  0.57701752230E+03  0.00000000000E+00 0.  1.
         21   -1    0    0  501  503 -0.00000000000E+00 -0.00000000000E+00 -0.19228756421E+04  0.19228756421E+04  0.00000000000E+00 0.  1.
    9000010    2    1    2  501    0  0.23136754373E+03 -0.20558266619E+03 -0.77983683666E+03  0.13498692314E+04  0.10574527304E+04 0.  0.
   -9000010    2    1    2    0  502 -0.23136754373E+03  0.20558266619E+03 -0.56602128309E+03  0.11500239330E+04  0.95203979988E+03 0.  0.
        -13    1    3    3    0    0 -0.29704204041E+03  0.91367943702E+02  0.57622101279E+02  0.31607339753E+03  0.10566000000E+00 0.  1.
          4    1    3    3  501    0  0.52840958415E+03 -0.29695060989E+03 -0.83745893794E+03  0.10337958338E+04  0.00000000000E+00 0.  1.
         13    1    4    4    0    0 -0.59865265345E+03  0.15832748698E+03 -0.43688932910E+03  0.75784225909E+03  0.10566000000E+00 0. -1.
         -4    1    4    4    0  502  0.36728510972E+03  0.47255179202E+02 -0.12913195400E+03  0.39218167388E+03  0.00000000000E+00 0. -1.
<mgrwt>
<rscale>  2 0.10757222E+04</rscale>
<asrwt>0</asrwt>
<pdfrwt beam="1">  1       21 0.88771925E-01 0.11018173E+04</pdfrwt>
<pdfrwt beam="2">  1       21 0.29582703E+00 0.11018173E+04</pdfrwt>
<totfact> 0.15121280E+01</totfact>
</mgrwt>
</event>
<event>
 8    1  0.7631533E-006  0.1119464E+04  0.7818608E-02  0.8671885E-01
         21   -1    0    0  503  502  0.00000000000E+00  0.00000000000E+00  0.10558761081E+04  0.10558761081E+04  0.00000000000E+00 0. -1.
         21   -1    0    0  501  503 -0.00000000000E+00 -0.00000000000E+00 -0.13585763232E+04  0.13585763232E+04  0.00000000000E+00 0. -1.
    9000010    2    1    2  501    0  0.90153349460E+02 -0.49545953735E+03  0.29035912984E+03  0.11565065178E+04  0.99979553998E+03 0.  0.
   -9000010    2    1    2    0  502 -0.90153349460E+02  0.49545953735E+03 -0.59305934500E+03  0.12579459135E+04  0.98848406923E+03 0.  0.
        -13    1    3    3    0    0  0.39819808647E+02 -0.28036002869E+03  0.66432833087E+03  0.72216307384E+03  0.10566000000E+00 0.  1.
          4    1    3    3  501    0  0.50333540812E+02 -0.21509950866E+03 -0.37396920103E+03  0.43434344392E+03  0.00000000000E+00 0.  1.
         13    1    4    4    0    0 -0.35648696859E+03 -0.12853878662E+03 -0.40339741934E+03  0.55347508303E+03  0.10566000000E+00 0. -1.
         -4    1    4    4    0  502  0.26633361913E+03  0.62399832397E+03 -0.18966192567E+03  0.70447083051E+03  0.00000000000E+00 0. -1.
<mgrwt>
<rscale>  2 0.11169324E+04</rscale>
<asrwt>0</asrwt>
<pdfrwt beam="1">  1       21 0.16244248E+00 0.11194637E+04</pdfrwt>
<pdfrwt beam="2">  1       21 0.20901174E+00 0.11194637E+04</pdfrwt>
<totfact> 0.11774502E+01</totfact>
</mgrwt>
</event>
<event>
 8    1  0.7631533E-006  0.1219033E+04  0.7818608E-02  0.8619708E-01
         21   -1    0    0  503  502  0.00000000000E+00  0.00000000000E+00  0.96499095838E+03  0.96499095838E+03  0.00000000000E+00 0. -1.
         21   -1    0    0  501  503 -0.00000000000E+00 -0.00000000000E+00 -0.14897177409E+04  0.14897177409E+04  0.00000000000E+00 0. -1.
    9000010    2    1    2  501    0 -0.56489187484E+03  0.91422552355E+02 -0.59601222018E+03  0.12335936208E+04  0.91600313390E+03 0.  0.
   -9000010    2    1    2    0  502  0.56489187484E+03 -0.91422552355E+02  0.71285437692E+02  0.12211150785E+04  0.10763733125E+04 0.  0.
        -13    1    3    3    0    0 -0.18320925410E+03 -0.87147746912E+02  0.22976339224E+03  0.30651523315E+03  0.10566000000E+00 0.  1.
          4    1    3    3  501    0 -0.38168262075E+03  0.17857029927E+03 -0.82577561242E+03  0.92707838764E+03  0.00000000000E+00 0.  1.
         13    1    4    4    0    0  0.79232914296E+03 -0.35719307676E+03  0.58199195964E+02  0.87106803549E+03  0.10566000000E+00 0. -1.
         -4    1    4    4    0  502 -0.22743726812E+03  0.26577052441E+03  0.13086241728E+02  0.35004704297E+03  0.00000000000E+00 0. -1.
<mgrwt>
<rscale>  2 0.11826960E+04</rscale>
<asrwt>0</asrwt>
<pdfrwt beam="1">  1       21 0.14846015E+00 0.12190326E+04</pdfrwt>
<pdfrwt beam="2">  1       21 0.22918735E+00 0.12190326E+04</pdfrwt>
<totfact> 0.10766160E+01</totfact>
</mgrwt>
</event>
<event>
 8    1  0.7631533E-006  0.1003413E+04  0.7818608E-02  0.8785376E-01
         21   -1    0    0  501  502  0.00000000000E+00  0.00000000000E+00  0.14247437169E+04  0.14247437169E+04  0.00000000000E+00 0. -1.
         21   -1    0    0  502  503 -0.00000000000E+00 -0.00000000000E+00 -0.77296563597E+03  0.77296563597E+03  0.00000000000E+00 0. -1.
    9000010    2    1    2  501    0 -0.11947876947E+03 -0.43490853824E+02  0.74198723846E+03  0.12479515730E+04  0.99532478914E+03 0.  0.
   -9000010    2    1    2    0  503  0.11947876947E+03  0.43490853824E+02 -0.90209157550E+02  0.94975777981E+03  0.93687540126E+03 0.  0.
        -13    1    3    3    0    0 -0.19204039663E+03 -0.10287087792E+03  0.97381207914E+03  0.99788371472E+03  0.10566000000E+00 0.  1.
          4    1    3    3  501    0  0.72561627158E+02  0.59380024097E+02 -0.23182484069E+03  0.25006785830E+03  0.00000000000E+00 0.  1.
         13    1    4    4    0    0  0.34682265727E+03  0.39322639946E+03 -0.67917567783E+01  0.52436542216E+03  0.10566000000E+00 0. -1.
         -4    1    4    4    0  503 -0.22734388780E+03 -0.34973554564E+03 -0.83417400771E+02  0.42539235766E+03  0.00000000000E+00 0. -1.
<mgrwt>
<rscale>  2 0.98860114E+03</rscale>
<asrwt>0</asrwt>
<pdfrwt beam="1">  1       21 0.21919134E+00 0.10034132E+04</pdfrwt>
<pdfrwt beam="2">  1       21 0.11891779E+00 0.10034132E+04</pdfrwt>
<totfact> 0.25632697E+01</totfact>
</mgrwt>
</event>
<event>
 8    1  0.7631533E-006  0.1024101E+04  0.7818608E-02  0.8754580E-01
         21   -1    0    0  503  502  0.00000000000E+00  0.00000000000E+00  0.84357791353E+03  0.84357791353E+03  0.00000000000E+00 0.  1.
         21   -1    0    0  501  503 -0.00000000000E+00 -0.00000000000E+00 -0.16395363105E+04  0.16395363105E+04  0.00000000000E+00 0.  1.
    9000010    2    1    2  501    0 -0.10383189477E+03 -0.15592205008E+03 -0.10191541706E+04  0.14448036055E+04  0.10068214772E+04 0.  0.
   -9000010    2    1    2    0  502  0.10383189477E+03  0.15592205008E+03  0.22319577362E+03  0.10383106185E+04  0.99658408533E+03 0.  0.
        -13    1    3    3    0    0 -0.21953635878E+03 -0.56052763084E+03 -0.56393067768E+03  0.82486681238E+03  0.10566000000E+00 0.  1.
          4    1    3    3  501    0  0.11570446401E+03  0.40460558077E+03 -0.45522349296E+03  0.61993679317E+03  0.00000000000E+00 0.  1.
         13    1    4    4    0    0 -0.23742415011E+03 -0.47453154407E+02 -0.29737360694E+03  0.38347503464E+03  0.10566000000E+00 0. -1.
         -4    1    4    4    0  502  0.34125604488E+03  0.20337520448E+03  0.52056938056E+03  0.65483558390E+03  0.00000000000E+00 0. -1.
<mgrwt>
<rscale>  2 0.10215756E+04</rscale>
<asrwt>0</asrwt>
<pdfrwt beam="1">  1       21 0.12978122E+00 0.10241007E+04</pdfrwt>
<pdfrwt beam="2">  1       21 0.25223635E+00 0.10241007E+04</pdfrwt>
<totfact> 0.11349737E+01</totfact>
</mgrwt>
</event>
<event>
 8    1  0.7631533E-006  0.1063782E+04  0.7818608E-02  0.8718647E-01
         21   -1    0    0  501  502  0.00000000000E+00  0.00000000000E+00  0.77066594468E+03  0.77066594468E+03  0.00000000000E+00 0. -1.
         21   -1    0    0  502  503 -0.00000000000E+00 -0.00000000000E+00 -0.18948378466E+04  0.18948378466E+04  0.00000000000E+00 0. -1.
    9000010    2    1    2  501    0  0.70440614192E+02  0.38495892373E+03  0.80091916728E+02  0.10586798106E+04  0.98042489424E+03 0.  0.
   -9000010    2    1    2    0  503 -0.70440614192E+02 -0.38495892373E+03 -0.12042638186E+04  0.16068239806E+04  0.98917981517E+03 0.  0.
        -13    1    3    3    0    0  0.13621091629E+03  0.64451511250E+03  0.28871365958E+03  0.71924177601E+03  0.10566000000E+00 0.  1.
          4    1    3    3  501    0 -0.65770302099E+02 -0.25955618877E+03 -0.20862174285E+03  0.33943803464E+03  0.00000000000E+00 0.  1.
         13    1    4    4    0    0 -0.11151898040E+03 -0.25025601019E+03 -0.13655178921E+04  0.13927324504E+04  0.10566000000E+00 0. -1.
         -4    1    4    4    0  503  0.41078366211E+02 -0.13470291355E+03  0.16125407348E+03  0.21409153020E+03  0.00000000000E+00 0. -1.
<mgrwt>
<rscale>  2 0.10617420E+04</rscale>
<asrwt>0</asrwt>
<pdfrwt beam="1">  1       21 0.11856399E+00 0.10637819E+04</pdfrwt>
<pdfrwt beam="2">  1       21 0.29151352E+00 0.10637819E+04</pdfrwt>
<totfact> 0.76029996E+00</totfact>
</mgrwt>
</event>
<event>
 8    1  0.7631533E-006  0.1186251E+04  0.7818608E-02  0.8639016E-01
         21   -1    0    0  503  502  0.00000000000E+00  0.00000000000E+00  0.90594037214E+03  0.90594037214E+03  0.00000000000E+00 0. -1.
         21   -1    0    0  501  503 -0.00000000000E+00 -0.00000000000E+00 -0.17056543416E+04  0.17056543416E+04  0.00000000000E+00 0. -1.
    9000010    2    1    2  501    0 -0.54960216533E+02 -0.44573449413E+03 -0.92416564259E+03  0.14188330355E+04  0.97841973767E+03 0.  0.
   -9000010    2    1    2    0  502  0.54960216533E+02  0.44573449413E+03  0.12445167309E+03  0.11927616783E+04  0.10979491507E+04 0.  0.
        -13    1    3    3    0    0 -0.78983549538E+02  0.95198619571E+02 -0.86539014418E+03  0.87418607349E+03  0.10566000000E+00 0.  1.
          4    1    3    3  501    0  0.24023333006E+02 -0.54093311370E+03 -0.58775498407E+02  0.54464696202E+03  0.00000000000E+00 0.  1.
         13    1    4    4    0    0 -0.30960941968E+03  0.25407553503E+03  0.49637572305E+03  0.63780972072E+03  0.10566000000E+00 0. -1.
         -4    1    4    4    0  502  0.36456963621E+03  0.19165895910E+03 -0.37192404996E+03  0.55495195755E+03  0.00000000000E+00 0. -1.
<mgrwt>
<rscale>  2 0.11578257E+04</rscale>
<asrwt>0</asrwt>
<pdfrwt beam="1">  1       21 0.13937544E+00 0.11862513E+04</pdfrwt>
<pdfrwt beam="2">  1       21 0.26240836E+00 0.11862513E+04</pdfrwt>
<totfact> 0.74936596E+00</totfact>
</mgrwt>
</event>
<event>
 8    1  0.7631533E-006  0.1044412E+04  0.7818608E-02  0.8737205E-01
         21   -1    0    0  501  502  0.00000000000E+00  0.00000000000E+00  0.14268907663E+04  0.14268907663E+04  0.00000000000E+00 0. -1.
         21   -1    0    0  502  503 -0.00000000000E+00 -0.00000000000E+00 -0.77987563655E+03  0.77987563655E+03  0.00000000000E+00 0. -1.
    9000010    2    1    2  501    0 -0.41568064768E+02 -0.24144615983E+03  0.52279413480E+03  0.11549934818E+04  0.10003359853E+04 0.  0.
   -9000010    2    1    2    0  503  0.41568064768E+02  0.24144615983E+03  0.12422099500E+03  0.10517729211E+04  0.10152690628E+04 0.  0.
        -13    1    3    3    0    0 -0.51809157085E+03 -0.85622163697E+02  0.31447552785E+03  0.61208242867E+03  0.10566000000E+00 0.  1.
          4    1    3    3  501    0  0.47652350608E+03 -0.15582399613E+03  0.20831860695E+03  0.54291105314E+03  0.00000000000E+00 0.  1.
         13    1    4    4    0    0  0.51612817553E+03  0.19063613144E+03 -0.27695611857E+02  0.55090605939E+03  0.10566000000E+00 0. -1.
         -4    1    4    4    0  503 -0.47456011076E+03  0.50810028390E+02  0.15191660686E+03  0.50086686170E+03  0.00000000000E+00 0. -1.
<mgrwt>
<rscale>  2 0.10407649E+04</rscale>
<asrwt>0</asrwt>
<pdfrwt beam="1">  1       21 0.21952166E+00 0.10444115E+04</pdfrwt>
<pdfrwt beam="2">  1       21 0.11998087E+00 0.10444115E+04</pdfrwt>
<totfact> 0.24630690E+01</totfact>
</mgrwt>
</event>
<event>
 8    1  0.7631533E-006  0.1053358E+04  0.7818608E-02  0.8729245E-01
         21   -1    0    0  503  502  0.00000000000E+00  0.00000000000E+00  0.14208130827E+04  0.14208130827E+04  0.00000000000E+00 0.  1.
         21   -1    0    0  501  503 -0.00000000000E+00 -0.00000000000E+00 -0.78524142833E+03  0.78524142833E+03  0.00000000000E+00 0.  1.
    9000010    2    1    2  501    0 -0.23360393306E+03  0.14514176131E+03  0.16286221081E+03  0.10514906801E+04  0.10017343072E+04 0.  0.
   -9000010    2    1    2    0  502  0.23360393306E+03 -0.14514176131E+03  0.47270944357E+03  0.11545638309E+04  0.10168217608E+04 0.  0.
        -13    1    3    3    0    0  0.80007905834E+02  0.26302221655E+03 -0.34619317888E+03  0.44207655408E+03  0.10566000000E+00 0.  1.
          4    1    3    3  501    0 -0.31361183889E+03 -0.11788045525E+03  0.50905538969E+03  0.60941412602E+03  0.00000000000E+00 0.  1.
         13    1    4    4    0    0 -0.29897413430E+02 -0.52032127634E+03  0.46121714723E+03  0.69595212048E+03  0.10566000000E+00 0. -1.
         -4    1    4    4    0  502  0.26350134649E+03  0.37517951503E+03  0.11492296348E+02  0.45861171046E+03  0.00000000000E+00 0. -1.
<mgrwt>
<rscale>  2 0.10497000E+04</rscale>
<asrwt>0</asrwt>
<pdfrwt beam="1">  1       21 0.21858663E+00 0.10533582E+04</pdfrwt>
<pdfrwt beam="2">  1       21 0.12080637E+00 0.10533582E+04</pdfrwt>
<totfact> 0.24509702E+01</totfact>
</mgrwt>
</event>
<event>
 8    1  0.7631533E-006  0.1018421E+04  0.7818608E-02  0.8759145E-01
         21   -1    0    0  503  502  0.00000000000E+00  0.00000000000E+00  0.24626104420E+04  0.24626104420E+04  0.00000000000E+00 0.  1.
         21   -1    0    0  501  503 -0.00000000000E+00 -0.00000000000E+00 -0.46536133520E+03  0.46536133520E+03  0.00000000000E+00 0.  1.
    9000010    2    1    2  501    0  0.97532244714E+02 -0.10589056427E+02  0.52927397158E+03  0.11413180431E+04  0.10064051230E+04 0.  0.
   -9000010    2    1    2    0  502 -0.97532244714E+02  0.10589056427E+02  0.14679751352E+04  0.17866537342E+04  0.10136843203E+04 0.  0.
        -13    1    3    3    0    0 -0.24753319677E+03  0.15265200620E+03  0.67322059882E+03  0.73334937400E+03  0.10566000000E+00 0.  1.
          4    1    3    3  501    0  0.34506544149E+03 -0.16324106262E+03 -0.14394662725E+03  0.40796866905E+03  0.00000000000E+00 0.  1.
         13    1    4    4    0    0  0.14284965107E+02  0.81484200915E+00  0.16075116694E+04  0.16075753490E+04  0.10566000000E+00 0. -1.
         -4    1    4    4    0  502 -0.11181720982E+03  0.97742144180E+01 -0.13953653416E+03  0.17907838520E+03  0.00000000000E+00 0. -1.
<mgrwt>
<rscale>  2 0.10166045E+04</rscale>
<asrwt>0</asrwt>
<pdfrwt beam="1">  1       21 0.37886314E+00 0.10184206E+04</pdfrwt>
<pdfrwt beam="2">  1       21 0.71594053E-01 0.10184206E+04</pdfrwt>
<totfact> 0.68117938E+00</totfact>
</mgrwt>
</event>
<event>
 8    1  0.7631533E-006  0.9923696E+03  0.7818608E-02  0.8781850E-01
         21   -1    0    0  501  502  0.00000000000E+00  0.00000000000E+00  0.68630931655E+03  0.68630931655E+03  0.00000000000E+00 0. -1.
         21   -1    0    0  502  503 -0.00000000000E+00 -0.00000000000E+00 -0.15461667952E+04  0.15461667952E+04  0.00000000000E+00 0. -1.
    9000010    2    1    2  501    0 -0.14749522467E+03  0.15214585904E+03 -0.13010107661E+03  0.10008615101E+04  0.96948144309E+03 0.  0.
   -9000010    2    1    2    0  503  0.14749522467E+03 -0.15214585904E+03 -0.72975640209E+03  0.12316146017E+04  0.96924038146E+03 0.  0.
        -13    1    3    3    0    0 -0.15382512548E+03  0.46720885132E+03  0.21210492588E+03  0.53566294507E+03  0.10566000000E+00 0.  1.
          4    1    3    3  501    0  0.63299008138E+01 -0.31506299227E+03 -0.34220600248E+03  0.46519856500E+03  0.00000000000E+00 0.  1.
         13    1    4    4    0    0 -0.27562407248E+01 -0.43488937193E+03 -0.21018964652E+00  0.43489816972E+03  0.10566000000E+00 0. -1.
         -4    1    4    4    0  503  0.15025146539E+03  0.28274351288E+03 -0.72954621244E+03  0.79671643200E+03  0.00000000000E+00 0. -1.
<mgrwt>
<rscale>  2 0.99231074E+03</rscale>
<asrwt>0</asrwt>
<pdfrwt beam="1">  1       21 0.10558605E+00 0.99236962E+03</pdfrwt>
<pdfrwt beam="2">  1       21 0.23787181E+00 0.99236962E+03</pdfrwt>
<totfact> 0.25793352E+01</totfact>
</mgrwt>
</event>
<event>
 8    1  0.7631533E-006  0.1205530E+04  0.7818608E-02  0.8638353E-01
         21   -1    0    0  501  502  0.00000000000E+00  0.00000000000E+00  0.13885091962E+04  0.13885091962E+04  0.00000000000E+00 0.  1.
         21   -1    0    0  502  503 -0.00000000000E+00 -0.00000000000E+00 -0.11742607121E+04  0.11742607121E+04  0.00000000000E+00 0.  1.
    9000010    2    1    2  501    0 -0.69419281807E+01  0.26161034980E+03 -0.51850186830E+03  0.11520163328E+04  0.99489159114E+03 0.  0.
   -9000010    2    1    2    0  503  0.69419281807E+01 -0.26161034980E+03  0.73275035240E+03  0.14107535755E+04  0.11767813758E+04 0.  0.
        -13    1    3    3    0    0 -0.92576507557E+02 -0.33796134182E+03  0.65250520683E+01  0.35047234668E+03  0.10566000000E+00 0.  1.
          4    1    3    3  501    0  0.85634579377E+02  0.59957169162E+03 -0.52502692036E+03  0.80154398612E+03  0.00000000000E+00 0.  1.
         13    1    4    4    0    0 -0.23512420124E+03 -0.37838179252E+03 -0.16390970437E+03  0.47468154933E+03  0.10566000000E+00 0. -1.
         -4    1    4    4    0  503  0.24206612942E+03  0.11677144272E+03  0.89666005677E+03  0.93607202621E+03  0.00000000000E+00 0. -1.
<mgrwt>
<rscale>  2 0.11586693E+04</rscale>
<asrwt>0</asrwt>
<pdfrwt beam="1">  1       21 0.21361680E+00 0.12055300E+04</pdfrwt>
<pdfrwt beam="2">  1       21 0.18065549E+00 0.12055300E+04</pdfrwt>
<totfact> 0.75048549E+00</totfact>
</mgrwt>
</event>
<event>
 8    1  0.7631533E-006  0.1119952E+04  0.7818608E-02  0.8673125E-01
         21   -1    0    0  503  502  0.00000000000E+00  0.00000000000E+00  0.14445817378E+04  0.14445817378E+04  0.00000000000E+00 0.  1.
         21   -1    0    0  501  503 -0.00000000000E+00 -0.00000000000E+00 -0.95283333973E+03  0.95283333973E+03  0.00000000000E+00 0.  1.
    9000010    2    1    2  501    0 -0.82908937946E+02 -0.47771076231E+03 -0.13765933658E+03  0.11283803745E+04  0.10095596625E+04 0.  0.
   -9000010    2    1    2    0  502  0.82908937946E+02  0.47771076231E+03  0.62940773462E+03  0.12690347030E+04  0.98955217986E+03 0.  0.
        -13    1    3    3    0    0 -0.38315082714E+03 -0.60142003217E+03  0.10795542017E+03  0.72122464970E+03  0.10566000000E+00 0.  1.
          4    1    3    3  501    0  0.30024188919E+03  0.12370926986E+03 -0.24561475675E+03  0.40715572477E+03  0.00000000000E+00 0.  1.
         13    1    4    4    0    0 -0.34594253846E+03 -0.81527844354E+02  0.54569927523E+02  0.35958436768E+03  0.10566000000E+00 0. -1.
         -4    1    4    4    0  502  0.42885147641E+03  0.55923860666E+03  0.57483780710E+03  0.90945033535E+03  0.00000000000E+00 0. -1.
<mgrwt>
<rscale>  2 0.11154241E+04</rscale>
<asrwt>0</asrwt>
<pdfrwt beam="1">  1       21 0.22224334E+00 0.11199519E+04</pdfrwt>
<pdfrwt beam="2">  1       21 0.14658974E+00 0.11199519E+04</pdfrwt>
<totfact> 0.12879164E+01</totfact>
</mgrwt>
</event>
<event>
 8    1  0.7631533E-006  0.1058260E+04  0.7818608E-02  0.8744723E-01
         21   -1    0    0  501  502  0.00000000000E+00  0.00000000000E+00  0.20543993688E+04  0.20543993688E+04  0.00000000000E+00 0.  1.
         21   -1    0    0  502  503 -0.00000000000E+00 -0.00000000000E+00 -0.52071286923E+03  0.52071286923E+03  0.00000000000E+00 0.  1.
    9000010    2    1    2  501    0 -0.22775926064E+03 -0.12463073113E+03  0.10166438180E+04  0.13972973112E+04  0.92275024962E+03 0.  0.
   -9000010    2    1    2    0  503  0.22775926064E+03  0.12463073113E+03  0.51704268158E+03  0.11778149269E+04  0.10259180121E+04 0.  0.
        -13    1    3    3    0    0  0.11532365713E+03 -0.12586568047E+03 -0.12087163995E+03  0.20916902237E+03  0.10566000000E+00 0.  1.
          4    1    3    3  501    0 -0.34308291777E+03  0.12349493467E+01  0.11375154580E+04  0.11881282888E+04  0.00000000000E+00 0.  1.
         13    1    4    4    0    0  0.38005643178E+03  0.49968186028E+03  0.18564086738E+03  0.65466586564E+03  0.10566000000E+00 0. -1.
         -4    1    4    4    0  503 -0.15229717114E+03 -0.37505112916E+03  0.33140181421E+03  0.52314906124E+03  0.00000000000E+00 0. -1.
<mgrwt>
<rscale>  2 0.10324082E+04</rscale>
<asrwt>0</asrwt>
<pdfrwt beam="1">  1       21 0.31606144E+00 0.10582603E+04</pdfrwt>
<pdfrwt beam="2">  1       21 0.80109673E-01 0.10582603E+04</pdfrwt>
<totfact> 0.14213406E+01</totfact>
</mgrwt>
</event>
<event>
 8    1  0.7631533E-006  0.1118729E+04  0.7818608E-02  0.8726295E-01
         21   -1    0    0  503  502  0.00000000000E+00  0.00000000000E+00  0.54192009127E+03  0.54192009127E+03  0.00000000000E+00 0.  1.
         21   -1    0    0  501  503 -0.00000000000E+00 -0.00000000000E+00 -0.20502555895E+04  0.20502555895E+04  0.00000000000E+00 0.  1.
    9000010    2    1    2  501    0  0.48003036120E+03 -0.15405993636E+03 -0.10853546921E+04  0.13961545386E+04  0.71908906019E+03 0.  0.
   -9000010    2    1    2    0  502 -0.48003036120E+03  0.15405993636E+03 -0.42298080616E+03  0.11960211421E+04  0.99869424671E+03 0.  0.
        -13    1    3    3    0    0  0.43113940876E+03 -0.13161874740E+03 -0.17397631371E+03  0.48318987298E+03  0.10566000000E+00 0.  1.
          4    1    3    3  501    0  0.48890952438E+02 -0.22441188963E+02 -0.91137837837E+03  0.91296466566E+03  0.00000000000E+00 0.  1.
         13    1    4    4    0    0 -0.50342014622E+03  0.53093667046E+03 -0.35150081489E+03  0.81171326569E+03  0.10566000000E+00 0. -1.
         -4    1    4    4    0  502  0.23389785024E+02 -0.37687673410E+03 -0.71479991274E+02  0.38430787645E+03  0.00000000000E+00 0. -1.
<mgrwt>
<rscale>  2 0.10530359E+04</rscale>
<asrwt>0</asrwt>
<pdfrwt beam="1">  1       21 0.83372324E-01 0.11187287E+04</pdfrwt>
<pdfrwt beam="2">  1       21 0.31542393E+00 0.11187287E+04</pdfrwt>
<totfact> 0.12847987E+01</totfact>
</mgrwt>
</event>
<event>
 8    1  0.7631533E-006  0.1051556E+04  0.7818608E-02  0.8739625E-01
         21   -1    0    0  503  502  0.00000000000E+00  0.00000000000E+00  0.62185576182E+03  0.62185576182E+03  0.00000000000E+00 0.  1.
         21   -1    0    0  501  503 -0.00000000000E+00 -0.00000000000E+00 -0.19470744853E+04  0.19470744853E+04  0.00000000000E+00 0.  1.
    9000010    2    1    2  501    0 -0.12772256751E+03 -0.97100950533E+02 -0.21068117909E+03  0.10724538089E+04  0.10392444198E+04 0.  0.
   -9000010    2    1    2    0  502  0.12772256751E+03  0.97100950533E+02 -0.11145375444E+04  0.14964764382E+04  0.98565011208E+03 0.  0.
        -13    1    3    3    0    0  0.43917298299E+03 -0.79768861096E+02  0.48295453584E+02  0.44896374262E+03  0.10566000000E+00 0.  1.
          4    1    3    3  501    0 -0.56689555050E+03 -0.17332089438E+02 -0.25897663268E+03  0.62349006629E+03  0.00000000000E+00 0.  1.
         13    1    4    4    0    0 -0.21689526469E+03 -0.82772381212E+02 -0.10817269407E+04  0.11063579928E+04  0.10566000000E+00 0. -1.
         -4    1    4    4    0  502  0.34461783220E+03  0.17987333174E+03 -0.32810603748E+02  0.39011844543E+03  0.00000000000E+00 0. -1.
<mgrwt>
<rscale>  2 0.10380655E+04</rscale>
<asrwt>0</asrwt>
<pdfrwt beam="1">  1       21 0.95670119E-01 0.10515563E+04</pdfrwt>
<pdfrwt beam="2">  1       21 0.29954992E+00 0.10515563E+04</pdfrwt>
<totfact> 0.11878470E+01</totfact>
</mgrwt>
</event>
<event>
 8    1  0.7631533E-006  0.1028394E+04  0.7818608E-02  0.8761521E-01
         21   -1    0    0  503  502  0.00000000000E+00  0.00000000000E+00  0.16600669343E+04  0.16600669343E+04  0.00000000000E+00 0. -1.
         21   -1    0    0  501  503 -0.00000000000E+00 -0.00000000000E+00 -0.75344399135E+03  0.75344399135E+03  0.00000000000E+00 0. -1.
    9000010    2    1    2  501    0  0.30226089151E+03  0.37042900039E+03 -0.96495623424E+02  0.97690313135E+03  0.84643312307E+03 0.  0.
   -9000010    2    1    2    0  502 -0.30226089151E+03 -0.37042900039E+03  0.10031185663E+04  0.14366077943E+04  0.91050305081E+03 0.  0.
        -13    1    3    3    0    0  0.51328999947E+03  0.49322792073E+03  0.65604695124E+01  0.71188724969E+03  0.10566000000E+00 0.  1.
          4    1    3    3  501    0 -0.21102910795E+03 -0.12279892035E+03 -0.10305609294E+03  0.26501588166E+03  0.00000000000E+00 0.  1.
         13    1    4    4    0    0 -0.47045667766E+03 -0.40360729594E+03  0.10827121003E+04  0.12475952221E+04  0.10566000000E+00 0. -1.
         -4    1    4    4    0  502  0.16819578614E+03  0.33178295557E+02 -0.79593533998E+02  0.18901257214E+03  0.00000000000E+00 0. -1.
<mgrwt>
<rscale>  2 0.10140290E+04</rscale>
<asrwt>0</asrwt>
<pdfrwt beam="1">  1       21 0.25539491E+00 0.10283944E+04</pdfrwt>
<pdfrwt beam="2">  1       21 0.11591446E+00 0.10283944E+04</pdfrwt>
<totfact> 0.14793924E+01</totfact>
</mgrwt>
</event>
<event>
 8    1  0.7631533E-006  0.1277644E+04  0.7818608E-02  0.8556759E-01
         21   -1    0    0  501  502  0.00000000000E+00  0.00000000000E+00  0.13858344070E+04  0.13858344070E+04  0.00000000000E+00 0. -1.
         21   -1    0    0  502  503 -0.00000000000E+00 -0.00000000000E+00 -0.17979407748E+04  0.17979407748E+04  0.00000000000E+00 0. -1.
    9000010    2    1    2  501    0 -0.46359322268E+03 -0.63500364936E+03 -0.11638153715E+04  0.17013986925E+04  0.96028276095E+03 0.  0.
   -9000010    2    1    2    0  503  0.46359322268E+03  0.63500364936E+03  0.75170900377E+03  0.14823764893E+04  0.10070875428E+04 0.  0.
        -13    1    3    3    0    0  0.19617489647E+03 -0.23912279326E+03 -0.36983985939E+01  0.30931858913E+03  0.10566000000E+00 0.  1.
          4    1    3    3  501    0 -0.65976811915E+03 -0.39588085610E+03 -0.11601169729E+04  0.13920801034E+04  0.00000000000E+00 0.  1.
         13    1    4    4    0    0 -0.13525667721E+03  0.25813438059E+03  0.71699608032E+03  0.77395808512E+03  0.10566000000E+00 0. -1.
         -4    1    4    4    0  503  0.59884989989E+03  0.37686926877E+03  0.34712923458E+02  0.70841840419E+03  0.00000000000E+00 0. -1.
<mgrwt>
<rscale>  2 0.12684043E+04</rscale>
<asrwt>0</asrwt>
<pdfrwt beam="1">  1       21 0.21320529E+00 0.12776438E+04</pdfrwt>
<pdfrwt beam="2">  1       21 0.27660627E+00 0.12776438E+04</pdfrwt>
<totfact> 0.14099674E+00</totfact>
</mgrwt>
</event>
<event>
 8    1  0.7631533E-006  0.1070597E+04  0.7818608E-02  0.8723894E-01
         21   -1    0    0  501  502  0.00000000000E+00  0.00000000000E+00  0.16830090607E+04  0.16830090607E+04  0.00000000000E+00 0.  1.
         21   -1    0    0  502  503 -0.00000000000E+00 -0.00000000000E+00 -0.70685849598E+03  0.70685849598E+03  0.00000000000E+00 0.  1.
    9000010    2    1    2  501    0 -0.14417092156E+03 -0.11860902255E+03  0.85512817908E+03  0.13701906676E+04  0.10541939613E+04 0.  0.
   -9000010    2    1    2    0  503  0.14417092156E+03  0.11860902255E+03  0.12102238568E+03  0.10196768892E+04  0.99510863006E+03 0.  0.
        -13    1    3    3    0    0 -0.27536477370E+03 -0.53410905880E+03  0.66058540844E+03  0.89301250736E+03  0.10566000000E+00 0.  1.
          4    1    3    3  501    0  0.13119385214E+03  0.41550003625E+03  0.19454277064E+03  0.47717816020E+03  0.00000000000E+00 0.  1.
         13    1    4    4    0    0  0.43752074267E+03  0.15858980728E+03 -0.26317816098E+03  0.53463808583E+03  0.10566000000E+00 0. -1.
         -4    1    4    4    0  503 -0.29334982111E+03 -0.39980784731E+02  0.38420054666E+03  0.48503880334E+03  0.00000000000E+00 0. -1.
<mgrwt>
<rscale>  2 0.10557596E+04</rscale>
<asrwt>0</asrwt>
<pdfrwt beam="1">  1       21 0.25892447E+00 0.10705972E+04</pdfrwt>
<pdfrwt beam="2">  1       21 0.10874746E+00 0.10705972E+04</pdfrwt>
<totfact> 0.16446865E+01</totfact>
</mgrwt>
</event>
<event>
 8    1  0.7631533E-006  0.1061835E+04  0.7818608E-02  0.8719297E-01
         21   -1    0    0  501  502  0.00000000000E+00  0.00000000000E+00  0.14588216342E+04  0.14588216342E+04  0.00000000000E+00 0.  1.
         21   -1    0    0  502  503 -0.00000000000E+00 -0.00000000000E+00 -0.10996151438E+04  0.10996151438E+04  0.00000000000E+00 0.  1.
    9000010    2    1    2  501    0  0.51340468901E+02 -0.34769031074E+03  0.87929552859E+03  0.13760722952E+04  0.99844375856E+03 0.  0.
   -9000010    2    1    2    0  503 -0.51340468901E+02  0.34769031074E+03 -0.52008903822E+03  0.11823644829E+04  0.10019824184E+04 0.  0.
        -13    1    3    3    0    0  0.52547153668E+03 -0.17401291403E+03  0.46423182643E+03  0.72243479286E+03  0.10566000000E+00 0.  1.
          4    1    3    3  501    0 -0.47413106778E+03 -0.17367739671E+03  0.41506370216E+03  0.65363750230E+03  0.00000000000E+00 0.  1.
         13    1    4    4    0    0  0.30923667317E+03  0.53853144686E+03 -0.45358351832E+03  0.76901330193E+03  0.10566000000E+00 0. -1.
         -4    1    4    4    0  503 -0.36057714208E+03 -0.19084113612E+03 -0.66505519902E+02  0.41335118096E+03  0.00000000000E+00 0. -1.
<mgrwt>
<rscale>  2 0.10609992E+04</rscale>
<asrwt>0</asrwt>
<pdfrwt beam="1">  1       21 0.22443410E+00 0.10618348E+04</pdfrwt>
<pdfrwt beam="2">  1       21 0.16917156E+00 0.10618348E+04</pdfrwt>
<totfact> 0.79915395E+00</totfact>
</mgrwt>
</event>
<event>
 8    1  0.7631533E-006  0.1074190E+04  0.7818608E-02  0.8715200E-01
         21   -1    0    0  503  502  0.00000000000E+00  0.00000000000E+00  0.61687474053E+03  0.61687474053E+03  0.00000000000E+00 0.  1.
         21   -1    0    0  501  503 -0.00000000000E+00 -0.00000000000E+00 -0.23165033468E+04  0.23165033468E+04  0.00000000000E+00 0.  1.
    9000010    2    1    2  501    0 -0.27698772762E+03 -0.16880668006E+03 -0.15233074172E+04  0.18448133937E+04  0.98876340625E+03 0.  0.
   -9000010    2    1    2    0  502  0.27698772762E+03  0.16880668006E+03 -0.17632118905E+03  0.10885646937E+04  0.10240439610E+04 0.  0.
        -13    1    3    3    0    0 -0.61757391121E+03  0.17926091266E+02 -0.69473775980E+03  0.92972009046E+03  0.10566000000E+00 0.  1.
          4    1    3    3  501    0  0.34058618359E+03 -0.18673277133E+03 -0.82856965743E+03  0.91509330319E+03  0.00000000000E+00 0.  1.
         13    1    4    4    0    0  0.20261448148E+03  0.23387558975E+03 -0.58839900479E+03  0.66480359474E+03  0.10566000000E+00 0. -1.
         -4    1    4    4    0  502  0.74373246140E+02 -0.65068909686E+02  0.41207781574E+03  0.42376109894E+03  0.00000000000E+00 0. -1.
<mgrwt>
<rscale>  2 0.10656949E+04</rscale>
<asrwt>0</asrwt>
<pdfrwt beam="1">  1       21 0.94903803E-01 0.10741899E+04</pdfrwt>
<pdfrwt beam="2">  1       21 0.35638514E+00 0.10741899E+04</pdfrwt>
<totfact> 0.48085768E+00</totfact>
</mgrwt>
</event>
<event>
 8    1  0.7631533E-006  0.1067690E+04  0.7818608E-02  0.8714824E-01
         21   -1    0    0  501  502  0.00000000000E+00  0.00000000000E+00  0.14943285913E+04  0.14943285913E+04  0.00000000000E+00 0. -1.
         21   -1    0    0  502  503 -0.00000000000E+00 -0.00000000000E+00 -0.15721539788E+04  0.15721539788E+04  0.00000000000E+00 0. -1.
    9000010    2    1    2  501    0 -0.35029222059E+03 -0.10724485641E+03  0.10642188006E+04  0.15030805221E+04  0.99623456147E+03 0.  0.
   -9000010    2    1    2    0  503  0.35029222059E+03  0.10724485641E+03 -0.11420441881E+04  0.15634020480E+04  0.10028733404E+04 0.  0.
        -13    1    3    3    0    0 -0.27407245943E+03 -0.22131306699E+03 -0.71207386226E+02  0.35939628497E+03  0.10566000000E+00 0.  1.
          4    1    3    3  501    0 -0.76219761166E+02  0.11406821057E+03  0.11354261868E+04  0.11436842371E+04  0.00000000000E+00 0.  1.
         13    1    4    4    0    0 -0.32366529494E+03  0.20004116534E+03 -0.49673507683E+03  0.62571673998E+03  0.10566000000E+00 0. -1.
         -4    1    4    4    0  503  0.67395751553E+03 -0.92796308924E+02 -0.64530911131E+03  0.93768530799E+03  0.00000000000E+00 0. -1.
<mgrwt>
<rscale>  2 0.10661278E+04</rscale>
<asrwt>0</asrwt>
<pdfrwt beam="1">  1       21 0.22989671E+00 0.10676896E+04</pdfrwt>
<pdfrwt beam="2">  1       21 0.24186984E+00 0.10676896E+04</pdfrwt>
<totfact> 0.19778220E+00</totfact>
</mgrwt>
</event>
<event>
 8    1  0.7631533E-006  0.1019474E+04  0.7818608E-02  0.8759114E-01
         21   -1    0    0  501  502  0.00000000000E+00  0.00000000000E+00  0.97796444524E+03  0.97796444524E+03  0.00000000000E+00 0.  1.
         21   -1    0    0  502  503 -0.00000000000E+00 -0.00000000000E+00 -0.12607340146E+04  0.12607340146E+04  0.00000000000E+00 0.  1.
    9000010    2    1    2  501    0 -0.18716578539E+03 -0.59371163784E+02  0.31581301438E+03  0.10564851489E+04  0.98887160109E+03 0.  0.
   -9000010    2    1    2    0  503  0.18716578539E+03  0.59371163784E+02 -0.59858258378E+03  0.11822133110E+04  0.10003855441E+04 0.  0.
        -13    1    3    3    0    0  0.18741647362E+03 -0.29167257255E+03  0.47481322400E+03  0.58791617856E+03  0.10566000000E+00 0.  1.
          4    1    3    3  501    0 -0.37458225901E+03  0.23230140877E+03 -0.15900020962E+03  0.46856897032E+03  0.00000000000E+00 0.  1.
         13    1    4    4    0    0 -0.18009965316E+02 -0.27848555694E+03 -0.71715165391E+03  0.76953561981E+03  0.10566000000E+00 0. -1.
         -4    1    4    4    0  503  0.20517575071E+03  0.33785672073E+03  0.11856907013E+03  0.41267769120E+03  0.00000000000E+00 0. -1.
<mgrwt>
<rscale>  2 0.10166382E+04</rscale>
<asrwt>0</asrwt>
<pdfrwt beam="1">  1       21 0.15045607E+00 0.10194740E+04</pdfrwt>
<pdfrwt beam="2">  1       21 0.19395908E+00 0.10194740E+04</pdfrwt>
<totfact> 0.20076640E+01</totfact>
</mgrwt>
</event>
<event>
 8    1  0.7631533E-006  0.9982588E+03  0.7818608E-02  0.8777409E-01
         21   -1    0    0  501  502  0.00000000000E+00  0.00000000000E+00  0.85613206711E+03  0.85613206711E+03  0.00000000000E+00 0.  1.
         21   -1    0    0  502  503 -0.00000000000E+00 -0.00000000000E+00 -0.11599966359E+04  0.11599966359E+04  0.00000000000E+00 0.  1.
    9000010    2    1    2  501    0  0.43524937571E+02  0.14485795811E+02 -0.19242407058E+03  0.10166355040E+04  0.99720432544E+03 0.  0.
   -9000010    2    1    2    0  503 -0.43524937571E+02 -0.14485795811E+02 -0.11144049821E+03  0.99949319897E+03  0.99220129594E+03 0.  0.
        -13    1    3    3    0    0  0.50183179834E+03 -0.12023338638E+03 -0.51567217838E+02  0.51860429052E+03  0.10566000000E+00 0.  1.
          4    1    3    3  501    0 -0.45830686077E+03  0.13471918219E+03 -0.14085685274E+03  0.49803121353E+03  0.00000000000E+00 0.  1.
         13    1    4    4    0    0 -0.20003016635E+03 -0.25183464972E+03  0.33871441225E+03  0.46707624911E+03  0.10566000000E+00 0. -1.
         -4    1    4    4    0  503  0.15650522878E+03  0.23734885391E+03 -0.45015491046E+03  0.53241694986E+03  0.00000000000E+00 0. -1.
<mgrwt>
<rscale>  2 0.99700706E+03</rscale>
<asrwt>0</asrwt>
<pdfrwt beam="1">  1       21 0.13171263E+00 0.99825885E+03</pdfrwt>
<pdfrwt beam="2">  1       21 0.17846102E+00 0.99825885E+03</pdfrwt>
<totfact> 0.40011697E+01</totfact>
</mgrwt>
</event>
<event>
 8    1  0.7631533E-006  0.1026092E+04  0.7818608E-02  0.8751644E-01
         21   -1    0    0  503  502  0.00000000000E+00  0.00000000000E+00  0.61209397679E+03  0.61209397679E+03  0.00000000000E+00 0. -1.
         21   -1    0    0  501  503 -0.00000000000E+00 -0.00000000000E+00 -0.22085978422E+04  0.22085978422E+04  0.00000000000E+00 0. -1.
    9000010    2    1    2  501    0 -0.17718204760E+03 -0.15618360412E+03 -0.14690000897E+04  0.17918780559E+04  0.99853838553E+03 0.  0.
   -9000010    2    1    2    0  502  0.17718204760E+03  0.15618360412E+03 -0.12750377566E+03  0.10288137631E+04  0.99318364369E+03 0.  0.
        -13    1    3    3    0    0 -0.31864061417E+03 -0.35458470118E+03 -0.23028998067E+03  0.52942953986E+03  0.10566000000E+00 0.  1.
          4    1    3    3  501    0  0.14145856657E+03  0.19840109706E+03 -0.12387101090E+04  0.12624485160E+04  0.00000000000E+00 0.  1.
         13    1    4    4    0    0  0.38683789736E+03  0.13883886564E+03  0.32880952998E+03  0.52634162634E+03  0.10566000000E+00 0. -1.
         -4    1    4    4    0  502 -0.20965584975E+03  0.17344738485E+02 -0.45631330564E+03  0.50247213674E+03  0.00000000000E+00 0. -1.
<mgrwt>
<rscale>  2 0.10247874E+04</rscale>
<asrwt>0</asrwt>
<pdfrwt beam="1">  1       21 0.94168304E-01 0.10260924E+04</pdfrwt>
<pdfrwt beam="2">  1       21 0.33978428E+00 0.10260924E+04</pdfrwt>
<totfact> 0.64845459E+00</totfact>
</mgrwt>
</event>
<event>
 8    1  0.7631533E-006  0.1041627E+04  0.7818608E-02  0.8737079E-01
         21   -1    0    0  503  502  0.00000000000E+00  0.00000000000E+00  0.10386561684E+04  0.10386561684E+04  0.00000000000E+00 0.  1.
         21   -1    0    0  501  503 -0.00000000000E+00 -0.00000000000E+00 -0.11606196303E+04  0.11606196303E+04  0.00000000000E+00 0.  1.
    9000010    2    1    2  501    0  0.22002105650E+03 -0.16494829163E+03 -0.41302723611E+03  0.11205263492E+04  0.10046743738E+04 0.  0.
   -9000010    2    1    2    0  502 -0.22002105650E+03  0.16494829163E+03  0.29106377425E+03  0.10787494495E+04  0.10016811118E+04 0.  0.
        -13    1    3    3    0    0 -0.96374400899E+02 -0.52190443136E+03 -0.75227569424E+02  0.53603307640E+03  0.10566000000E+00 0.  1.
          4    1    3    3  501    0  0.31639545740E+03  0.35695613974E+03 -0.33779966669E+03  0.58449327282E+03  0.00000000000E+00 0.  1.
         13    1    4    4    0    0  0.27988450001E+03 -0.11783403797E+03  0.39172603184E+03  0.49565057151E+03  0.10566000000E+00 0. -1.
         -4    1    4    4    0  502 -0.49990555651E+03  0.28278232960E+03 -0.10066225759E+03  0.58309887795E+03  0.00000000000E+00 0. -1.
<mgrwt>
<rscale>  2 0.10409050E+04</rscale>
<asrwt>0</asrwt>
<pdfrwt beam="1">  1       21 0.15979326E+00 0.10416275E+04</pdfrwt>
<pdfrwt beam="2">  1       21 0.17855687E+00 0.10416275E+04</pdfrwt>
<totfact> 0.22004308E+01</totfact>
</mgrwt>
</event>
<event>
 8    1  0.7631533E-006  0.1095918E+04  0.7818608E-02  0.8701839E-01
         21   -1    0    0  501  502  0.00000000000E+00  0.00000000000E+00  0.12222632741E+04  0.12222632741E+04  0.00000000000E+00 0. -1.
         21   -1    0    0  502  503 -0.00000000000E+00 -0.00000000000E+00 -0.17570964369E+04  0.17570964369E+04  0.00000000000E+00 0. -1.
    9000010    2    1    2  501    0  0.79050749615E+02  0.14195060165E+02  0.74964832603E+03  0.13277833992E+04  0.10929710068E+04 0.  0.
   -9000010    2    1    2    0  503 -0.79050749615E+02 -0.14195060165E+02 -0.12844814888E+04  0.16515763118E+04  0.10350657456E+04 0.  0.
        -13    1    3    3    0    0 -0.18671280127E+03  0.40256978403E+03  0.12991583909E+01  0.44376322532E+03  0.10566000000E+00 0.  1.
          4    1    3    3  501    0  0.26576355088E+03 -0.38837472387E+03  0.74834916764E+03  0.88402017388E+03  0.00000000000E+00 0.  1.
         13    1    4    4    0    0 -0.40989665752E+03  0.34537854875E+03 -0.80400992174E+03  0.96629890676E+03  0.10566000000E+00 0. -1.
         -4    1    4    4    0  503  0.33084590791E+03 -0.35957360892E+03 -0.48047156709E+03  0.68527740499E+03  0.00000000000E+00 0. -1.
<mgrwt>
<rscale>  2 0.10811884E+04</rscale>
<asrwt>0</asrwt>
<pdfrwt beam="1">  1       21 0.18804050E+00 0.10959179E+04</pdfrwt>
<pdfrwt beam="2">  1       21 0.27032253E+00 0.10959179E+04</pdfrwt>
<totfact> 0.25646211E+00</totfact>
</mgrwt>
</event>
<event>
 8    1  0.7631533E-006  0.1061677E+04  0.7818608E-02  0.8722237E-01
         21   -1    0    0  501  502  0.00000000000E+00  0.00000000000E+00  0.21663648277E+04  0.21663648277E+04  0.00000000000E+00 0.  1.
         21   -1    0    0  502  503 -0.00000000000E+00 -0.00000000000E+00 -0.56745238267E+03  0.56745238267E+03  0.00000000000E+00 0.  1.
    9000010    2    1    2  501    0 -0.29012078331E+03  0.17871835733E+03  0.12304376324E+04  0.16251569128E+04  0.10055087786E+04 0.  0.
   -9000010    2    1    2    0  503  0.29012078331E+03 -0.17871835733E+03  0.36847481267E+03  0.11086602976E+04  0.98855634529E+03 0.  0.
        -13    1    3    3    0    0  0.32692874546E+03  0.28718484041E+03  0.50015546564E+03  0.66295779514E+03  0.10566000000E+00 0.  1.
          4    1    3    3  501    0 -0.61704952877E+03 -0.10846648308E+03  0.73028216673E+03  0.96219911762E+03  0.00000000000E+00 0.  1.
         13    1    4    4    0    0  0.60117174075E+03  0.57422242168E+02  0.38771590455E+03  0.71765479834E+03  0.10566000000E+00 0. -1.
         -4    1    4    4    0  503 -0.31105095744E+03 -0.23614059950E+03 -0.19241091884E+02  0.39100549929E+03  0.00000000000E+00 0. -1.
<mgrwt>
<rscale>  2 0.10576438E+04</rscale>
<asrwt>0</asrwt>
<pdfrwt beam="1">  1       21 0.33328689E+00 0.10616771E+04</pdfrwt>
<pdfrwt beam="2">  1       21 0.87300368E-01 0.10616771E+04</pdfrwt>
<totfact> 0.86724427E+00</totfact>
</mgrwt>
</event>
<event>
 8    1  0.7631533E-006  0.1000939E+04  0.7818608E-02  0.8786467E-01
         21   -1    0    0  503  502  0.00000000000E+00  0.00000000000E+00  0.46509005490E+03  0.46509005490E+03  0.00000000000E+00 0. -1.
         21   -1    0    0  501  503 -0.00000000000E+00 -0.00000000000E+00 -0.25560011923E+04  0.25560011923E+04  0.00000000000E+00 0. -1.
    9000010    2    1    2  501    0  0.14213033419E+03 -0.22759891610E+03 -0.17453451845E+04  0.20119914547E+04  0.96430156174E+03 0.  0.
   -9000010    2    1    2    0  502 -0.14213033419E+03  0.22759891610E+03 -0.34556595284E+03  0.10090997925E+04  0.90932077122E+03 0.  0.
        -13    1    3    3    0    0  0.39197143995E+03  0.21131135842E+03 -0.50798058759E+03  0.67552822922E+03  0.10566000000E+00 0.  1.
          4    1    3    3  501    0 -0.24984110576E+03 -0.43891027453E+03 -0.12373645969E+04  0.13364632254E+04  0.00000000000E+00 0.  1.
         13    1    4    4    0    0 -0.45790802097E+03 -0.79254463998E+02 -0.26752573967E+02  0.46548548540E+03  0.10566000000E+00 0. -1.
         -4    1    4    4    0  502  0.31577768678E+03  0.30685338010E+03 -0.31881337887E+03  0.54361430711E+03  0.00000000000E+00 0. -1.
<mgrwt>
<rscale>  2 0.98745602E+03</rscale>
<asrwt>0</asrwt>
<pdfrwt beam="1">  1       21 0.71552317E-01 0.10009395E+04</pdfrwt>
<pdfrwt beam="2">  1       21 0.39323095E+00 0.10009395E+04</pdfrwt>
<totfact> 0.54312375E+00</totfact>
</mgrwt>
</event>
<event>
 8    1  0.7631533E-006  0.1025604E+04  0.7818608E-02  0.8753204E-01
         21   -1    0    0  503  502  0.00000000000E+00  0.00000000000E+00  0.82463678721E+03  0.82463678721E+03  0.00000000000E+00 0. -1.
         21   -1    0    0  501  503 -0.00000000000E+00 -0.00000000000E+00 -0.19982912917E+04  0.19982912917E+04  0.00000000000E+00 0. -1.
    9000010    2    1    2  501    0 -0.24489079618E+03 -0.10887964458E+03 -0.14411454343E+04  0.17630153229E+04  0.97953896644E+03 0.  0.
   -9000010    2    1    2    0  502  0.24489079618E+03  0.10887964458E+03  0.26749092981E+03  0.10599127560E+04  0.98996837012E+03 0.  0.
        -13    1    3    3    0    0  0.46204898937E+02 -0.50196720223E+03 -0.54719221900E+03  0.74399280944E+03  0.10566000000E+00 0.  1.
          4    1    3    3  501    0 -0.29109569511E+03  0.39308755765E+03 -0.89395321534E+03  0.10190225134E+04  0.00000000000E+00 0.  1.
         13    1    4    4    0    0  0.46751942379E+03  0.34679148123E+03  0.40198962973E+03  0.70741389345E+03  0.10566000000E+00 0. -1.
         -4    1    4    4    0  502 -0.22262862761E+03 -0.23791183665E+03 -0.13449869992E+03  0.35249886259E+03  0.00000000000E+00 0. -1.
<mgrwt>
<rscale>  2 0.10230789E+04</rscale>
<asrwt>0</asrwt>
<pdfrwt beam="1">  1       21 0.12686720E+00 0.10256040E+04</pdfrwt>
<pdfrwt beam="2">  1       21 0.30742943E+00 0.10256040E+04</pdfrwt>
<totfact> 0.48901198E+00</totfact>
</mgrwt>
</event>
<event>
 8    1  0.7631533E-006  0.1013161E+04  0.7818608E-02  0.8828221E-01
         21   -1    0    0  503  502  0.00000000000E+00  0.00000000000E+00  0.15318584368E+04  0.15318584368E+04  0.00000000000E+00 0.  1.
         21   -1    0    0  501  503 -0.00000000000E+00 -0.00000000000E+00 -0.11203218757E+04  0.11203218757E+04  0.00000000000E+00 0.  1.
    9000010    2    1    2  501    0 -0.10421720179E+03 -0.85104905150E+02  0.11879368713E+04  0.15613102200E+04  0.10041869959E+04 0.  0.
   -9000010    2    1    2    0  502  0.10421720179E+03  0.85104905150E+02 -0.77640031014E+03  0.10908700925E+04  0.75438454858E+03 0.  0.
        -13    1    3    3    0    0 -0.90960483578E+02  0.33227087854E+03  0.10748137269E+04  0.11286728069E+04  0.10566000000E+00 0.  1.
          4    1    3    3  501    0 -0.13256718214E+02 -0.41737578369E+03  0.11312314438E+03  0.43263741307E+03  0.00000000000E+00 0.  1.
         13    1    4    4    0    0 -0.46071896002E+02 -0.54219792398E+02  0.13720809475E+03  0.15455897876E+03  0.10566000000E+00 0. -1.
         -4    1    4    4    0  502  0.15028909779E+03  0.13932469755E+03 -0.91360840489E+03  0.93631111376E+03  0.00000000000E+00 0. -1.
<mgrwt>
<rscale>  2 0.94483762E+03</rscale>
<asrwt>0</asrwt>
<pdfrwt beam="1">  1       21 0.23567053E+00 0.10131612E+04</pdfrwt>
<pdfrwt beam="2">  1       21 0.17235721E+00 0.10131612E+04</pdfrwt>
<totfact> 0.62761619E+00</totfact>
</mgrwt>
</event>
<event>
 8    1  0.7631533E-006  0.1058024E+04  0.7818608E-02  0.8732065E-01
         21   -1    0    0  503  502  0.00000000000E+00  0.00000000000E+00  0.10187923397E+04  0.10187923397E+04  0.00000000000E+00 0.  1.
         21   -1    0    0  501  503 -0.00000000000E+00 -0.00000000000E+00 -0.10973575847E+04  0.10973575847E+04  0.00000000000E+00 0.  1.
    9000010    2    1    2  501    0 -0.33660707180E+03 -0.53784396385E+02  0.17595807220E+03  0.10279416059E+04  0.95368004066E+03 0.  0.
   -9000010    2    1    2    0  502  0.33660707180E+03  0.53784396385E+02 -0.25452331715E+03  0.10882083185E+04  0.10016077792E+04 0.  0.
        -13    1    3    3    0    0 -0.23729386250E+03 -0.36409448660E+03  0.43258989742E+03  0.61319426194E+03  0.10566000000E+00 0.  1.
          4    1    3    3  501    0 -0.99313209301E+02  0.31031009022E+03 -0.25663182523E+03  0.41474734400E+03  0.00000000000E+00 0.  1.
         13    1    4    4    0    0  0.46934164887E+03 -0.26767483047E+03  0.14410253823E+03  0.55919312488E+03  0.10566000000E+00 0. -1.
         -4    1    4    4    0  502 -0.13273457707E+03  0.32145922685E+03 -0.39862585538E+03  0.52901519359E+03  0.00000000000E+00 0. -1.
<mgrwt>
<rscale>  2 0.10465245E+04</rscale>
<asrwt>0</asrwt>
<pdfrwt beam="1">  1       21 0.15673728E+00 0.10580242E+04</pdfrwt>
<pdfrwt beam="2">  1       21 0.16882424E+00 0.10580242E+04</pdfrwt>
<totfact> 0.28069469E+01</totfact>
</mgrwt>
</event>
<event>
 8    1  0.7631533E-006  0.1023649E+04  0.7818608E-02  0.8754638E-01
         21   -1    0    0  503  502  0.00000000000E+00  0.00000000000E+00  0.94555091822E+03  0.94555091822E+03  0.00000000000E+00 0. -1.
         21   -1    0    0  501  503 -0.00000000000E+00 -0.00000000000E+00 -0.12337423886E+04  0.12337423886E+04  0.00000000000E+00 0. -1.
    9000010    2    1    2  501    0 -0.18251223976E+03 -0.46276879724E+02 -0.50367018467E+03  0.11332112196E+04  0.99751277990E+03 0.  0.
   -9000010    2    1    2    0  502  0.18251223976E+03  0.46276879724E+02  0.21547871428E+03  0.10460820872E+04  0.10061830796E+04 0.  0.
        -13    1    3    3    0    0  0.33942077020E+03 -0.56532499822E+02 -0.50510699711E+03  0.61117548419E+03  0.10566000000E+00 0.  1.
          4    1    3    3  501    0 -0.52193300996E+03  0.10255620098E+02  0.14368124455E+01  0.52203573542E+03  0.00000000000E+00 0.  1.
         13    1    4    4    0    0  0.55902496103E+03  0.21752639085E+03  0.54844805380E+02  0.60235753636E+03  0.10566000000E+00 0. -1.
         -4    1    4    4    0  502 -0.37651272127E+03 -0.17124951112E+03  0.16063390890E+03  0.44372455085E+03  0.00000000000E+00 0. -1.
<mgrwt>
<rscale>  2 0.10215117E+04</rscale>
<asrwt>0</asrwt>
<pdfrwt beam="1">  1       21 0.14546937E+00 0.10236487E+04</pdfrwt>
<pdfrwt beam="2">  1       21 0.18980652E+00 0.10236487E+04</pdfrwt>
<totfact> 0.23989221E+01</totfact>
</mgrwt>
</event>
<event>
 8    1  0.7631533E-006  0.1024677E+04  0.7818608E-02  0.8761773E-01
         21   -1    0    0  503  502  0.00000000000E+00  0.00000000000E+00  0.18551551570E+04  0.18551551570E+04  0.00000000000E+00 0. -1.
         21   -1    0    0  501  503 -0.00000000000E+00 -0.00000000000E+00 -0.55021014833E+03  0.55021014833E+03  0.00000000000E+00 0. -1.
    9000010    2    1    2  501    0 -0.97490974618E+02 -0.39162143437E+02  0.52367128562E+03  0.11507367859E+04  0.10192768865E+04 0.  0.
   -9000010    2    1    2    0  502  0.97490974618E+02  0.39162143437E+02  0.78127372309E+03  0.12546285195E+04  0.97604606852E+03 0.  0.
        -13    1    3    3    0    0  0.38039273350E+03  0.12384908417E+03  0.50662507079E+03  0.64552784670E+03  0.10566000000E+00 0.  1.
          4    1    3    3  501    0 -0.47788370812E+03 -0.16301122760E+03  0.17046214835E+02  0.50520893920E+03  0.00000000000E+00 0.  1.
         13    1    4    4    0    0  0.48221921370E+03  0.24969970399E+03  0.44030771178E+03  0.69911101011E+03  0.10566000000E+00 0. -1.
         -4    1    4    4    0  502 -0.38472823908E+03 -0.21053756055E+03  0.34096601130E+03  0.55551750937E+03  0.00000000000E+00 0. -1.
<mgrwt>
<rscale>  2 0.10137557E+04</rscale>
<asrwt>0</asrwt>
<pdfrwt beam="1">  1       21 0.28540848E+00 0.10246773E+04</pdfrwt>
<pdfrwt beam="2">  1       21 0.84647716E-01 0.10246773E+04</pdfrwt>
<totfact> 0.20573907E+01</totfact>
</mgrwt>
</event>
<event>
 8    1  0.7631533E-006  0.1018824E+04  0.7818608E-02  0.8761262E-01
         21   -1    0    0  503  502  0.00000000000E+00  0.00000000000E+00  0.62456005107E+03  0.62456005107E+03  0.00000000000E+00 0. -1.
         21   -1    0    0  501  503 -0.00000000000E+00 -0.00000000000E+00 -0.16455177850E+04  0.16455177850E+04  0.00000000000E+00 0. -1.
    9000010    2    1    2  501    0  0.62747777582E+02 -0.45918510559E+02 -0.60561520032E+03  0.11698456488E+04  0.99785934783E+03 0.  0.
   -9000010    2    1    2    0  502 -0.62747777582E+02  0.45918510559E+02 -0.41534253366E+03  0.11002321873E+04  0.10158521804E+04 0.  0.
        -13    1    3    3    0    0 -0.37445142211E+02 -0.23271007548E+03 -0.82902565040E+03  0.86188146406E+03  0.10566000000E+00 0.  1.
          4    1    3    3  501    0  0.10019291979E+03  0.18679156492E+03  0.22341045008E+03  0.30796418478E+03  0.00000000000E+00 0.  1.
         13    1    4    4    0    0 -0.53195960591E+02  0.51327065015E+03 -0.36072527436E+03  0.62960249781E+03  0.10566000000E+00 0. -1.
         -4    1    4    4    0  502 -0.95518169915E+01 -0.46735213959E+03 -0.54617259298E+02  0.47062968946E+03  0.00000000000E+00 0. -1.
<mgrwt>
<rscale>  2 0.10143088E+04</rscale>
<asrwt>0</asrwt>
<pdfrwt beam="1">  1       21 0.96086161E-01 0.10188236E+04</pdfrwt>
<pdfrwt beam="2">  1       21 0.25315658E+00 0.10188236E+04</pdfrwt>
<totfact> 0.25386477E+01</totfact>
</mgrwt>
</event>
<event>
 8    1  0.7631533E-006  0.1068756E+04  0.7818608E-02  0.8727261E-01
         21   -1    0    0  501  502  0.00000000000E+00  0.00000000000E+00  0.16892088749E+04  0.16892088749E+04  0.00000000000E+00 0. -1.
         21   -1    0    0  502  503 -0.00000000000E+00 -0.00000000000E+00 -0.72928851175E+03  0.72928851175E+03  0.00000000000E+00 0. -1.
    9000010    2    1    2  501    0 -0.34800179991E+03 -0.71750412477E+02  0.90067876084E+03  0.13481010159E+04  0.93803024708E+03 0.  0.
   -9000010    2    1    2    0  503  0.34800179991E+03  0.71750412477E+02  0.59241602268E+02  0.10703963707E+04  0.10079610352E+04 0.  0.
        -13    1    3    3    0    0 -0.34598183676E+03  0.39472725056E+03  0.57872162134E+03  0.78130132463E+03  0.10566000000E+00 0.  1.
          4    1    3    3  501    0 -0.20199631465E+01 -0.46647766303E+03  0.32195713950E+03  0.56679969128E+03  0.00000000000E+00 0.  1.
         13    1    4    4    0    0  0.25310797048E+03  0.53636598812E+03  0.51043244379E+01  0.59310891346E+03  0.10566000000E+00 0. -1.
         -4    1    4    4    0  503  0.94893829426E+02 -0.46461557564E+03  0.54137277830E+02  0.47728745724E+03  0.00000000000E+00 0. -1.
<mgrwt>
<rscale>  2 0.10519423E+04</rscale>
<asrwt>0</asrwt>
<pdfrwt beam="1">  1       21 0.25987829E+00 0.10687557E+04</pdfrwt>
<pdfrwt beam="2">  1       21 0.11219823E+00 0.10687557E+04</pdfrwt>
<totfact> 0.14877122E+01</totfact>
</mgrwt>
</event>
<event>
 8    1  0.7631533E-006  0.1157801E+04  0.7818608E-02  0.8639478E-01
         21   -1    0    0  501  502  0.00000000000E+00  0.00000000000E+00  0.82252272398E+03  0.82252272398E+03  0.00000000000E+00 0.  1.
         21   -1    0    0  502  503 -0.00000000000E+00 -0.00000000000E+00 -0.17206521027E+04  0.17206521027E+04  0.00000000000E+00 0.  1.
    9000010    2    1    2  501    0  0.15128297350E+03  0.58146245948E+03 -0.15132851196E+03  0.11654174240E+04  0.98707260305E+03 0.  0.
   -9000010    2    1    2    0  503 -0.15128297350E+03 -0.58146245948E+03 -0.74680086680E+03  0.13777574028E+04  0.98970641926E+03 0.  0.
        -13    1    3    3    0    0  0.10800633519E+03 -0.18736123888E+03  0.22176167253E+03  0.30975450415E+03  0.10566000000E+00 0.  1.
          4    1    3    3  501    0  0.43276638316E+02  0.76882369836E+03 -0.37309018448E+03  0.85566291981E+03  0.00000000000E+00 0.  1.
         13    1    4    4    0    0  0.66684591211E+02  0.16611424335E+03 -0.54455195980E+03  0.57321690888E+03  0.10566000000E+00 0. -1.
         -4    1    4    4    0  503 -0.21796756471E+03 -0.74757670283E+03 -0.20224890700E+03  0.80454049387E+03  0.00000000000E+00 0. -1.
<mgrwt>
<rscale>  2 0.11572383E+04</rscale>
<asrwt>0</asrwt>
<pdfrwt beam="1">  1       21 0.12654196E+00 0.11578013E+04</pdfrwt>
<pdfrwt beam="2">  1       21 0.26471571E+00 0.11578013E+04</pdfrwt>
<totfact> 0.96222133E+00</totfact>
</mgrwt>
</event>
<event>
 8    1  0.7631533E-006  0.1017304E+04  0.7818608E-02  0.8761876E-01
         21   -1    0    0  503  502  0.00000000000E+00  0.00000000000E+00  0.14577116220E+04  0.14577116220E+04  0.00000000000E+00 0.  1.
         21   -1    0    0  501  503 -0.00000000000E+00 -0.00000000000E+00 -0.74061179524E+03  0.74061179524E+03  0.00000000000E+00 0.  1.
    9000010    2    1    2  501    0  0.54513920228E+02 -0.60695515092E+02  0.10306614210E+03  0.10225112626E+04  0.10140270901E+04 0.  0.
   -9000010    2    1    2    0  502 -0.54513920228E+02  0.60695515092E+02  0.61403368470E+03  0.11758121547E+04  0.99942040414E+03 0.  0.
        -13    1    3    3    0    0  0.37914679519E+03 -0.22945430806E+03  0.36369057506E+03  0.57329958778E+03  0.10566000000E+00 0.  1.
          4    1    3    3  501    0 -0.32463287497E+03  0.16875879297E+03 -0.26062443296E+03  0.44921167479E+03  0.00000000000E+00 0.  1.
         13    1    4    4    0    0  0.65464949678E+02 -0.41289259601E+03  0.36920925593E+02  0.41967740157E+03  0.10566000000E+00 0. -1.
         -4    1    4    4    0  502 -0.11997886991E+03  0.47358811110E+03  0.57711275911E+03  0.75613475315E+03  0.00000000000E+00 0. -1.
<mgrwt>
<rscale>  2 0.10136442E+04</rscale>
<asrwt>0</asrwt>
<pdfrwt beam="1">  1       21 0.22426333E+00 0.10173036E+04</pdfrwt>
<pdfrwt beam="2">  1       21 0.11394028E+00 0.10173036E+04</pdfrwt>
<totfact> 0.26335385E+01</totfact>
</mgrwt>
</event>
<event>
 8    1  0.7631533E-006  0.1024919E+04  0.7818608E-02  0.8763887E-01
         21   -1    0    0  501  502  0.00000000000E+00  0.00000000000E+00  0.12085566770E+04  0.12085566770E+04  0.00000000000E+00 0. -1.
         21   -1    0    0  502  503 -0.00000000000E+00 -0.00000000000E+00 -0.11978377816E+04  0.11978377816E+04  0.00000000000E+00 0. -1.
    9000010    2    1    2  501    0  0.14463272411E+03 -0.41280925225E+01  0.67633969336E+03  0.11843017928E+04  0.96135305143E+03 0.  0.
   -9000010    2    1    2    0  503 -0.14463272411E+03  0.41280925225E+01 -0.66562079802E+03  0.12220926659E+04  0.10146545083E+04 0.  0.
        -13    1    3    3    0    0  0.21232688126E+03  0.45704535124E+03  0.39024844267E+03  0.63739078733E+03  0.10566000000E+00 0.  1.
          4    1    3    3  501    0 -0.67694157155E+02 -0.46117344377E+03  0.28609125069E+03  0.54691100544E+03  0.00000000000E+00 0.  1.
         13    1    4    4    0    0 -0.93453190558E+02 -0.25505509636E+03  0.18680208784E+03  0.32966897366E+03  0.10566000000E+00 0. -1.
         -4    1    4    4    0  503 -0.51179533548E+02  0.25918318889E+03 -0.85242288586E+03  0.89242369220E+03  0.00000000000E+00 0. -1.
<mgrwt>
<rscale>  2 0.10114723E+04</rscale>
<asrwt>0</asrwt>
<pdfrwt beam="1">  1       21 0.18593180E+00 0.10249192E+04</pdfrwt>
<pdfrwt beam="2">  1       21 0.18428274E+00 0.10249192E+04</pdfrwt>
<totfact> 0.12024721E+01</totfact>
</mgrwt>
</event>
<event>
 8    1  0.7631533E-006  0.1009581E+04  0.7818608E-02  0.8765647E-01
         21   -1    0    0  501  502  0.00000000000E+00  0.00000000000E+00  0.10731876170E+04  0.10731876170E+04  0.00000000000E+00 0. -1.
         21   -1    0    0  502  503 -0.00000000000E+00 -0.00000000000E+00 -0.18308956077E+04  0.18308956077E+04  0.00000000000E+00 0. -1.
    9000010    2    1    2  501    0  0.10189451921E+02 -0.17544153326E+03  0.62849412419E+03  0.11892042762E+04  0.99414203712E+03 0.  0.
   -9000010    2    1    2    0  503 -0.10189451921E+02  0.17544153326E+03 -0.13862021149E+04  0.17148789485E+04  0.99416796766E+03 0.  0.
        -13    1    3    3    0    0 -0.31404211796E+03  0.47463580024E+02  0.71850889478E+03  0.78557640387E+03  0.10566000000E+00 0.  1.
          4    1    3    3  501    0  0.32423156988E+03 -0.22290511328E+03 -0.90014770586E+02  0.40362787238E+03  0.00000000000E+00 0.  1.
         13    1    4    4    0    0  0.57363049810E+02  0.24613483343E+03 -0.15246104786E+04  0.15454158011E+04  0.10566000000E+00 0. -1.
         -4    1    4    4    0  503 -0.67552501731E+02 -0.70693300175E+02  0.13840836366E+03  0.16946314736E+03  0.00000000000E+00 0. -1.
<mgrwt>
<rscale>  2 0.10095745E+04</rscale>
<asrwt>0</asrwt>
<pdfrwt beam="1">  1       21 0.16510579E+00 0.10095809E+04</pdfrwt>
<pdfrwt beam="2">  1       21 0.28167625E+00 0.10095809E+04</pdfrwt>
<totfact> 0.33618047E+00</totfact>
</mgrwt>
</event>
<event>
 8    1  0.7631533E-006  0.1060758E+04  0.7818608E-02  0.8724455E-01
         21   -1    0    0  503  502  0.00000000000E+00  0.00000000000E+00  0.20366457062E+04  0.20366457062E+04  0.00000000000E+00 0.  1.
         21   -1    0    0  501  503 -0.00000000000E+00 -0.00000000000E+00 -0.81151902777E+03  0.81151902777E+03  0.00000000000E+00 0.  1.
    9000010    2    1    2  501    0 -0.12246561106E+03 -0.31136732085E+03 -0.20543117952E+03  0.10804675297E+04  0.10066085033E+04 0.  0.
   -9000010    2    1    2    0  502  0.12246561106E+03  0.31136732085E+03  0.14305578579E+04  0.17676972042E+04  0.98301077639E+03 0.  0.
        -13    1    3    3    0    0 -0.95391901488E+02 -0.67841286513E+03 -0.19491401915E+03  0.71227460749E+03  0.10566000000E+00 0.  1.
          4    1    3    3  501    0 -0.27073709570E+02  0.36704554428E+03 -0.10517160378E+02  0.36819292225E+03  0.00000000000E+00 0.  1.
         13    1    4    4    0    0 -0.22225936310E+03  0.34313128741E+03  0.13523405693E+04  0.14127856637E+04  0.10566000000E+00 0. -1.
         -4    1    4    4    0  502  0.34472497416E+03 -0.31763966562E+02  0.78217288637E+02  0.35491154056E+03  0.00000000000E+00 0. -1.
<mgrwt>
<rscale>  2 0.10551219E+04</rscale>
<asrwt>0</asrwt>
<pdfrwt beam="1">  1       21 0.31333011E+00 0.10607583E+04</pdfrwt>
<pdfrwt beam="2">  1       21 0.12484908E+00 0.10607583E+04</pdfrwt>
<totfact> 0.46128972E+00</totfact>
</mgrwt>
</event>
<event>
 8    1  0.7631533E-006  0.1056672E+04  0.7818608E-02  0.8726568E-01
         21   -1    0    0  503  502  0.00000000000E+00  0.00000000000E+00  0.12320606156E+04  0.12320606156E+04  0.00000000000E+00 0.  1.
         21   -1    0    0  501  503 -0.00000000000E+00 -0.00000000000E+00 -0.12302144519E+04  0.12302144519E+04  0.00000000000E+00 0.  1.
    9000010    2    1    2  501    0  0.17667574468E+03  0.23646206801E+03 -0.64378042737E+03  0.12373396104E+04  0.10146070394E+04 0.  0.
   -9000010    2    1    2    0  502 -0.17667574468E+03 -0.23646206801E+03  0.64562659108E+03  0.12249354571E+04  0.99825074536E+03 0.  0.
        -13    1    3    3    0    0 -0.41531997642E+03 -0.77057750352E+01 -0.27847161680E+03  0.50009650499E+03  0.10566000000E+00 0.  1.
          4    1    3    3  501    0  0.59199572110E+03  0.24416784304E+03 -0.36530881058E+03  0.73724310540E+03  0.00000000000E+00 0.  1.
         13    1    4    4    0    0 -0.43816153163E+03 -0.26997236920E+03 -0.13721298113E+02  0.51483870592E+03  0.10566000000E+00 0. -1.
         -4    1    4    4    0  502  0.26148578695E+03  0.33510301194E+02  0.65934788919E+03  0.71009675119E+03  0.00000000000E+00 0. -1.
<mgrwt>
<rscale>  2 0.10527263E+04</rscale>
<asrwt>0</asrwt>
<pdfrwt beam="1">  1       21 0.18954779E+00 0.10566722E+04</pdfrwt>
<pdfrwt beam="2">  1       21 0.18926376E+00 0.10566722E+04</pdfrwt>
<totfact> 0.10180262E+01</totfact>
</mgrwt>
</event>
<event>
 8    1  0.7631533E-006  0.1040564E+04  0.7818608E-02  0.8768608E-01
         21   -1    0    0  501  502  0.00000000000E+00  0.00000000000E+00  0.34312977396E+04  0.34312977396E+04  0.00000000000E+00 0.  1.
         21   -1    0    0  502  503 -0.00000000000E+00 -0.00000000000E+00 -0.39632658793E+03  0.39632658793E+03  0.00000000000E+00 0.  1.
    9000010    2    1    2  501    0  0.18112558407E+03 -0.24995031646E+01  0.24936812948E+04  0.26546930118E+04  0.89226445750E+03 0.  0.
   -9000010    2    1    2    0  503 -0.18112558407E+03  0.24995031646E+01  0.54128985685E+03  0.11729313157E+04  0.10246757719E+04 0.  0.
        -13    1    3    3    0    0  0.12325127099E+03  0.44352520528E+03  0.12991626918E+04  0.13783066402E+04  0.10566000000E+00 0.  1.
          4    1    3    3  501    0  0.57874313074E+02 -0.44602470844E+03  0.11945186030E+04  0.12763863716E+04  0.00000000000E+00 0.  1.
         13    1    4    4    0    0  0.12734519188E+03  0.38932839349E+03  0.54047888934E+03  0.67816726319E+03  0.10566000000E+00 0. -1.
         -4    1    4    4    0  503 -0.30847077595E+03 -0.38682889033E+03  0.81096751189E+00  0.49476405253E+03  0.00000000000E+00 0. -1.
<mgrwt>
<rscale>  2 0.10063928E+04</rscale>
<asrwt>0</asrwt>
<pdfrwt beam="1">  1       21 0.52789194E+00 0.10405639E+04</pdfrwt>
<pdfrwt beam="2">  1       21 0.60973323E-01 0.10405639E+04</pdfrwt>
<totfact> 0.90600507E-01</totfact>
</mgrwt>
</event>
<event>
 8    1  0.7631533E-006  0.1086746E+04  0.7818608E-02  0.8711586E-01
         21   -1    0    0  501  502  0.00000000000E+00  0.00000000000E+00  0.13385917760E+04  0.13385917760E+04  0.00000000000E+00 0.  1.
         21   -1    0    0  502  503 -0.00000000000E+00 -0.00000000000E+00 -0.10993877309E+04  0.10993877309E+04  0.00000000000E+00 0.  1.
    9000010    2    1    2  501    0  0.48452386392E+02 -0.26755189647E+03  0.72615056175E+03  0.13070241061E+04  0.10521814124E+04 0.  0.
   -9000010    2    1    2    0  503 -0.48452386392E+02  0.26755189647E+03 -0.48694651663E+03  0.11309554009E+04  0.98387578366E+03 0.  0.
        -13    1    3    3    0    0 -0.48259082097E+03 -0.15623337697E+03  0.18288661738E+03  0.53921266170E+03  0.10566000000E+00 0.  1.
          4    1    3    3  501    0  0.53104320736E+03 -0.11131851950E+03  0.54326394438E+03  0.76781144438E+03  0.00000000000E+00 0.  1.
         13    1    4    4    0    0  0.33113695396E+03  0.46734746876E+03 -0.38472401557E+03  0.68998399848E+03  0.10566000000E+00 0. -1.
         -4    1    4    4    0  503 -0.37958934035E+03 -0.19979557230E+03 -0.10222250105E+03  0.44097140240E+03  0.00000000000E+00 0. -1.
<mgrwt>
<rscale>  2 0.10698592E+04</rscale>
<asrwt>0</asrwt>
<pdfrwt beam="1">  1       21 0.20593720E+00 0.10867462E+04</pdfrwt>
<pdfrwt beam="2">  1       21 0.16913657E+00 0.10867462E+04</pdfrwt>
<totfact> 0.10989815E+01</totfact>
</mgrwt>
</event>
<event>
 8    1  0.7631533E-006  0.1128828E+04  0.7818608E-02  0.8669100E-01
         21   -1    0    0  501  502  0.00000000000E+00  0.00000000000E+00  0.99888926355E+03  0.99888926355E+03  0.00000000000E+00 0.  1.
         21   -1    0    0  502  503 -0.00000000000E+00 -0.00000000000E+00 -0.21036226843E+04  0.21036226843E+04  0.00000000000E+00 0.  1.
    9000010    2    1    2  501    0  0.25904203764E+03 -0.24432659432E+03  0.43776791904E+03  0.12107409735E+04  0.10711931161E+04 0.  0.
   -9000010    2    1    2    0  503 -0.25904203764E+03  0.24432659432E+03 -0.15425013397E+04  0.18917709743E+04  0.10357068959E+04 0.  0.
        -13    1    3    3    0    0 -0.34945300725E+02 -0.45998867251E+03 -0.17853976475E+03  0.49465868197E+03  0.10566000000E+00 0.  1.
          4    1    3    3  501    0  0.29398733836E+03  0.21566207819E+03  0.61630768380E+03  0.71608229150E+03  0.00000000000E+00 0.  1.
         13    1    4    4    0    0 -0.11728954682E+02 -0.35827880100E+03 -0.93382207071E+03  0.10002624348E+04  0.10566000000E+00 0. -1.
         -4    1    4    4    0  503 -0.24731308296E+03  0.60260539532E+03 -0.60867926904E+03  0.89150853952E+03  0.00000000000E+00 0. -1.
<mgrwt>
<rscale>  2 0.11203283E+04</rscale>
<asrwt>0</asrwt>
<pdfrwt beam="1">  1       21 0.15367527E+00 0.11288281E+04</pdfrwt>
<pdfrwt beam="2">  1       21 0.32363425E+00 0.11288281E+04</pdfrwt>
<totfact> 0.20708280E+00</totfact>
</mgrwt>
</event>
<event>
 8    1  0.7631533E-006  0.1040328E+04  0.7818608E-02  0.8774871E-01
         21   -1    0    0  503  502  0.00000000000E+00  0.00000000000E+00  0.11861887339E+04  0.11861887339E+04  0.00000000000E+00 0.  1.
         21   -1    0    0  501  503 -0.00000000000E+00 -0.00000000000E+00 -0.80904110077E+03  0.80904110077E+03  0.00000000000E+00 0.  1.
    9000010    2    1    2  501    0 -0.23726697881E+03  0.97558507662E+02 -0.44861672290E+01  0.88711088241E+03  0.84919509557E+03 0.  0.
   -9000010    2    1    2    0  502  0.23726697881E+03 -0.97558507662E+02  0.38163380033E+03  0.11081189522E+04  0.10082013554E+04 0.  0.
        -13    1    3    3    0    0 -0.79917662430E+02  0.75923886868E+02 -0.42423211022E+03  0.43831970509E+03  0.10566000000E+00 0.  1.
          4    1    3    3  501    0 -0.15734931638E+03  0.21634620794E+02  0.41974594299E+03  0.44879117732E+03  0.00000000000E+00 0.  1.
         13    1    4    4    0    0  0.16232419477E+03  0.26920482793E+03 -0.23104482709E+03  0.39013088429E+03  0.10566000000E+00 0. -1.
         -4    1    4    4    0  502  0.74942784040E+02 -0.36676333559E+03  0.61267862741E+03  0.71798806794E+03  0.00000000000E+00 0. -1.
<mgrwt>
<rscale>  2 0.99970287E+03</rscale>
<asrwt>0</asrwt>
<pdfrwt beam="1">  1       21 0.18249057E+00 0.10403284E+04</pdfrwt>
<pdfrwt beam="2">  1       21 0.12446786E+00 0.10403284E+04</pdfrwt>
<totfact> 0.43233920E+01</totfact>
</mgrwt>
</event>
<event>
 8    1  0.7631533E-006  0.1023657E+04  0.7818608E-02  0.8755001E-01
         21   -1    0    0  503  502  0.00000000000E+00  0.00000000000E+00  0.25985049968E+04  0.25985049968E+04  0.00000000000E+00 0.  1.
         21   -1    0    0  501  503 -0.00000000000E+00 -0.00000000000E+00 -0.47796253917E+03  0.47796253917E+03  0.00000000000E+00 0.  1.
    9000010    2    1    2  501    0 -0.37915976833E+02  0.19272229794E+03  0.16887832606E+04  0.19748069185E+04  0.10046362319E+04 0.  0.
   -9000010    2    1    2    0  502  0.37915976833E+02 -0.19272229794E+03  0.43175919698E+03  0.11016606174E+04  0.99431413871E+03 0.  0.
        -13    1    3    3    0    0 -0.10074724671E+03 -0.21914043985E+03  0.14967399073E+04  0.15160484496E+04  0.10566000000E+00 0.  1.
          4    1    3    3  501    0  0.62831269878E+02  0.41186273779E+03  0.19204335327E+03  0.45875846890E+03  0.00000000000E+00 0.  1.
         13    1    4    4    0    0 -0.26029950894E+03 -0.50074599276E+03  0.35325266090E+03  0.66580014811E+03  0.10566000000E+00 0. -1.
         -4    1    4    4    0  502  0.29821548578E+03  0.30802369482E+03  0.78506536075E+02  0.43586046934E+03  0.00000000000E+00 0. -1.
<mgrwt>
<rscale>  2 0.10211154E+04</rscale>
<asrwt>0</asrwt>
<pdfrwt beam="1">  1       21 0.39976999E+00 0.10236569E+04</pdfrwt>
<pdfrwt beam="2">  1       21 0.73532700E-01 0.10236569E+04</pdfrwt>
<totfact> 0.45593168E+00</totfact>
</mgrwt>
</event>
<event>
 8    1  0.7631533E-006  0.1012497E+04  0.7818608E-02  0.8768200E-01
         21   -1    0    0  503  502  0.00000000000E+00  0.00000000000E+00  0.83399427775E+03  0.83399427775E+03  0.00000000000E+00 0.  1.
         21   -1    0    0  501  503 -0.00000000000E+00 -0.00000000000E+00 -0.13127875183E+04  0.13127875183E+04  0.00000000000E+00 0.  1.
    9000010    2    1    2  501    0 -0.29280615112E+02  0.69562422426E+02 -0.55355867994E+03  0.11539396171E+04  0.10096797228E+04 0.  0.
   -9000010    2    1    2    0  502  0.29280615112E+02 -0.69562422426E+02  0.74765439435E+02  0.99284217892E+03  0.98714205476E+03 0.  0.
        -13    1    3    3    0    0  0.45204945060E+03  0.15100286830E+03 -0.44880093327E+03  0.65465476466E+03  0.10566000000E+00 0.  1.
          4    1    3    3  501    0 -0.48133006571E+03 -0.81440445871E+02 -0.10475774667E+03  0.49928485243E+03  0.00000000000E+00 0.  1.
         13    1    4    4    0    0  0.43460876491E+03  0.21318176211E+03  0.11323611101E+03  0.49714552220E+03  0.10566000000E+00 0. -1.
         -4    1    4    4    0  502 -0.40532814980E+03 -0.28274418454E+03 -0.38470671579E+02  0.49569665672E+03  0.00000000000E+00 0. -1.
<mgrwt>
<rscale>  2 0.10068309E+04</rscale>
<asrwt>0</asrwt>
<pdfrwt beam="1">  1       21 0.12830681E+00 0.10124966E+04</pdfrwt>
<pdfrwt beam="2">  1       21 0.20196731E+00 0.10124966E+04</pdfrwt>
<totfact> 0.27942198E+01</totfact>
</mgrwt>
</event>
<event>
 8    1  0.7631533E-006  0.1036738E+04  0.7818608E-02  0.8744131E-01
         21   -1    0    0  503  502  0.00000000000E+00  0.00000000000E+00  0.85723412880E+03  0.85723412880E+03  0.00000000000E+00 0.  1.
         21   -1    0    0  501  503 -0.00000000000E+00 -0.00000000000E+00 -0.17604558980E+04  0.17604558980E+04  0.00000000000E+00 0.  1.
    9000010    2    1    2  501    0  0.10399341087E+03 -0.20947293861E+03 -0.11680868813E+04  0.15618110132E+04  0.10100164044E+04 0.  0.
   -9000010    2    1    2    0  502 -0.10399341087E+03  0.20947293861E+03  0.26486511208E+03  0.10558790137E+04  0.99500423233E+03 0.  0.
        -13    1    3    3    0    0 -0.24105460854E+03 -0.48273361916E+03 -0.89120285103E+03  0.10418164926E+04  0.10566000000E+00 0.  1.
          4    1    3    3  501    0  0.34504801941E+03  0.27326068055E+03 -0.27688403027E+03  0.51999452060E+03  0.00000000000E+00 0.  1.
         13    1    4    4    0    0 -0.27553259909E+03 -0.22545319699E+03 -0.19003470710E+03  0.40355985710E+03  0.10566000000E+00 0. -1.
         -4    1    4    4    0  502  0.17153918822E+03  0.43492613560E+03  0.45489981918E+03  0.65231915656E+03  0.00000000000E+00 0. -1.
<mgrwt>
<rscale>  2 0.10330641E+04</rscale>
<asrwt>0</asrwt>
<pdfrwt beam="1">  1       21 0.13188217E+00 0.10367385E+04</pdfrwt>
<pdfrwt beam="2">  1       21 0.27083937E+00 0.10367385E+04</pdfrwt>
<totfact> 0.79333907E+00</totfact>
</mgrwt>
</event>
<event>
 8    1  0.7631533E-006  0.1024870E+04  0.7818608E-02  0.8778013E-01
         21   -1    0    0  501  502  0.00000000000E+00  0.00000000000E+00  0.55258554389E+03  0.55258554389E+03  0.00000000000E+00 0.  1.
         21   -1    0    0  502  503 -0.00000000000E+00 -0.00000000000E+00 -0.17370916668E+04  0.17370916668E+04  0.00000000000E+00 0.  1.
    9000010    2    1    2  501    0 -0.10606350117E+03 -0.14636399233E+03 -0.71868321110E+03  0.11639112693E+04  0.89750320356E+03 0.  0.
   -9000010    2    1    2    0  503  0.10606350117E+03  0.14636399233E+03 -0.46582291182E+03  0.11257659414E+04  0.10088042848E+04 0.  0.
        -13    1    3    3    0    0 -0.40722731099E+03  0.46912671594E+02 -0.59986059401E+02  0.41428639859E+03  0.10566000000E+00 0.  1.
          4    1    3    3  501    0  0.30116380982E+03 -0.19327666392E+03 -0.65869715170E+03  0.74962487073E+03  0.00000000000E+00 0.  1.
         13    1    4    4    0    0  0.16049823498E+02 -0.40924489039E+03 -0.37563244150E+03  0.55573259704E+03  0.10566000000E+00 0. -1.
         -4    1    4    4    0  503  0.90013677670E+02  0.55560888272E+03 -0.90190470323E+02  0.57003334434E+03  0.00000000000E+00 0. -1.
<mgrwt>
<rscale>  2 0.99636603E+03</rscale>
<asrwt>0</asrwt>
<pdfrwt beam="1">  1       21 0.85013161E-01 0.10248697E+04</pdfrwt>
<pdfrwt beam="2">  1       21 0.26724487E+00 0.10248697E+04</pdfrwt>
<totfact> 0.27432282E+01</totfact>
</mgrwt>
</event>
<event>
 8    1  0.7631533E-006  0.1023062E+04  0.7818608E-02  0.8754990E-01
         21   -1    0    0  501  502  0.00000000000E+00  0.00000000000E+00  0.18274524836E+04  0.18274524836E+04  0.00000000000E+00 0.  1.
         21   -1    0    0  502  503 -0.00000000000E+00 -0.00000000000E+00 -0.57039082217E+03  0.57039082217E+03  0.00000000000E+00 0.  1.
    9000010    2    1    2  501    0 -0.57869206464E+01  0.20240329935E+03  0.69645903140E+03  0.12312535270E+04  0.99495199949E+03 0.  0.
   -9000010    2    1    2    0  503  0.57869206464E+01 -0.20240329935E+03  0.56060263000E+03  0.11665897787E+04  0.10028239223E+04 0.  0.
        -13    1    3    3    0    0  0.26476342112E+03  0.72075793673E+02  0.85055441773E+03  0.89372110744E+03  0.10566000000E+00 0.  1.
          4    1    3    3  501    0 -0.27055034177E+03  0.13032750568E+03 -0.15409538633E+03  0.33753241956E+03  0.00000000000E+00 0.  1.
         13    1    4    4    0    0 -0.19915281234E+03 -0.39493226265E+03 -0.95741629680E+02  0.45254812513E+03  0.10566000000E+00 0. -1.
         -4    1    4    4    0  503  0.20493973298E+03  0.19252896330E+03  0.65634425968E+03  0.71404165360E+03  0.00000000000E+00 0. -1.
<mgrwt>
<rscale>  2 0.10211280E+04</rscale>
<asrwt>0</asrwt>
<pdfrwt beam="1">  1       21 0.28114653E+00 0.10230623E+04</pdfrwt>
<pdfrwt beam="2">  1       21 0.87752435E-01 0.10230623E+04</pdfrwt>
<totfact> 0.20143594E+01</totfact>
</mgrwt>
</event>
<event>
 8    1  0.7631533E-006  0.1023104E+04  0.7818608E-02  0.8788965E-01
         21   -1    0    0  503  502  0.00000000000E+00  0.00000000000E+00  0.21189894670E+04  0.21189894670E+04  0.00000000000E+00 0.  1.
         21   -1    0    0  501  503 -0.00000000000E+00 -0.00000000000E+00 -0.49275651248E+03  0.49275651248E+03  0.00000000000E+00 0.  1.
    9000010    2    1    2  501    0  0.98813424586E+02  0.13047859206E+03  0.13439658719E+04  0.16890785491E+04  0.10099273856E+04 0.  0.
   -9000010    2    1    2    0  502 -0.98813424586E+02 -0.13047859206E+03  0.28226708264E+03  0.92266743041E+03  0.86304792760E+03 0.  0.
        -13    1    3    3    0    0  0.40142751186E+03 -0.81244792083E+02  0.12392757852E+04  0.13052008453E+04  0.10566000000E+00 0.  1.
          4    1    3    3  501    0 -0.30261408728E+03  0.21172338415E+03  0.10469008665E+03  0.38387770378E+03  0.00000000000E+00 0.  1.
         13    1    4    4    0    0 -0.36348463078E+03 -0.16009884391E+03 -0.14194572829E+03  0.42178349609E+03  0.10566000000E+00 0. -1.
         -4    1    4    4    0  502  0.26467120619E+03  0.29620251846E+02  0.42421281093E+03  0.50088393432E+03  0.00000000000E+00 0. -1.
<mgrwt>
<rscale>  2 0.98484244E+03</rscale>
<asrwt>0</asrwt>
<pdfrwt beam="1">  1       21 0.32599838E+00 0.10231041E+04</pdfrwt>
<pdfrwt beam="2">  1       21 0.75808695E-01 0.10231041E+04</pdfrwt>
<totfact> 0.13941054E+01</totfact>
</mgrwt>
</event>
<event>
 8    1  0.7631533E-006  0.1011433E+04  0.7818608E-02  0.8764880E-01
         21   -1    0    0  501  502  0.00000000000E+00  0.00000000000E+00  0.21037549861E+04  0.21037549861E+04  0.00000000000E+00 0. -1.
         21   -1    0    0  502  503 -0.00000000000E+00 -0.00000000000E+00 -0.49548691277E+03  0.49548691277E+03  0.00000000000E+00 0. -1.
    9000010    2    1    2  501    0 -0.61905250424E+02 -0.12156267026E+03  0.10010763977E+04  0.14230776793E+04  0.10021907924E+04 0.  0.
   -9000010    2    1    2    0  503  0.61905250424E+02  0.12156267026E+03  0.60719167555E+03  0.11761642195E+04  0.99803346519E+03 0.  0.
        -13    1    3    3    0    0 -0.43133876860E+03  0.22275494884E+03  0.63514408347E+03  0.79942536766E+03  0.10566000000E+00 0.  1.
          4    1    3    3  501    0  0.36943351817E+03 -0.34431761910E+03  0.36593231427E+03  0.62365231163E+03  0.00000000000E+00 0.  1.
         13    1    4    4    0    0 -0.75040268037E+02  0.54905587083E+03  0.38892584164E+03  0.67702046688E+03  0.10566000000E+00 0. -1.
         -4    1    4    4    0  503  0.13694551846E+03 -0.42749320057E+03  0.21826583391E+03  0.49914375265E+03  0.00000000000E+00 0. -1.
<mgrwt>
<rscale>  2 0.10104013E+04</rscale>
<asrwt>0</asrwt>
<pdfrwt beam="1">  1       21 0.32365461E+00 0.10114327E+04</pdfrwt>
<pdfrwt beam="2">  1       21 0.76228757E-01 0.10114327E+04</pdfrwt>
<totfact> 0.14326328E+01</totfact>
</mgrwt>
</event>
<event>
 8    1  0.7631533E-006  0.1057609E+04  0.7818608E-02  0.8723234E-01
         21   -1    0    0  503  502  0.00000000000E+00  0.00000000000E+00  0.15968990379E+04  0.15968990379E+04  0.00000000000E+00 0. -1.
         21   -1    0    0  501  503 -0.00000000000E+00 -0.00000000000E+00 -0.75051953854E+03  0.75051953854E+03  0.00000000000E+00 0. -1.
    9000010    2    1    2  501    0 -0.25463767759E+03  0.52442341576E+02  0.11215871471E+03  0.10635394774E+04  0.10251566205E+04 0.  0.
   -9000010    2    1    2    0  502  0.25463767759E+03 -0.52442341576E+02  0.73422078470E+03  0.12838790991E+04  0.10206247275E+04 0.  0.
        -13    1    3    3    0    0  0.32825751496E+03  0.15155360111E+03  0.27038279985E+03  0.45147354270E+03  0.10566000000E+00 0.  1.
          4    1    3    3  501    0 -0.58289519255E+03 -0.99111259531E+02 -0.15822408515E+03  0.61206593467E+03  0.00000000000E+00 0.  1.
         13    1    4    4    0    0 -0.18600241019E+03 -0.43200755032E+03  0.35997303482E+03  0.59229048371E+03  0.10566000000E+00 0. -1.
         -4    1    4    4    0  502  0.44064008778E+03  0.37956520875E+03  0.37424774988E+03  0.69158861539E+03  0.00000000000E+00 0. -1.
<mgrwt>
<rscale>  2 0.10565092E+04</rscale>
<asrwt>0</asrwt>
<pdfrwt beam="1">  1       21 0.24567678E+00 0.10576089E+04</pdfrwt>
<pdfrwt beam="2">  1       21 0.11546454E+00 0.10576089E+04</pdfrwt>
<totfact> 0.17477867E+01</totfact>
</mgrwt>
</event>
<event>
 8    1  0.7631533E-006  0.1072929E+04  0.7818608E-02  0.8708963E-01
         21   -1    0    0  501  502  0.00000000000E+00  0.00000000000E+00  0.50153942089E+03  0.50153942089E+03  0.00000000000E+00 0.  1.
         21   -1    0    0  502  503 -0.00000000000E+00 -0.00000000000E+00 -0.23538524527E+04  0.23538524527E+04  0.00000000000E+00 0.  1.
    9000010    2    1    2  501    0  0.30816351953E+03  0.19292141926E+03 -0.70031610419E+03  0.12811384053E+04  0.10093015104E+04 0.  0.
   -9000010    2    1    2    0  503 -0.30816351953E+03 -0.19292141926E+03 -0.11519969276E+04  0.15742534683E+04  0.10094521447E+04 0.  0.
        -13    1    3    3    0    0  0.58382737326E+03  0.78083373955E+02 -0.82290358552E+02  0.59474627307E+03  0.10566000000E+00 0.  1.
          4    1    3    3  501    0 -0.27566385373E+03  0.11483804531E+03 -0.61802574563E+03  0.68639213222E+03  0.00000000000E+00 0.  1.
         13    1    4    4    0    0 -0.31700814764E+03  0.19290639937E+03 -0.11281198145E+04  0.11875863639E+04  0.10566000000E+00 0. -1.
         -4    1    4    4    0  503  0.88446281094E+01 -0.38582781863E+03 -0.23877113058E+02  0.38666710438E+03  0.00000000000E+00 0. -1.
<mgrwt>
<rscale>  2 0.10728938E+04</rscale>
<asrwt>0</asrwt>
<pdfrwt beam="1">  1       21 0.77159912E-01 0.10729292E+04</pdfrwt>
<pdfrwt beam="2">  1       21 0.36213114E+00 0.10729292E+04</pdfrwt>
<totfact> 0.73707764E+00</totfact>
</mgrwt>
</event>
<event>
 8    1  0.7631533E-006  0.1028215E+04  0.7818608E-02  0.8751329E-01
         21   -1    0    0  501  502  0.00000000000E+00  0.00000000000E+00  0.21360642596E+04  0.21360642596E+04  0.00000000000E+00 0. -1.
         21   -1    0    0  502  503 -0.00000000000E+00 -0.00000000000E+00 -0.51819128372E+03  0.51819128372E+03  0.00000000000E+00 0. -1.
    9000010    2    1    2  501    0  0.16935685645E+03 -0.51173291984E+02  0.11190597092E+04  0.15114343398E+04  0.10004192522E+04 0.  0.
   -9000010    2    1    2    0  503 -0.16935685645E+03  0.51173291984E+02  0.49881326666E+03  0.11428212035E+04  0.10128796461E+04 0.  0.
        -13    1    3    3    0    0  0.32530111956E+03  0.20653915727E+03  0.11459646843E+04  0.12090137761E+04  0.10566000000E+00 0.  1.
          4    1    3    3  501    0 -0.15594426312E+03 -0.25771244926E+03 -0.26904975093E+02  0.30242056376E+03  0.00000000000E+00 0.  1.
         13    1    4    4    0    0 -0.25572758211E+03  0.84080209112E+02 -0.26245433068E+03  0.37596324910E+03  0.10566000000E+00 0. -1.
         -4    1    4    4    0  503  0.86370725660E+02 -0.32906917128E+02  0.76126759734E+03  0.76685795439E+03  0.00000000000E+00 0. -1.
<mgrwt>
<rscale>  2 0.10251329E+04</rscale>
<asrwt>0</asrwt>
<pdfrwt beam="1">  1       21 0.32862527E+00 0.10282148E+04</pdfrwt>
<pdfrwt beam="2">  1       21 0.79721737E-01 0.10282148E+04</pdfrwt>
<totfact> 0.11815323E+01</totfact>
</mgrwt>
</event>
<event>
 8    1  0.7631533E-006  0.1010897E+04  0.7818608E-02  0.8769136E-01
         21   -1    0    0  501  502  0.00000000000E+00  0.00000000000E+00  0.55003234630E+03  0.55003234630E+03  0.00000000000E+00 0.  1.
         21   -1    0    0  502  503 -0.00000000000E+00 -0.00000000000E+00 -0.18321359374E+04  0.18321359374E+04  0.00000000000E+00 0.  1.
    9000010    2    1    2  501    0  0.12440090733E+03  0.98838466647E+02 -0.54223646133E+03  0.11294447910E+04  0.97794709858E+03 0.  0.
   -9000010    2    1    2    0  503 -0.12440090733E+03 -0.98838466647E+02 -0.73986712976E+03  0.12527234927E+04  0.99833268566E+03 0.  0.
        -13    1    3    3    0    0  0.24828004088E+03 -0.33365710373E+03 -0.53739474415E+03  0.67953157673E+03  0.10566000000E+00 0.  1.
          4    1    3    3  501    0 -0.12387913355E+03  0.43249557038E+03 -0.48417171800E+01  0.44991321424E+03  0.00000000000E+00 0.  1.
         13    1    4    4    0    0  0.14610620470E+03  0.99000790503E+02 -0.87407607531E+03  0.89171586066E+03  0.10566000000E+00 0. -1.
         -4    1    4    4    0  503 -0.27050711203E+03 -0.19783925715E+03  0.13420894555E+03  0.36100763204E+03  0.00000000000E+00 0. -1.
<mgrwt>
<rscale>  2 0.10058272E+04</rscale>
<asrwt>0</asrwt>
<pdfrwt beam="1">  1       21 0.84620361E-01 0.10108970E+04</pdfrwt>
<pdfrwt beam="2">  1       21 0.28186707E+00 0.10108970E+04</pdfrwt>
<totfact> 0.21887832E+01</totfact>
</mgrwt>
</event>
<event>
 8    1  0.7631533E-006  0.1000623E+04  0.7818608E-02  0.8774200E-01
         21   -1    0    0  503  502  0.00000000000E+00  0.00000000000E+00  0.14484217730E+04  0.14484217730E+04  0.00000000000E+00 0. -1.
         21   -1    0    0  501  503 -0.00000000000E+00 -0.00000000000E+00 -0.69235231717E+03  0.69235231717E+03  0.00000000000E+00 0. -1.
    9000010    2    1    2  501    0 -0.79282609439E+02  0.56123514122E+02  0.43051011782E+03  0.10893050414E+04  0.99589704824E+03 0.  0.
   -9000010    2    1    2    0  502  0.79282609439E+02 -0.56123514122E+02  0.32555933797E+03  0.10514690487E+04  0.99506919200E+03 0.  0.
        -13    1    3    3    0    0 -0.39940050341E+03  0.36880262327E+03  0.31028716639E+03  0.62595069602E+03  0.10566000000E+00 0.  1.
          4    1    3    3  501    0  0.32011789397E+03 -0.31267910915E+03  0.12022295143E+03  0.46335434539E+03  0.00000000000E+00 0.  1.
         13    1    4    4    0    0 -0.35531177088E+03  0.26766507326E+02 -0.16345087795E+03  0.39201926114E+03  0.10566000000E+00 0. -1.
         -4    1    4    4    0  502  0.43459438032E+03 -0.82890021448E+02  0.48901021592E+03  0.65944978758E+03  0.00000000000E+00 0. -1.
<mgrwt>
<rscale>  2 0.10004170E+04</rscale>
<asrwt>0</asrwt>
<pdfrwt beam="1">  1       21 0.22283412E+00 0.10006231E+04</pdfrwt>
<pdfrwt beam="2">  1       21 0.10651574E+00 0.10006231E+04</pdfrwt>
<totfact> 0.32523478E+01</totfact>
</mgrwt>
</event>
<event>
 8    1  0.7631533E-006  0.1088439E+04  0.7818608E-02  0.8699236E-01
         21   -1    0    0  503  502  0.00000000000E+00  0.00000000000E+00  0.16060803212E+04  0.16060803212E+04  0.00000000000E+00 0. -1.
         21   -1    0    0  501  503 -0.00000000000E+00 -0.00000000000E+00 -0.76780528796E+03  0.76780528796E+03  0.00000000000E+00 0. -1.
    9000010    2    1    2  501    0 -0.16603319045E+02  0.29545885734E+03  0.69183722844E+03  0.12756398873E+04  0.10300712425E+04 0.  0.
   -9000010    2    1    2    0  502  0.16603319045E+02 -0.29545885734E+03  0.14643780476E+03  0.10982457219E+04  0.10474387946E+04 0.  0.
        -13    1    3    3    0    0  0.32749205679E+03  0.11051665054E+03 -0.12712872609E+03  0.36827530662E+03  0.10566000000E+00 0.  1.
          4    1    3    3  501    0 -0.34409537583E+03  0.18494220680E+03  0.81896595453E+03  0.90736458064E+03  0.00000000000E+00 0.  1.
         13    1    4    4    0    0  0.84974654493E+02  0.38440385834E+03  0.13056250862E+03  0.41476933112E+03  0.10566000000E+00 0. -1.
         -4    1    4    4    0  502 -0.68371335448E+02 -0.67986271568E+03  0.15875296135E+02  0.68347639075E+03  0.00000000000E+00 0. -1.
<mgrwt>
<rscale>  2 0.10842391E+04</rscale>
<asrwt>0</asrwt>
<pdfrwt beam="1">  1       21 0.24708928E+00 0.10884391E+04</pdfrwt>
<pdfrwt beam="2">  1       21 0.11812389E+00 0.10884391E+04</pdfrwt>
<totfact> 0.15915949E+01</totfact>
</mgrwt>
</event>
<event>
 8    1  0.7631533E-006  0.1059642E+04  0.7818608E-02  0.8726946E-01
         21   -1    0    0  501  502  0.00000000000E+00  0.00000000000E+00  0.19064212606E+04  0.19064212606E+04  0.00000000000E+00 0.  1.
         21   -1    0    0  502  503 -0.00000000000E+00 -0.00000000000E+00 -0.78100597072E+03  0.78100597072E+03  0.00000000000E+00 0.  1.
    9000010    2    1    2  501    0 -0.89865768321E+02  0.21912543670E+03  0.12619690795E+04  0.16478493858E+04  0.10328358182E+04 0.  0.
   -9000010    2    1    2    0  503  0.89865768321E+02 -0.21912543670E+03 -0.13655378959E+03  0.10395778456E+04  0.10029872114E+04 0.  0.
        -13    1    3    3    0    0 -0.81902731804E+02  0.60707379362E+03  0.49222392797E+03  0.78583144173E+03  0.10566000000E+00 0.  1.
          4    1    3    3  501    0 -0.79630365179E+01 -0.38794835692E+03  0.76974515155E+03  0.86201794408E+03  0.00000000000E+00 0.  1.
         13    1    4    4    0    0 -0.44530446110E+03  0.16237234466E+02 -0.72118862871E+02  0.45139877315E+03  0.10566000000E+00 0. -1.
         -4    1    4    4    0  503  0.53517022942E+03 -0.23536267116E+03 -0.64434926723E+02  0.58817907241E+03  0.00000000000E+00 0. -1.
<mgrwt>
<rscale>  2 0.10522982E+04</rscale>
<asrwt>0</asrwt>
<pdfrwt beam="1">  1       21 0.29329558E+00 0.10596422E+04</pdfrwt>
<pdfrwt beam="2">  1       21 0.12015477E+00 0.10596422E+04</pdfrwt>
<totfact> 0.71226328E+00</totfact>
</mgrwt>
</event>
<event>
 8    1  0.7631533E-006  0.1045887E+04  0.7818608E-02  0.8732735E-01
         21   -1    0    0  501  502  0.00000000000E+00  0.00000000000E+00  0.11903137449E+04  0.11903137449E+04  0.00000000000E+00 0.  1.
         21   -1    0    0  502  503 -0.00000000000E+00 -0.00000000000E+00 -0.95044667687E+03  0.95044667687E+03  0.00000000000E+00 0.  1.
    9000010    2    1    2  501    0  0.44781305921E+02 -0.30101309750E+03  0.31595934101E+03  0.10925699564E+04  0.10006320774E+04 0.  0.
   -9000010    2    1    2    0  503 -0.44781305921E+02  0.30101309750E+03 -0.76092273020E+02  0.10481904653E+04  0.10001494725E+04 0.  0.
        -13    1    3    3    0    0  0.32678253360E+03 -0.54755579736E+03  0.63393968827E+02  0.64079870625E+03  0.10566000000E+00 0.  1.
          4    1    3    3  501    0 -0.28200122768E+03  0.24654269986E+03  0.25256537218E+03  0.45177125018E+03  0.00000000000E+00 0.  1.
         13    1    4    4    0    0 -0.45227348523E+03  0.39023253795E+03 -0.16904781567E+03  0.62081391275E+03  0.10566000000E+00 0. -1.
         -4    1    4    4    0  503  0.40749217931E+03 -0.89219440454E+02  0.92955542646E+02  0.42737655254E+03  0.00000000000E+00 0. -1.
<mgrwt>
<rscale>  2 0.10457712E+04</rscale>
<asrwt>0</asrwt>
<pdfrwt beam="1">  1       21 0.18312519E+00 0.10458866E+04</pdfrwt>
<pdfrwt beam="2">  1       21 0.14622257E+00 0.10458866E+04</pdfrwt>
<totfact> 0.26591217E+01</totfact>
</mgrwt>
</event>
<event>
 8    1  0.7631533E-006  0.1011408E+04  0.7818608E-02  0.8766922E-01
         21   -1    0    0  503  502  0.00000000000E+00  0.00000000000E+00  0.22987628241E+04  0.22987628241E+04  0.00000000000E+00 0. -1.
         21   -1    0    0  501  503 -0.00000000000E+00 -0.00000000000E+00 -0.53846121647E+03  0.53846121647E+03  0.00000000000E+00 0. -1.
    9000010    2    1    2  501    0  0.67987001140E+02  0.15780242003E+02  0.26714351280E+03  0.10337643708E+04  0.99620874797E+03 0.  0.
   -9000010    2    1    2    0  502 -0.67987001140E+02 -0.15780242003E+02  0.14931580948E+04  0.18034596698E+04  0.10089967473E+04 0.  0.
        -13    1    3    3    0    0  0.23167280503E+03 -0.32003486067E+03  0.46568316225E+03  0.61070076093E+03  0.10566000000E+00 0.  1.
          4    1    3    3  501    0 -0.16368580389E+03  0.33581510268E+03 -0.19853964946E+03  0.42306360986E+03  0.00000000000E+00 0.  1.
         13    1    4    4    0    0  0.44220359168E+03 -0.75761644848E+02  0.42403451967E+03  0.61732416797E+03  0.10566000000E+00 0. -1.
         -4    1    4    4    0  502 -0.51019059282E+03  0.59981402845E+02  0.10691235751E+04  0.11861355018E+04  0.00000000000E+00 0. -1.
<mgrwt>
<rscale>  2 0.10082033E+04</rscale>
<asrwt>0</asrwt>
<pdfrwt beam="1">  1       21 0.35365581E+00 0.10114078E+04</pdfrwt>
<pdfrwt beam="2">  1       21 0.82840189E-01 0.10114078E+04</pdfrwt>
<totfact> 0.72043915E+00</totfact>
</mgrwt>
</event>
<event>
 8    1  0.7631533E-006  0.1045276E+04  0.7818608E-02  0.8743435E-01
         21   -1    0    0  503  502  0.00000000000E+00  0.00000000000E+00  0.26373999959E+04  0.26373999959E+04  0.00000000000E+00 0. -1.
         21   -1    0    0  501  503 -0.00000000000E+00 -0.00000000000E+00 -0.40087581294E+03  0.40087581294E+03  0.00000000000E+00 0. -1.
    9000010    2    1    2  501    0 -0.10148240562E+03  0.24226445663E+03  0.98616525232E+03  0.14370535498E+04  0.10117362574E+04 0.  0.
   -9000010    2    1    2    0  502  0.10148240562E+03 -0.24226445663E+03  0.12503589306E+04  0.16012222590E+04  0.96515518015E+03 0.  0.
        -13    1    3    3    0    0 -0.32732738816E+03  0.13313170665E+03 -0.62462609453E+02  0.35884378091E+03  0.10566000000E+00 0.  1.
          4    1    3    3  501    0  0.22584498254E+03  0.10913274999E+03  0.10486278618E+04  0.10782097689E+04  0.00000000000E+00 0.  1.
         13    1    4    4    0    0 -0.15477978289E+02  0.74598607202E+02 -0.14595214982E+03  0.16464070338E+03  0.10566000000E+00 0. -1.
         -4    1    4    4    0  502  0.11696038391E+03 -0.31686306384E+03  0.13963110804E+04  0.14365815556E+04  0.00000000000E+00 0. -1.
<mgrwt>
<rscale>  2 0.10338346E+04</rscale>
<asrwt>0</asrwt>
<pdfrwt beam="1">  1       21 0.40575384E+00 0.10452756E+04</pdfrwt>
<pdfrwt beam="2">  1       21 0.61673204E-01 0.10452756E+04</pdfrwt>
<totfact> 0.62383960E+00</totfact>
</mgrwt>
</event>
<event>
 8    1  0.7631533E-006  0.1006840E+04  0.7818608E-02  0.8768508E-01
         21   -1    0    0  503  502  0.00000000000E+00  0.00000000000E+00  0.23092093048E+04  0.23092093048E+04  0.00000000000E+00 0. -1.
         21   -1    0    0  501  503 -0.00000000000E+00 -0.00000000000E+00 -0.61242758236E+03  0.61242758236E+03  0.00000000000E+00 0. -1.
    9000010    2    1    2  501    0  0.12970410278E+03  0.17750278249E+03  0.70089464778E+02  0.10092763641E+04  0.98254559892E+03 0.  0.
   -9000010    2    1    2    0  502 -0.12970410278E+03 -0.17750278249E+03  0.16266922576E+04  0.19123605230E+04  0.98115476708E+03 0.  0.
        -13    1    3    3    0    0 -0.26762807417E+03 -0.46735629246E+02 -0.31233404006E+03  0.41395841442E+03  0.10566000000E+00 0.  1.
          4    1    3    3  501    0  0.39733217695E+03  0.22423841174E+03  0.38242350484E+03  0.59531794967E+03  0.00000000000E+00 0.  1.
         13    1    4    4    0    0 -0.55677257475E+03 -0.74207125054E+02  0.10005789731E+04  0.11474583609E+04  0.10566000000E+00 0. -1.
         -4    1    4    4    0  502  0.42706847197E+03 -0.10329565744E+03  0.62611328451E+03  0.76490216213E+03  0.00000000000E+00 0. -1.
<mgrwt>
<rscale>  2 0.10065003E+04</rscale>
<asrwt>0</asrwt>
<pdfrwt beam="1">  1       21 0.35526297E+00 0.10068397E+04</pdfrwt>
<pdfrwt beam="2">  1       21 0.94219629E-01 0.10068397E+04</pdfrwt>
<totfact> 0.50669627E+00</totfact>
</mgrwt>
</event>
<event>
 8    1  0.7631533E-006  0.1040870E+04  0.7818608E-02  0.8744283E-01
         21   -1    0    0  501  502  0.00000000000E+00  0.00000000000E+00  0.25134636587E+04  0.25134636587E+04  0.00000000000E+00 0.  1.
         21   -1    0    0  502  503 -0.00000000000E+00 -0.00000000000E+00 -0.43608465759E+03  0.43608465759E+03  0.00000000000E+00 0.  1.
    9000010    2    1    2  501    0  0.87155737669E+02  0.69661943458E+02  0.13229801159E+04  0.16640413237E+04  0.10031491568E+04 0.  0.
   -9000010    2    1    2    0  503 -0.87155737669E+02 -0.69661943458E+02  0.75439888524E+03  0.12855069926E+04  0.10348727657E+04 0.  0.
        -13    1    3    3    0    0 -0.24983419542E+03 -0.28495980758E+03  0.10211860547E+04  0.10892383516E+04  0.10566000000E+00 0.  1.
          4    1    3    3  501    0  0.33698993308E+03  0.35462175103E+03  0.30179406118E+03  0.57480297205E+03  0.00000000000E+00 0.  1.
         13    1    4    4    0    0 -0.66209589521E+02  0.42962330646E+03  0.73433444792E+02  0.44085414502E+03  0.10566000000E+00 0. -1.
         -4    1    4    4    0  503 -0.20946148148E+02 -0.49928524992E+03  0.68096544045E+03  0.84465284762E+03  0.00000000000E+00 0. -1.
<mgrwt>
<rscale>  2 0.10328951E+04</rscale>
<asrwt>0</asrwt>
<pdfrwt beam="1">  1       21 0.38668671E+00 0.10408701E+04</pdfrwt>
<pdfrwt beam="2">  1       21 0.67089949E-01 0.10408701E+04</pdfrwt>
<totfact> 0.69692263E+00</totfact>
</mgrwt>
</event>
<event>
 8    1  0.7631533E-006  0.1051800E+04  0.7818608E-02  0.8730497E-01
         21   -1    0    0  503  502  0.00000000000E+00  0.00000000000E+00  0.15150142909E+04  0.15150142909E+04  0.00000000000E+00 0.  1.
         21   -1    0    0  501  503 -0.00000000000E+00 -0.00000000000E+00 -0.93096610933E+03  0.93096610933E+03  0.00000000000E+00 0.  1.
    9000010    2    1    2  501    0 -0.22509060026E+03 -0.48070742611E+02 -0.29091567504E+03  0.10778268932E+04  0.10119794005E+04 0.  0.
   -9000010    2    1    2    0  502  0.22509060026E+03  0.48070742611E+02  0.87496385660E+03  0.13681535070E+04  0.10263068225E+04 0.  0.
        -13    1    3    3    0    0  0.19282694218E+03  0.20797753567E+03  0.22810704333E+03  0.36396389842E+03  0.10566000000E+00 0.  1.
          4    1    3    3  501    0 -0.41791754244E+03 -0.25604827828E+03 -0.51902271837E+03  0.71386299475E+03  0.00000000000E+00 0.  1.
         13    1    4    4    0    0 -0.68819467917E+02  0.42270086225E+03  0.71503538365E+02  0.43419454772E+03  0.10566000000E+00 0. -1.
         -4    1    4    4    0  502  0.29391006818E+03 -0.37463011964E+03  0.80346031823E+03  0.93395895932E+03  0.00000000000E+00 0. -1.
<mgrwt>
<rscale>  2 0.10482881E+04</rscale>
<asrwt>0</asrwt>
<pdfrwt beam="1">  1       21 0.23307912E+00 0.10517995E+04</pdfrwt>
<pdfrwt beam="2">  1       21 0.14322555E+00 0.10517995E+04</pdfrwt>
<totfact> 0.11648790E+01</totfact>
</mgrwt>
</event>
<event>
 8    1  0.7631533E-006  0.1039639E+04  0.7818608E-02  0.8745236E-01
         21   -1    0    0  501  502  0.00000000000E+00  0.00000000000E+00  0.10702301148E+04  0.10702301148E+04  0.00000000000E+00 0. -1.
         21   -1    0    0  502  503 -0.00000000000E+00 -0.00000000000E+00 -0.13823424297E+04  0.13823424297E+04  0.00000000000E+00 0. -1.
    9000010    2    1    2  501    0  0.96727629567E+01 -0.33819841895E+02  0.50365078462E+03  0.11552110947E+04  0.10390434141E+04 0.  0.
   -9000010    2    1    2    0  503 -0.96727629567E+01  0.33819841895E+02 -0.81576309958E+03  0.12973614498E+04  0.10081864672E+04 0.  0.
        -13    1    3    3    0    0  0.50963625380E+03  0.57277782504E+02  0.36169694253E+03  0.62756238332E+03  0.10566000000E+00 0.  1.
          4    1    3    3  501    0 -0.49996349085E+03 -0.91097624399E+02  0.14195384210E+03  0.52764871140E+03  0.00000000000E+00 0.  1.
         13    1    4    4    0    0  0.32679587562E+03  0.10843466899E+03 -0.88163072160E+03  0.94648104165E+03  0.10566000000E+00 0. -1.
         -4    1    4    4    0  503 -0.33646863858E+03 -0.74614827096E+02  0.65867622026E+02  0.35088040812E+03  0.00000000000E+00 0. -1.
<mgrwt>
<rscale>  2 0.10318417E+04</rscale>
<asrwt>0</asrwt>
<pdfrwt beam="1">  1       21 0.16465079E+00 0.10396387E+04</pdfrwt>
<pdfrwt beam="2">  1       21 0.21266807E+00 0.10396387E+04</pdfrwt>
<totfact> 0.10765281E+01</totfact>
</mgrwt>
</event>
<event>
 8    1  0.7631533E-006  0.1025193E+04  0.7818608E-02  0.8752043E-01
         21   -1    0    0  503  502  0.00000000000E+00  0.00000000000E+00  0.66283433743E+03  0.66283433743E+03  0.00000000000E+00 0. -1.
         21   -1    0    0  501  503 -0.00000000000E+00 -0.00000000000E+00 -0.16352215122E+04  0.16352215122E+04  0.00000000000E+00 0. -1.
    9000010    2    1    2  501    0 -0.37552131011E+02  0.17790424859E+03 -0.69726697523E+03  0.12398397609E+04  0.10089406889E+04 0.  0.
   -9000010    2    1    2    0  502  0.37552131011E+02 -0.17790424859E+03 -0.27512019957E+03  0.10582160888E+04  0.10055198069E+04 0.  0.
        -13    1    3    3    0    0  0.25339917401E+03  0.27326323830E+02  0.17427751437E+03  0.30875642915E+03  0.10566000000E+00 0.  1.
          4    1    3    3  501    0 -0.29095130502E+03  0.15057792476E+03 -0.87154448960E+03  0.93108333175E+03  0.00000000000E+00 0.  1.
         13    1    4    4    0    0  0.18515727815E+03 -0.27637682785E+02  0.35089668388E+03  0.39771290283E+03  0.10566000000E+00 0. -1.
         -4    1    4    4    0  502 -0.14760514713E+03 -0.15026656581E+03 -0.62601688345E+03  0.66050318593E+03  0.00000000000E+00 0. -1.
<mgrwt>
<rscale>  2 0.10243507E+04</rscale>
<asrwt>0</asrwt>
<pdfrwt beam="1">  1       21 0.10197451E+00 0.10251933E+04</pdfrwt>
<pdfrwt beam="2">  1       21 0.25157254E+00 0.10251933E+04</pdfrwt>
<totfact> 0.22293208E+01</totfact>
</mgrwt>
</event>
<event>
 8    1  0.7631533E-006  0.1343947E+04  0.7818608E-02  0.8511797E-01
         21   -1    0    0  503  502  0.00000000000E+00  0.00000000000E+00  0.64710054014E+03  0.64710054014E+03  0.00000000000E+00 0. -1.
         21   -1    0    0  501  503 -0.00000000000E+00 -0.00000000000E+00 -0.32139890744E+04  0.32139890744E+04  0.00000000000E+00 0.  1.
    9000010    2    1    2  501    0 -0.86557863128E+03 -0.30388573608E+03 -0.20620181604E+04  0.24613232559E+04  0.98215088897E+03 0.  0.
   -9000010    2    1    2    0  502  0.86557863128E+03  0.30388573608E+03 -0.50487037384E+03  0.13997663586E+04  0.92891272830E+03 0.  0.
        -13    1    3    3    0    0 -0.68334456963E+03  0.24390573375E+03 -0.14413416500E+04  0.16136652599E+04  0.10566000000E+00 0.  1.
          4    1    3    3  501    0 -0.18223406165E+03 -0.54779146983E+03 -0.62067651040E+03  0.84765799601E+03  0.00000000000E+00 0.  1.
         13    1    4    4    0    0  0.95682938056E+03  0.42465400942E+03 -0.20909371568E+03  0.10675081659E+04  0.10566000000E+00 0. -1.
         -4    1    4    4    0  502 -0.91250749285E+02 -0.12076827334E+03 -0.29577665816E+03  0.33225819268E+03  0.00000000000E+00 0. -1.
<mgrwt>
<rscale>  2 0.13342422E+04</rscale>
<asrwt>0</asrwt>
<pdfrwt beam="1">  1       21 0.99553929E-01 0.13439469E+04</pdfrwt>
<pdfrwt beam="2">  1       21 0.49445986E+00 0.13439469E+04</pdfrwt>
<totfact> 0.44080770E-01</totfact>
</mgrwt>
</event>
<event>
 8    1  0.7811729E-006  0.1012135E+04  0.7818608E-02  0.8783056E-01
         21   -1    0    0  501  502  0.00000000000E+00  0.00000000000E+00  0.12390672423E+04  0.12390672423E+04  0.00000000000E+00 0.  1.
         21   -1    0    0  502  503 -0.00000000000E+00 -0.00000000000E+00 -0.76404947008E+03  0.76404947008E+03  0.00000000000E+00 0.  1.
    9000010    2    1    2  501    0 -0.73037502170E+02 -0.16870558180E+03  0.30738113226E+03  0.10577811394E+04  0.99529981829E+03 0.  0.
   -9000010    2    1    2    0  503  0.73037502170E+02  0.16870558180E+03  0.16763663996E+03  0.94533557300E+03  0.91200945855E+03 0.  0.
        -13    1    3    3    0    0 -0.15940510846E+03 -0.49010154770E+03 -0.10694090352E+03  0.52635148302E+03  0.10566000000E+00 0.  1.
          4    1    3    3  501    0  0.86367606293E+02  0.32139596590E+03  0.41432203579E+03  0.53142965635E+03  0.00000000000E+00 0.  1.
         13    1    4    4    0    0  0.21872722630E+03 -0.17573545874E+03 -0.25629733415E+03  0.38001695441E+03  0.10566000000E+00 0. -1.
         -4    1    4    4    0  503 -0.14568972413E+03  0.34444104054E+03  0.42393397411E+03  0.56531861859E+03  0.00000000000E+00 0. -1.
<mgrwt>
<rscale>  2 0.99103934E+03</rscale>
<asrwt>0</asrwt>
<pdfrwt beam="1">  1       21 0.19062573E+00 0.10121353E+04</pdfrwt>
<pdfrwt beam="2">  1       21 0.11754607E+00 0.10121353E+04</pdfrwt>
<totfact> 0.43934206E+01</totfact>
</mgrwt>
</event>
<event>
 8    1  0.7631533E-006  0.1021581E+04  0.7818608E-02  0.8790558E-01
         21   -1    0    0  503  502  0.00000000000E+00  0.00000000000E+00  0.86399579486E+03  0.86399579486E+03  0.00000000000E+00 0.  1.
         21   -1    0    0  501  503 -0.00000000000E+00 -0.00000000000E+00 -0.10926227751E+04  0.10926227751E+04  0.00000000000E+00 0.  1.
    9000010    2    1    2  501    0  0.42353850844E+02 -0.22902743734E+03 -0.33187641646E+03  0.10741363307E+04  0.99467556796E+03 0.  0.
   -9000010    2    1    2    0  502 -0.42353850844E+02  0.22902743734E+03  0.10324943620E+03  0.88248223922E+03  0.84490652781E+03 0.  0.
        -13    1    3    3    0    0 -0.23245538503E+03  0.12315645164E+03 -0.52518823638E+03  0.58738889367E+03  0.10566000000E+00 0.  1.
          4    1    3    3  501    0  0.27480923588E+03 -0.35218388899E+03  0.19331181992E+03  0.48674743708E+03  0.00000000000E+00 0.  1.
         13    1    4    4    0    0  0.20157467708E+03 -0.19395860217E+02  0.38472917038E+03  0.43477016404E+03  0.10566000000E+00 0. -1.
         -4    1    4    4    0  502 -0.24392852793E+03  0.24842329756E+03 -0.28147973418E+03  0.44771207518E+03  0.00000000000E+00 0. -1.
<mgrwt>
<rscale>  2 0.98317928E+03</rscale>
<asrwt>0</asrwt>
<pdfrwt beam="1">  1       21 0.13292243E+00 0.10215806E+04</pdfrwt>
<pdfrwt beam="2">  1       21 0.16809581E+00 0.10215806E+04</pdfrwt>
<totfact> 0.47257902E+01</totfact>
</mgrwt>
</event>
<event>
 8    1  0.7631533E-006  0.9982564E+03  0.7818608E-02  0.8782685E-01
         21   -1    0    0  503  502  0.00000000000E+00  0.00000000000E+00  0.24526579907E+04  0.24526579907E+04  0.00000000000E+00 0. -1.
         21   -1    0    0  501  503 -0.00000000000E+00 -0.00000000000E+00 -0.41606861234E+03  0.41606861234E+03  0.00000000000E+00 0. -1.
    9000010    2    1    2  501    0 -0.72550412161E+02  0.39188555770E+02  0.71172256310E+03  0.12259954813E+04  0.99484501716E+03 0.  0.
   -9000010    2    1    2    0  502  0.72550412161E+02 -0.39188555770E+02  0.13248668152E+04  0.16427311217E+04  0.96772628096E+03 0.  0.
        -13    1    3    3    0    0 -0.30678226105E+03  0.22370785006E+02 -0.14327941473E+03  0.33932994204E+03  0.10566000000E+00 0.  1.
          4    1    3    3  501    0  0.23423184889E+03  0.16817770764E+02  0.85500197783E+03  0.88666553927E+03  0.00000000000E+00 0.  1.
         13    1    4    4    0    0  0.38296343130E+03  0.28347347510E+03  0.93347346203E+03  0.10480414669E+04  0.10566000000E+00 0. -1.
         -4    1    4    4    0  502 -0.31041301914E+03 -0.32266203087E+03  0.39139335320E+03  0.59468965482E+03  0.00000000000E+00 0. -1.
<mgrwt>
<rscale>  2 0.99143088E+03</rscale>
<asrwt>0</asrwt>
<pdfrwt beam="1">  1       21 0.37733199E+00 0.99825644E+03</pdfrwt>
<pdfrwt beam="2">  1       21 0.64010557E-01 0.99825644E+03</pdfrwt>
<totfact> 0.91323974E+00</totfact>
</mgrwt>
</event>
<event>
 8    1  0.7631533E-006  0.1312975E+04  0.7818608E-02  0.8528613E-01
         21   -1    0    0  501  502  0.00000000000E+00  0.00000000000E+00  0.98743780785E+03  0.98743780785E+03  0.00000000000E+00 0.  1.
         21   -1    0    0  502  503 -0.00000000000E+00 -0.00000000000E+00 -0.18405335791E+04  0.18405335791E+04  0.00000000000E+00 0.  1.
    9000010    2    1    2  501    0 -0.76412432351E+03  0.31833553512E+03 -0.70900605292E+02  0.12996608361E+04  0.99943378892E+03 0.  0.
   -9000010    2    1    2    0  503  0.76412432351E+03 -0.31833553512E+03 -0.78219516595E+03  0.15283105508E+04  0.10191566942E+04 0.  0.
        -13    1    3    3    0    0  0.20283615673E+03  0.12130675151E+03 -0.19322767579E+03  0.30527820147E+03  0.10566000000E+00 0.  1.
          4    1    3    3  501    0 -0.96696048024E+03  0.19702878361E+03  0.12232707050E+03  0.99438263466E+03  0.00000000000E+00 0.  1.
         13    1    4    4    0    0  0.25230352743E+03 -0.17514183627E+03  0.23091536448E+03  0.38425726991E+03  0.10566000000E+00 0. -1.
         -4    1    4    4    0  503  0.51182079609E+03 -0.14319369885E+03 -0.10131105304E+04  0.11440532809E+04  0.00000000000E+00 0. -1.
<mgrwt>
<rscale>  2 0.13091460E+04</rscale>
<asrwt>0</asrwt>
<pdfrwt beam="1">  1       21 0.15191351E+00 0.13129752E+04</pdfrwt>
<pdfrwt beam="2">  1       21 0.28315901E+00 0.13129752E+04</pdfrwt>
<totfact> 0.39892716E+00</totfact>
</mgrwt>
</event>
<event>
 8    1  0.7631533E-006  0.1036938E+04  0.7818608E-02  0.8760092E-01
         21   -1    0    0  501  502  0.00000000000E+00  0.00000000000E+00  0.75897041978E+03  0.75897041978E+03  0.00000000000E+00 0. -1.
         21   -1    0    0  502  503 -0.00000000000E+00 -0.00000000000E+00 -0.19448224180E+04  0.19448224180E+04  0.00000000000E+00 0. -1.
    9000010    2    1    2  501    0  0.16448270762E+03  0.20442519744E+03  0.16499510963E+03  0.10499824829E+04  0.10031927062E+04 0.  0.
   -9000010    2    1    2    0  503 -0.16448270762E+03 -0.20442519744E+03 -0.13508471078E+04  0.16538103549E+04  0.91730941276E+03 0.  0.
        -13    1    3    3    0    0  0.42482030974E+03 -0.12949098321E+03 -0.20364523303E+03  0.48858121371E+03  0.10566000000E+00 0.  1.
          4    1    3    3  501    0 -0.26033760212E+03  0.33391618064E+03  0.36864034266E+03  0.56140126915E+03  0.00000000000E+00 0.  1.
         13    1    4    4    0    0 -0.27040559560E+03 -0.53870689055E+03 -0.82386423289E+03  0.10208215248E+04  0.10566000000E+00 0. -1.
         -4    1    4    4    0  503  0.10592288798E+03  0.33428169312E+03 -0.52698287495E+03  0.63298883011E+03  0.00000000000E+00 0. -1.
<mgrwt>
<rscale>  2 0.10155764E+04</rscale>
<asrwt>0</asrwt>
<pdfrwt beam="1">  1       21 0.11676468E+00 0.10369377E+04</pdfrwt>
<pdfrwt beam="2">  1       21 0.29920344E+00 0.10369377E+04</pdfrwt>
<totfact> 0.70413354E+00</totfact>
</mgrwt>
</event>
<event>
 8    1  0.7631533E-006  0.1073050E+04  0.7818608E-02  0.8719089E-01
         21   -1    0    0  503  502  0.00000000000E+00  0.00000000000E+00  0.96949867768E+03  0.96949867768E+03  0.00000000000E+00 0.  1.
         21   -1    0    0  501  503 -0.00000000000E+00 -0.00000000000E+00 -0.11790277120E+04  0.11790277120E+04  0.00000000000E+00 0.  1.
    9000010    2    1    2  501    0 -0.16777428990E+03 -0.31038480967E+03 -0.31031855354E+03  0.11170201634E+04  0.10133851678E+04 0.  0.
   -9000010    2    1    2    0  502  0.16777428990E+03  0.31038480967E+03  0.10078951926E+03  0.10315062263E+04  0.96403300005E+03 0.  0.
        -13    1    3    3    0    0  0.32199692668E+03 -0.31209516045E+02 -0.43257641422E+03  0.54016517843E+03  0.10566000000E+00 0.  1.
          4    1    3    3  501    0 -0.48977121658E+03 -0.27917529363E+03  0.12225786067E+03  0.57685498495E+03  0.00000000000E+00 0.  1.
         13    1    4    4    0    0  0.51381038942E+03 -0.53188635446E+02  0.11572792349E+03  0.52936103999E+03  0.10566000000E+00 0. -1.
         -4    1    4    4    0  502 -0.34603609953E+03  0.36357344512E+03 -0.14938404232E+02  0.50214518627E+03  0.00000000000E+00 0. -1.
<mgrwt>
<rscale>  2 0.10612365E+04</rscale>
<asrwt>0</asrwt>
<pdfrwt beam="1">  1       21 0.14915364E+00 0.10730501E+04</pdfrwt>
<pdfrwt beam="2">  1       21 0.18138888E+00 0.10730501E+04</pdfrwt>
<totfact> 0.25694977E+01</totfact>
</mgrwt>
</event>
<event>
 8    1  0.7631533E-006  0.1022019E+04  0.7818608E-02  0.8754470E-01
         21   -1    0    0  503  502  0.00000000000E+00  0.00000000000E+00  0.14412085630E+04  0.14412085630E+04  0.00000000000E+00 0. -1.
         21   -1    0    0  501  503 -0.00000000000E+00 -0.00000000000E+00 -0.74083708307E+03  0.74083708307E+03  0.00000000000E+00 0. -1.
    9000010    2    1    2  501    0  0.29571054015E+02  0.17051512848E+03  0.51566851245E+03  0.11447434126E+04  0.10072604478E+04 0.  0.
   -9000010    2    1    2    0  502 -0.29571054015E+02 -0.17051512848E+03  0.18470296751E+03  0.10373022335E+04  0.10059477527E+04 0.  0.
        -13    1    3    3    0    0  0.28473941717E+03 -0.27122232600E+03 -0.34142689487E+02  0.39471992631E+03  0.10566000000E+00 0.  1.
          4    1    3    3  501    0 -0.25516836316E+03  0.44173745448E+03  0.54981120193E+03  0.75002348631E+03  0.00000000000E+00 0.  1.
         13    1    4    4    0    0 -0.33967915927E+03 -0.43046952815E+03 -0.79433774609E+02  0.55407191015E+03  0.10566000000E+00 0. -1.
         -4    1    4    4    0  502  0.31010810525E+03  0.25995439967E+03  0.26413674212E+03  0.48323032333E+03  0.00000000000E+00 0. -1.
<mgrwt>
<rscale>  2 0.10216957E+04</rscale>
<asrwt>0</asrwt>
<pdfrwt beam="1">  1       21 0.22172439E+00 0.10220193E+04</pdfrwt>
<pdfrwt beam="2">  1       21 0.11397494E+00 0.10220193E+04</pdfrwt>
<totfact> 0.27464568E+01</totfact>
</mgrwt>
</event>
<event>
 8    1  0.7631533E-006  0.1486905E+04  0.7818608E-02  0.8452780E-01
         21   -1    0    0  501  502  0.00000000000E+00  0.00000000000E+00  0.87390433055E+03  0.87390433055E+03  0.00000000000E+00 0. -1.
         21   -1    0    0  502  503 -0.00000000000E+00 -0.00000000000E+00 -0.23976100243E+04  0.23976100243E+04  0.00000000000E+00 0. -1.
    9000010    2    1    2  501    0 -0.56694920946E+02 -0.77182565880E+03 -0.19303308494E+03  0.12761254527E+04  0.99614518893E+03 0.  0.
   -9000010    2    1    2    0  503  0.56694920946E+02  0.77182565880E+03 -0.13306726088E+04  0.19953889022E+04  0.12696291260E+04 0.  0.
        -13    1    3    3    0    0  0.19807451254E+03  0.16489131412E+03  0.76166789839E+02  0.26874532374E+03  0.10566000000E+00 0.  1.
          4    1    3    3  501    0 -0.25476943349E+03 -0.93671697292E+03 -0.26919987478E+03  0.10073801289E+04  0.00000000000E+00 0.  1.
         13    1    4    4    0    0  0.20596616041E+03  0.72593661459E+03 -0.10740748175E+03  0.76219577927E+03  0.10566000000E+00 0. -1.
         -4    1    4    4    0  503 -0.14927123947E+03  0.45889044210E+02 -0.12232651271E+04  0.12331931229E+04  0.00000000000E+00 0. -1.
<mgrwt>
<rscale>  2 0.14270173E+04</rscale>
<asrwt>0</asrwt>
<pdfrwt beam="1">  1       21 0.13444682E+00 0.14869053E+04</pdfrwt>
<pdfrwt beam="2">  1       21 0.36886308E+00 0.14869053E+04</pdfrwt>
<totfact> 0.13928922E+00</totfact>
</mgrwt>
</event>
<event>
 8    1  0.7631533E-006  0.1089508E+04  0.7818608E-02  0.8695619E-01
         21   -1    0    0  503  502  0.00000000000E+00  0.00000000000E+00  0.58032871572E+03  0.58032871572E+03  0.00000000000E+00 0.  1.
         21   -1    0    0  501  503 -0.00000000000E+00 -0.00000000000E+00 -0.23512274526E+04  0.23512274526E+04  0.00000000000E+00 0.  1.
    9000010    2    1    2  501    0 -0.39725280495E+03 -0.15932117364E+03 -0.14191452521E+04  0.17866727655E+04  0.99751355743E+03 0.  0.
   -9000010    2    1    2    0  502  0.39725280495E+03  0.15932117364E+03 -0.35175348479E+03  0.11448834027E+04  0.10019153978E+04 0.  0.
        -13    1    3    3    0    0 -0.30220799352E+03  0.38665499593E+03 -0.42823376579E+03  0.65131860602E+03  0.10566000000E+00 0.  1.
          4    1    3    3  501    0 -0.95044811430E+02 -0.54597616957E+03 -0.99091148626E+03  0.11353541595E+04  0.00000000000E+00 0.  1.
         13    1    4    4    0    0 -0.29722713464E+03  0.24708816468E+03 -0.16596849048E+03  0.42064484031E+03  0.10566000000E+00 0. -1.
         -4    1    4    4    0  502  0.69447993958E+03 -0.87766991039E+02 -0.18578499431E+03  0.72423856243E+03  0.00000000000E+00 0. -1.
<mgrwt>
<rscale>  2 0.10884949E+04</rscale>
<asrwt>0</asrwt>
<pdfrwt beam="1">  1       21 0.89281340E-01 0.10895079E+04</pdfrwt>
<pdfrwt beam="2">  1       21 0.36172731E+00 0.10895079E+04</pdfrwt>
<totfact> 0.51395596E+00</totfact>
</mgrwt>
</event>
<event>
 8    1  0.7631533E-006  0.1056957E+04  0.7818608E-02  0.8732032E-01
         21   -1    0    0  501  502  0.00000000000E+00  0.00000000000E+00  0.15136655024E+04  0.15136655024E+04  0.00000000000E+00 0. -1.
         21   -1    0    0  502  503 -0.00000000000E+00 -0.00000000000E+00 -0.73231341578E+03  0.73231341578E+03  0.00000000000E+00 0. -1.
    9000010    2    1    2  501    0  0.20733207756E+03  0.27601013753E+03  0.58042850144E+03  0.11700936164E+04  0.95553840289E+03 0.  0.
   -9000010    2    1    2    0  503 -0.20733207756E+03 -0.27601013753E+03  0.20092358518E+03  0.10758853018E+04  0.99899484941E+03 0.  0.
        -13    1    3    3    0    0  0.11437287513E+03 -0.17897960257E+03  0.66497294158E+03  0.69807154139E+03  0.10566000000E+00 0.  1.
          4    1    3    3  501    0  0.92959202429E+02  0.45498974010E+03 -0.84544440141E+02  0.47202207499E+03  0.00000000000E+00 0.  1.
         13    1    4    4    0    0 -0.25088522434E+03 -0.55628358685E+03  0.39973590873E+03  0.72950917245E+03  0.10566000000E+00 0. -1.
         -4    1    4    4    0  503  0.43553146778E+02  0.28027344933E+03 -0.19881232355E+03  0.34637612935E+03  0.00000000000E+00 0. -1.
<mgrwt>
<rscale>  2 0.10465615E+04</rscale>
<asrwt>0</asrwt>
<pdfrwt beam="1">  1       21 0.23287161E+00 0.10569574E+04</pdfrwt>
<pdfrwt beam="2">  1       21 0.11266360E+00 0.10569574E+04</pdfrwt>
<totfact> 0.23228078E+01</totfact>
</mgrwt>
</event>
<event>
 8    1  0.7631533E-006  0.1008001E+04  0.7818608E-02  0.8768308E-01
         21   -1    0    0  501  502  0.00000000000E+00  0.00000000000E+00  0.82297990082E+03  0.82297990082E+03  0.00000000000E+00 0.  1.
         21   -1    0    0  502  503 -0.00000000000E+00 -0.00000000000E+00 -0.14352421354E+04  0.14352421354E+04  0.00000000000E+00 0.  1.
    9000010    2    1    2  501    0 -0.81971032963E+02  0.84172372413E+02  0.12324673527E+03  0.10104078065E+04  0.99595679582E+03 0.  0.
   -9000010    2    1    2    0  503  0.81971032963E+02 -0.84172372413E+02 -0.73550896989E+03  0.12478142298E+04  0.10011306951E+04 0.  0.
        -13    1    3    3    0    0 -0.33378209415E+03 -0.36076553069E+03  0.52556379005E+02  0.49429185574E+03  0.10566000000E+00 0.  1.
          4    1    3    3  501    0  0.25181106119E+03  0.44493790310E+03  0.70690356262E+02  0.51611595076E+03  0.00000000000E+00 0.  1.
         13    1    4    4    0    0 -0.13390879840E+03  0.38915678086E+02  0.22002548568E+03  0.26049418766E+03  0.10566000000E+00 0. -1.
         -4    1    4    4    0  503  0.21587983136E+03 -0.12308805050E+03 -0.95553445557E+03  0.98732004211E+03  0.00000000000E+00 0. -1.
<mgrwt>
<rscale>  2 0.10067144E+04</rscale>
<asrwt>0</asrwt>
<pdfrwt beam="1">  1       21 0.12661229E+00 0.10080014E+04</pdfrwt>
<pdfrwt beam="2">  1       21 0.22080648E+00 0.10080014E+04</pdfrwt>
<totfact> 0.20861278E+01</totfact>
</mgrwt>
</event>
<event>
 8    1  0.7631533E-006  0.9978446E+03  0.7818608E-02  0.8777510E-01
         21   -1    0    0  501  502  0.00000000000E+00  0.00000000000E+00  0.79449948368E+03  0.79449948368E+03  0.00000000000E+00 0.  1.
         21   -1    0    0  502  503 -0.00000000000E+00 -0.00000000000E+00 -0.12651722862E+04  0.12651722862E+04  0.00000000000E+00 0.  1.
    9000010    2    1    2  501    0  0.38206726662E+02 -0.58826314892E+02 -0.35312574338E+03  0.10549274246E+04  0.99159154459E+03 0.  0.
   -9000010    2    1    2    0  503 -0.38206726662E+02  0.58826314892E+02 -0.11754705909E+03  0.10047443452E+04  0.99537610925E+03 0.  0.
        -13    1    3    3    0    0  0.26637913214E+03 -0.20134215599E+03  0.23491758398E+03  0.40826803481E+03  0.10566000000E+00 0.  1.
          4    1    3    3  501    0 -0.22817240548E+03  0.14251584109E+03 -0.58804332736E+03  0.64665938982E+03  0.00000000000E+00 0.  1.
         13    1    4    4    0    0 -0.25438787681E+03 -0.28015063833E+03  0.25525376884E+03  0.45645598878E+03  0.10566000000E+00 0. -1.
         -4    1    4    4    0  503  0.21618115014E+03  0.33897695322E+03 -0.37280082793E+03  0.54828835643E+03  0.00000000000E+00 0. -1.
<mgrwt>
<rscale>  2 0.99689949E+03</rscale>
<asrwt>0</asrwt>
<pdfrwt beam="1">  1       21 0.12223069E+00 0.99784462E+03</pdfrwt>
<pdfrwt beam="2">  1       21 0.19464189E+00 0.99784462E+03</pdfrwt>
<totfact> 0.36731057E+01</totfact>
</mgrwt>
</event>
<event>
 8    1  0.7631533E-006  0.1102318E+04  0.7818608E-02  0.8684743E-01
         21   -1    0    0  503  502  0.00000000000E+00  0.00000000000E+00  0.13984577300E+04  0.13984577300E+04  0.00000000000E+00 0. -1.
         21   -1    0    0  501  503 -0.00000000000E+00 -0.00000000000E+00 -0.96923784167E+03  0.96923784167E+03  0.00000000000E+00 0. -1.
    9000010    2    1    2  501    0  0.12370213069E+03  0.44496766309E+03 -0.17198201020E+03  0.11120884632E+04  0.99692752983E+03 0.  0.
   -9000010    2    1    2    0  502 -0.12370213069E+03 -0.44496766309E+03  0.60120189849E+03  0.12556071085E+04  0.10009031171E+04 0.  0.
        -13    1    3    3    0    0  0.54335797146E+03  0.36340976018E+03 -0.20018695591E+03  0.68365149559E+03  0.10566000000E+00 0.  1.
          4    1    3    3  501    0 -0.41965584077E+03  0.81557902909E+02  0.28204945708E+02  0.42843696757E+03  0.00000000000E+00 0.  1.
         13    1    4    4    0    0 -0.55854096376E+03 -0.24207328749E+03  0.23720872526E+03  0.65332646910E+03  0.10566000000E+00 0. -1.
         -4    1    4    4    0  502  0.43483883308E+03 -0.20289437560E+03  0.36399317322E+03  0.60228063937E+03  0.00000000000E+00 0. -1.
<mgrwt>
<rscale>  2 0.11014150E+04</rscale>
<asrwt>0</asrwt>
<pdfrwt beam="1">  1       21 0.21514734E+00 0.11023182E+04</pdfrwt>
<pdfrwt beam="2">  1       21 0.14911351E+00 0.11023182E+04</pdfrwt>
<totfact> 0.13882491E+01</totfact>
</mgrwt>
</event>
<event>
 8    1  0.7631533E-006  0.1024634E+04  0.7818608E-02  0.8778238E-01
         21   -1    0    0  503  502  0.00000000000E+00  0.00000000000E+00  0.75011022451E+03  0.75011022451E+03  0.00000000000E+00 0.  1.
         21   -1    0    0  501  503 -0.00000000000E+00 -0.00000000000E+00 -0.12609161370E+04  0.12609161370E+04  0.00000000000E+00 0.  1.
    9000010    2    1    2  501    0 -0.19023876433E+02  0.23615584909E+03 -0.34278170918E+03  0.10804511587E+04  0.99686704892E+03 0.  0.
   -9000010    2    1    2    0  502  0.19023876433E+02 -0.23615584909E+03 -0.16802420326E+03  0.93057520278E+03  0.88408516683E+03 0.  0.
        -13    1    3    3    0    0  0.23601300425E+03 -0.23157973400E+03  0.14227663391E+03  0.35996383582E+03  0.10566000000E+00 0.  1.
          4    1    3    3  501    0 -0.25503688068E+03  0.46773558310E+03 -0.48505834309E+03  0.72048732287E+03  0.00000000000E+00 0.  1.
         13    1    4    4    0    0  0.40600320140E+03  0.68199395582E+02 -0.42165995879E+01  0.41171294366E+03  0.10566000000E+00 0. -1.
         -4    1    4    4    0  502 -0.38697932497E+03 -0.30435524468E+03 -0.16380760368E+03  0.51886225912E+03  0.00000000000E+00 0. -1.
<mgrwt>
<rscale>  2 0.99612810E+03</rscale>
<asrwt>0</asrwt>
<pdfrwt beam="1">  1       21 0.11540157E+00 0.10246343E+04</pdfrwt>
<pdfrwt beam="2">  1       21 0.19398710E+00 0.10246343E+04</pdfrwt>
<totfact> 0.43357375E+01</totfact>
</mgrwt>
</event>
<event>
 8    1  0.7631533E-006  0.9972540E+03  0.7818608E-02  0.8779722E-01
         21   -1    0    0  503  502  0.00000000000E+00  0.00000000000E+00  0.10671298128E+04  0.10671298128E+04  0.00000000000E+00 0.  1.
         21   -1    0    0  501  503 -0.00000000000E+00 -0.00000000000E+00 -0.94706324848E+03  0.94706324848E+03  0.00000000000E+00 0.  1.
    9000010    2    1    2  501    0  0.25695843397E+02  0.40927101473E+02  0.22373851056E+03  0.10115647710E+04  0.98532688021E+03 0.  0.
   -9000010    2    1    2    0  502 -0.25695843397E+02 -0.40927101473E+02 -0.10367194622E+03  0.10026282903E+04  0.99608248252E+03 0.  0.
        -13    1    3    3    0    0  0.26500487883E+03 -0.16929240618E+03  0.49950465737E+03  0.59024776026E+03  0.10566000000E+00 0.  1.
          4    1    3    3  501    0 -0.23930903543E+03  0.21021950765E+03 -0.27576614681E+03  0.42131701077E+03  0.00000000000E+00 0.  1.
         13    1    4    4    0    0  0.44603529592E+03  0.13107100383E+01 -0.24431911460E+03  0.50856763964E+03  0.10566000000E+00 0. -1.
         -4    1    4    4    0  502 -0.47173113931E+03 -0.42237811511E+02  0.14064716837E+03  0.49406065062E+03  0.00000000000E+00 0. -1.
<mgrwt>
<rscale>  2 0.99455741E+03</rscale>
<asrwt>0</asrwt>
<pdfrwt beam="1">  1       21 0.16417382E+00 0.99725404E+03</pdfrwt>
<pdfrwt beam="2">  1       21 0.14570204E+00 0.99725404E+03</pdfrwt>
<totfact> 0.39036048E+01</totfact>
</mgrwt>
</event>
<event>
 8    1  0.7631533E-006  0.1039140E+04  0.7818608E-02  0.8754196E-01
         21   -1    0    0  503  502  0.00000000000E+00  0.00000000000E+00  0.10888677283E+04  0.10888677283E+04  0.00000000000E+00 0.  1.
         21   -1    0    0  501  503 -0.00000000000E+00 -0.00000000000E+00 -0.12377678948E+04  0.12377678948E+04  0.00000000000E+00 0.  1.
    9000010    2    1    2  501    0  0.19130114217E+03 -0.51459992773E+02 -0.65722004966E+03  0.12295327047E+04  0.10200824577E+04 0.  0.
   -9000010    2    1    2    0  502 -0.19130114217E+03  0.51459992773E+02  0.50831988317E+03  0.10971029184E+04  0.95184108557E+03 0.  0.
        -13    1    3    3    0    0 -0.13685628481E+03  0.41192484090E+03 -0.12603569132E+03  0.45199195114E+03  0.10566000000E+00 0.  1.
          4    1    3    3  501    0  0.32815742698E+03 -0.46338483368E+03 -0.53118435835E+03  0.77754075360E+03  0.00000000000E+00 0.  1.
         13    1    4    4    0    0 -0.43113436393E+03  0.28561288544E+03  0.55509592901E+03  0.75867190646E+03  0.10566000000E+00 0. -1.
         -4    1    4    4    0  502  0.23983322175E+03 -0.23415289267E+03 -0.46776045842E+02  0.33843101198E+03  0.00000000000E+00 0. -1.
<mgrwt>
<rscale>  2 0.10219949E+04</rscale>
<asrwt>0</asrwt>
<pdfrwt beam="1">  1       21 0.16751811E+00 0.10391403E+04</pdfrwt>
<pdfrwt beam="2">  1       21 0.19042583E+00 0.10391403E+04</pdfrwt>
<totfact> 0.15168841E+01</totfact>
</mgrwt>
</event>
<event>
 8    1  0.7631533E-006  0.1053189E+04  0.7818608E-02  0.8744948E-01
         21   -1    0    0  501  502  0.00000000000E+00  0.00000000000E+00  0.13998779939E+04  0.13998779939E+04  0.00000000000E+00 0. -1.
         21   -1    0    0  502  503 -0.00000000000E+00 -0.00000000000E+00 -0.77241314859E+03  0.77241314859E+03  0.00000000000E+00 0. -1.
    9000010    2    1    2  501    0  0.28317164203E+03  0.80844184147E+01  0.57355576063E+03  0.11992384443E+04  0.10143742402E+04 0.  0.
   -9000010    2    1    2    0  503 -0.28317164203E+03 -0.80844184147E+01  0.53909084629E+02  0.97305269812E+03  0.92934053352E+03 0.  0.
        -13    1    3    3    0    0  0.13853119676E+02  0.49526263892E+03  0.24317459714E+03  0.55191565143E+03  0.10566000000E+00 0.  1.
          4    1    3    3  501    0  0.26931852236E+03 -0.48717822050E+03  0.33038116350E+03  0.64732279290E+03  0.00000000000E+00 0.  1.
         13    1    4    4    0    0 -0.45731435666E+03  0.33509199836E+03  0.12785692944E+03  0.58118024204E+03  0.10566000000E+00 0. -1.
         -4    1    4    4    0  503  0.17414271462E+03 -0.34317641677E+03 -0.73947844808E+02  0.39187245608E+03  0.00000000000E+00 0. -1.
<mgrwt>
<rscale>  2 0.10321597E+04</rscale>
<asrwt>0</asrwt>
<pdfrwt beam="1">  1       21 0.21536585E+00 0.10531888E+04</pdfrwt>
<pdfrwt beam="2">  1       21 0.11883279E+00 0.10531888E+04</pdfrwt>
<totfact> 0.27145703E+01</totfact>
</mgrwt>
</event>
<event>
 8    1  0.7631533E-006  0.1035144E+04  0.7818608E-02  0.8745225E-01
         21   -1    0    0  503  502  0.00000000000E+00  0.00000000000E+00  0.81029762764E+03  0.81029762764E+03  0.00000000000E+00 0. -1.
         21   -1    0    0  501  503 -0.00000000000E+00 -0.00000000000E+00 -0.16506698034E+04  0.16506698034E+04  0.00000000000E+00 0. -1.
    9000010    2    1    2  501    0  0.27238986170E+03 -0.35515359026E+02 -0.98481156250E+03  0.14287678793E+04  0.99803119275E+03 0.  0.
   -9000010    2    1    2    0  502 -0.27238986170E+03  0.35515359026E+02  0.14443938679E+03  0.10321995517E+04  0.98443669204E+03 0.  0.
        -13    1    3    3    0    0  0.52205479366E+03 -0.35243134656E+03 -0.55862638745E+03  0.84191003886E+03  0.10566000000E+00 0.  1.
          4    1    3    3  501    0 -0.24966493196E+03  0.31691598753E+03 -0.42618517506E+03  0.58685784040E+03  0.00000000000E+00 0.  1.
         13    1    4    4    0    0 -0.31321677055E+03 -0.44258274683E+03  0.75520791793E+02  0.54743733368E+03  0.10566000000E+00 0. -1.
         -4    1    4    4    0  502  0.40826908850E+02  0.47809810586E+03  0.68918594994E+02  0.48476221805E+03  0.00000000000E+00 0. -1.
<mgrwt>
<rscale>  2 0.10318535E+04</rscale>
<asrwt>0</asrwt>
<pdfrwt beam="1">  1       21 0.12466117E+00 0.10351444E+04</pdfrwt>
<pdfrwt beam="2">  1       21 0.25394920E+00 0.10351444E+04</pdfrwt>
<totfact> 0.12344362E+01</totfact>
</mgrwt>
</event>
<event>
 8    1  0.7631533E-006  0.1012154E+04  0.7818608E-02  0.8764224E-01
         21   -1    0    0  503  502  0.00000000000E+00  0.00000000000E+00  0.53692069115E+03  0.53692069115E+03  0.00000000000E+00 0.  1.
         21   -1    0    0  501  503 -0.00000000000E+00 -0.00000000000E+00 -0.19388520151E+04  0.19388520151E+04  0.00000000000E+00 0.  1.
    9000010    2    1    2  501    0  0.13379747679E+03 -0.50489818582E+02 -0.52466898991E+03  0.11363528934E+04  0.99778222216E+03 0.  0.
   -9000010    2    1    2    0  502 -0.13379747679E+03  0.50489818582E+02 -0.87726233409E+03  0.13394198129E+04  0.10020006216E+04 0.  0.
        -13    1    3    3    0    0  0.33796389694E+01  0.26025322284E+03 -0.70685981812E+03  0.75325558451E+03  0.10566000000E+00 0.  1.
          4    1    3    3  501    0  0.13041783782E+03 -0.31074304142E+03  0.18219082821E+03  0.38309730892E+03  0.00000000000E+00 0.  1.
         13    1    4    4    0    0  0.34299525310E+02 -0.31045898876E+03  0.62720268983E+02  0.31858293181E+03  0.10566000000E+00 0. -1.
         -4    1    4    4    0  502 -0.16809700210E+03  0.36094880734E+03 -0.93998260307E+03  0.10208368810E+04  0.00000000000E+00 0. -1.
<mgrwt>
<rscale>  2 0.10111087E+04</rscale>
<asrwt>0</asrwt>
<pdfrwt beam="1">  1       21 0.82603181E-01 0.10121543E+04</pdfrwt>
<pdfrwt beam="2">  1       21 0.29828493E+00 0.10121543E+04</pdfrwt>
<totfact> 0.17773383E+01</totfact>
</mgrwt>
</event>
<event>
 8    1  0.7631533E-006  0.1091451E+04  0.7818608E-02  0.8693841E-01
         21   -1    0    0  503  502  0.00000000000E+00  0.00000000000E+00  0.94963154060E+03  0.94963154060E+03  0.00000000000E+00 0.  1.
         21   -1    0    0  501  503 -0.00000000000E+00 -0.00000000000E+00 -0.17857377535E+04  0.17857377535E+04  0.00000000000E+00 0.  1.
    9000010    2    1    2  501    0  0.34187203012E+03 -0.29781324480E+03  0.33116491466E+03  0.11373119961E+04  0.98905973630E+03 0.  0.
   -9000010    2    1    2    0  502 -0.34187203012E+03  0.29781324480E+03 -0.11672711275E+04  0.15980572980E+04  0.99282225436E+03 0.  0.
        -13    1    3    3    0    0 -0.12843691774E+03 -0.54163543061E+03  0.13866022925E+03  0.57366510428E+03  0.10566000000E+00 0.  1.
          4    1    3    3  501    0  0.47030894786E+03  0.24382218581E+03  0.19250468541E+03  0.56364689180E+03  0.00000000000E+00 0.  1.
         13    1    4    4    0    0 -0.61685110878E+03 -0.76843589311E+02 -0.74344153453E+03  0.96907974597E+03  0.10566000000E+00 0. -1.
         -4    1    4    4    0  502  0.27497907866E+03  0.37465683411E+03 -0.42382959301E+03  0.62897755203E+03  0.00000000000E+00 0. -1.
<mgrwt>
<rscale>  2 0.10905946E+04</rscale>
<asrwt>0</asrwt>
<pdfrwt beam="1">  1       21 0.14609716E+00 0.10914510E+04</pdfrwt>
<pdfrwt beam="2">  1       21 0.27472888E+00 0.10914510E+04</pdfrwt>
<totfact> 0.54172373E+00</totfact>
</mgrwt>
</event>
<event>
 8    1  0.7631533E-006  0.1017605E+04  0.7818608E-02  0.8763851E-01
         21   -1    0    0  501  502  0.00000000000E+00  0.00000000000E+00  0.10396698318E+04  0.10396698318E+04  0.00000000000E+00 0. -1.
         21   -1    0    0  502  503 -0.00000000000E+00 -0.00000000000E+00 -0.12793848426E+04  0.12793848426E+04  0.00000000000E+00 0. -1.
    9000010    2    1    2  501    0  0.14086657666E+03 -0.20194405588E+02  0.44909899536E+03  0.10902403724E+04  0.98320036389E+03 0.  0.
   -9000010    2    1    2    0  503 -0.14086657666E+03  0.20194405588E+02 -0.68881400617E+03  0.12288143020E+04  0.10076054026E+04 0.  0.
        -13    1    3    3    0    0 -0.70885916565E+02  0.33183597244E+03  0.56881990427E+03  0.66234131717E+03  0.10566000000E+00 0.  1.
          4    1    3    3  501    0  0.21175249322E+03 -0.35203037803E+03 -0.11972090891E+03  0.42789905524E+03  0.00000000000E+00 0.  1.
         13    1    4    4    0    0  0.29230029807E+02  0.49448976150E+03 -0.45781283100E+03  0.67451250415E+03  0.10566000000E+00 0. -1.
         -4    1    4    4    0  503 -0.17009660647E+03 -0.47429535591E+03 -0.23100117517E+03  0.55430179785E+03  0.00000000000E+00 0. -1.
<mgrwt>
<rscale>  2 0.10115106E+04</rscale>
<asrwt>0</asrwt>
<pdfrwt beam="1">  1       21 0.15994921E+00 0.10176050E+04</pdfrwt>
<pdfrwt beam="2">  1       21 0.19682844E+00 0.10176050E+04</pdfrwt>
<totfact> 0.15745032E+01</totfact>
</mgrwt>
</event>
<event>
 8    1  0.7631533E-006  0.1083475E+04  0.7818608E-02  0.8708788E-01
         21   -1    0    0  503  502  0.00000000000E+00  0.00000000000E+00  0.17652491275E+04  0.17652491275E+04  0.00000000000E+00 0.  1.
         21   -1    0    0  501  503 -0.00000000000E+00 -0.00000000000E+00 -0.64395061344E+03  0.64395061344E+03  0.00000000000E+00 0.  1.
    9000010    2    1    2  501    0  0.27960778161E+03 -0.17522401833E+03  0.47868196268E+03  0.11845057740E+04  0.10320046216E+04 0.  0.
   -9000010    2    1    2    0  502 -0.27960778161E+03  0.17522401833E+03  0.64261655143E+03  0.12246939670E+04  0.98895667879E+03 0.  0.
        -13    1    3    3    0    0  0.57146384769E+03 -0.25769236152E+03  0.10854299956E+02  0.62697217593E+03  0.10566000000E+00 0.  1.
          4    1    3    3  501    0 -0.29185606608E+03  0.82468343183E+02  0.46782766272E+03  0.55753359804E+03  0.00000000000E+00 0.  1.
         13    1    4    4    0    0 -0.99736468703E+02 -0.41433318584E+03  0.26228302962E+03  0.50041158146E+03  0.10566000000E+00 0. -1.
         -4    1    4    4    0  502 -0.17987131291E+03  0.58955720417E+03  0.38033352181E+03  0.72428238554E+03  0.00000000000E+00 0. -1.
<mgrwt>
<rscale>  2 0.10730964E+04</rscale>
<asrwt>0</asrwt>
<pdfrwt beam="1">  1       21 0.27157679E+00 0.10834747E+04</pdfrwt>
<pdfrwt beam="2">  1       21 0.99069326E-01 0.10834747E+04</pdfrwt>
<totfact> 0.17036908E+01</totfact>
</mgrwt>
</event>
<event>
 8    1  0.7631533E-006  0.1039098E+04  0.7818608E-02  0.8742499E-01
         21   -1    0    0  503  502  0.00000000000E+00  0.00000000000E+00  0.18786802109E+04  0.18786802109E+04  0.00000000000E+00 0.  1.
         21   -1    0    0  501  503 -0.00000000000E+00 -0.00000000000E+00 -0.69379219895E+03  0.69379219895E+03  0.00000000000E+00 0.  1.
    9000010    2    1    2  501    0  0.19374364552E+03 -0.14612472023E+03  0.43226349658E+02  0.10399964908E+04  0.10103638698E+04 0.  0.
   -9000010    2    1    2    0  502 -0.19374364552E+03  0.14612472023E+03  0.11416616623E+04  0.15324759191E+04  0.99307706521E+03 0.  0.
        -13    1    3    3    0    0 -0.24393210138E+03 -0.28448687227E+03  0.32951175634E+03  0.49901268451E+03  0.10566000000E+00 0.  1.
          4    1    3    3  501    0  0.43767574690E+03  0.13836215203E+03 -0.28628540668E+03  0.54098380624E+03  0.00000000000E+00 0.  1.
         13    1    4    4    0    0  0.32895270034E+02 -0.41338737385E+03  0.53169443940E+03  0.67429237553E+03  0.10566000000E+00 0. -1.
         -4    1    4    4    0  502 -0.22663891555E+03  0.55951209408E+03  0.60996722293E+03  0.85818354360E+03  0.00000000000E+00 0. -1.
<mgrwt>
<rscale>  2 0.10348719E+04</rscale>
<asrwt>0</asrwt>
<pdfrwt beam="1">  1       21 0.28902772E+00 0.10390978E+04</pdfrwt>
<pdfrwt beam="2">  1       21 0.10673726E+00 0.10390978E+04</pdfrwt>
<totfact> 0.10610681E+01</totfact>
</mgrwt>
</event>
<event>
 8    1  0.7631533E-006  0.1020469E+04  0.7818608E-02  0.8757030E-01
         21   -1    0    0  501  502  0.00000000000E+00  0.00000000000E+00  0.18182285472E+04  0.18182285472E+04  0.00000000000E+00 0. -1.
         21   -1    0    0  502  503 -0.00000000000E+00 -0.00000000000E+00 -0.65843202704E+03  0.65843202704E+03  0.00000000000E+00 0. -1.
    9000010    2    1    2  501    0 -0.11221616833E+03  0.19868287219E+02  0.10372227035E+04  0.14550559824E+04  0.10140856759E+04 0.  0.
   -9000010    2    1    2    0  503  0.11221616833E+03 -0.19868287219E+02  0.12257381663E+03  0.10216045918E+04  0.10078017584E+04 0.  0.
        -13    1    3    3    0    0 -0.25844432417E+03 -0.27199916828E+03  0.10633097426E+04  0.11275658013E+04  0.10566000000E+00 0.  1.
          4    1    3    3  501    0  0.14622815584E+03  0.29186745550E+03 -0.26087039150E+02  0.32749018115E+03  0.00000000000E+00 0.  1.
         13    1    4    4    0    0  0.24014859620E+03 -0.99705145877E+02 -0.40034458499E+03  0.47737643664E+03  0.10566000000E+00 0. -1.
         -4    1    4    4    0  503 -0.12793242787E+03  0.79836858658E+02  0.52291840162E+03  0.54422815515E+03  0.00000000000E+00 0. -1.
<mgrwt>
<rscale>  2 0.10189043E+04</rscale>
<asrwt>0</asrwt>
<pdfrwt beam="1">  1       21 0.27972747E+00 0.10204690E+04</pdfrwt>
<pdfrwt beam="2">  1       21 0.10129724E+00 0.10204690E+04</pdfrwt>
<totfact> 0.14255440E+01</totfact>
</mgrwt>
</event>
<event>
 8    1  0.7631533E-006  0.1077318E+04  0.7818608E-02  0.8705339E-01
         21   -1    0    0  503  502  0.00000000000E+00  0.00000000000E+00  0.14602226658E+04  0.14602226658E+04  0.00000000000E+00 0. -1.
         21   -1    0    0  501  503 -0.00000000000E+00 -0.00000000000E+00 -0.90479100139E+03  0.90479100139E+03  0.00000000000E+00 0. -1.
    9000010    2    1    2  501    0 -0.38232948706E+03 -0.76475209512E+02 -0.13582197035E+03  0.10849958818E+04  0.10033664144E+04 0.  0.
   -9000010    2    1    2    0  502  0.38232948706E+03  0.76475209512E+02  0.69125363480E+03  0.12800177854E+04  0.10042856411E+04 0.  0.
        -13    1    3    3    0    0 -0.43604783266E+03 -0.49079532472E+03 -0.49496798874E+02  0.65838264512E+03  0.10566000000E+00 0.  1.
          4    1    3    3  501    0  0.53718345601E+02  0.41432011520E+03 -0.86325171475E+02  0.42661323672E+03  0.00000000000E+00 0.  1.
         13    1    4    4    0    0  0.11067801206E+03  0.50361066738E+03  0.14575234020E+03  0.53583307335E+03  0.10566000000E+00 0. -1.
         -4    1    4    4    0  502  0.27165147500E+03 -0.42713545787E+03  0.54550129460E+03  0.74418471205E+03  0.00000000000E+00 0. -1.
<mgrwt>
<rscale>  2 0.10771037E+04</rscale>
<asrwt>0</asrwt>
<pdfrwt beam="1">  1       21 0.22464964E+00 0.10773179E+04</pdfrwt>
<pdfrwt beam="2">  1       21 0.13919862E+00 0.10773179E+04</pdfrwt>
<totfact> 0.14573573E+01</totfact>
</mgrwt>
</event>
<event>
 8    1  0.7631533E-006  0.1032375E+04  0.7818608E-02  0.8746847E-01
         21   -1    0    0  501  502  0.00000000000E+00  0.00000000000E+00  0.17814920127E+04  0.17814920127E+04  0.00000000000E+00 0. -1.
         21   -1    0    0  502  503 -0.00000000000E+00 -0.00000000000E+00 -0.89150406229E+03  0.89150406229E+03  0.00000000000E+00 0. -1.
    9000010    2    1    2  501    0  0.17199647500E+03 -0.12089135786E+03  0.12171108145E+04  0.15900333872E+04  0.10013240884E+04 0.  0.
   -9000010    2    1    2    0  503 -0.17199647500E+03  0.12089135786E+03 -0.32712286404E+03  0.10829626878E+04  0.10107429481E+04 0.  0.
        -13    1    3    3    0    0 -0.70274115291E+01  0.36995911330E+03  0.91385089805E+03  0.98592221045E+03  0.10566000000E+00 0.  1.
          4    1    3    3  501    0  0.17902388653E+03 -0.49085047117E+03  0.30325991640E+03  0.60411117676E+03  0.00000000000E+00 0.  1.
         13    1    4    4    0    0 -0.17018612546E+03  0.55745056406E+03 -0.10177402817E+03  0.59166917499E+03  0.10566000000E+00 0. -1.
         -4    1    4    4    0  503 -0.18103495424E+01 -0.43655920619E+03 -0.22534883587E+03  0.49129351279E+03  0.00000000000E+00 0. -1.
<mgrwt>
<rscale>  2 0.10300626E+04</rscale>
<asrwt>0</asrwt>
<pdfrwt beam="1">  1       21 0.27407569E+00 0.10323753E+04</pdfrwt>
<pdfrwt beam="2">  1       21 0.13715447E+00 0.10323753E+04</pdfrwt>
<totfact> 0.67120010E+00</totfact>
</mgrwt>
</event>
<event>
 8    1  0.7631533E-006  0.1046388E+04  0.7818608E-02  0.8732816E-01
         21   -1    0    0  503  502  0.00000000000E+00  0.00000000000E+00  0.56526453113E+03  0.56526453113E+03  0.00000000000E+00 0.  1.
         21   -1    0    0  501  503 -0.00000000000E+00 -0.00000000000E+00 -0.20732259509E+04  0.20732259509E+04  0.00000000000E+00 0.  1.
    9000010    2    1    2  501    0 -0.29101751173E+03  0.15492447273E+03 -0.10976089145E+04  0.15145168568E+04  0.99011271880E+03 0.  0.
   -9000010    2    1    2    0  502  0.29101751173E+03 -0.15492447273E+03 -0.41035250532E+03  0.11239736253E+04  0.99309352397E+03 0.  0.
        -13    1    3    3    0    0 -0.20247073504E+03  0.94896774343E+01  0.15200409562E+03  0.25335688026E+03  0.10566000000E+00 0.  1.
          4    1    3    3  501    0 -0.88546776692E+02  0.14543479529E+03 -0.12496130101E+04  0.12611599765E+04  0.00000000000E+00 0.  1.
         13    1    4    4    0    0 -0.27181918931E+03 -0.28191105017E+03 -0.38080348073E+03  0.54623329630E+03  0.10566000000E+00 0. -1.
         -4    1    4    4    0  502  0.56283670104E+03  0.12698657744E+03 -0.29549024586E+02  0.57774032899E+03  0.00000000000E+00 0. -1.
<mgrwt>
<rscale>  2 0.10456800E+04</rscale>
<asrwt>0</asrwt>
<pdfrwt beam="1">  1       21 0.86963774E-01 0.10463878E+04</pdfrwt>
<pdfrwt beam="2">  1       21 0.31895784E+00 0.10463878E+04</pdfrwt>
<totfact> 0.11082426E+01</totfact>
</mgrwt>
</event>
<event>
 8    1  0.7631533E-006  0.1048523E+04  0.7818608E-02  0.8734561E-01
         21   -1    0    0  503  502  0.00000000000E+00  0.00000000000E+00  0.97738333843E+03  0.97738333843E+03  0.00000000000E+00 0.  1.
         21   -1    0    0  501  503 -0.00000000000E+00 -0.00000000000E+00 -0.11472314769E+04  0.11472314769E+04  0.00000000000E+00 0.  1.
    9000010    2    1    2  501    0 -0.16872871056E+03 -0.10525926815E+03 -0.29074394170E+03  0.10880864205E+04  0.10294907127E+04 0.  0.
   -9000010    2    1    2    0  502  0.16872871056E+03  0.10525926815E+03  0.12089580320E+03  0.10365283949E+04  0.10100625856E+04 0.  0.
        -13    1    3    3    0    0 -0.36161370102E+03 -0.42609634661E+03 -0.41230370136E+03  0.69449040215E+03  0.10566000000E+00 0.  1.
          4    1    3    3  501    0  0.19288499046E+03  0.32083707846E+03  0.12155975966E+03  0.39359601830E+03  0.00000000000E+00 0.  1.
         13    1    4    4    0    0 -0.22886566859E+03  0.43878925335E+03 -0.30803546663E+02  0.49584712640E+03  0.10566000000E+00 0. -1.
         -4    1    4    4    0  502  0.39759437915E+03 -0.33352998520E+03  0.15169934986E+03  0.54068126850E+03  0.00000000000E+00 0. -1.
<mgrwt>
<rscale>  2 0.10437227E+04</rscale>
<asrwt>0</asrwt>
<pdfrwt beam="1">  1       21 0.15036667E+00 0.10485228E+04</pdfrwt>
<pdfrwt beam="2">  1       21 0.17649715E+00 0.10485228E+04</pdfrwt>
<totfact> 0.27628987E+01</totfact>
</mgrwt>
</event>
<event>
 8    1  0.7631533E-006  0.1060762E+04  0.7818608E-02  0.8721683E-01
         21   -1    0    0  503  502  0.00000000000E+00  0.00000000000E+00  0.12616846288E+04  0.12616846288E+04  0.00000000000E+00 0. -1.
         21   -1    0    0  501  503 -0.00000000000E+00 -0.00000000000E+00 -0.99438196808E+03  0.99438196808E+03  0.00000000000E+00 0. -1.
    9000010    2    1    2  501    0  0.25666623714E+03  0.90179595626E+02 -0.24354893199E+03  0.10787029738E+04  0.10150241902E+04 0.  0.
   -9000010    2    1    2    0  502 -0.25666623714E+03 -0.90179595626E+02  0.51085159270E+03  0.11773636230E+04  0.10252832947E+04 0.  0.
        -13    1    3    3    0    0 -0.37375044335E+03 -0.10279374686E+03 -0.45392857259E+02  0.39027742818E+03  0.10566000000E+00 0.  1.
          4    1    3    3  501    0  0.63041668049E+03  0.19297334248E+03 -0.19815607473E+03  0.68842554565E+03  0.00000000000E+00 0.  1.
         13    1    4    4    0    0  0.58796808094E+02 -0.15611913890E+03 -0.27856346710E+03  0.32469657611E+03  0.10566000000E+00 0. -1.
         -4    1    4    4    0  502 -0.31546304524E+03  0.65939543274E+02  0.78941505980E+03  0.85266704693E+03  0.00000000000E+00 0. -1.
<mgrwt>
<rscale>  2 0.10582750E+04</rscale>
<asrwt>0</asrwt>
<pdfrwt beam="1">  1       21 0.19410533E+00 0.10607619E+04</pdfrwt>
<pdfrwt beam="2">  1       21 0.15298184E+00 0.10607619E+04</pdfrwt>
<totfact> 0.18837655E+01</totfact>
</mgrwt>
</event>
<event>
 8    1  0.7631533E-006  0.1027708E+04  0.7818608E-02  0.8751905E-01
         21   -1    0    0  503  502  0.00000000000E+00  0.00000000000E+00  0.14701169031E+04  0.14701169031E+04  0.00000000000E+00 0.  1.
         21   -1    0    0  501  503 -0.00000000000E+00 -0.00000000000E+00 -0.78823022253E+03  0.78823022253E+03  0.00000000000E+00 0.  1.
    9000010    2    1    2  501    0 -0.12192810809E+03 -0.15549683424E+03 -0.17750477679E+02  0.10150948077E+04  0.99551828721E+03 0.  0.
   -9000010    2    1    2    0  502  0.12192810809E+03  0.15549683424E+03  0.69963715822E+03  0.12432523179E+04  0.10085328174E+04 0.  0.
        -13    1    3    3    0    0  0.40192156369E+03 -0.25325679012E+03 -0.67733881989E+02  0.47986230841E+03  0.10566000000E+00 0.  1.
          4    1    3    3  501    0 -0.52384967178E+03  0.97759955880E+02  0.49983404311E+02  0.53523249929E+03  0.00000000000E+00 0.  1.
         13    1    4    4    0    0  0.38790035842E+03 -0.30241987371E+03  0.26841640213E+03  0.56033190537E+03  0.10566000000E+00 0. -1.
         -4    1    4    4    0  502 -0.26597225034E+03  0.45791670794E+03  0.43122075609E+03  0.68292041253E+03  0.00000000000E+00 0. -1.
<mgrwt>
<rscale>  2 0.10245011E+04</rscale>
<asrwt>0</asrwt>
<pdfrwt beam="1">  1       21 0.22617183E+00 0.10277082E+04</pdfrwt>
<pdfrwt beam="2">  1       21 0.12126619E+00 0.10277082E+04</pdfrwt>
<totfact> 0.21390649E+01</totfact>
</mgrwt>
</event>
<event>
 8    1  0.7631533E-006  0.1010501E+04  0.7818608E-02  0.8765332E-01
         21   -1    0    0  503  502  0.00000000000E+00  0.00000000000E+00  0.47153982053E+03  0.47153982053E+03  0.00000000000E+00 0. -1.
         21   -1    0    0  501  503 -0.00000000000E+00 -0.00000000000E+00 -0.22321852701E+04  0.22321852701E+04  0.00000000000E+00 0. -1.
    9000010    2    1    2  501    0  0.70909296809E+02 -0.15246237607E+03 -0.11216614103E+04  0.15081448246E+04  0.99403399743E+03 0.  0.
   -9000010    2    1    2    0  502 -0.70909296809E+02  0.15246237607E+03 -0.63898403922E+03  0.11955802660E+04  0.99641289916E+03 0.  0.
        -13    1    3    3    0    0  0.38743527182E+02 -0.55890703580E+03 -0.85066827731E+03  0.10185846380E+04  0.10566000000E+00 0.  1.
          4    1    3    3  501    0  0.32165769627E+02  0.40644465973E+03 -0.27099313302E+03  0.48956018660E+03  0.00000000000E+00 0.  1.
         13    1    4    4    0    0 -0.28169871595E+03  0.11046546670E+02 -0.83086120516E+03  0.87738620127E+03  0.10566000000E+00 0. -1.
         -4    1    4    4    0  502  0.21078941914E+03  0.14141582940E+03  0.19187716595E+03  0.31819406475E+03  0.00000000000E+00 0. -1.
<mgrwt>
<rscale>  2 0.10099137E+04</rscale>
<asrwt>0</asrwt>
<pdfrwt beam="1">  1       21 0.72544589E-01 0.10105007E+04</pdfrwt>
<pdfrwt beam="2">  1       21 0.34341311E+00 0.10105007E+04</pdfrwt>
<totfact> 0.11722756E+01</totfact>
</mgrwt>
</event>
<event>
 8    1  0.7631533E-006  0.1246202E+04  0.7818608E-02  0.8575367E-01
         21   -1    0    0  501  502  0.00000000000E+00  0.00000000000E+00  0.20333596066E+04  0.20333596066E+04  0.00000000000E+00 0. -1.
         21   -1    0    0  502  503 -0.00000000000E+00 -0.00000000000E+00 -0.13324472835E+04  0.13324472835E+04  0.00000000000E+00 0.  1.
    9000010    2    1    2  501    0  0.14525426551E+03  0.71896405172E+03 -0.75683799963E+03  0.14580204286E+04  0.10074778921E+04 0.  0.
   -9000010    2    1    2    0  503 -0.14525426551E+03 -0.71896405172E+03  0.14577503228E+04  0.19077864615E+04  0.98823330745E+03 0.  0.
        -13    1    3    3    0    0  0.45188522446E+03  0.30661534183E+03 -0.77000249183E+03  0.94398997480E+03  0.10566000000E+00 0.  1.
          4    1    3    3  501    0 -0.30663095895E+03  0.41234870988E+03  0.13164492196E+02  0.51403045375E+03  0.00000000000E+00 0.  1.
         13    1    4    4    0    0 -0.10813497786E+02  0.23546263679E+03  0.48043865291E+03  0.53514567684E+03  0.10566000000E+00 0. -1.
         -4    1    4    4    0  503 -0.13444076772E+03 -0.95442668851E+03  0.97731166987E+03  0.13726407847E+04  0.00000000000E+00 0. -1.
<mgrwt>
<rscale>  2 0.12423075E+04</rscale>
<asrwt>0</asrwt>
<pdfrwt beam="1">  1       21 0.31282456E+00 0.12462022E+04</pdfrwt>
<pdfrwt beam="2">  1       21 0.20499189E+00 0.12462022E+04</pdfrwt>
<totfact> 0.90867650E-01</totfact>
</mgrwt>
</event>
<event>
 8    1  0.7631533E-006  0.1011774E+04  0.7818608E-02  0.8764605E-01
         21   -1    0    0  503  502  0.00000000000E+00  0.00000000000E+00  0.72077014920E+03  0.72077014920E+03  0.00000000000E+00 0. -1.
         21   -1    0    0  501  503 -0.00000000000E+00 -0.00000000000E+00 -0.15996247939E+04  0.15996247939E+04  0.00000000000E+00 0. -1.
    9000010    2    1    2  501    0 -0.84850689673E+02  0.14786514088E+03 -0.83356751158E+03  0.13076079025E+04  0.99294505931E+03 0.  0.
   -9000010    2    1    2    0  502  0.84850689673E+02 -0.14786514088E+03 -0.45287133096E+02  0.10127870406E+04  0.99730783902E+03 0.  0.
        -13    1    3    3    0    0 -0.17796475032E+03 -0.18987374863E+03 -0.91216397397E+03  0.94856028768E+03  0.10566000000E+00 0.  1.
          4    1    3    3  501    0  0.93114060651E+02  0.33773888951E+03  0.78596462399E+02  0.35904761478E+03  0.00000000000E+00 0.  1.
         13    1    4    4    0    0 -0.11130904101E+03 -0.46038268757E+03 -0.30340052141E+03  0.56248894139E+03  0.10566000000E+00 0. -1.
         -4    1    4    4    0  502  0.19615973068E+03  0.31251754669E+03  0.25811338832E+03  0.45029809922E+03  0.00000000000E+00 0. -1.
<mgrwt>
<rscale>  2 0.10106973E+04</rscale>
<asrwt>0</asrwt>
<pdfrwt beam="1">  1       21 0.11088772E+00 0.10117740E+04</pdfrwt>
<pdfrwt beam="2">  1       21 0.24609612E+00 0.10117740E+04</pdfrwt>
<totfact> 0.19592939E+01</totfact>
</mgrwt>
</event>
<event>
 8    1  0.7631533E-006  0.1132019E+04  0.7818608E-02  0.8698068E-01
         21   -1    0    0  501  502  0.00000000000E+00  0.00000000000E+00  0.20139184919E+04  0.20139184919E+04  0.00000000000E+00 0.  1.
         21   -1    0    0  502  503 -0.00000000000E+00 -0.00000000000E+00 -0.63176925782E+03  0.63176925782E+03  0.00000000000E+00 0. -1.
    9000010    2    1    2  501    0  0.42215510386E+03  0.30393195759E+03  0.12377864732E+04  0.16773735610E+04  0.10054238626E+04 0.  0.
   -9000010    2    1    2    0  503 -0.42215510386E+03 -0.30393195759E+03  0.14436276087E+03  0.96831418864E+03  0.80386702546E+03 0.  0.
        -13    1    3    3    0    0  0.84667491931E+01  0.36257766837E+03 -0.86405524094E+01  0.36277943954E+03  0.10566000000E+00 0.  1.
          4    1    3    3  501    0  0.41368835467E+03 -0.58645710778E+02  0.12464270256E+04  0.13145941215E+04  0.00000000000E+00 0.  1.
         13    1    4    4    0    0 -0.18994578131E+03 -0.55031837342E+03 -0.38633157306E+02  0.58345714836E+03  0.10566000000E+00 0. -1.
         -4    1    4    4    0  503 -0.23220932255E+03  0.24638641583E+03  0.18299591817E+03  0.38485704028E+03  0.00000000000E+00 0. -1.
<mgrwt>
<rscale>  2 0.10856106E+04</rscale>
<asrwt>0</asrwt>
<pdfrwt beam="1">  1       21 0.30983361E+00 0.11320189E+04</pdfrwt>
<pdfrwt beam="2">  1       21 0.97195271E-01 0.11320189E+04</pdfrwt>
<totfact> 0.94792527E+00</totfact>
</mgrwt>
</event>
<event>
 8    1  0.7631533E-006  0.1059637E+04  0.7818608E-02  0.8725173E-01
         21   -1    0    0  501  502  0.00000000000E+00  0.00000000000E+00  0.43104398103E+03  0.43104398103E+03  0.00000000000E+00 0. -1.
         21   -1    0    0  502  503 -0.00000000000E+00 -0.00000000000E+00 -0.34448747003E+04  0.34448747003E+04  0.00000000000E+00 0. -1.
    9000010    2    1    2  501    0 -0.26829130077E+03 -0.23359872568E+02 -0.50970344559E+03  0.11568226527E+04  0.10029532101E+04 0.  0.
   -9000010    2    1    2    0  503  0.26829130077E+03  0.23359872568E+02 -0.25041272737E+04  0.27190960287E+04  0.10248433561E+04 0.  0.
        -13    1    3    3    0    0 -0.61473170955E+03  0.16919847715E+03 -0.26130111352E+03  0.68905840281E+03  0.10566000000E+00 0.  1.
          4    1    3    3  501    0  0.34644040878E+03 -0.19255834972E+03 -0.24840233207E+03  0.46776424987E+03  0.00000000000E+00 0.  1.
         13    1    4    4    0    0  0.47453852989E+03 -0.92979609852E+02 -0.24199372174E+04  0.24677779826E+04  0.10566000000E+00 0. -1.
         -4    1    4    4    0  503 -0.20624722912E+03  0.11633948242E+03 -0.84190056296E+02  0.25131804604E+03  0.00000000000E+00 0. -1.
<mgrwt>
<rscale>  2 0.10543075E+04</rscale>
<asrwt>0</asrwt>
<pdfrwt beam="1">  1       21 0.66314456E-01 0.10596366E+04</pdfrwt>
<pdfrwt beam="2">  1       21 0.52998074E+00 0.10596366E+04</pdfrwt>
<totfact> 0.71743943E-01</totfact>
</mgrwt>
</event>
<event>
 8    1  0.7631533E-006  0.1317559E+04  0.7818608E-02  0.8561105E-01
         21   -1    0    0  501  502  0.00000000000E+00  0.00000000000E+00  0.15931175783E+04  0.15931175783E+04  0.00000000000E+00 0.  1.
         21   -1    0    0  502  503 -0.00000000000E+00 -0.00000000000E+00 -0.98538713889E+03  0.98538713889E+03  0.00000000000E+00 0.  1.
    9000010    2    1    2  501    0  0.48643164098E+03  0.51192256918E+02  0.59840355697E+03  0.12609129974E+04  0.99628227997E+03 0.  0.
   -9000010    2    1    2    0  503 -0.48643164098E+03 -0.51192256918E+02  0.93268824481E+01  0.13175917198E+04  0.12234069482E+04 0.  0.
        -13    1    3    3    0    0  0.36354701841E+03  0.21208622883E+03 -0.17915398942E+03  0.45743105069E+03  0.10566000000E+00 0.  1.
          4    1    3    3  501    0  0.12288462257E+03 -0.16089397191E+03  0.77755754639E+03  0.80348194666E+03  0.00000000000E+00 0.  1.
         13    1    4    4    0    0  0.31664972598E+03 -0.21065811637E+03 -0.25421777670E+03  0.45746101485E+03  0.10566000000E+00 0. -1.
         -4    1    4    4    0  503 -0.80308136696E+03  0.15946585945E+03  0.26354465915E+03  0.86013070499E+03  0.00000000000E+00 0. -1.
<mgrwt>
<rscale>  2 0.12622508E+04</rscale>
<asrwt>0</asrwt>
<pdfrwt beam="1">  1       21 0.24509501E+00 0.13175587E+04</pdfrwt>
<pdfrwt beam="2">  1       21 0.15159802E+00 0.13175587E+04</pdfrwt>
<totfact> 0.75528242E+00</totfact>
</mgrwt>
</event>
<event>
 8    1  0.7631533E-006  0.1046353E+04  0.7818608E-02  0.8740003E-01
         21   -1    0    0  503  502  0.00000000000E+00  0.00000000000E+00  0.10337370657E+04  0.10337370657E+04  0.00000000000E+00 0.  1.
         21   -1    0    0  501  503 -0.00000000000E+00 -0.00000000000E+00 -0.12938889972E+04  0.12938889972E+04  0.00000000000E+00 0.  1.
    9000010    2    1    2  501    0 -0.18447223389E+03  0.17122279753E+03 -0.66268489863E+03  0.12385497034E+04  0.10156312528E+04 0.  0.
   -9000010    2    1    2    0  502  0.18447223389E+03 -0.17122279753E+03  0.40253296711E+03  0.10890763594E+04  0.98015676072E+03 0.  0.
        -13    1    3    3    0    0 -0.51095673536E+03 -0.20286641872E+03 -0.35555610013E+03  0.65471499201E+03  0.10566000000E+00 0.  1.
          4    1    3    3  501    0  0.32648450148E+03  0.37408921624E+03 -0.30712879850E+03  0.58383471144E+03  0.00000000000E+00 0.  1.
         13    1    4    4    0    0 -0.24424747786E+03  0.28809941428E+03  0.20880105677E+03  0.43157385860E+03  0.10566000000E+00 0. -1.
         -4    1    4    4    0  502  0.42871971175E+03 -0.45932221181E+03  0.19373191033E+03  0.65750250082E+03  0.00000000000E+00 0. -1.
<mgrwt>
<rscale>  2 0.10376454E+04</rscale>
<asrwt>0</asrwt>
<pdfrwt beam="1">  1       21 0.15903647E+00 0.10463528E+04</pdfrwt>
<pdfrwt beam="2">  1       21 0.19905984E+00 0.10463528E+04</pdfrwt>
<totfact> 0.15296274E+01</totfact>
</mgrwt>
</event>
<event>
 8    1  0.7631533E-006  0.1067824E+04  0.7818608E-02  0.8717856E-01
         21   -1    0    0  503  502  0.00000000000E+00  0.00000000000E+00  0.72752646925E+03  0.72752646925E+03  0.00000000000E+00 0. -1.
         21   -1    0    0  501  503 -0.00000000000E+00 -0.00000000000E+00 -0.16771254938E+04  0.16771254938E+04  0.00000000000E+00 0. -1.
    9000010    2    1    2  501    0  0.19272245558E+03 -0.25904585611E+03 -0.81775571121E+03  0.13287195828E+04  0.99625530166E+03 0.  0.
   -9000010    2    1    2    0  502 -0.19272245558E+03  0.25904585611E+03 -0.13184331337E+03  0.10759323803E+04  0.10178414057E+04 0.  0.
        -13    1    3    3    0    0 -0.33218235971E+03  0.76434571325E+02 -0.55779621961E+03  0.65370023526E+03  0.10566000000E+00 0.  1.
          4    1    3    3  501    0  0.52490481529E+03 -0.33548042743E+03 -0.25995949160E+03  0.67501934756E+03  0.00000000000E+00 0.  1.
         13    1    4    4    0    0 -0.56286533147E+02  0.31830206445E+03  0.40539166364E+03  0.51848509155E+03  0.10566000000E+00 0. -1.
         -4    1    4    4    0  502 -0.13643592243E+03 -0.59256208339E+02 -0.53723497701E+03  0.55744728870E+03  0.00000000000E+00 0. -1.
<mgrwt>
<rscale>  2 0.10626475E+04</rscale>
<asrwt>0</asrwt>
<pdfrwt beam="1">  1       21 0.11192715E+00 0.10678239E+04</pdfrwt>
<pdfrwt beam="2">  1       21 0.25801931E+00 0.10678239E+04</pdfrwt>
<totfact> 0.15449716E+01</totfact>
</mgrwt>
</event>
<event>
 8    1  0.7631533E-006  0.1022019E+04  0.7818608E-02  0.8759032E-01
         21   -1    0    0  501  502  0.00000000000E+00  0.00000000000E+00  0.14215856213E+04  0.14215856213E+04  0.00000000000E+00 0.  1.
         21   -1    0    0  502  503 -0.00000000000E+00 -0.00000000000E+00 -0.10862597652E+04  0.10862597652E+04  0.00000000000E+00 0.  1.
    9000010    2    1    2  501    0 -0.91767979930E+02 -0.58518135026E+02  0.89716288797E+03  0.13599351830E+04  0.10162070262E+04 0.  0.
   -9000010    2    1    2    0  503  0.91767979930E+02  0.58518135026E+02 -0.56183703186E+03  0.11479102035E+04  0.99508353954E+03 0.  0.
        -13    1    3    3    0    0  0.66659237608E+02  0.41604608294E+03  0.12436467593E+03  0.43932263869E+03  0.10566000000E+00 0.  1.
          4    1    3    3  501    0 -0.15842721754E+03 -0.47456421796E+03  0.77279821204E+03  0.92061254432E+03  0.00000000000E+00 0.  1.
         13    1    4    4    0    0 -0.37373341459E+02  0.47265973917E+03 -0.53267054750E+03  0.71312125127E+03  0.10566000000E+00 0. -1.
         -4    1    4    4    0  503  0.12914132139E+03 -0.41414160414E+03 -0.29166484362E+02  0.43478895223E+03  0.00000000000E+00 0. -1.
<mgrwt>
<rscale>  2 0.10167277E+04</rscale>
<asrwt>0</asrwt>
<pdfrwt beam="1">  1       21 0.21870548E+00 0.10220188E+04</pdfrwt>
<pdfrwt beam="2">  1       21 0.16711689E+00 0.10220188E+04</pdfrwt>
<totfact> 0.92733592E+00</totfact>
</mgrwt>
</event>
<event>
 8    1  0.7631533E-006  0.1046656E+04  0.7818608E-02  0.8733160E-01
         21   -1    0    0  503  502  0.00000000000E+00  0.00000000000E+00  0.10176846756E+04  0.10176846756E+04  0.00000000000E+00 0. -1.
         21   -1    0    0  501  503 -0.00000000000E+00 -0.00000000000E+00 -0.14115963678E+04  0.14115963678E+04  0.00000000000E+00 0. -1.
    9000010    2    1    2  501    0  0.15581865229E+03 -0.17297036471E+03  0.39941038902E+03  0.11202754567E+04  0.10204362991E+04 0.  0.
   -9000010    2    1    2    0  502 -0.15581865229E+03  0.17297036471E+03 -0.79332208117E+03  0.13090055866E+04  0.10148583654E+04 0.  0.
        -13    1    3    3    0    0 -0.14447378836E+03 -0.25519076128E+03  0.65487666631E+03  0.71753638194E+03  0.10566000000E+00 0.  1.
          4    1    3    3  501    0  0.30029244065E+03  0.82220396567E+02 -0.25546627729E+03  0.40273907478E+03  0.00000000000E+00 0.  1.
         13    1    4    4    0    0  0.43512712686E+02 -0.39802928611E+03 -0.15413554054E+03  0.42904363972E+03  0.10566000000E+00 0. -1.
         -4    1    4    4    0  502 -0.19933136498E+03  0.57099965082E+03 -0.63918654063E+03  0.87996194692E+03  0.00000000000E+00 0. -1.
<mgrwt>
<rscale>  2 0.10452938E+04</rscale>
<asrwt>0</asrwt>
<pdfrwt beam="1">  1       21 0.15656687E+00 0.10466558E+04</pdfrwt>
<pdfrwt beam="2">  1       21 0.21716867E+00 0.10466558E+04</pdfrwt>
<totfact> 0.11663159E+01</totfact>
</mgrwt>
</event>
<event>
 8    1  0.7631533E-006  0.1012041E+04  0.7818608E-02  0.8763658E-01
         21   -1    0    0  501  502  0.00000000000E+00  0.00000000000E+00  0.14406808689E+04  0.14406808689E+04  0.00000000000E+00 0.  1.
         21   -1    0    0  502  503 -0.00000000000E+00 -0.00000000000E+00 -0.72078991878E+03  0.72078991878E+03  0.00000000000E+00 0.  1.
    9000010    2    1    2  501    0 -0.14882890462E+03  0.18450158135E+02  0.22812829912E+03  0.10374337363E+04  0.10008675163E+04 0.  0.
   -9000010    2    1    2    0  503  0.14882890462E+03 -0.18450158135E+02  0.49176265104E+03  0.11240370514E+04  0.99956907556E+03 0.  0.
        -13    1    3    3    0    0 -0.19157192666E+03  0.30495468355E+03  0.51586634773E+03  0.62913850779E+03  0.10566000000E+00 0.  1.
          4    1    3    3  501    0  0.42743022035E+02 -0.28650452542E+03 -0.28773804860E+03  0.40829522852E+03  0.00000000000E+00 0.  1.
         13    1    4    4    0    0  0.57584952910E+03  0.47773012718E+02  0.30347046296E+03  0.65267087722E+03  0.10566000000E+00 0. -1.
         -4    1    4    4    0  503 -0.42702062448E+03 -0.66223170853E+02  0.18829218808E+03  0.47136617420E+03  0.00000000000E+00 0. -1.
<mgrwt>
<rscale>  2 0.10117195E+04</rscale>
<asrwt>0</asrwt>
<pdfrwt beam="1">  1       21 0.22164321E+00 0.10120406E+04</pdfrwt>
<pdfrwt beam="2">  1       21 0.11089076E+00 0.10120406E+04</pdfrwt>
<totfact> 0.29712185E+01</totfact>
</mgrwt>
</event>
<event>
 8    1  0.7631533E-006  0.1013287E+04  0.7818608E-02  0.8768337E-01
         21   -1    0    0  503  502  0.00000000000E+00  0.00000000000E+00  0.59187897460E+03  0.59187897460E+03  0.00000000000E+00 0. -1.
         21   -1    0    0  501  503 -0.00000000000E+00 -0.00000000000E+00 -0.19521808771E+04  0.19521808771E+04  0.00000000000E+00 0. -1.
    9000010    2    1    2  501    0  0.97821574267E+01 -0.85348442401E+02 -0.11537614313E+04  0.15355506398E+04  0.10096386878E+04 0.  0.
   -9000010    2    1    2    0  502 -0.97821574267E+01  0.85348442401E+02 -0.20654047125E+03  0.10085092119E+04  0.98338792805E+03 0.  0.
        -13    1    3    3    0    0  0.21229894797E+03  0.21125304354E+03 -0.11372501791E+04  0.11760257959E+04  0.10566000000E+00 0.  1.
          4    1    3    3  501    0 -0.20251679054E+03 -0.29660148594E+03 -0.16511252203E+02  0.35952484388E+03  0.00000000000E+00 0.  1.
         13    1    4    4    0    0 -0.94426750683E+02 -0.43525484605E+03 -0.95455122240E+01  0.44548212110E+03  0.10566000000E+00 0. -1.
         -4    1    4    4    0  502  0.84644593257E+02  0.52060328845E+03 -0.19699495903E+03  0.56302709082E+03  0.00000000000E+00 0. -1.
<mgrwt>
<rscale>  2 0.10066842E+04</rscale>
<asrwt>0</asrwt>
<pdfrwt beam="1">  1       21 0.91058303E-01 0.10132869E+04</pdfrwt>
<pdfrwt beam="2">  1       21 0.30033552E+00 0.10132869E+04</pdfrwt>
<totfact> 0.13422540E+01</totfact>
</mgrwt>
</event>
<event>
 8    1  0.7631533E-006  0.1119736E+04  0.7818608E-02  0.8680196E-01
         21   -1    0    0  501  502  0.00000000000E+00  0.00000000000E+00  0.97301587491E+03  0.97301587491E+03  0.00000000000E+00 0. -1.
         21   -1    0    0  502  503 -0.00000000000E+00 -0.00000000000E+00 -0.13161677244E+04  0.13161677244E+04  0.00000000000E+00 0. -1.
    9000010    2    1    2  501    0 -0.28925468058E+02 -0.40021697863E+03  0.11574112769E+03  0.11257021181E+04  0.10453702394E+04 0.  0.
   -9000010    2    1    2    0  503  0.28925468058E+02  0.40021697863E+03 -0.45889297721E+03  0.11634814812E+04  0.99100760841E+03 0.  0.
        -13    1    3    3    0    0  0.73706934165E+02 -0.74725209007E+03  0.19074194504E+02  0.75112065231E+03  0.10566000000E+00 0.  1.
          4    1    3    3  501    0 -0.10263240222E+03  0.34703511145E+03  0.96666933187E+02  0.37458146582E+03  0.00000000000E+00 0.  1.
         13    1    4    4    0    0 -0.20272475993E+02  0.35296820662E+03 -0.76877792338E+03  0.84617789785E+03  0.10566000000E+00 0. -1.
         -4    1    4    4    0  503  0.49197944051E+02  0.47248772012E+02  0.30988494617E+03  0.31730358337E+03  0.00000000000E+00 0. -1.
<mgrwt>
<rscale>  2 0.11068726E+04</rscale>
<asrwt>0</asrwt>
<pdfrwt beam="1">  1       21 0.14969475E+00 0.11197362E+04</pdfrwt>
<pdfrwt beam="2">  1       21 0.20248734E+00 0.11197362E+04</pdfrwt>
<totfact> 0.17096270E+01</totfact>
</mgrwt>
</event>
<event>
 8    1  0.7631533E-006  0.1014769E+04  0.7818608E-02  0.8766607E-01
         21   -1    0    0  503  502  0.00000000000E+00  0.00000000000E+00  0.19505303256E+04  0.19505303256E+04  0.00000000000E+00 0. -1.
         21   -1    0    0  501  503 -0.00000000000E+00 -0.00000000000E+00 -0.72610854723E+03  0.72610854723E+03  0.00000000000E+00 0. -1.
    9000010    2    1    2  501    0  0.25984510423E+02  0.57693746319E+01 -0.10373144554E+03  0.10200570575E+04  0.10144198871E+04 0.  0.
   -9000010    2    1    2    0  502 -0.25984510423E+02 -0.57693746319E+01  0.13281532239E+04  0.16565818153E+04  0.98972917718E+03 0.  0.
        -13    1    3    3    0    0 -0.34613746558E+03  0.24609607896E+03  0.21335703124E+03  0.47528481893E+03  0.10566000000E+00 0.  1.
          4    1    3    3  501    0  0.37212197600E+03 -0.24032670433E+03 -0.31708847678E+03  0.54477223860E+03  0.00000000000E+00 0.  1.
         13    1    4    4    0    0  0.83490091950E+02 -0.24454900367E+03  0.13668548116E+04  0.13910668201E+04  0.10566000000E+00 0. -1.
         -4    1    4    4    0  502 -0.10947460237E+03  0.23877962904E+03 -0.38701587722E+02  0.26551499524E+03  0.00000000000E+00 0. -1.
<mgrwt>
<rscale>  2 0.10085414E+04</rscale>
<asrwt>0</asrwt>
<pdfrwt beam="1">  1       21 0.30008159E+00 0.10147690E+04</pdfrwt>
<pdfrwt beam="2">  1       21 0.11170901E+00 0.10147690E+04</pdfrwt>
<totfact> 0.78807595E+00</totfact>
</mgrwt>
</event>
<event>
 8    1  0.7631533E-006  0.1098280E+04  0.7818608E-02  0.8693205E-01
         21   -1    0    0  501  502  0.00000000000E+00  0.00000000000E+00  0.12401633679E+04  0.12401633679E+04  0.00000000000E+00 0.  1.
         21   -1    0    0  502  503 -0.00000000000E+00 -0.00000000000E+00 -0.11403729721E+04  0.11403729721E+04  0.00000000000E+00 0.  1.
    9000010    2    1    2  501    0  0.37598738944E+03  0.21284512687E+03  0.53763507122E+03  0.11981968581E+04  0.97977276746E+03 0.  0.
   -9000010    2    1    2    0  503 -0.37598738944E+03 -0.21284512687E+03 -0.43784467539E+03  0.11823394819E+04  0.10097272531E+04 0.  0.
        -13    1    3    3    0    0  0.40172717601E+03 -0.23123424646E+03  0.58999770386E+03  0.75030080795E+03  0.10566000000E+00 0.  1.
          4    1    3    3  501    0 -0.25739786572E+02  0.44407937333E+03 -0.52362632645E+02  0.44789605013E+03  0.00000000000E+00 0.  1.
         13    1    4    4    0    0 -0.49888134845E+03 -0.17384321439E+03  0.17464844316E+03  0.55642263872E+03  0.10566000000E+00 0. -1.
         -4    1    4    4    0  503  0.12289395902E+03 -0.39001912482E+02 -0.61249311856E+03  0.62591684321E+03  0.00000000000E+00 0. -1.
<mgrwt>
<rscale>  2 0.10913459E+04</rscale>
<asrwt>0</asrwt>
<pdfrwt beam="1">  1       21 0.19079437E+00 0.10982799E+04</pdfrwt>
<pdfrwt beam="2">  1       21 0.17544199E+00 0.10982799E+04</pdfrwt>
<totfact> 0.12762655E+01</totfact>
</mgrwt>
</event>
<event>
 8    1  0.7631533E-006  0.1124459E+04  0.7818608E-02  0.8666324E-01
         21   -1    0    0  501  502  0.00000000000E+00  0.00000000000E+00  0.87638444590E+03  0.87638444590E+03  0.00000000000E+00 0.  1.
         21   -1    0    0  502  503 -0.00000000000E+00 -0.00000000000E+00 -0.15389098328E+04  0.15389098328E+04  0.00000000000E+00 0.  1.
    9000010    2    1    2  501    0 -0.39674658793E+03  0.33891009459E+03 -0.63856389730E+03  0.12905801120E+04  0.99275639875E+03 0.  0.
   -9000010    2    1    2    0  503  0.39674658793E+03 -0.33891009459E+03 -0.23961489612E+02  0.11247141667E+04  0.99606219516E+03 0.  0.
        -13    1    3    3    0    0 -0.11814429672E+03  0.64300195263E+03 -0.58011427511E+03  0.87403785347E+03  0.10566000000E+00 0.  1.
          4    1    3    3  501    0 -0.27860229121E+03 -0.30409185804E+03 -0.58449622187E+02  0.41654225852E+03  0.00000000000E+00 0.  1.
         13    1    4    4    0    0 -0.27461166152E+03  0.62868128806E+01  0.19712869970E+03  0.33809883772E+03  0.10566000000E+00 0. -1.
         -4    1    4    4    0  503  0.67135824945E+03 -0.34519690747E+03 -0.22109018931E+03  0.78661532902E+03  0.00000000000E+00 0. -1.
<mgrwt>
<rscale>  2 0.11237264E+04</rscale>
<asrwt>0</asrwt>
<pdfrwt beam="1">  1       21 0.13482838E+00 0.11244589E+04</pdfrwt>
<pdfrwt beam="2">  1       21 0.23675535E+00 0.11244589E+04</pdfrwt>
<totfact> 0.12885432E+01</totfact>
</mgrwt>
</event>
<event>
 8    1  0.7631533E-006  0.1085519E+04  0.7818608E-02  0.8700350E-01
         21   -1    0    0  503  502  0.00000000000E+00  0.00000000000E+00  0.14950955941E+04  0.14950955941E+04  0.00000000000E+00 0. -1.
         21   -1    0    0  501  503 -0.00000000000E+00 -0.00000000000E+00 -0.10793953734E+04  0.10793953734E+04  0.00000000000E+00 0. -1.
    9000010    2    1    2  501    0 -0.27116224612E+03 -0.30748873427E+03 -0.47004171500E+03  0.11734591501E+04  0.99397629635E+03 0.  0.
   -9000010    2    1    2    0  502  0.27116224612E+03  0.30748873427E+03  0.88574193568E+03  0.14010318175E+04  0.10051234210E+04 0.  0.
        -13    1    3    3    0    0 -0.10971752970E+03 -0.66847279418E+03 -0.33391284223E+03  0.75524274922E+03  0.10566000000E+00 0.  1.
          4    1    3    3  501    0 -0.16144471642E+03  0.36098405991E+03 -0.13612887277E+03  0.41821640088E+03  0.00000000000E+00 0.  1.
         13    1    4    4    0    0  0.42970703302E+03  0.24320859791E+03  0.10522259826E+04  0.11623158288E+04  0.10566000000E+00 0. -1.
         -4    1    4    4    0  502 -0.15854478690E+03  0.64280136361E+02 -0.16648404688E+03  0.23871598868E+03  0.00000000000E+00 0. -1.
<mgrwt>
<rscale>  2 0.10829314E+04</rscale>
<asrwt>0</asrwt>
<pdfrwt beam="1">  1       21 0.23001471E+00 0.10855189E+04</pdfrwt>
<pdfrwt beam="2">  1       21 0.16606083E+00 0.10855189E+04</pdfrwt>
<totfact> 0.76702504E+00</totfact>
</mgrwt>
</event>
<event>
 8    1  0.7631533E-006  0.1032892E+04  0.7818608E-02  0.8744375E-01
         21   -1    0    0  503  502  0.00000000000E+00  0.00000000000E+00  0.17552638364E+04  0.17552638364E+04  0.00000000000E+00 0.  1.
         21   -1    0    0  501  503 -0.00000000000E+00 -0.00000000000E+00 -0.61263011609E+03  0.61263011609E+03  0.00000000000E+00 0.  1.
    9000010    2    1    2  501    0  0.21273034415E+02 -0.28224223071E+03  0.46369535462E+03  0.11318422170E+04  0.99294521678E+03 0.  0.
   -9000010    2    1    2    0  502 -0.21273034415E+02  0.28224223071E+03  0.67893836565E+03  0.12360517354E+04  0.99335460413E+03 0.  0.
        -13    1    3    3    0    0  0.30581690864E+03 -0.46844766660E+03  0.32588306406E+01  0.55944421446E+03  0.10566000000E+00 0.  1.
          4    1    3    3  501    0 -0.28454387422E+03  0.18620543589E+03  0.46043652397E+03  0.57239800255E+03  0.00000000000E+00 0.  1.
         13    1    4    4    0    0 -0.34772167807E+03  0.52212780003E+03  0.43057099755E+03  0.76086739979E+03  0.10566000000E+00 0. -1.
         -4    1    4    4    0  502  0.32644864366E+03 -0.23988556932E+03  0.24836736811E+03  0.47518433566E+03  0.00000000000E+00 0. -1.
<mgrwt>
<rscale>  2 0.10327939E+04</rscale>
<asrwt>0</asrwt>
<pdfrwt beam="1">  1       21 0.27004059E+00 0.10328923E+04</pdfrwt>
<pdfrwt beam="2">  1       21 0.94250788E-01 0.10328923E+04</pdfrwt>
<totfact> 0.20092592E+01</totfact>
</mgrwt>
</event>
<event>
 8    1  0.7631533E-006  0.1092074E+04  0.7818608E-02  0.8693483E-01
         21   -1    0    0  501  502  0.00000000000E+00  0.00000000000E+00  0.27269922563E+04  0.27269922563E+04  0.00000000000E+00 0.  1.
         21   -1    0    0  502  503 -0.00000000000E+00 -0.00000000000E+00 -0.44043642941E+03  0.44043642941E+03  0.00000000000E+00 0.  1.
    9000010    2    1    2  501    0  0.40433564610E+03 -0.17742713523E+03  0.13061450944E+04  0.16998354527E+04  0.99421217840E+03 0.  0.
   -9000010    2    1    2    0  503 -0.40433564610E+03  0.17742713523E+03  0.98041073258E+03  0.14675932331E+04  0.99882780806E+03 0.  0.
        -13    1    3    3    0    0  0.15494008457E+03  0.21857424926E+03  0.11870763453E+04  0.12169352460E+04  0.10566000000E+00 0.  1.
          4    1    3    3  501    0  0.24939556152E+03 -0.39600138450E+03  0.11906874909E+03  0.48290020671E+03  0.00000000000E+00 0.  1.
         13    1    4    4    0    0  0.13934187413E+02  0.20887596495E+03  0.10246503238E+04  0.10458162494E+04  0.10566000000E+00 0. -1.
         -4    1    4    4    0  503 -0.41826983351E+03 -0.31448829716E+02 -0.44239591206E+02  0.42177698366E+03  0.00000000000E+00 0. -1.
<mgrwt>
<rscale>  2 0.10910171E+04</rscale>
<asrwt>0</asrwt>
<pdfrwt beam="1">  1       21 0.41953726E+00 0.10920736E+04</pdfrwt>
<pdfrwt beam="2">  1       21 0.67759452E-01 0.10920736E+04</pdfrwt>
<totfact> 0.39853159E+00</totfact>
</mgrwt>
</event>
<event>
 8    1  0.7631533E-006  0.1032047E+04  0.7818608E-02  0.8760817E-01
         21   -1    0    0  503  502  0.00000000000E+00  0.00000000000E+00  0.73697922051E+03  0.73697922051E+03  0.00000000000E+00 0. -1.
         21   -1    0    0  501  503 -0.00000000000E+00 -0.00000000000E+00 -0.13623423116E+04  0.13623423116E+04  0.00000000000E+00 0. -1.
    9000010    2    1    2  501    0 -0.20175766232E+03  0.17347605449E+03 -0.39125901585E+03  0.10410558181E+04  0.92731521240E+03 0.  0.
   -9000010    2    1    2    0  502  0.20175766232E+03 -0.17347605449E+03 -0.23410407523E+03  0.10582657140E+04  0.99715671164E+03 0.  0.
        -13    1    3    3    0    0 -0.45973510845E+03  0.21594270920E+03 -0.53911229319E+03  0.74069541610E+03  0.10566000000E+00 0.  1.
          4    1    3    3  501    0  0.25797744613E+03 -0.42466654706E+02  0.14785327734E+03  0.30036040201E+03  0.00000000000E+00 0.  1.
         13    1    4    4    0    0  0.19715790085E+02  0.31100361955E+03  0.21042137912E+03  0.37601746197E+03  0.10566000000E+00 0. -1.
         -4    1    4    4    0  502  0.18204187224E+03 -0.48447967404E+03 -0.44452545436E+03  0.68224825202E+03  0.00000000000E+00 0. -1.
<mgrwt>
<rscale>  2 0.10147912E+04</rscale>
<asrwt>0</asrwt>
<pdfrwt beam="1">  1       21 0.11338142E+00 0.10320473E+04</pdfrwt>
<pdfrwt beam="2">  1       21 0.20959112E+00 0.10320473E+04</pdfrwt>
<totfact> 0.34360730E+01</totfact>
</mgrwt>
</event>
<event>
 8    1  0.7631533E-006  0.1075682E+04  0.7818608E-02  0.8708015E-01
         21   -1    0    0  501  502  0.00000000000E+00  0.00000000000E+00  0.14894945417E+04  0.14894945417E+04  0.00000000000E+00 0.  1.
         21   -1    0    0  502  503 -0.00000000000E+00 -0.00000000000E+00 -0.81840527031E+03  0.81840527031E+03  0.00000000000E+00 0.  1.
    9000010    2    1    2  501    0 -0.19083555021E+03  0.33152424450E+03  0.61139585123E+03  0.12372937925E+04  0.10053678482E+04 0.  0.
   -9000010    2    1    2    0  503  0.19083555021E+03 -0.33152424450E+03  0.59693420147E+02  0.10706060195E+04  0.99815199879E+03 0.  0.
        -13    1    3    3    0    0 -0.59724594974E+03  0.11845150507E+03  0.42223450457E+03  0.74095578245E+03  0.10566000000E+00 0.  1.
          4    1    3    3  501    0  0.40641039954E+03  0.21307273943E+03  0.18916134666E+03  0.49633801004E+03  0.00000000000E+00 0.  1.
         13    1    4    4    0    0  0.44962881275E+02 -0.63354669601E+03  0.25277917535E+03  0.68359373854E+03  0.10566000000E+00 0. -1.
         -4    1    4    4    0  503  0.14587266893E+03  0.30202245151E+03 -0.19308575521E+03  0.38701228097E+03  0.00000000000E+00 0. -1.
<mgrwt>
<rscale>  2 0.10739924E+04</rscale>
<asrwt>0</asrwt>
<pdfrwt beam="1">  1       21 0.22915301E+00 0.10756817E+04</pdfrwt>
<pdfrwt beam="2">  1       21 0.12590850E+00 0.10756817E+04</pdfrwt>
<totfact> 0.18075563E+01</totfact>
</mgrwt>
</event>
<event>
 8    1  0.7631533E-006  0.1055736E+04  0.7818608E-02  0.8725903E-01
         21   -1    0    0  501  502  0.00000000000E+00  0.00000000000E+00  0.89596520080E+03  0.89596520080E+03  0.00000000000E+00 0. -1.
         21   -1    0    0  502  503 -0.00000000000E+00 -0.00000000000E+00 -0.14726689267E+04  0.14726689267E+04  0.00000000000E+00 0. -1.
    9000010    2    1    2  501    0  0.82833482037E+02  0.28404381041E+03 -0.76467041835E+03  0.12962951605E+04  0.10040508067E+04 0.  0.
   -9000010    2    1    2    0  503 -0.82833482037E+02 -0.28404381041E+03  0.18796669248E+03  0.10723389670E+04  0.10134283944E+04 0.  0.
        -13    1    3    3    0    0 -0.39548871368E+03 -0.63631906978E+01 -0.65755769010E+02  0.40096838425E+03  0.10566000000E+00 0.  1.
          4    1    3    3  501    0  0.47832219572E+03  0.29040700111E+03 -0.69891464934E+03  0.89532677625E+03  0.00000000000E+00 0.  1.
         13    1    4    4    0    0 -0.68179075159E+02 -0.27810558498E+03 -0.39571230179E+03  0.48844584105E+03  0.10566000000E+00 0. -1.
         -4    1    4    4    0  503 -0.14654406879E+02 -0.59382254297E+01  0.58367899426E+03  0.58389312593E+03  0.00000000000E+00 0. -1.
<mgrwt>
<rscale>  2 0.10534796E+04</rscale>
<asrwt>0</asrwt>
<pdfrwt beam="1">  1       21 0.13784080E+00 0.10557364E+04</pdfrwt>
<pdfrwt beam="2">  1       21 0.22656445E+00 0.10557364E+04</pdfrwt>
<totfact> 0.14589175E+01</totfact>
</mgrwt>
</event>
<event>
 8    1  0.7631533E-006  0.1107388E+04  0.7818608E-02  0.8682661E-01
         21   -1    0    0  503  502  0.00000000000E+00  0.00000000000E+00  0.15545834069E+04  0.15545834069E+04  0.00000000000E+00 0. -1.
         21   -1    0    0  501  503 -0.00000000000E+00 -0.00000000000E+00 -0.80457639891E+03  0.80457639891E+03  0.00000000000E+00 0. -1.
    9000010    2    1    2  501    0  0.87515813659E+02  0.44476206394E+03  0.16698975826E+03  0.11199079061E+04  0.10103642055E+04 0.  0.
   -9000010    2    1    2    0  502 -0.87515813659E+02 -0.44476206394E+03  0.58301724974E+03  0.12392518997E+04  0.99517025991E+03 0.  0.
        -13    1    3    3    0    0  0.52999353240E+03  0.24597749060E+03  0.23559269626E+03  0.63000158727E+03  0.10566000000E+00 0.  1.
          4    1    3    3  501    0 -0.44247771874E+03  0.19878457334E+03 -0.68602937997E+02  0.48990631888E+03  0.00000000000E+00 0.  1.
         13    1    4    4    0    0 -0.43580928295E+03 -0.40588701119E+02 -0.14833683040E+02  0.43794659844E+03  0.10566000000E+00 0. -1.
         -4    1    4    4    0  502  0.34829346930E+03 -0.40417336282E+03  0.59785093278E+03  0.80130530124E+03  0.00000000000E+00 0. -1.
<mgrwt>
<rscale>  2 0.11039104E+04</rscale>
<asrwt>0</asrwt>
<pdfrwt beam="1">  1       21 0.23916668E+00 0.11073880E+04</pdfrwt>
<pdfrwt beam="2">  1       21 0.12378098E+00 0.11073880E+04</pdfrwt>
<totfact> 0.15887756E+01</totfact>
</mgrwt>
</event>
<event>
 8    1  0.7631533E-006  0.1053418E+04  0.7818608E-02  0.8728999E-01
         21   -1    0    0  503  502  0.00000000000E+00  0.00000000000E+00  0.99107977336E+03  0.99107977336E+03  0.00000000000E+00 0. -1.
         21   -1    0    0  501  503 -0.00000000000E+00 -0.00000000000E+00 -0.16528488495E+04  0.16528488495E+04  0.00000000000E+00 0. -1.
    9000010    2    1    2  501    0 -0.21396981086E+03 -0.26486726064E+03 -0.10932878713E+04  0.15182120782E+04  0.99687100421E+03 0.  0.
   -9000010    2    1    2    0  502  0.21396981086E+03  0.26486726064E+03  0.43151879516E+03  0.11257165447E+04  0.98239071794E+03 0.  0.
        -13    1    3    3    0    0  0.20599751627E+03 -0.46251409569E+03 -0.86182576219E+03  0.99954885871E+03  0.10566000000E+00 0.  1.
          4    1    3    3  501    0 -0.41996732713E+03  0.19764683504E+03 -0.23146210911E+03  0.51866321946E+03  0.00000000000E+00 0.  1.
         13    1    4    4    0    0  0.21848728673E+03  0.45936422145E+03  0.65506076492E+03  0.82937132776E+03  0.10566000000E+00 0. -1.
         -4    1    4    4    0  502 -0.45174758667E+01 -0.19449696081E+03 -0.22354196976E+03  0.29634521693E+03  0.00000000000E+00 0. -1.
<mgrwt>
<rscale>  2 0.10499781E+04</rscale>
<asrwt>0</asrwt>
<pdfrwt beam="1">  1       21 0.15247381E+00 0.10534180E+04</pdfrwt>
<pdfrwt beam="2">  1       21 0.25428444E+00 0.10534180E+04</pdfrwt>
<totfact> 0.67254061E+00</totfact>
</mgrwt>
</event>
<event>
 8    1  0.7631533E-006  0.1012581E+04  0.7818608E-02  0.8765919E-01
         21   -1    0    0  503  502  0.00000000000E+00  0.00000000000E+00  0.71434598186E+03  0.71434598186E+03  0.00000000000E+00 0.  1.
         21   -1    0    0  501  503 -0.00000000000E+00 -0.00000000000E+00 -0.15567649302E+04  0.15567649302E+04  0.00000000000E+00 0.  1.
    9000010    2    1    2  501    0  0.14536127841E+03  0.60231448842E+02 -0.75922633448E+03  0.12551180528E+04  0.98698478749E+03 0.  0.
   -9000010    2    1    2    0  502 -0.14536127841E+03 -0.60231448842E+02 -0.83192613859E+02  0.10159928593E+04  0.10002813356E+04 0.  0.
        -13    1    3    3    0    0  0.36865365527E+03 -0.16988705804E+03 -0.83251657215E+03  0.92620245309E+03  0.10566000000E+00 0.  1.
          4    1    3    3  501    0 -0.22329237686E+03  0.23011850688E+03  0.73290237675E+02  0.32891559968E+03  0.00000000000E+00 0.  1.
         13    1    4    4    0    0 -0.48861999555E+03  0.22424682539E+03  0.75238159348E+02  0.54285995481E+03  0.10566000000E+00 0. -1.
         -4    1    4    4    0  502  0.34325871714E+03 -0.28447827423E+03 -0.15843077321E+03  0.47313290448E+03  0.00000000000E+00 0. -1.
<mgrwt>
<rscale>  2 0.10092818E+04</rscale>
<asrwt>0</asrwt>
<pdfrwt beam="1">  1       21 0.10989938E+00 0.10125811E+04</pdfrwt>
<pdfrwt beam="2">  1       21 0.23950229E+00 0.10125811E+04</pdfrwt>
<totfact> 0.22429894E+01</totfact>
</mgrwt>
</event>
<event>
 8    1  0.7631533E-006  0.1056290E+04  0.7818608E-02  0.8724754E-01
         21   -1    0    0  503  502  0.00000000000E+00  0.00000000000E+00  0.68282091496E+03  0.68282091496E+03  0.00000000000E+00 0.  1.
         21   -1    0    0  501  503 -0.00000000000E+00 -0.00000000000E+00 -0.19523313706E+04  0.19523313706E+04  0.00000000000E+00 0.  1.
    9000010    2    1    2  501    0  0.27410650647E+03 -0.14781774065E+03 -0.11759806087E+04  0.15807209967E+04  0.10093384052E+04 0.  0.
   -9000010    2    1    2    0  502 -0.27410650647E+03  0.14781774065E+03 -0.93529846960E+02  0.10544312888E+04  0.10030418980E+04 0.  0.
        -13    1    3    3    0    0 -0.13965189683E+03  0.36824464198E+03 -0.40583903063E+03  0.56551931761E+03  0.10566000000E+00 0.  1.
          4    1    3    3  501    0  0.41375840330E+03 -0.51606238264E+03 -0.77014157806E+03  0.10152016791E+04  0.00000000000E+00 0.  1.
         13    1    4    4    0    0  0.28691968663E+03  0.79820105318E+02  0.25363470282E+03  0.39118375405E+03  0.10566000000E+00 0. -1.
         -4    1    4    4    0  502 -0.56102619311E+03  0.67997635334E+02 -0.34716454978E+03  0.66324753478E+03  0.00000000000E+00 0. -1.
<mgrwt>
<rscale>  2 0.10547830E+04</rscale>
<asrwt>0</asrwt>
<pdfrwt beam="1">  1       21 0.10504937E+00 0.10562900E+04</pdfrwt>
<pdfrwt beam="2">  1       21 0.30035866E+00 0.10562900E+04</pdfrwt>
<totfact> 0.91665250E+00</totfact>
</mgrwt>
</event>
<event>
 8    1  0.7631533E-006  0.1050627E+04  0.7818608E-02  0.8733582E-01
         21   -1    0    0  501  502  0.00000000000E+00  0.00000000000E+00  0.13269933419E+04  0.13269933419E+04  0.00000000000E+00 0. -1.
         21   -1    0    0  502  503 -0.00000000000E+00 -0.00000000000E+00 -0.81723964847E+03  0.81723964847E+03  0.00000000000E+00 0. -1.
    9000010    2    1    2  501    0  0.17083284523E+03  0.12371257583E+03  0.32843524991E+03  0.11007663785E+04  0.10292367289E+04 0.  0.
   -9000010    2    1    2    0  503 -0.17083284523E+03 -0.12371257583E+03  0.18131844348E+03  0.10434666119E+04  0.10057124488E+04 0.  0.
        -13    1    3    3    0    0  0.44314205184E+03 -0.25147207617E+03 -0.36418443067E+02  0.51082227571E+03  0.10566000000E+00 0.  1.
          4    1    3    3  501    0 -0.27230920661E+03  0.37518465200E+03  0.36485369298E+03  0.58994410276E+03  0.00000000000E+00 0.  1.
         13    1    4    4    0    0  0.10866264182E+03  0.16684579584E+03  0.49441666394E+03  0.53300369423E+03  0.10566000000E+00 0. -1.
         -4    1    4    4    0  503 -0.27949548705E+03 -0.29055837167E+03 -0.31309822046E+03  0.51046291764E+03  0.00000000000E+00 0. -1.
<mgrwt>
<rscale>  2 0.10448203E+04</rscale>
<asrwt>0</asrwt>
<pdfrwt beam="1">  1       21 0.20415282E+00 0.10506269E+04</pdfrwt>
<pdfrwt beam="2">  1       21 0.12572918E+00 0.10506269E+04</pdfrwt>
<totfact> 0.28237296E+01</totfact>
</mgrwt>
</event>
<event>
 8    1  0.7631533E-006  0.1041639E+04  0.7818608E-02  0.8742453E-01
         21   -1    0    0  503  502  0.00000000000E+00  0.00000000000E+00  0.12864762224E+04  0.12864762224E+04  0.00000000000E+00 0.  1.
         21   -1    0    0  501  503 -0.00000000000E+00 -0.00000000000E+00 -0.90443676968E+03  0.90443676968E+03  0.00000000000E+00 0.  1.
    9000010    2    1    2  501    0 -0.18553083813E+03  0.13520931694E+03  0.52397347801E+03  0.11660014451E+04  0.10160255474E+04 0.  0.
   -9000010    2    1    2    0  502  0.18553083813E+03 -0.13520931694E+03 -0.14193402530E+03  0.10249115470E+04  0.98873412016E+03 0.  0.
        -13    1    3    3    0    0  0.10241445731E+03 -0.69146362723E+02 -0.27006632878E+03  0.29699456838E+03  0.10566000000E+00 0.  1.
          4    1    3    3  501    0 -0.28794529543E+03  0.20435567967E+03  0.79403980678E+03  0.86900687669E+03  0.00000000000E+00 0.  1.
         13    1    4    4    0    0  0.15432108585E+03 -0.25215151444E+03  0.38434823773E+03  0.48489067096E+03  0.10566000000E+00 0. -1.
         -4    1    4    4    0  502  0.31209752280E+02  0.11694219750E+03 -0.52628226303E+03  0.54002087605E+03  0.00000000000E+00 0. -1.
<mgrwt>
<rscale>  2 0.10349234E+04</rscale>
<asrwt>0</asrwt>
<pdfrwt beam="1">  1       21 0.19791942E+00 0.10416387E+04</pdfrwt>
<pdfrwt beam="2">  1       21 0.13914412E+00 0.10416387E+04</pdfrwt>
<totfact> 0.23554151E+01</totfact>
</mgrwt>
</event>
<event>
 8    1  0.7631533E-006  0.1007163E+04  0.7818608E-02  0.8768290E-01
         21   -1    0    0  501  502  0.00000000000E+00  0.00000000000E+00  0.22398537930E+04  0.22398537930E+04  0.00000000000E+00 0. -1.
         21   -1    0    0  502  503 -0.00000000000E+00 -0.00000000000E+00 -0.47959953211E+03  0.47959953211E+03  0.00000000000E+00 0. -1.
    9000010    2    1    2  501    0  0.42873577986E+02  0.17314818258E+03  0.55386596812E+03  0.11479095883E+04  0.98950011393E+03 0.  0.
   -9000010    2    1    2    0  503 -0.42873577986E+02 -0.17314818258E+03  0.12063882927E+04  0.15715437368E+04  0.99124092274E+03 0.  0.
        -13    1    3    3    0    0 -0.21279802416E+02  0.28675148906E+03 -0.22067385994E+03  0.36245856328E+03  0.10566000000E+00 0.  1.
          4    1    3    3  501    0  0.64153380401E+02 -0.11360330648E+03  0.77453982807E+03  0.78545102503E+03  0.00000000000E+00 0.  1.
         13    1    4    4    0    0  0.19622647916E+03  0.23454579232E+03  0.34265941026E+02  0.30771858198E+03  0.10566000000E+00 0. -1.
         -4    1    4    4    0  503 -0.23910005714E+03 -0.40769397490E+03  0.11721223517E+04  0.12638251548E+04  0.00000000000E+00 0. -1.
<mgrwt>
<rscale>  2 0.10067343E+04</rscale>
<asrwt>0</asrwt>
<pdfrwt beam="1">  1       21 0.34459289E+00 0.10071628E+04</pdfrwt>
<pdfrwt beam="2">  1       21 0.73784544E-01 0.10071628E+04</pdfrwt>
<totfact> 0.11053643E+01</totfact>
</mgrwt>
</event>
<event>
 8    1  0.7631533E-006  0.1047648E+04  0.7818608E-02  0.8732840E-01
         21   -1    0    0  503  502  0.00000000000E+00  0.00000000000E+00  0.10303708932E+04  0.10303708932E+04  0.00000000000E+00 0.  1.
         21   -1    0    0  501  503 -0.00000000000E+00 -0.00000000000E+00 -0.10727843196E+04  0.10727843196E+04  0.00000000000E+00 0.  1.
    9000010    2    1    2  501    0  0.23324678468E+03  0.20249659776E+03 -0.14812333415E+03  0.10501875449E+04  0.99274590039E+03 0.  0.
   -9000010    2    1    2    0  502 -0.23324678468E+03 -0.20249659776E+03  0.10570990774E+03  0.10529676679E+04  0.10010781140E+04 0.  0.
        -13    1    3    3    0    0  0.36434263780E+02  0.53760827256E+03  0.15119375629E+03  0.55965138561E+03  0.10566000000E+00 0.  1.
          4    1    3    3  501    0  0.19681252090E+03 -0.33511167480E+03 -0.29931709044E+03  0.49053615932E+03  0.00000000000E+00 0.  1.
         13    1    4    4    0    0  0.30884701705E+03  0.11382895540E+03  0.24467222233E+03  0.41013170881E+03  0.10566000000E+00 0. -1.
         -4    1    4    4    0  502 -0.54209380173E+03 -0.31632555316E+03 -0.13896231459E+03  0.64283595911E+03  0.00000000000E+00 0. -1.
<mgrwt>
<rscale>  2 0.10456526E+04</rscale>
<asrwt>0</asrwt>
<pdfrwt beam="1">  1       21 0.15851860E+00 0.10476480E+04</pdfrwt>
<pdfrwt beam="2">  1       21 0.16504374E+00 0.10476480E+04</pdfrwt>
<totfact> 0.29220179E+01</totfact>
</mgrwt>
</event>
<event>
 8    1  0.7631533E-006  0.1047087E+04  0.7818608E-02  0.8737946E-01
         21   -1    0    0  501  502  0.00000000000E+00  0.00000000000E+00  0.13970008155E+04  0.13970008155E+04  0.00000000000E+00 0. -1.
         21   -1    0    0  502  503 -0.00000000000E+00 -0.00000000000E+00 -0.80143258250E+03  0.80143258250E+03  0.00000000000E+00 0. -1.
    9000010    2    1    2  501    0  0.20645393363E+03 -0.18523406657E+03  0.54002776145E+03  0.11781432901E+04  0.10096815056E+04 0.  0.
   -9000010    2    1    2    0  503 -0.20645393363E+03  0.18523406657E+03  0.55540471524E+02  0.10202901079E+04  0.98029193312E+03 0.  0.
        -13    1    3    3    0    0 -0.37561219079E+02  0.40302925131E+03  0.26898728137E+03  0.48600163713E+03  0.10566000000E+00 0.  1.
          4    1    3    3  501    0  0.24401515271E+03 -0.58826331788E+03  0.27104048008E+03  0.69214165296E+03  0.00000000000E+00 0.  1.
         13    1    4    4    0    0 -0.56021638994E+03 -0.57566185560E+02 -0.83352132453E+02  0.56930120185E+03  0.10566000000E+00 0. -1.
         -4    1    4    4    0  503  0.35376245631E+03  0.24280025213E+03  0.13889260398E+03  0.45098890604E+03  0.00000000000E+00 0. -1.
<mgrwt>
<rscale>  2 0.10399368E+04</rscale>
<asrwt>0</asrwt>
<pdfrwt beam="1">  1       21 0.21492320E+00 0.10470872E+04</pdfrwt>
<pdfrwt beam="2">  1       21 0.12329732E+00 0.10470872E+04</pdfrwt>
<totfact> 0.24700370E+01</totfact>
</mgrwt>
</event>
<event>
 8    1  0.7631533E-006  0.1035677E+04  0.7818608E-02  0.8762973E-01
         21   -1    0    0  503  502  0.00000000000E+00  0.00000000000E+00  0.90994848768E+03  0.90994848768E+03  0.00000000000E+00 0.  1.
         21   -1    0    0  501  503 -0.00000000000E+00 -0.00000000000E+00 -0.11394674694E+04  0.11394674694E+04  0.00000000000E+00 0.  1.
    9000010    2    1    2  501    0 -0.27687263830E+03  0.40893640108E+02 -0.34606697328E+03  0.10072018857E+04  0.90352783077E+03 0.  0.
   -9000010    2    1    2    0  502  0.27687263830E+03 -0.40893640108E+02  0.11654799153E+03  0.10422140714E+04  0.99714391571E+03 0.  0.
        -13    1    3    3    0    0 -0.35405026898E+03  0.27738812338E+03  0.13160605383E+03  0.46863197557E+03  0.10566000000E+00 0.  1.
          4    1    3    3  501    0  0.77177630684E+02 -0.23649448327E+03 -0.47767302711E+03  0.53856991016E+03  0.00000000000E+00 0.  1.
         13    1    4    4    0    0  0.45711555610E+03 -0.31080180082E+03  0.33927519053E+03  0.64858311502E+03  0.10566000000E+00 0. -1.
         -4    1    4    4    0  502 -0.18024291781E+03  0.26990816071E+03 -0.22272719899E+03  0.39363095637E+03  0.00000000000E+00 0. -1.
<mgrwt>
<rscale>  2 0.10124591E+04</rscale>
<asrwt>0</asrwt>
<pdfrwt beam="1">  1       21 0.13999208E+00 0.10356769E+04</pdfrwt>
<pdfrwt beam="2">  1       21 0.17530269E+00 0.10356769E+04</pdfrwt>
<totfact> 0.35204167E+01</totfact>
</mgrwt>
</event>
<event>
 8    1  0.7631533E-006  0.1007891E+04  0.7818608E-02  0.8771943E-01
         21   -1    0    0  503  502  0.00000000000E+00  0.00000000000E+00  0.48871996529E+03  0.48871996529E+03  0.00000000000E+00 0. -1.
         21   -1    0    0  501  503 -0.00000000000E+00 -0.00000000000E+00 -0.20491478265E+04  0.20491478265E+04  0.00000000000E+00 0. -1.
    9000010    2    1    2  501    0 -0.65519943134E+02 -0.66169448738E+02 -0.86888359293E+03  0.13155428536E+04  0.98337329778E+03 0.  0.
   -9000010    2    1    2    0  502  0.65519943134E+02  0.66169448738E+02 -0.69154426830E+03  0.12223249382E+04  0.10035803508E+04 0.  0.
        -13    1    3    3    0    0 -0.93859777091E+02 -0.49304151394E+03 -0.24353836656E+03  0.55786247353E+03  0.10566000000E+00 0.  1.
          4    1    3    3  501    0  0.28339833957E+02  0.42687206520E+03 -0.62534522638E+03  0.75768038010E+03  0.00000000000E+00 0.  1.
         13    1    4    4    0    0 -0.23305219406E+03 -0.31390104947E+03 -0.15478497913E+02  0.39126306888E+03  0.10566000000E+00 0. -1.
         -4    1    4    4    0  502  0.29857213719E+03  0.38007049820E+03 -0.67606577039E+03  0.83106186930E+03  0.00000000000E+00 0. -1.
<mgrwt>
<rscale>  2 0.10028234E+04</rscale>
<asrwt>0</asrwt>
<pdfrwt beam="1">  1       21 0.75187687E-01 0.10078913E+04</pdfrwt>
<pdfrwt beam="2">  1       21 0.31525351E+00 0.10078913E+04</pdfrwt>
<totfact> 0.16977288E+01</totfact>
</mgrwt>
</event>
<event>
 8    1  0.7631533E-006  0.1059456E+04  0.7818608E-02  0.8720743E-01
         21   -1    0    0  503  502  0.00000000000E+00  0.00000000000E+00  0.17363705014E+04  0.17363705014E+04  0.00000000000E+00 0. -1.
         21   -1    0    0  501  503 -0.00000000000E+00 -0.00000000000E+00 -0.65891778485E+03  0.65891778485E+03  0.00000000000E+00 0. -1.
    9000010    2    1    2  501    0  0.25511604480E+03 -0.26516244123E+03  0.70522271261E+03  0.12723445139E+04  0.99303885676E+03 0.  0.
   -9000010    2    1    2    0  502 -0.25511604480E+03  0.26516244123E+03  0.37223000400E+03  0.11229437724E+04  0.99350501942E+03 0.  0.
        -13    1    3    3    0    0 -0.31479079479E+03  0.22803693647E+02  0.51862120051E+03  0.60710889774E+03  0.10566000000E+00 0.  1.
          4    1    3    3  501    0  0.56990683959E+03 -0.28796613487E+03  0.18660151209E+03  0.66523561613E+03  0.00000000000E+00 0.  1.
         13    1    4    4    0    0  0.87134649592E+02  0.33344944840E+03 -0.23878438583E+03  0.41928388460E+03  0.10566000000E+00 0. -1.
         -4    1    4    4    0  502 -0.34225069440E+03 -0.68287007179E+02  0.61101438983E+03  0.70365988783E+03  0.00000000000E+00 0. -1.
<mgrwt>
<rscale>  2 0.10593469E+04</rscale>
<asrwt>0</asrwt>
<pdfrwt beam="1">  1       21 0.26713392E+00 0.10594562E+04</pdfrwt>
<pdfrwt beam="2">  1       21 0.10137197E+00 0.10594562E+04</pdfrwt>
<totfact> 0.17351119E+01</totfact>
</mgrwt>
</event>
<event>
 8    1  0.7631533E-006  0.1033080E+04  0.7818608E-02  0.8791218E-01
         21   -1    0    0  501  502  0.00000000000E+00  0.00000000000E+00  0.11758748022E+04  0.11758748022E+04  0.00000000000E+00 0. -1.
         21   -1    0    0  502  503 -0.00000000000E+00 -0.00000000000E+00 -0.97817028284E+03  0.97817028284E+03  0.00000000000E+00 0. -1.
    9000010    2    1    2  501    0  0.19889845934E+03  0.14504585041E+03  0.62461318064E+03  0.12072262624E+04  0.10033218464E+04 0.  0.
   -9000010    2    1    2    0  503 -0.19889845934E+03 -0.14504585041E+03 -0.42690866124E+03  0.94681882265E+03  0.80846520150E+03 0.  0.
        -13    1    3    3    0    0 -0.25211208598E+03 -0.70822081805E+02 -0.13746559566E+03  0.29575846957E+03  0.10566000000E+00 0.  1.
          4    1    3    3  501    0  0.45101054532E+03  0.21586793222E+03  0.76207877629E+03  0.91146779286E+03  0.00000000000E+00 0.  1.
         13    1    4    4    0    0 -0.30295802061E+03  0.26393274117E+03 -0.31406973880E+03  0.50998418222E+03  0.10566000000E+00 0. -1.
         -4    1    4    4    0  503  0.10405956128E+03 -0.40897859158E+03 -0.11283892244E+03  0.43683464044E+03  0.00000000000E+00 0. -1.
<mgrwt>
<rscale>  2 0.98249189E+03</rscale>
<asrwt>0</asrwt>
<pdfrwt beam="1">  1       21 0.18090382E+00 0.10330797E+04</pdfrwt>
<pdfrwt beam="2">  1       21 0.15048774E+00 0.10330797E+04</pdfrwt>
<totfact> 0.25452414E+01</totfact>
</mgrwt>
</event>
<event>
 8    1  0.7631533E-006  0.1012553E+04  0.7818608E-02  0.8764632E-01
         21   -1    0    0  503  502  0.00000000000E+00  0.00000000000E+00  0.12986163990E+04  0.12986163990E+04  0.00000000000E+00 0. -1.
         21   -1    0    0  501  503 -0.00000000000E+00 -0.00000000000E+00 -0.90784985535E+03  0.90784985535E+03  0.00000000000E+00 0. -1.
    9000010    2    1    2  501    0 -0.43535331166E+02 -0.65178779454E+02 -0.21203903060E+03  0.10345166266E+04  0.10095149835E+04 0.  0.
   -9000010    2    1    2    0  502  0.43535331166E+02  0.65178779454E+02  0.60280557430E+03  0.11719496277E+04  0.10019719413E+04 0.  0.
        -13    1    3    3    0    0 -0.44228242827E+03 -0.15994057705E+03 -0.36678094620E+03  0.59642519079E+03  0.10566000000E+00 0.  1.
          4    1    3    3  501    0  0.39874709711E+03  0.94761797599E+02  0.15474191559E+03  0.43809143586E+03  0.00000000000E+00 0.  1.
         13    1    4    4    0    0  0.26720316085E+03 -0.40373088630E+03  0.32132729837E+03  0.58107435115E+03  0.10566000000E+00 0. -1.
         -4    1    4    4    0  502 -0.22366782968E+03  0.46890966575E+03  0.28147827593E+03  0.59087527659E+03  0.00000000000E+00 0. -1.
<mgrwt>
<rscale>  2 0.10106679E+04</rscale>
<asrwt>0</asrwt>
<pdfrwt beam="1">  1       21 0.19978714E+00 0.10125533E+04</pdfrwt>
<pdfrwt beam="2">  1       21 0.13966921E+00 0.10125533E+04</pdfrwt>
<totfact> 0.22671651E+01</totfact>
</mgrwt>
</event>
<event>
 8    1  0.7631533E-006  0.1067603E+04  0.7818608E-02  0.8717553E-01
         21   -1    0    0  501  502  0.00000000000E+00  0.00000000000E+00  0.17120713587E+04  0.17120713587E+04  0.00000000000E+00 0.  1.
         21   -1    0    0  502  503 -0.00000000000E+00 -0.00000000000E+00 -0.76474586780E+03  0.76474586780E+03  0.00000000000E+00 0.  1.
    9000010    2    1    2  501    0 -0.77936138157E+02  0.37507614981E+03 -0.33278936637E+00  0.10492909104E+04  0.97685983856E+03 0.  0.
   -9000010    2    1    2    0  503  0.77936138157E+02 -0.37507614981E+03  0.94765828027E+03  0.14275263161E+04  0.99650339042E+03 0.  0.
        -13    1    3    3    0    0  0.21361695848E+03  0.56380911651E+02  0.40218700498E+03  0.45887406800E+03  0.10566000000E+00 0.  1.
          4    1    3    3  501    0 -0.29155309664E+03  0.31869523816E+03 -0.40251979434E+03  0.59041684243E+03  0.00000000000E+00 0.  1.
         13    1    4    4    0    0  0.44269845165E+03 -0.45613766572E+03  0.80927787354E+03  0.10290647098E+04  0.10566000000E+00 0. -1.
         -4    1    4    4    0  503 -0.36476231350E+03  0.81061515907E+02  0.13838040673E+03  0.39846160627E+03  0.00000000000E+00 0. -1.
<mgrwt>
<rscale>  2 0.10629949E+04</rscale>
<asrwt>0</asrwt>
<pdfrwt beam="1">  1       21 0.26339559E+00 0.10676025E+04</pdfrwt>
<pdfrwt beam="2">  1       21 0.11765321E+00 0.10676025E+04</pdfrwt>
<totfact> 0.12317491E+01</totfact>
</mgrwt>
</event>
<event>
 8    1  0.7631533E-006  0.1170078E+04  0.7818608E-02  0.8663390E-01
         21   -1    0    0  501  502  0.00000000000E+00  0.00000000000E+00  0.11927358645E+04  0.11927358645E+04  0.00000000000E+00 0.  1.
         21   -1    0    0  502  503 -0.00000000000E+00 -0.00000000000E+00 -0.10534904997E+04  0.10534904997E+04  0.00000000000E+00 0.  1.
    9000010    2    1    2  501    0 -0.22970209176E+02 -0.78729022675E+02  0.32965502047E+03  0.10607568196E+04  0.10048913913E+04 0.  0.
   -9000010    2    1    2    0  503  0.22970209176E+02  0.78729022675E+02 -0.19040965565E+03  0.11854695447E+04  0.11672002034E+04 0.  0.
        -13    1    3    3    0    0 -0.50164913475E+03 -0.12828463029E+03  0.99298627051E+02  0.52722768257E+03  0.10566000000E+00 0.  1.
          4    1    3    3  501    0  0.47867892558E+03  0.49555607612E+02  0.23035639342E+03  0.53352913700E+03  0.00000000000E+00 0.  1.
         13    1    4    4    0    0  0.27057055283E+03  0.55708999986E+03 -0.16826770918E+02  0.61954890314E+03  0.10566000000E+00 0. -1.
         -4    1    4    4    0  503 -0.24760034365E+03 -0.47836097718E+03 -0.17358288473E+03  0.56592064156E+03  0.00000000000E+00 0. -1.
<mgrwt>
<rscale>  2 0.11273304E+04</rscale>
<asrwt>0</asrwt>
<pdfrwt beam="1">  1       21 0.18349782E+00 0.11700779E+04</pdfrwt>
<pdfrwt beam="2">  1       21 0.16207546E+00 0.11700779E+04</pdfrwt>
<totfact> 0.18647176E+01</totfact>
</mgrwt>
</event>
<event>
 8    1  0.7631533E-006  0.1062343E+04  0.7818608E-02  0.8728514E-01
         21   -1    0    0  501  502  0.00000000000E+00  0.00000000000E+00  0.14490370898E+04  0.14490370898E+04  0.00000000000E+00 0. -1.
         21   -1    0    0  502  503 -0.00000000000E+00 -0.00000000000E+00 -0.14956487377E+04  0.14956487377E+04  0.00000000000E+00 0. -1.
    9000010    2    1    2  501    0 -0.95238798963E+02 -0.11719775813E+03  0.10192783907E+04  0.14722439144E+04  0.10515550212E+04 0.  0.
   -9000010    2    1    2    0  503  0.95238798963E+02  0.11719775813E+03 -0.10658900385E+04  0.14724419130E+04  0.10045684993E+04 0.  0.
        -13    1    3    3    0    0  0.42611582723E+03 -0.27933187126E+03  0.40884845452E+03  0.65326722131E+03  0.10566000000E+00 0.  1.
          4    1    3    3  501    0 -0.52135462620E+03  0.16213411313E+03  0.61042993619E+03  0.81897669313E+03  0.00000000000E+00 0.  1.
         13    1    4    4    0    0 -0.27429903946E+02  0.26858338749E+03  0.10185340422E+03  0.28855426315E+03  0.10566000000E+00 0. -1.
         -4    1    4    4    0  503  0.12266870291E+03 -0.15138562937E+03 -0.11677434428E+04  0.11838876499E+04  0.00000000000E+00 0. -1.
<mgrwt>
<rscale>  2 0.10505259E+04</rscale>
<asrwt>0</asrwt>
<pdfrwt beam="1">  1       21 0.22292878E+00 0.10623435E+04</pdfrwt>
<pdfrwt beam="2">  1       21 0.23009981E+00 0.10623435E+04</pdfrwt>
<totfact> 0.27271470E+00</totfact>
</mgrwt>
</event>
<event>
 8    1  0.7631533E-006  0.1032497E+04  0.7818608E-02  0.8792973E-01
         21   -1    0    0  503  502  0.00000000000E+00  0.00000000000E+00  0.97559329658E+03  0.97559329658E+03  0.00000000000E+00 0.  1.
         21   -1    0    0  501  503 -0.00000000000E+00 -0.00000000000E+00 -0.91482184370E+03  0.91482184370E+03  0.00000000000E+00 0.  1.
    9000010    2    1    2  501    0  0.10734774107E+03  0.36526670112E+02  0.15809771706E+03  0.10445306527E+04  0.10262512661E+04 0.  0.
   -9000010    2    1    2    0  502 -0.10734774107E+03 -0.36526670112E+02 -0.97326264178E+02  0.84588448762E+03  0.83258058442E+03 0.  0.
        -13    1    3    3    0    0 -0.32946799185E+03 -0.60003353453E+02 -0.26632578637E+03  0.42787731388E+03  0.10566000000E+00 0.  1.
          4    1    3    3  501    0  0.43681573292E+03  0.96530023565E+02  0.42442350343E+03  0.61665333879E+03  0.00000000000E+00 0.  1.
         13    1    4    4    0    0  0.15820592904E+03 -0.10975559729E+03  0.30356043601E+03  0.35947789445E+03  0.10566000000E+00 0. -1.
         -4    1    4    4    0  502 -0.26555367011E+03  0.73228927180E+02 -0.40088670019E+03  0.48640659317E+03  0.00000000000E+00 0. -1.
<mgrwt>
<rscale>  2 0.98066526E+03</rscale>
<asrwt>0</asrwt>
<pdfrwt beam="1">  1       21 0.15009128E+00 0.10324967E+04</pdfrwt>
<pdfrwt beam="2">  1       21 0.14074182E+00 0.10324967E+04</pdfrwt>
<totfact> 0.57014639E+01</totfact>
</mgrwt>
</event>
<event>
 8    1  0.7631533E-006  0.1138587E+04  0.7818608E-02  0.8658192E-01
         21   -1    0    0  501  502  0.00000000000E+00  0.00000000000E+00  0.94765403924E+03  0.94765403924E+03  0.00000000000E+00 0.  1.
         21   -1    0    0  502  503 -0.00000000000E+00 -0.00000000000E+00 -0.20171854816E+04  0.20171854816E+04  0.00000000000E+00 0. -1.
    9000010    2    1    2  501    0 -0.52368775083E+03 -0.31274562208E+02  0.32399650877E+03  0.11653119352E+04  0.98881303088E+03 0.  0.
   -9000010    2    1    2    0  503  0.52368775083E+03  0.31274562208E+02 -0.13935279511E+04  0.17995275856E+04  0.10105208668E+04 0.  0.
        -13    1    3    3    0    0 -0.46754368312E+03 -0.30900214546E+03  0.56317823712E+03  0.79451190013E+03  0.10566000000E+00 0.  1.
          4    1    3    3  501    0 -0.56144067716E+02  0.27772758325E+03 -0.23918172835E+03  0.37080003508E+03  0.00000000000E+00 0.  1.
         13    1    4    4    0    0 -0.15503345824E+02 -0.42906335001E+03 -0.54480299605E+03  0.69364690421E+03  0.10566000000E+00 0. -1.
         -4    1    4    4    0  503  0.53919109666E+03  0.46033791222E+03 -0.84872495506E+03  0.11058806814E+04  0.00000000000E+00 0. -1.
<mgrwt>
<rscale>  2 0.11337505E+04</rscale>
<asrwt>0</asrwt>
<pdfrwt beam="1">  1       21 0.14579293E+00 0.11385866E+04</pdfrwt>
<pdfrwt beam="2">  1       21 0.31033623E+00 0.11385866E+04</pdfrwt>
<totfact> 0.30140139E+00</totfact>
</mgrwt>
</event>
<event>
 8    1  0.7631533E-006  0.1243255E+04  0.7818608E-02  0.8574749E-01
         21   -1    0    0  501  502  0.00000000000E+00  0.00000000000E+00  0.14537910479E+04  0.14537910479E+04  0.00000000000E+00 0. -1.
         21   -1    0    0  502  503 -0.00000000000E+00 -0.00000000000E+00 -0.11124461649E+04  0.11124461649E+04  0.00000000000E+00 0. -1.
    9000010    2    1    2  501    0 -0.73470015073E+03 -0.51692905547E+02  0.44150149668E+03  0.13193203546E+04  0.10016117804E+04 0.  0.
   -9000010    2    1    2    0  503  0.73470015073E+03  0.51692905547E+02 -0.10015661359E+03  0.12469168582E+04  0.10011562495E+04 0.  0.
        -13    1    3    3    0    0 -0.79749855783E+03  0.29261361319E+03  0.14741974113E+03  0.86218285044E+03  0.10566000000E+00 0.  1.
          4    1    3    3  501    0  0.62798407100E+02 -0.34430651873E+03  0.29408175555E+03  0.45713750417E+03  0.00000000000E+00 0.  1.
         13    1    4    4    0    0  0.96636791624E+03  0.17249863048E+02  0.51494998342E+02  0.96789268689E+03  0.10566000000E+00 0. -1.
         -4    1    4    4    0  503 -0.23166776552E+03  0.34443042500E+02 -0.15165161193E+03  0.27902417128E+03  0.00000000000E+00 0. -1.
<mgrwt>
<rscale>  2 0.12431631E+04</rscale>
<asrwt>0</asrwt>
<pdfrwt beam="1">  1       21 0.22366016E+00 0.12432549E+04</pdfrwt>
<pdfrwt beam="2">  1       21 0.17114556E+00 0.12432549E+04</pdfrwt>
<totfact> 0.74927172E+00</totfact>
</mgrwt>
</event>
<event>
 8    1  0.7631533E-006  0.1089625E+04  0.7818608E-02  0.8701976E-01
         21   -1    0    0  503  502  0.00000000000E+00  0.00000000000E+00  0.88737817516E+03  0.88737817516E+03  0.00000000000E+00 0.  1.
         21   -1    0    0  501  503 -0.00000000000E+00 -0.00000000000E+00 -0.16223656981E+04  0.16223656981E+04  0.00000000000E+00 0.  1.
    9000010    2    1    2  501    0  0.38321845015E+03 -0.18429587108E+03 -0.92512987825E+03  0.14036526409E+04  0.96620603194E+03 0.  0.
   -9000010    2    1    2    0  502 -0.38321845015E+03  0.18429587108E+03  0.19014235530E+03  0.11060912323E+04  0.10032259717E+04 0.  0.
        -13    1    3    3    0    0  0.26551244556E+03  0.35779237812E+03 -0.64035099508E+03  0.78010361661E+03  0.10566000000E+00 0.  1.
          4    1    3    3  501    0  0.11770600458E+03 -0.54208824921E+03 -0.28477888317E+03  0.62354902433E+03  0.00000000000E+00 0.  1.
         13    1    4    4    0    0  0.33542770391E+03 -0.14016438620E+02  0.12309405381E+03  0.35757567360E+03  0.10566000000E+00 0. -1.
         -4    1    4    4    0  502 -0.71864615406E+03  0.19831230970E+03  0.67048301488E+02  0.74851555873E+03  0.00000000000E+00 0. -1.
<mgrwt>
<rscale>  2 0.10810278E+04</rscale>
<asrwt>0</asrwt>
<pdfrwt beam="1">  1       21 0.13651972E+00 0.10896255E+04</pdfrwt>
<pdfrwt beam="2">  1       21 0.24959472E+00 0.10896255E+04</pdfrwt>
<totfact> 0.10078223E+01</totfact>
</mgrwt>
</event>
<event>
 8    1  0.7631533E-006  0.1026991E+04  0.7818608E-02  0.8750510E-01
         21   -1    0    0  503  502  0.00000000000E+00  0.00000000000E+00  0.16673734859E+04  0.16673734859E+04  0.00000000000E+00 0. -1.
         21   -1    0    0  501  503 -0.00000000000E+00 -0.00000000000E+00 -0.63614663073E+03  0.63614663073E+03  0.00000000000E+00 0. -1.
    9000010    2    1    2  501    0  0.78307709678E+02 -0.26142039691E+03  0.40331804196E+03  0.10997844881E+04  0.98609723454E+03 0.  0.
   -9000010    2    1    2    0  502 -0.78307709678E+02  0.26142039691E+03  0.62790881325E+03  0.12037356286E+04  0.99006932305E+03 0.  0.
        -13    1    3    3    0    0  0.26172086658E+03 -0.76359038260E+02  0.67219222654E+03  0.72537639561E+03  0.10566000000E+00 0.  1.
          4    1    3    3  501    0 -0.18341315690E+03 -0.18506135865E+03 -0.26887418457E+03  0.37440809249E+03  0.00000000000E+00 0.  1.
         13    1    4    4    0    0 -0.44665107644E+03  0.41067850673E+03  0.49999043682E+03  0.78622164053E+03  0.10566000000E+00 0. -1.
         -4    1    4    4    0  502  0.36834336676E+03 -0.14925810982E+03  0.12791837643E+03  0.41751398804E+03  0.00000000000E+00 0. -1.
<mgrwt>
<rscale>  2 0.10260322E+04</rscale>
<asrwt>0</asrwt>
<pdfrwt beam="1">  1       21 0.25651900E+00 0.10269907E+04</pdfrwt>
<pdfrwt beam="2">  1       21 0.97868713E-01 0.10269907E+04</pdfrwt>
<totfact> 0.22850485E+01</totfact>
</mgrwt>
</event>
<event>
 8    1  0.7631533E-006  0.1060174E+04  0.7818608E-02  0.8755870E-01
         21   -1    0    0  503  502  0.00000000000E+00  0.00000000000E+00  0.99632847032E+03  0.99632847032E+03  0.00000000000E+00 0. -1.
         21   -1    0    0  501  503 -0.00000000000E+00 -0.00000000000E+00 -0.20399636892E+04  0.20399636892E+04  0.00000000000E+00 0. -1.
    9000010    2    1    2  501    0 -0.15396318319E+03 -0.28346880599E+03 -0.15991184815E+04  0.18394084337E+04  0.84981423974E+03 0.  0.
   -9000010    2    1    2    0  502  0.15396318319E+03  0.28346880599E+03  0.55548326264E+03  0.11968837259E+04  0.10099058236E+04 0.  0.
        -13    1    3    3    0    0 -0.51924366180E+02 -0.31652294807E+03 -0.16766540761E+04  0.17070594068E+04  0.10566000000E+00 0.  1.
          4    1    3    3  501    0 -0.10203881701E+03  0.33054142085E+02  0.77535594526E+02  0.13234902684E+03  0.00000000000E+00 0.  1.
         13    1    4    4    0    0 -0.31888177199E+03  0.44959246491E+03  0.21837860535E+03  0.59288126590E+03  0.10566000000E+00 0. -1.
         -4    1    4    4    0  502  0.47284495519E+03 -0.16612365892E+03  0.33710465729E+03  0.60400245999E+03  0.00000000000E+00 0. -1.
<mgrwt>
<rscale>  2 0.10201673E+04</rscale>
<asrwt>0</asrwt>
<pdfrwt beam="1">  1       21 0.15328130E+00 0.10601740E+04</pdfrwt>
<pdfrwt beam="2">  1       21 0.31384056E+00 0.10601740E+04</pdfrwt>
<totfact> 0.24870710E+00</totfact>
</mgrwt>
</event>
<event>
 8    1  0.7631533E-006  0.1016933E+04  0.7818608E-02  0.8760220E-01
         21   -1    0    0  503  502  0.00000000000E+00  0.00000000000E+00  0.99807303666E+03  0.99807303666E+03  0.00000000000E+00 0. -1.
         21   -1    0    0  501  503 -0.00000000000E+00 -0.00000000000E+00 -0.10362791898E+04  0.10362791898E+04  0.00000000000E+00 0. -1.
    9000010    2    1    2  501    0 -0.15732041836E+03  0.71673470465E+02 -0.97839000953E+02  0.10216286075E+04  0.10021306008E+04 0.  0.
   -9000010    2    1    2    0  502  0.15732041836E+03 -0.71673470465E+02  0.59632847789E+02  0.10127236190E+04  0.99607542462E+03 0.  0.
        -13    1    3    3    0    0 -0.23678000838E+03  0.13883349243E+03 -0.51937486298E+03  0.58744341893E+03  0.10566000000E+00 0.  1.
          4    1    3    3  501    0  0.79459590020E+02 -0.67160021964E+02  0.42153586202E+03  0.43418518856E+03  0.00000000000E+00 0.  1.
         13    1    4    4    0    0  0.46645598659E+03 -0.36918530404E+02 -0.28545837226E+03  0.54811555239E+03  0.10566000000E+00 0. -1.
         -4    1    4    4    0  502 -0.30913556823E+03 -0.34754940061E+02  0.34509122005E+03  0.46460806661E+03  0.00000000000E+00 0. -1.
<mgrwt>
<rscale>  2 0.10154380E+04</rscale>
<asrwt>0</asrwt>
<pdfrwt beam="1">  1       21 0.15354970E+00 0.10169329E+04</pdfrwt>
<pdfrwt beam="2">  1       21 0.15942757E+00 0.10169329E+04</pdfrwt>
<totfact> 0.36325238E+01</totfact>
</mgrwt>
</event>
<event>
 8    1  0.7631533E-006  0.1162681E+04  0.7818608E-02  0.8642573E-01
         21   -1    0    0  501  502  0.00000000000E+00  0.00000000000E+00  0.16716698580E+04  0.16716698580E+04  0.00000000000E+00 0.  1.
         21   -1    0    0  502  503 -0.00000000000E+00 -0.00000000000E+00 -0.86885575974E+03  0.86885575974E+03  0.00000000000E+00 0.  1.
    9000010    2    1    2  501    0 -0.19470252479E+03  0.48399492300E+03  0.79452319959E+03  0.13778152468E+04  0.99747059153E+03 0.  0.
   -9000010    2    1    2    0  503  0.19470252479E+03 -0.48399492300E+03  0.82908986703E+01  0.11627103709E+04  0.10390700212E+04 0.  0.
        -13    1    3    3    0    0 -0.40554897004E+03  0.63911173666E+03  0.81864234107E+03  0.11149480135E+04  0.10566000000E+00 0.  1.
          4    1    3    3  501    0  0.21084644525E+03 -0.15511681367E+03 -0.24119141481E+02  0.26286723330E+03  0.00000000000E+00 0.  1.
         13    1    4    4    0    0  0.12066558988E+03  0.32165513033E+03 -0.67539235150E+02  0.35011964655E+03  0.10566000000E+00 0. -1.
         -4    1    4    4    0  503  0.74036934910E+02 -0.80565005333E+03  0.75830133820E+02  0.81259072438E+03  0.00000000000E+00 0. -1.
<mgrwt>
<rscale>  2 0.11533127E+04</rscale>
<asrwt>0</asrwt>
<pdfrwt beam="1">  1       21 0.25717998E+00 0.11626808E+04</pdfrwt>
<pdfrwt beam="2">  1       21 0.13367012E+00 0.11626808E+04</pdfrwt>
<totfact> 0.92973842E+00</totfact>
</mgrwt>
</event>
<event>
 8    1  0.7631533E-006  0.1038485E+04  0.7818608E-02  0.8742392E-01
         21   -1    0    0  501  502  0.00000000000E+00  0.00000000000E+00  0.16343205293E+04  0.16343205293E+04  0.00000000000E+00 0. -1.
         21   -1    0    0  502  503 -0.00000000000E+00 -0.00000000000E+00 -0.83596763496E+03  0.83596763496E+03  0.00000000000E+00 0. -1.
    9000010    2    1    2  501    0 -0.21033105085E+03 -0.13373254090E+03  0.97795307560E+03  0.14163870344E+04  0.99379900872E+03 0.  0.
   -9000010    2    1    2    0  503  0.21033105085E+03  0.13373254090E+03 -0.17960018123E+03  0.10539011299E+04  0.10081308561E+04 0.  0.
        -13    1    3    3    0    0  0.14717751042E+03  0.36817167333E+03  0.49029456217E+03  0.63055560379E+03  0.10566000000E+00 0.  1.
          4    1    3    3  501    0 -0.35750856127E+03 -0.50190421423E+03  0.48765851343E+03  0.78583143063E+03  0.00000000000E+00 0.  1.
         13    1    4    4    0    0  0.55213050992E+03 -0.52375983084E+02  0.11423448741E+03  0.56625159855E+03  0.10566000000E+00 0. -1.
         -4    1    4    4    0  503 -0.34179945907E+03  0.18610852398E+03 -0.29383466864E+03  0.48764953133E+03  0.00000000000E+00 0. -1.
<mgrwt>
<rscale>  2 0.10349907E+04</rscale>
<asrwt>0</asrwt>
<pdfrwt beam="1">  1       21 0.25143393E+00 0.10384851E+04</pdfrwt>
<pdfrwt beam="2">  1       21 0.12861041E+00 0.10384851E+04</pdfrwt>
<totfact> 0.11766429E+01</totfact>
</mgrwt>
</event>
<event>
 8    1  0.7631533E-006  0.1037970E+04  0.7818608E-02  0.8740867E-01
         21   -1    0    0  503  502  0.00000000000E+00  0.00000000000E+00  0.78951984629E+03  0.78951984629E+03  0.00000000000E+00 0.  1.
         21   -1    0    0  501  503 -0.00000000000E+00 -0.00000000000E+00 -0.16417516427E+04  0.16417516427E+04  0.00000000000E+00 0.  1.
    9000010    2    1    2  501    0 -0.10634491216E+03 -0.25836277189E+03 -0.93249235374E+03  0.13953220158E+04  0.99966043016E+03 0.  0.
   -9000010    2    1    2    0  502  0.10634491216E+03  0.25836277189E+03  0.80260557322E+02  0.10359494732E+04  0.99432841245E+03 0.  0.
        -13    1    3    3    0    0 -0.61844975792E+02 -0.44512168047E+03 -0.10690874100E+04  0.11597008290E+04  0.10566000000E+00 0.  1.
          4    1    3    3  501    0 -0.44499936369E+02  0.18675890858E+03  0.13659505622E+03  0.23562118677E+03  0.00000000000E+00 0.  1.
         13    1    4    4    0    0 -0.43057142037E+03  0.11419119194E+03 -0.90140002595E+02  0.45448499159E+03  0.10566000000E+00 0. -1.
         -4    1    4    4    0  502  0.53691633253E+03  0.14417157996E+03  0.17040055992E+03  0.58146448165E+03  0.00000000000E+00 0. -1.
<mgrwt>
<rscale>  2 0.10366840E+04</rscale>
<asrwt>0</asrwt>
<pdfrwt beam="1">  1       21 0.12146459E+00 0.10379699E+04</pdfrwt>
<pdfrwt beam="2">  1       21 0.25257717E+00 0.10379699E+04</pdfrwt>
<totfact> 0.13583981E+01</totfact>
</mgrwt>
</event>
<event>
 8    1  0.7631533E-006  0.1107303E+04  0.7818608E-02  0.8686936E-01
         21   -1    0    0  503  502  0.00000000000E+00  0.00000000000E+00  0.39376968011E+03  0.39376968011E+03  0.00000000000E+00 0.  1.
         21   -1    0    0  501  503 -0.00000000000E+00 -0.00000000000E+00 -0.31216237664E+04  0.31216237664E+04  0.00000000000E+00 0.  1.
    9000010    2    1    2  501    0 -0.39767045512E+01 -0.37940529368E+03 -0.16608090387E+04  0.19776334169E+04  0.10043819381E+04 0.  0.
   -9000010    2    1    2    0  502  0.39767045512E+01  0.37940529368E+03 -0.10670450476E+04  0.15377600296E+04  0.10402675540E+04 0.  0.
        -13    1    3    3    0    0  0.13033137092E+03 -0.62855933506E+03 -0.59636385728E+03  0.87619801721E+03  0.10566000000E+00 0.  1.
          4    1    3    3  501    0 -0.13430807547E+03  0.24915404138E+03 -0.10644451814E+04  0.11014353997E+04  0.00000000000E+00 0.  1.
         13    1    4    4    0    0  0.17036543586E+03 -0.24074078890E+03 -0.29316554105E+01  0.29493917160E+03  0.10566000000E+00 0. -1.
         -4    1    4    4    0  502 -0.16638873131E+03  0.62014608258E+03 -0.10641133922E+04  0.12428208580E+04  0.00000000000E+00 0. -1.
<mgrwt>
<rscale>  2 0.10987951E+04</rscale>
<asrwt>0</asrwt>
<pdfrwt beam="1">  1       21 0.60579950E-01 0.11073034E+04</pdfrwt>
<pdfrwt beam="2">  1       21 0.48024981E+00 0.11073034E+04</pdfrwt>
<totfact> 0.19540016E+00</totfact>
</mgrwt>
</event>
<event>
 8    1  0.7631533E-006  0.1061473E+04  0.7818608E-02  0.8733700E-01
         21   -1    0    0  503  502  0.00000000000E+00  0.00000000000E+00  0.12397792020E+04  0.12397792020E+04  0.00000000000E+00 0.  1.
         21   -1    0    0  501  503 -0.00000000000E+00 -0.00000000000E+00 -0.15739000341E+04  0.15739000341E+04  0.00000000000E+00 0.  1.
    9000010    2    1    2  501    0 -0.31239012350E+03 -0.14307639701E+03 -0.11214505619E+04  0.15441424680E+04  0.10043237297E+04 0.  0.
   -9000010    2    1    2    0  502  0.31239012350E+03  0.14307639701E+03  0.78732972984E+03  0.12695367681E+04  0.93476042787E+03 0.  0.
        -13    1    3    3    0    0 -0.56142362768E+03 -0.32050564432E+03 -0.10452565684E+04  0.12290165429E+04  0.10566000000E+00 0.  1.
          4    1    3    3  501    0  0.24903350418E+03  0.17742924731E+03 -0.76193993475E+02  0.31512592507E+03  0.00000000000E+00 0.  1.
         13    1    4    4    0    0  0.46030691710E+03  0.22673755049E+03  0.53057254938E+02  0.51585604406E+03  0.10566000000E+00 0. -1.
         -4    1    4    4    0  502 -0.14791679360E+03 -0.83661153476E+02  0.73427247491E+03  0.75368072407E+03  0.00000000000E+00 0. -1.
<mgrwt>
<rscale>  2 0.10446880E+04</rscale>
<asrwt>0</asrwt>
<pdfrwt beam="1">  1       21 0.19073526E+00 0.10614728E+04</pdfrwt>
<pdfrwt beam="2">  1       21 0.24213847E+00 0.10614728E+04</pdfrwt>
<totfact> 0.39384311E+00</totfact>
</mgrwt>
</event>
<event>
 8    1  0.7631533E-006  0.1122252E+04  0.7818608E-02  0.8668143E-01
         21   -1    0    0  501  502  0.00000000000E+00  0.00000000000E+00  0.14280619910E+04  0.14280619910E+04  0.00000000000E+00 0.  1.
         21   -1    0    0  502  503 -0.00000000000E+00 -0.00000000000E+00 -0.91171087571E+03  0.91171087571E+03  0.00000000000E+00 0.  1.
    9000010    2    1    2  501    0 -0.38630118211E+03  0.34380600363E+03  0.47752351073E+03  0.12168490628E+04  0.99260352962E+03 0.  0.
   -9000010    2    1    2    0  503  0.38630118211E+03 -0.34380600363E+03  0.38827604572E+02  0.11229238039E+04  0.99600156376E+03 0.  0.
        -13    1    3    3    0    0 -0.62697896647E+03  0.44674348997E+03  0.54892802288E+03  0.94551803563E+03  0.10566000000E+00 0.  1.
          4    1    3    3  501    0  0.24067778436E+03 -0.10293748634E+03 -0.71404512143E+02  0.27133102722E+03  0.00000000000E+00 0.  1.
         13    1    4    4    0    0 -0.21125748194E+03  0.51522613644E+01 -0.28834432528E+03  0.35748948314E+03  0.10566000000E+00 0. -1.
         -4    1    4    4    0  503  0.59755866405E+03 -0.34895826500E+03  0.32717192985E+03  0.76543432074E+03  0.00000000000E+00 0. -1.
<mgrwt>
<rscale>  2 0.11214979E+04</rscale>
<asrwt>0</asrwt>
<pdfrwt beam="1">  1       21 0.21970184E+00 0.11222523E+04</pdfrwt>
<pdfrwt beam="2">  1       21 0.14026321E+00 0.11222523E+04</pdfrwt>
<totfact> 0.15369390E+01</totfact>
</mgrwt>
</event>
<event>
 8    1  0.7631533E-006  0.1041199E+04  0.7818608E-02  0.8748791E-01
         21   -1    0    0  503  502  0.00000000000E+00  0.00000000000E+00  0.13103188097E+04  0.13103188097E+04  0.00000000000E+00 0. -1.
         21   -1    0    0  501  503 -0.00000000000E+00 -0.00000000000E+00 -0.88276197984E+03  0.88276197984E+03  0.00000000000E+00 0. -1.
    9000010    2    1    2  501    0 -0.60168562809E+02  0.57757962818E+02  0.57094801231E+03  0.11420540960E+04  0.98557074182E+03 0.  0.
   -9000010    2    1    2    0  502  0.60168562809E+02 -0.57757962818E+02 -0.14339118250E+03  0.10510266935E+04  0.10378534776E+04 0.  0.
        -13    1    3    3    0    0  0.17760234069E+03 -0.23579732947E+03 -0.14775720971E+03  0.33011388367E+03  0.10566000000E+00 0.  1.
          4    1    3    3  501    0 -0.23777090350E+03  0.29355529229E+03  0.71870522202E+03  0.81194021230E+03  0.00000000000E+00 0.  1.
         13    1    4    4    0    0  0.49893911374E+03  0.19346880090E+03 -0.58109084862E+02  0.53828161129E+03  0.10566000000E+00 0. -1.
         -4    1    4    4    0  502 -0.43877055093E+03 -0.25122676372E+03 -0.85282097639E+02  0.51274508223E+03  0.00000000000E+00 0. -1.
<mgrwt>
<rscale>  2 0.10279210E+04</rscale>
<asrwt>0</asrwt>
<pdfrwt beam="1">  1       21 0.20158751E+00 0.10411993E+04</pdfrwt>
<pdfrwt beam="2">  1       21 0.13580954E+00 0.10411993E+04</pdfrwt>
<totfact> 0.23696082E+01</totfact>
</mgrwt>
</event>
<event>
 8    1  0.7631533E-006  0.1017913E+04  0.7818608E-02  0.8762677E-01
         21   -1    0    0  501  502  0.00000000000E+00  0.00000000000E+00  0.10805290141E+04  0.10805290141E+04  0.00000000000E+00 0. -1.
         21   -1    0    0  502  503 -0.00000000000E+00 -0.00000000000E+00 -0.94019009420E+03  0.94019009420E+03  0.00000000000E+00 0. -1.
    9000010    2    1    2  501    0  0.45907743428E+02  0.88131209044E+01  0.50858610354E+02  0.10191822791E+04  0.10168385948E+04 0.  0.
   -9000010    2    1    2    0  503 -0.45907743428E+02 -0.88131209044E+01  0.89480309525E+02  0.10015368291E+04  0.99643569905E+03 0.  0.
        -13    1    3    3    0    0 -0.17578301009E+03 -0.43701179459E+03 -0.13131134506E+03  0.48900067051E+03  0.10566000000E+00 0.  1.
          4    1    3    3  501    0  0.22169075352E+03  0.44582491550E+03  0.18216995542E+03  0.53018160863E+03  0.00000000000E+00 0.  1.
         13    1    4    4    0    0  0.59397099395E+02 -0.44565374792E+03  0.26181291842E+03  0.52027040457E+03  0.10566000000E+00 0. -1.
         -4    1    4    4    0  503 -0.10530484282E+03  0.43684062702E+03 -0.17233260890E+03  0.48126642458E+03  0.00000000000E+00 0. -1.
<mgrwt>
<rscale>  2 0.10127786E+04</rscale>
<asrwt>0</asrwt>
<pdfrwt beam="1">  1       21 0.16623523E+00 0.10179125E+04</pdfrwt>
<pdfrwt beam="2">  1       21 0.14464463E+00 0.10179125E+04</pdfrwt>
<totfact> 0.38153003E+01</totfact>
</mgrwt>
</event>
<event>
 8    1  0.7631533E-006  0.1005649E+04  0.7818608E-02  0.8772734E-01
         21   -1    0    0  503  502  0.00000000000E+00  0.00000000000E+00  0.10319765041E+04  0.10319765041E+04  0.00000000000E+00 0. -1.
         21   -1    0    0  501  503 -0.00000000000E+00 -0.00000000000E+00 -0.98553437069E+03  0.98553437069E+03  0.00000000000E+00 0. -1.
    9000010    2    1    2  501    0  0.75306426880E+01  0.90612478307E+02  0.16605860359E+03  0.10192674243E+04  0.10015304742E+04 0.  0.
   -9000010    2    1    2    0  502 -0.75306426880E+01 -0.90612478307E+02 -0.11961647016E+03  0.99824345046E+03  0.98687109322E+03 0.  0.
        -13    1    3    3    0    0 -0.24611121345E+03  0.36520507359E+03  0.38594806922E+03  0.58557783297E+03  0.10566000000E+00 0.  1.
          4    1    3    3  501    0  0.25364185614E+03 -0.27459259529E+03 -0.21988946563E+03  0.43368959137E+03  0.00000000000E+00 0.  1.
         13    1    4    4    0    0  0.37235350742E+03 -0.35732099335E+03  0.10554209719E+02  0.51617519243E+03  0.10566000000E+00 0. -1.
         -4    1    4    4    0  502 -0.37988415011E+03  0.26670851504E+03 -0.13017067988E+03  0.48206825803E+03  0.00000000000E+00 0. -1.
<mgrwt>
<rscale>  2 0.10019797E+04</rscale>
<asrwt>0</asrwt>
<pdfrwt beam="1">  1       21 0.15876562E+00 0.10056494E+04</pdfrwt>
<pdfrwt beam="2">  1       21 0.15162067E+00 0.10056494E+04</pdfrwt>
<totfact> 0.38377245E+01</totfact>
</mgrwt>
</event>
<event>
 8    1  0.7631533E-006  0.1022822E+04  0.7818608E-02  0.8753774E-01
         21   -1    0    0  503  502  0.00000000000E+00  0.00000000000E+00  0.22928292635E+04  0.22928292635E+04  0.00000000000E+00 0.  1.
         21   -1    0    0  501  503 -0.00000000000E+00 -0.00000000000E+00 -0.49387290698E+03  0.49387290698E+03  0.00000000000E+00 0.  1.
    9000010    2    1    2  501    0  0.21356866118E+03 -0.13335427995E+03  0.12866432311E+04  0.16427485469E+04  0.98983687922E+03 0.  0.
   -9000010    2    1    2    0  502 -0.21356866118E+03  0.13335427995E+03  0.51231312546E+03  0.11439536235E+04  0.99134767728E+03 0.  0.
        -13    1    3    3    0    0 -0.20143588199E+03  0.33507285436E+03  0.42047273330E+03  0.57414942558E+03  0.10566000000E+00 0.  1.
          4    1    3    3  501    0  0.41500454316E+03 -0.46842713431E+03  0.86617049776E+03  0.10685991214E+04  0.00000000000E+00 0.  1.
         13    1    4    4    0    0 -0.49450803552E+03 -0.10228948704E+02  0.63546196201E+03  0.80526687807E+03  0.10566000000E+00 0. -1.
         -4    1    4    4    0  502  0.28093937434E+03  0.14358322865E+03 -0.12314883655E+03  0.33868674546E+03  0.00000000000E+00 0. -1.
<mgrwt>
<rscale>  2 0.10224559E+04</rscale>
<asrwt>0</asrwt>
<pdfrwt beam="1">  1       21 0.35274296E+00 0.10228222E+04</pdfrwt>
<pdfrwt beam="2">  1       21 0.75980449E-01 0.10228222E+04</pdfrwt>
<totfact> 0.90018486E+00</totfact>
</mgrwt>
</event>
<event>
 8    1  0.7631533E-006  0.1049573E+04  0.7818608E-02  0.8732803E-01
         21   -1    0    0  501  502  0.00000000000E+00  0.00000000000E+00  0.71169337603E+03  0.71169337603E+03  0.00000000000E+00 0.  1.
         21   -1    0    0  502  503 -0.00000000000E+00 -0.00000000000E+00 -0.16654220436E+04  0.16654220436E+04  0.00000000000E+00 0.  1.
    9000010    2    1    2  501    0 -0.28640606407E+03 -0.10238889763E+03 -0.12875618557E+03  0.10421313684E+04  0.98840665410E+03 0.  0.
   -9000010    2    1    2    0  503  0.28640606407E+03  0.10238889763E+03 -0.82497248196E+03  0.13349840511E+04  0.10045351666E+04 0.  0.
        -13    1    3    3    0    0  0.32524810922E+02  0.41189002693E+03 -0.14185386363E+03  0.43684526712E+03  0.10566000000E+00 0.  1.
          4    1    3    3  501    0 -0.31893087499E+03 -0.51427892457E+03  0.13097678066E+02  0.60528610132E+03  0.00000000000E+00 0.  1.
         13    1    4    4    0    0  0.65425421485E+03  0.74685008951E+02 -0.39270190329E+03  0.76670804367E+03  0.10566000000E+00 0. -1.
         -4    1    4    4    0  503 -0.36784815079E+03  0.27703888683E+02 -0.43227057867E+03  0.56827600748E+03  0.00000000000E+00 0. -1.
<mgrwt>
<rscale>  2 0.10456948E+04</rscale>
<asrwt>0</asrwt>
<pdfrwt beam="1">  1       21 0.10949129E+00 0.10495727E+04</pdfrwt>
<pdfrwt beam="2">  1       21 0.25621877E+00 0.10495727E+04</pdfrwt>
<totfact> 0.16971039E+01</totfact>
</mgrwt>
</event>
<event>
 8    1  0.7631533E-006  0.1002105E+04  0.7818608E-02  0.8774806E-01
         21   -1    0    0  503  502  0.00000000000E+00  0.00000000000E+00  0.11123778235E+04  0.11123778235E+04  0.00000000000E+00 0.  1.
         21   -1    0    0  501  503 -0.00000000000E+00 -0.00000000000E+00 -0.97173910966E+03  0.97173910966E+03  0.00000000000E+00 0.  1.
    9000010    2    1    2  501    0 -0.18926802518E+03 -0.11736317661E+02  0.36458972765E+03  0.10663674624E+04  0.98399886631E+03 0.  0.
   -9000010    2    1    2    0  502  0.18926802518E+03  0.11736317661E+02 -0.22395101383E+03  0.10177494707E+04  0.97452542401E+03 0.  0.
        -13    1    3    3    0    0 -0.50145601920E+03  0.95701463956E+02 -0.75649704060E+02  0.51608119350E+03  0.10566000000E+00 0.  1.
          4    1    3    3  501    0  0.31218799402E+03 -0.10743778162E+03  0.44023943171E+03  0.55028626892E+03  0.00000000000E+00 0.  1.
         13    1    4    4    0    0  0.35418161018E+03 -0.27702698319E+03 -0.43358707264E+03  0.62464895992E+03  0.10566000000E+00 0. -1.
         -4    1    4    4    0  502 -0.16491358500E+03  0.28876330085E+03  0.20963605881E+03  0.39310051080E+03  0.00000000000E+00 0. -1.
<mgrwt>
<rscale>  2 0.99977143E+03</rscale>
<asrwt>0</asrwt>
<pdfrwt beam="1">  1       21 0.17113505E+00 0.10021047E+04</pdfrwt>
<pdfrwt beam="2">  1       21 0.14949833E+00 0.10021047E+04</pdfrwt>
<totfact> 0.31490513E+01</totfact>
</mgrwt>
</event>
<event>
 8    1  0.7631533E-006  0.1022368E+04  0.7818608E-02  0.8754847E-01
         21   -1    0    0  501  502  0.00000000000E+00  0.00000000000E+00  0.14418068881E+04  0.14418068881E+04  0.00000000000E+00 0.  1.
         21   -1    0    0  502  503 -0.00000000000E+00 -0.00000000000E+00 -0.89839315061E+03  0.89839315061E+03  0.00000000000E+00 0.  1.
    9000010    2    1    2  501    0  0.82435024782E+02  0.21227726581E+03  0.79081922941E+03  0.12925286725E+04  0.99668357302E+03 0.  0.
   -9000010    2    1    2    0  503 -0.82435024782E+02 -0.21227726581E+03 -0.24740549189E+03  0.10476713662E+04  0.99224424581E+03 0.  0.
        -13    1    3    3    0    0  0.39134319915E+03  0.44992632704E+03  0.63965526939E+03  0.87449532537E+03  0.10566000000E+00 0.  1.
          4    1    3    3  501    0 -0.30890817437E+03 -0.23764906123E+03  0.15116396002E+03  0.41803334712E+03  0.00000000000E+00 0.  1.
         13    1    4    4    0    0 -0.80770154140E+02  0.12703507335E+03 -0.56390869915E+03  0.58365637134E+03  0.10566000000E+00 0. -1.
         -4    1    4    4    0  503 -0.16648706423E+01 -0.33931233916E+03  0.31650320725E+03  0.46401499491E+03  0.00000000000E+00 0. -1.
<mgrwt>
<rscale>  2 0.10212840E+04</rscale>
<asrwt>0</asrwt>
<pdfrwt beam="1">  1       21 0.22181644E+00 0.10223675E+04</pdfrwt>
<pdfrwt beam="2">  1       21 0.13821433E+00 0.10223675E+04</pdfrwt>
<totfact> 0.15830717E+01</totfact>
</mgrwt>
</event>
<event>
 8    1  0.7631533E-006  0.1060022E+04  0.7818608E-02  0.8786411E-01
         21   -1    0    0  503  502  0.00000000000E+00  0.00000000000E+00  0.10542757846E+04  0.10542757846E+04  0.00000000000E+00 0.  1.
         21   -1    0    0  501  503 -0.00000000000E+00 -0.00000000000E+00 -0.12018951363E+04  0.12018951363E+04  0.00000000000E+00 0.  1.
    9000010    2    1    2  501    0  0.14140575967E+03 -0.18173473976E+02 -0.71329703630E+03  0.12776692053E+04  0.10503904380E+04 0.  0.
   -9000010    2    1    2    0  502 -0.14140575967E+03  0.18173473976E+02  0.56567768468E+03  0.97850171557E+03  0.78558799661E+03 0.  0.
        -13    1    3    3    0    0 -0.82423327975E+02  0.48996890039E+03 -0.25934995801E+03  0.56046903592E+03  0.10566000000E+00 0.  1.
          4    1    3    3  501    0  0.22382908764E+03 -0.50814237437E+03 -0.45394707829E+03  0.71720016940E+03  0.00000000000E+00 0.  1.
         13    1    4    4    0    0 -0.24029672616E+03 -0.31027694877E+03  0.48902873036E+03  0.62702744104E+03  0.10566000000E+00 0. -1.
         -4    1    4    4    0  502  0.98890966497E+02  0.32845042275E+03  0.76648954325E+02  0.35147427453E+03  0.00000000000E+00 0. -1.
<mgrwt>
<rscale>  2 0.98751545E+03</rscale>
<asrwt>0</asrwt>
<pdfrwt beam="1">  1       21 0.16219627E+00 0.10600217E+04</pdfrwt>
<pdfrwt beam="2">  1       21 0.18490694E+00 0.10600217E+04</pdfrwt>
<totfact> 0.18551085E+01</totfact>
</mgrwt>
</event>
<event>
 8    1  0.7631533E-006  0.1094108E+04  0.7818608E-02  0.8694439E-01
         21   -1    0    0  501  502  0.00000000000E+00  0.00000000000E+00  0.16054614389E+04  0.16054614389E+04  0.00000000000E+00 0. -1.
         21   -1    0    0  502  503 -0.00000000000E+00 -0.00000000000E+00 -0.11963713778E+04  0.11963713778E+04  0.00000000000E+00 0. -1.
    9000010    2    1    2  501    0 -0.19653002444E+03  0.32508642416E+03  0.10761950755E+04  0.15346883393E+04  0.10260444554E+04 0.  0.
   -9000010    2    1    2    0  503  0.19653002444E+03 -0.32508642416E+03 -0.66710501450E+03  0.12671444775E+04  0.10081273693E+04 0.  0.
        -13    1    3    3    0    0  0.20256704476E+03  0.34308864056E+03  0.10627264632E+04  0.11349584880E+04  0.10566000000E+00 0.  1.
          4    1    3    3  501    0 -0.39909706920E+03 -0.18002216397E+02  0.13468612376E+02  0.39972985122E+03  0.00000000000E+00 0.  1.
         13    1    4    4    0    0 -0.93469356885E+02  0.30721229075E+03 -0.27723610380E+02  0.32231121916E+03  0.10566000000E+00 0. -1.
         -4    1    4    4    0  503  0.28999938132E+03 -0.63229871491E+03 -0.63938140412E+03  0.94483325829E+03  0.00000000000E+00 0. -1.
<mgrwt>
<rscale>  2 0.10898876E+04</rscale>
<asrwt>0</asrwt>
<pdfrwt beam="1">  1       21 0.24699407E+00 0.10941081E+04</pdfrwt>
<pdfrwt beam="2">  1       21 0.18405714E+00 0.10941081E+04</pdfrwt>
<totfact> 0.40730163E+00</totfact>
</mgrwt>
</event>
<event>
 8    1  0.7631533E-006  0.1087629E+04  0.7818608E-02  0.8697547E-01
         21   -1    0    0  501  502  0.00000000000E+00  0.00000000000E+00  0.80743591351E+03  0.80743591351E+03  0.00000000000E+00 0.  1.
         21   -1    0    0  502  503 -0.00000000000E+00 -0.00000000000E+00 -0.18648155265E+04  0.18648155265E+04  0.00000000000E+00 0.  1.
    9000010    2    1    2  501    0  0.26043780722E+03 -0.27344470799E+03  0.94684512311E+02  0.10917430676E+04  0.10199695628E+04 0.  0.
   -9000010    2    1    2    0  503 -0.26043780722E+03  0.27344470799E+03 -0.11520641253E+04  0.15805083724E+04  0.10139798354E+04 0.  0.
        -13    1    3    3    0    0  0.42603471517E+03  0.24839597466E+03  0.20359089548E+03  0.53353106999E+03  0.10566000000E+00 0.  1.
          4    1    3    3  501    0 -0.16559690794E+03 -0.52184068266E+03 -0.10890638317E+03  0.55821199762E+03  0.00000000000E+00 0.  1.
         13    1    4    4    0    0 -0.78524666990E+02 -0.11795968975E+03 -0.11399515314E+04  0.11487254314E+04  0.10566000000E+00 0. -1.
         -4    1    4    4    0  503 -0.18191314023E+03  0.39140439774E+03 -0.12112593893E+02  0.43178294095E+03  0.00000000000E+00 0. -1.
<mgrwt>
<rscale>  2 0.10862229E+04</rscale>
<asrwt>0</asrwt>
<pdfrwt beam="1">  1       21 0.12422091E+00 0.10876294E+04</pdfrwt>
<pdfrwt beam="2">  1       21 0.28689470E+00 0.10876294E+04</pdfrwt>
<totfact> 0.71517151E+00</totfact>
</mgrwt>
</event>
<event>
 8    1  0.7631533E-006  0.1018377E+04  0.7818608E-02  0.8759546E-01
         21   -1    0    0  501  502  0.00000000000E+00  0.00000000000E+00  0.14325818250E+04  0.14325818250E+04  0.00000000000E+00 0. -1.
         21   -1    0    0  502  503 -0.00000000000E+00 -0.00000000000E+00 -0.91276337579E+03  0.91276337579E+03  0.00000000000E+00 0. -1.
    9000010    2    1    2  501    0 -0.15472515659E+03 -0.86923940777E+02  0.80291642302E+03  0.12968295651E+04  0.10027943424E+04 0.  0.
   -9000010    2    1    2    0  503  0.15472515659E+03  0.86923940777E+02 -0.28309797376E+03  0.10485156357E+04  0.99385357574E+03 0.  0.
        -13    1    3    3    0    0 -0.49105206637E+03 -0.30441831864E+03  0.29116781311E+03  0.64697863269E+03  0.10566000000E+00 0.  1.
          4    1    3    3  501    0  0.33632690978E+03  0.21749437787E+03  0.51174860991E+03  0.64985093243E+03  0.00000000000E+00 0.  1.
         13    1    4    4    0    0 -0.35956388693E+03 -0.18098296503E+03  0.15233956704E+01  0.40254608967E+03  0.10566000000E+00 0. -1.
         -4    1    4    4    0  503  0.51428904352E+03  0.26790690581E+03 -0.28462136943E+03  0.64596954603E+03  0.00000000000E+00 0. -1.
<mgrwt>
<rscale>  2 0.10161693E+04</rscale>
<asrwt>0</asrwt>
<pdfrwt beam="1">  1       21 0.22039720E+00 0.10183772E+04</pdfrwt>
<pdfrwt beam="2">  1       21 0.14042514E+00 0.10183772E+04</pdfrwt>
<totfact> 0.15491620E+01</totfact>
</mgrwt>
</event>
<event>
 8    1  0.7631533E-006  0.1035709E+04  0.7818608E-02  0.8755312E-01
         21   -1    0    0  503  502  0.00000000000E+00  0.00000000000E+00  0.65550161918E+03  0.65550161918E+03  0.00000000000E+00 0.  1.
         21   -1    0    0  501  503 -0.00000000000E+00 -0.00000000000E+00 -0.16160789082E+04  0.16160789082E+04  0.00000000000E+00 0.  1.
    9000010    2    1    2  501    0 -0.82483928651E+02 -0.56644482129E+02 -0.70439320507E+03  0.12046580458E+04  0.97212088970E+03 0.  0.
   -9000010    2    1    2    0  502  0.82483928651E+02  0.56644482129E+02 -0.25618408399E+03  0.10669224816E+04  0.10308642495E+04 0.  0.
        -13    1    3    3    0    0  0.24111126835E+03 -0.42256568068E+03 -0.39245696410E+03  0.62507509792E+03  0.10566000000E+00 0.  1.
          4    1    3    3  501    0 -0.32359519701E+03  0.36592119855E+03 -0.31193624098E+03  0.57958294791E+03  0.00000000000E+00 0.  1.
         13    1    4    4    0    0 -0.32079130407E+03 -0.23706591248E+03  0.14737764163E+03  0.42523815450E+03  0.10566000000E+00 0. -1.
         -4    1    4    4    0  502  0.40327523272E+03  0.29371039461E+03 -0.40356172562E+03  0.64168432707E+03  0.00000000000E+00 0. -1.
<mgrwt>
<rscale>  2 0.10207762E+04</rscale>
<asrwt>0</asrwt>
<pdfrwt beam="1">  1       21 0.10084640E+00 0.10357091E+04</pdfrwt>
<pdfrwt beam="2">  1       21 0.24862752E+00 0.10357091E+04</pdfrwt>
<totfact> 0.24059322E+01</totfact>
</mgrwt>
</event>
<event>
 8    1  0.7631533E-006  0.1254938E+04  0.7818608E-02  0.8635195E-01
         21   -1    0    0  501  502  0.00000000000E+00  0.00000000000E+00  0.57253559343E+03  0.57253559343E+03  0.00000000000E+00 0.  1.
         21   -1    0    0  502  503 -0.00000000000E+00 -0.00000000000E+00 -0.21464701139E+04  0.21464701139E+04  0.00000000000E+00 0.  1.
    9000010    2    1    2  501    0 -0.12799471399E+03  0.51528834454E+02 -0.11484468339E+04  0.17011170699E+04  0.12473296628E+04 0.  0.
   -9000010    2    1    2    0  503  0.12799471399E+03 -0.51528834454E+02 -0.42548768654E+03  0.10178886374E+04  0.91434109563E+03 0.  0.
        -13    1    3    3    0    0  0.21414379879E+03 -0.43976186950E+02 -0.12975772841E+04  0.13158640853E+04  0.10566000000E+00 0.  1.
          4    1    3    3  501    0 -0.34213851278E+03  0.95505021403E+02  0.14913045013E+03  0.38525298467E+03  0.00000000000E+00 0.  1.
         13    1    4    4    0    0  0.72475240446E+02 -0.41156837776E+03 -0.49416274237E+03  0.64717695970E+03  0.10566000000E+00 0. -1.
         -4    1    4    4    0  503  0.55519473541E+02  0.36003954331E+03  0.68675055834E+02  0.37071167770E+03  0.00000000000E+00 0. -1.
<mgrwt>
<rscale>  2 0.11626958E+04</rscale>
<asrwt>0</asrwt>
<pdfrwt beam="1">  1       21 0.88082397E-01 0.12549379E+04</pdfrwt>
<pdfrwt beam="2">  1       21 0.33022618E+00 0.12549379E+04</pdfrwt>
<totfact> 0.85646598E+00</totfact>
</mgrwt>
</event>
<event>
 8    1  0.7631533E-006  0.1009507E+04  0.7818608E-02  0.8772059E-01
         21   -1    0    0  503  502  0.00000000000E+00  0.00000000000E+00  0.21390936195E+04  0.21390936195E+04  0.00000000000E+00 0.  1.
         21   -1    0    0  501  503 -0.00000000000E+00 -0.00000000000E+00 -0.47547422140E+03  0.47547422140E+03  0.00000000000E+00 0.  1.
    9000010    2    1    2  501    0  0.96634646888E+02  0.10894867587E+03  0.10477724234E+04  0.14549681089E+04  0.99894798557E+03 0.  0.
   -9000010    2    1    2    0  502 -0.96634646888E+02 -0.10894867587E+03  0.61584697476E+03  0.11595997320E+04  0.97169746999E+03 0.  0.
        -13    1    3    3    0    0  0.75589319833E+02  0.55096334110E+03  0.47642752034E+03  0.73229607524E+03  0.10566000000E+00 0.  1.
          4    1    3    3  501    0  0.21045327054E+02 -0.44201466523E+03  0.57134490302E+03  0.72267203369E+03  0.00000000000E+00 0.  1.
         13    1    4    4    0    0  0.40701961469E+03 -0.13418096526E+03  0.46691433495E+03  0.63378111800E+03  0.10566000000E+00 0. -1.
         -4    1    4    4    0  502 -0.50365426158E+03  0.25232289395E+02  0.14893263981E+03  0.52581861401E+03  0.00000000000E+00 0. -1.
<mgrwt>
<rscale>  2 0.10026994E+04</rscale>
<asrwt>0</asrwt>
<pdfrwt beam="1">  1       21 0.32909132E+00 0.10095074E+04</pdfrwt>
<pdfrwt beam="2">  1       21 0.73149881E-01 0.10095074E+04</pdfrwt>
<totfact> 0.14488904E+01</totfact>
</mgrwt>
</event>
<event>
 8    1  0.7631533E-006  0.1168708E+04  0.7818608E-02  0.8631927E-01
         21   -1    0    0  503  502  0.00000000000E+00  0.00000000000E+00  0.67132087254E+03  0.67132087254E+03  0.00000000000E+00 0.  1.
         21   -1    0    0  501  503 -0.00000000000E+00 -0.00000000000E+00 -0.24839374158E+04  0.24839374158E+04  0.00000000000E+00 0.  1.
    9000010    2    1    2  501    0 -0.23751242535E+02 -0.58724819245E+03 -0.15889920730E+04  0.19725047598E+04  0.10101755580E+04 0.  0.
   -9000010    2    1    2    0  502  0.23751242535E+02  0.58724819245E+03 -0.22362447022E+03  0.11827535286E+04  0.10017352168E+04 0.  0.
        -13    1    3    3    0    0 -0.11454480887E+03 -0.75706349653E+03 -0.16060059793E+04  0.17791910712E+04  0.10566000000E+00 0.  1.
          4    1    3    3  501    0  0.90793566332E+02  0.16981530408E+03  0.17013906274E+02  0.19331368859E+03  0.00000000000E+00 0.  1.
         13    1    4    4    0    0 -0.15735344200E+03  0.19126391006E+03  0.37079887085E+03  0.44590784114E+03  0.10566000000E+00 0. -1.
         -4    1    4    4    0  502  0.18110468454E+03  0.39598428238E+03 -0.59442334107E+03  0.73684568742E+03  0.00000000000E+00 0. -1.
<mgrwt>
<rscale>  2 0.11668822E+04</rscale>
<asrwt>0</asrwt>
<pdfrwt beam="1">  1       21 0.10328014E+00 0.11687084E+04</pdfrwt>
<pdfrwt beam="2">  1       21 0.38214421E+00 0.11687084E+04</pdfrwt>
<totfact> 0.24922941E+00</totfact>
</mgrwt>
</event>
<event>
 8    1  0.7631533E-006  0.1120506E+04  0.7818608E-02  0.8669083E-01
         21   -1    0    0  503  502  0.00000000000E+00  0.00000000000E+00  0.87682174847E+03  0.87682174847E+03  0.00000000000E+00 0.  1.
         21   -1    0    0  501  503 -0.00000000000E+00 -0.00000000000E+00 -0.18503456744E+04  0.18503456744E+04  0.00000000000E+00 0.  1.
    9000010    2    1    2  501    0 -0.51843690560E+03 -0.35306177482E+02 -0.11357149173E+04  0.15949840439E+04  0.99201934229E+03 0.  0.
   -9000010    2    1    2    0  502  0.51843690560E+03  0.35306177482E+02  0.16219099140E+03  0.11321833790E+04  0.99272853024E+03 0.  0.
        -13    1    3    3    0    0 -0.60369463617E+03  0.15487668716E+03 -0.22798553363E+03  0.66363500260E+03  0.10566000000E+00 0.  1.
          4    1    3    3  501    0  0.85257730569E+02 -0.19018286464E+03 -0.90772938372E+03  0.93134904128E+03  0.00000000000E+00 0.  1.
         13    1    4    4    0    0  0.61830020864E+03 -0.74500704973E+02  0.47678896348E+03  0.78432979665E+03  0.10566000000E+00 0. -1.
         -4    1    4    4    0  502 -0.99863303040E+02  0.10980688246E+03 -0.31459797208E+03  0.34785358236E+03  0.00000000000E+00 0. -1.
<mgrwt>
<rscale>  2 0.11203487E+04</rscale>
<asrwt>0</asrwt>
<pdfrwt beam="1">  1       21 0.13489566E+00 0.11205058E+04</pdfrwt>
<pdfrwt beam="2">  1       21 0.28466856E+00 0.11205058E+04</pdfrwt>
<totfact> 0.58024482E+00</totfact>
</mgrwt>
</event>
<event>
 8    1  0.7631533E-006  0.1162934E+04  0.7818608E-02  0.8635490E-01
         21   -1    0    0  501  502  0.00000000000E+00  0.00000000000E+00  0.11082930901E+04  0.11082930901E+04  0.00000000000E+00 0. -1.
         21   -1    0    0  502  503 -0.00000000000E+00 -0.00000000000E+00 -0.14022588711E+04  0.14022588711E+04  0.00000000000E+00 0. -1.
    9000010    2    1    2  501    0 -0.57986156291E+03  0.33048753786E+02  0.30855895756E+03  0.12007994358E+04  0.10046785568E+04 0.  0.
   -9000010    2    1    2    0  503  0.57986156291E+03 -0.33048753786E+02 -0.60252473856E+03  0.13097525253E+04  0.10075137541E+04 0.  0.
        -13    1    3    3    0    0 -0.22611502490E+03 -0.44114797812E+03 -0.66739865338E+02  0.50019372635E+03  0.10566000000E+00 0.  1.
          4    1    3    3  501    0 -0.35374653801E+03  0.47419673191E+03  0.37529882290E+03  0.70060570949E+03  0.00000000000E+00 0.  1.
         13    1    4    4    0    0  0.57186352101E+03  0.38244563989E+03 -0.56909432174E+03  0.89283868214E+03  0.10566000000E+00 0. -1.
         -4    1    4    4    0  503  0.79980419069E+01 -0.41549439368E+03 -0.33430416824E+02  0.41691384316E+03  0.00000000000E+00 0. -1.
<mgrwt>
<rscale>  2 0.11623197E+04</rscale>
<asrwt>0</asrwt>
<pdfrwt beam="1">  1       21 0.17050663E+00 0.11629341E+04</pdfrwt>
<pdfrwt beam="2">  1       21 0.21573213E+00 0.11629341E+04</pdfrwt>
<totfact> 0.88542941E+00</totfact>
</mgrwt>
</event>
<event>
 8    1  0.7631533E-006  0.1063576E+04  0.7818608E-02  0.8722743E-01
         21   -1    0    0  501  502  0.00000000000E+00  0.00000000000E+00  0.10037899182E+04  0.10037899182E+04  0.00000000000E+00 0.  1.
         21   -1    0    0  502  503 -0.00000000000E+00 -0.00000000000E+00 -0.11149668928E+04  0.11149668928E+04  0.00000000000E+00 0.  1.
    9000010    2    1    2  501    0 -0.33671438664E+03 -0.22392377941E+03  0.68796097358E+02  0.10400609210E+04  0.95575905922E+03 0.  0.
   -9000010    2    1    2    0  503  0.33671438664E+03  0.22392377941E+03 -0.17997307186E+03  0.10786958900E+04  0.98370528071E+03 0.  0.
        -13    1    3    3    0    0 -0.11597059396E+03  0.22161155914E+03 -0.32193793501E+03  0.40768236039E+03  0.10566000000E+00 0.  1.
          4    1    3    3  501    0 -0.22074379268E+03 -0.44553533855E+03  0.39073403236E+03  0.63237856064E+03  0.00000000000E+00 0.  1.
         13    1    4    4    0    0 -0.33075526972E+03  0.21544046264E+03 -0.40967427304E+02  0.39685259563E+03  0.10566000000E+00 0. -1.
         -4    1    4    4    0  503  0.66746965636E+03  0.84833167652E+01 -0.13900564456E+03  0.68184329435E+03  0.00000000000E+00 0. -1.
<mgrwt>
<rscale>  2 0.10570685E+04</rscale>
<asrwt>0</asrwt>
<pdfrwt beam="1">  1       21 0.15442922E+00 0.10635763E+04</pdfrwt>
<pdfrwt beam="2">  1       21 0.17153337E+00 0.10635763E+04</pdfrwt>
<totfact> 0.27873670E+01</totfact>
</mgrwt>
</event>
<event>
 8    1  0.7631533E-006  0.1039886E+04  0.7818608E-02  0.8739085E-01
         21   -1    0    0  501  502  0.00000000000E+00  0.00000000000E+00  0.14410212828E+04  0.14410212828E+04  0.00000000000E+00 0. -1.
         21   -1    0    0  502  503 -0.00000000000E+00 -0.00000000000E+00 -0.82275389908E+03  0.82275389908E+03  0.00000000000E+00 0. -1.
    9000010    2    1    2  501    0 -0.26039561118E+03  0.14002832853E+03  0.65346011692E+03  0.12281580078E+04  0.99696948834E+03 0.  0.
   -9000010    2    1    2    0  503  0.26039561118E+03 -0.14002832853E+03 -0.35192733192E+02  0.10356171741E+04  0.99189243148E+03 0.  0.
        -13    1    3    3    0    0 -0.11362772833E+03 -0.15953439481E+03 -0.21917319785E+03  0.29393772401E+03  0.10566000000E+00 0.  1.
          4    1    3    3  501    0 -0.14676788284E+03  0.29956272335E+03  0.87263331477E+03  0.93422028382E+03  0.00000000000E+00 0.  1.
         13    1    4    4    0    0 -0.13488186773E+03 -0.34804508883E+03 -0.33181294857E+03  0.49942801894E+03  0.10566000000E+00 0. -1.
         -4    1    4    4    0  503  0.39527747891E+03  0.20801676029E+03  0.29662021538E+03  0.53618915512E+03  0.00000000000E+00 0. -1.
<mgrwt>
<rscale>  2 0.10386668E+04</rscale>
<asrwt>0</asrwt>
<pdfrwt beam="1">  1       21 0.22169558E+00 0.10398856E+04</pdfrwt>
<pdfrwt beam="2">  1       21 0.12657752E+00 0.10398856E+04</pdfrwt>
<totfact> 0.20407135E+01</totfact>
</mgrwt>
</event>
<event>
 8    1  0.7631533E-006  0.1040961E+04  0.7818608E-02  0.8748769E-01
         21   -1    0    0  501  502  0.00000000000E+00  0.00000000000E+00  0.12430320313E+04  0.12430320313E+04  0.00000000000E+00 0. -1.
         21   -1    0    0  502  503 -0.00000000000E+00 -0.00000000000E+00 -0.85964320335E+03  0.85964320335E+03  0.00000000000E+00 0. -1.
    9000010    2    1    2  501    0  0.19456917634E+03  0.23841413830E+03  0.38392816790E+03  0.10617144498E+04  0.94081787246E+03 0.  0.
   -9000010    2    1    2    0  503 -0.19456917634E+03 -0.23841413830E+03 -0.53933995486E+00  0.10409607848E+04  0.99443481381E+03 0.  0.
        -13    1    3    3    0    0  0.41684427082E+03 -0.10026090640E+03  0.48182229323E+03  0.64495281136E+03  0.10566000000E+00 0.  1.
          4    1    3    3  501    0 -0.22227509448E+03  0.33867504469E+03 -0.97894125331E+02  0.41676163847E+03  0.00000000000E+00 0.  1.
         13    1    4    4    0    0  0.25789214209E+03 -0.17350352081E+03  0.34766247620E+03  0.46634862196E+03  0.10566000000E+00 0. -1.
         -4    1    4    4    0  503 -0.45246131842E+03 -0.64910617484E+02 -0.34820181615E+03  0.57461216286E+03  0.00000000000E+00 0. -1.
<mgrwt>
<rscale>  2 0.10279452E+04</rscale>
<asrwt>0</asrwt>
<pdfrwt beam="1">  1       21 0.19123570E+00 0.10409606E+04</pdfrwt>
<pdfrwt beam="2">  1       21 0.13225280E+00 0.10409606E+04</pdfrwt>
<totfact> 0.30891235E+01</totfact>
</mgrwt>
</event>
<event>
 8    1  0.7631533E-006  0.1026592E+04  0.7818608E-02  0.8764914E-01
         21   -1    0    0  503  502  0.00000000000E+00  0.00000000000E+00  0.80796506721E+03  0.80796506721E+03  0.00000000000E+00 0.  1.
         21   -1    0    0  501  503 -0.00000000000E+00 -0.00000000000E+00 -0.12645321608E+04  0.12645321608E+04  0.00000000000E+00 0.  1.
    9000010    2    1    2  501    0 -0.48464052388E+01  0.18388911244E+03 -0.38294135031E+02  0.96396506134E+03  0.94547528016E+03 0.  0.
   -9000010    2    1    2    0  502  0.48464052388E+01 -0.18388911244E+03 -0.41827295851E+03  0.11085321666E+04  0.10099765360E+04 0.  0.
        -13    1    3    3    0    0 -0.35542710473E+03  0.40921158880E+03 -0.67464570973E+02  0.54619962531E+03  0.10566000000E+00 0.  1.
          4    1    3    3  501    0  0.35058069949E+03 -0.22532247636E+03  0.29170435942E+02  0.41776543603E+03  0.00000000000E+00 0.  1.
         13    1    4    4    0    0  0.25256840803E+03  0.16184742248E+03  0.19822486367E+03  0.35955319028E+03  0.10566000000E+00 0. -1.
         -4    1    4    4    0  502 -0.24772200279E+03 -0.34573653492E+03 -0.61649782219E+03  0.74897897634E+03  0.00000000000E+00 0. -1.
<mgrwt>
<rscale>  2 0.10103644E+04</rscale>
<asrwt>0</asrwt>
<pdfrwt beam="1">  1       21 0.12430232E+00 0.10265921E+04</pdfrwt>
<pdfrwt beam="2">  1       21 0.19454341E+00 0.10265921E+04</pdfrwt>
<totfact> 0.34862117E+01</totfact>
</mgrwt>
</event>
<event>
 8    1  0.7631533E-006  0.1107105E+04  0.7818608E-02  0.8684536E-01
         21   -1    0    0  501  502  0.00000000000E+00  0.00000000000E+00  0.17914178077E+04  0.17914178077E+04  0.00000000000E+00 0. -1.
         21   -1    0    0  502  503 -0.00000000000E+00 -0.00000000000E+00 -0.88390625673E+03  0.88390625673E+03  0.00000000000E+00 0. -1.
    9000010    2    1    2  501    0  0.42874403068E+03 -0.31005206152E+02  0.11069847785E+04  0.15503929043E+04  0.99675477989E+03 0.  0.
   -9000010    2    1    2    0  503 -0.42874403068E+03  0.31005206152E+02 -0.19947322748E+03  0.11249311602E+04  0.10202439806E+04 0.  0.
        -13    1    3    3    0    0 -0.22986048700E+03  0.25107121206E+03  0.20088940158E+03  0.39525834570E+03  0.10566000000E+00 0.  1.
          4    1    3    3  501    0  0.65860451768E+03 -0.28207641821E+03  0.90609537692E+03  0.11551345586E+04  0.00000000000E+00 0.  1.
         13    1    4    4    0    0 -0.62095196052E+03  0.72273232513E+02 -0.47593722709E+03  0.78569778714E+03  0.10566000000E+00 0. -1.
         -4    1    4    4    0  503  0.19220792984E+03 -0.41268026361E+02  0.27646399961E+03  0.33923337303E+03  0.00000000000E+00 0. -1.
<mgrwt>
<rscale>  2 0.11016626E+04</rscale>
<asrwt>0</asrwt>
<pdfrwt beam="1">  1       21 0.27560274E+00 0.11071046E+04</pdfrwt>
<pdfrwt beam="2">  1       21 0.13598558E+00 0.11071046E+04</pdfrwt>
<totfact> 0.65957294E+00</totfact>
</mgrwt>
</event>
<event>
 8    1  0.7631533E-006  0.1198406E+04  0.7818608E-02  0.8608076E-01
         21   -1    0    0  503  502  0.00000000000E+00  0.00000000000E+00  0.15020037174E+04  0.15020037174E+04  0.00000000000E+00 0.  1.
         21   -1    0    0  501  503 -0.00000000000E+00 -0.00000000000E+00 -0.29380777640E+04  0.29380777640E+04  0.00000000000E+00 0. -1.
    9000010    2    1    2  501    0  0.49640007969E+03  0.41116424951E+03 -0.25421578457E+04  0.28104701994E+04  0.10103005246E+04 0.  0.
   -9000010    2    1    2    0  502 -0.49640007969E+03 -0.41116424951E+03  0.11060837991E+04  0.16296112820E+04  0.10083364917E+04 0.  0.
        -13    1    3    3    0    0  0.37100868913E+03  0.59824321040E+03 -0.24783585799E+04  0.25763935352E+04  0.10566000000E+00 0.  1.
          4    1    3    3  501    0  0.12539139056E+03 -0.18707896089E+03 -0.63799265810E+02  0.23407666426E+03  0.00000000000E+00 0.  1.
         13    1    4    4    0    0  0.19414680757E+03  0.64859255742E+02 -0.40847036373E+02  0.20872996308E+03  0.10566000000E+00 0. -1.
         -4    1    4    4    0  502 -0.69054688726E+03 -0.47602350525E+03  0.11469308354E+04  0.14208813189E+04  0.00000000000E+00 0. -1.
<mgrwt>
<rscale>  2 0.11979917E+04</rscale>
<asrwt>0</asrwt>
<pdfrwt beam="1">  1       21 0.23107750E+00 0.11984057E+04</pdfrwt>
<pdfrwt beam="2">  1       21 0.45201196E+00 0.11984057E+04</pdfrwt>
<totfact> 0.62263848E-02</totfact>
</mgrwt>
</event>
<event>
 8    1  0.7631533E-006  0.1008520E+04  0.7818608E-02  0.8768831E-01
         21   -1    0    0  501  502  0.00000000000E+00  0.00000000000E+00  0.24445159235E+04  0.24445159235E+04  0.00000000000E+00 0. -1.
         21   -1    0    0  502  503 -0.00000000000E+00 -0.00000000000E+00 -0.53076594410E+03  0.53076594410E+03  0.00000000000E+00 0. -1.
    9000010    2    1    2  501    0 -0.28746707994E+02  0.57059691280E+02  0.25725001403E+03  0.10408126196E+04  0.10064944897E+04 0.  0.
   -9000010    2    1    2    0  503  0.28746707994E+02 -0.57059691280E+02  0.16564999654E+04  0.19344692480E+04  0.99704410859E+03 0.  0.
        -13    1    3    3    0    0  0.24829406540E+03  0.44393693109E+03  0.24555989304E+03  0.56482706550E+03  0.10566000000E+00 0.  1.
          4    1    3    3  501    0 -0.27704077339E+03 -0.38687723981E+03  0.11690120992E+02  0.47598555412E+03  0.00000000000E+00 0.  1.
         13    1    4    4    0    0 -0.56282042782E+02  0.42863603522E+03  0.11454951667E+04  0.12243593048E+04  0.10566000000E+00 0. -1.
         -4    1    4    4    0  503  0.85028750776E+02 -0.48569572650E+03  0.51100479869E+03  0.71010994324E+03  0.00000000000E+00 0. -1.
<mgrwt>
<rscale>  2 0.10061543E+04</rscale>
<asrwt>0</asrwt>
<pdfrwt beam="1">  1       21 0.37607937E+00 0.10085204E+04</pdfrwt>
<pdfrwt beam="2">  1       21 0.81656300E-01 0.10085204E+04</pdfrwt>
<totfact> 0.51997989E+00</totfact>
</mgrwt>
</event>
<event>
 8    1  0.7631533E-006  0.1079373E+04  0.7818608E-02  0.8717012E-01
         21   -1    0    0  503  502  0.00000000000E+00  0.00000000000E+00  0.83349683314E+03  0.83349683314E+03  0.00000000000E+00 0. -1.
         21   -1    0    0  501  503 -0.00000000000E+00 -0.00000000000E+00 -0.17730011267E+04  0.17730011267E+04  0.00000000000E+00 0.  1.
    9000010    2    1    2  501    0  0.39041037381E+03 -0.88257391149E+02 -0.11392470579E+04  0.15693722709E+04  0.10024150032E+04 0.  0.
   -9000010    2    1    2    0  502 -0.39041037381E+03  0.88257391149E+02  0.19974276441E+03  0.10371256889E+04  0.93569380441E+03 0.  0.
        -13    1    3    3    0    0 -0.24228566667E+03 -0.38341497560E+02 -0.82592454436E+03  0.86158213703E+03  0.10566000000E+00 0.  1.
          4    1    3    3  501    0  0.63269604048E+03 -0.49915893589E+02 -0.31332251357E+03  0.70779013386E+03  0.00000000000E+00 0.  1.
         13    1    4    4    0    0 -0.23708916219E+03 -0.21249152159E+03  0.49506517559E+03  0.58860297044E+03  0.10566000000E+00 0. -1.
         -4    1    4    4    0  502 -0.15332121162E+03  0.30074891273E+03 -0.29532241118E+03  0.44852271848E+03  0.00000000000E+00 0. -1.
<mgrwt>
<rscale>  2 0.10636152E+04</rscale>
<asrwt>0</asrwt>
<pdfrwt beam="1">  1       21 0.12823028E+00 0.10793727E+04</pdfrwt>
<pdfrwt beam="2">  1       21 0.27276940E+00 0.10793727E+04</pdfrwt>
<totfact> 0.82502681E+00</totfact>
</mgrwt>
</event>
<event>
 8    1  0.7631533E-006  0.1053510E+04  0.7818608E-02  0.8729789E-01
         21   -1    0    0  501  502  0.00000000000E+00  0.00000000000E+00  0.14059354378E+04  0.14059354378E+04  0.00000000000E+00 0.  1.
         21   -1    0    0  502  503 -0.00000000000E+00 -0.00000000000E+00 -0.99540100515E+03  0.99540100515E+03  0.00000000000E+00 0.  1.
    9000010    2    1    2  501    0 -0.25073049842E+03  0.16857870270E+03  0.76720611202E+03  0.12890870061E+04  0.99088623416E+03 0.  0.
   -9000010    2    1    2    0  503  0.25073049842E+03 -0.16857870270E+03 -0.35667167935E+03  0.11122494369E+04  0.10092569352E+04 0.  0.
        -13    1    3    3    0    0  0.19442636464E+02  0.28304782038E+03 -0.15362451769E+03  0.32263692959E+03  0.10566000000E+00 0.  1.
          4    1    3    3  501    0 -0.27017313488E+03 -0.11446911768E+03  0.92083062971E+03  0.96645007648E+03  0.00000000000E+00 0.  1.
         13    1    4    4    0    0  0.51149182632E+03  0.85597574416E+02  0.10001037040E+03  0.52815993646E+03  0.10566000000E+00 0. -1.
         -4    1    4    4    0  503 -0.26076132790E+03 -0.25417627711E+03 -0.45668204975E+03  0.58408950045E+03  0.00000000000E+00 0. -1.
<mgrwt>
<rscale>  2 0.10490862E+04</rscale>
<asrwt>0</asrwt>
<pdfrwt beam="1">  1       21 0.21629776E+00 0.10535104E+04</pdfrwt>
<pdfrwt beam="2">  1       21 0.15313862E+00 0.10535104E+04</pdfrwt>
<totfact> 0.12669481E+01</totfact>
</mgrwt>
</event>
<event>
 8    1  0.7631533E-006  0.1140019E+04  0.7818608E-02  0.8676029E-01
         21   -1    0    0  501  502  0.00000000000E+00  0.00000000000E+00  0.19899456438E+04  0.19899456438E+04  0.00000000000E+00 0. -1.
         21   -1    0    0  502  503 -0.00000000000E+00 -0.00000000000E+00 -0.93797998116E+03  0.93797998116E+03  0.00000000000E+00 0. -1.
    9000010    2    1    2  501    0  0.33119875581E+03  0.70846498024E+02 -0.37838124720E+03  0.10988448674E+04  0.97446181671E+03 0.  0.
   -9000010    2    1    2    0  503 -0.33119875581E+03 -0.70846498024E+02  0.14303469098E+04  0.18290807575E+04  0.10885459536E+04 0.  0.
        -13    1    3    3    0    0 -0.32505521067E+03 -0.40616048513E+02 -0.26982044750E+03  0.42439797176E+03  0.10566000000E+00 0.  1.
          4    1    3    3  501    0  0.65625396648E+03  0.11146254654E+03 -0.10856079970E+03  0.67444689563E+03  0.00000000000E+00 0.  1.
         13    1    4    4    0    0 -0.32642274191E+03  0.43125122596E+03  0.11064188154E+04  0.12315405120E+04  0.10566000000E+00 0. -1.
         -4    1    4    4    0  503 -0.47760139003E+01 -0.50209772399E+03  0.32392809438E+03  0.59754024557E+03  0.00000000000E+00 0. -1.
<mgrwt>
<rscale>  2 0.11119021E+04</rscale>
<asrwt>0</asrwt>
<pdfrwt beam="1">  1       21 0.30614548E+00 0.11400194E+04</pdfrwt>
<pdfrwt beam="2">  1       21 0.14430461E+00 0.11400194E+04</pdfrwt>
<totfact> 0.33272754E+00</totfact>
</mgrwt>
</event>
<event>
 8    1  0.7631533E-006  0.1085688E+04  0.7818608E-02  0.8705631E-01
         21   -1    0    0  501  502  0.00000000000E+00  0.00000000000E+00  0.12220415890E+04  0.12220415890E+04  0.00000000000E+00 0. -1.
         21   -1    0    0  502  503 -0.00000000000E+00 -0.00000000000E+00 -0.11844405680E+04  0.11844405680E+04  0.00000000000E+00 0. -1.
    9000010    2    1    2  501    0 -0.30958854003E+03 -0.19118821512E+03  0.57285034014E+03  0.12275490278E+04  0.10228983849E+04 0.  0.
   -9000010    2    1    2    0  503  0.30958854003E+03  0.19118821512E+03 -0.53524931909E+03  0.11789331292E+04  0.98539002013E+03 0.  0.
        -13    1    3    3    0    0 -0.32428106422E+03  0.14128544429E+03  0.76531462488E+03  0.84310513675E+03  0.10566000000E+00 0.  1.
          4    1    3    3  501    0  0.14692524191E+02 -0.33247365941E+03 -0.19246428475E+03  0.38444389106E+03  0.00000000000E+00 0.  1.
         13    1    4    4    0    0 -0.14573080130E+03  0.15693829371E+02  0.22917477646E+03  0.27203832829E+03  0.10566000000E+00 0. -1.
         -4    1    4    4    0  503  0.45531934133E+03  0.17549438575E+03 -0.76442409555E+03  0.90689480089E+03  0.00000000000E+00 0. -1.
<mgrwt>
<rscale>  2 0.10767629E+04</rscale>
<asrwt>0</asrwt>
<pdfrwt beam="1">  1       21 0.18800640E+00 0.10856883E+04</pdfrwt>
<pdfrwt beam="2">  1       21 0.18222162E+00 0.10856883E+04</pdfrwt>
<totfact> 0.11855337E+01</totfact>
</mgrwt>
</event>
<event>
 8    1  0.7631533E-006  0.1016536E+04  0.7818608E-02  0.8762620E-01
         21   -1    0    0  503  502  0.00000000000E+00  0.00000000000E+00  0.10223907798E+04  0.10223907798E+04  0.00000000000E+00 0.  1.
         21   -1    0    0  501  503 -0.00000000000E+00 -0.00000000000E+00 -0.13634741179E+04  0.13634741179E+04  0.00000000000E+00 0.  1.
    9000010    2    1    2  501    0  0.55058350183E+02 -0.16746062463E+03 -0.78880476324E+03  0.12750993269E+04  0.98620021102E+03 0.  0.
   -9000010    2    1    2    0  502 -0.55058350183E+02  0.16746062463E+03  0.44772142514E+03  0.11107655708E+04  0.10011349540E+04 0.  0.
        -13    1    3    3    0    0  0.48397535385E+03  0.22679959212E+01 -0.19167985888E+03  0.52055592054E+03  0.10566000000E+00 0.  1.
          4    1    3    3  501    0 -0.42891700367E+03 -0.16972862055E+03 -0.59712490436E+03  0.75454340636E+03  0.00000000000E+00 0.  1.
         13    1    4    4    0    0 -0.28282818364E+03  0.70310819064E+02  0.69940200260E+03  0.75769292272E+03  0.10566000000E+00 0. -1.
         -4    1    4    4    0  502  0.22776983346E+03  0.97149805567E+02 -0.25168057746E+03  0.35307264809E+03  0.00000000000E+00 0. -1.
<mgrwt>
<rscale>  2 0.10128397E+04</rscale>
<asrwt>0</asrwt>
<pdfrwt beam="1">  1       21 0.15729089E+00 0.10165361E+04</pdfrwt>
<pdfrwt beam="2">  1       21 0.20976525E+00 0.10165361E+04</pdfrwt>
<totfact> 0.13182397E+01</totfact>
</mgrwt>
</event>
<event>
 8    1  0.7631533E-006  0.1096873E+04  0.7818608E-02  0.8698073E-01
         21   -1    0    0  503  502  0.00000000000E+00  0.00000000000E+00  0.13043451108E+04  0.13043451108E+04  0.00000000000E+00 0. -1.
         21   -1    0    0  501  503 -0.00000000000E+00 -0.00000000000E+00 -0.89369165204E+03  0.89369165204E+03  0.00000000000E+00 0. -1.
    9000010    2    1    2  501    0 -0.59064422060E+02  0.28875030421E+03  0.30661923055E+03  0.10962408638E+04  0.10103778178E+04 0.  0.
   -9000010    2    1    2    0  502  0.59064422060E+02 -0.28875030421E+03  0.10403422820E+03  0.11017958991E+04  0.10565347786E+04 0.  0.
        -13    1    3    3    0    0  0.25201002441E+03  0.26122911714E+03  0.57799405237E+03  0.68251508392E+03  0.10566000000E+00 0.  1.
          4    1    3    3  501    0 -0.31107444647E+03  0.27521187072E+02 -0.27137482183E+03  0.41372577984E+03  0.00000000000E+00 0.  1.
         13    1    4    4    0    0 -0.92994577966E+02 -0.32460656617E+03  0.54100679130E+03  0.63773487731E+03  0.10566000000E+00 0. -1.
         -4    1    4    4    0  502  0.15205900003E+03  0.35856261957E+02 -0.43697256310E+03  0.46406102176E+03  0.00000000000E+00 0. -1.
<mgrwt>
<rscale>  2 0.10856042E+04</rscale>
<asrwt>0</asrwt>
<pdfrwt beam="1">  1       21 0.20066848E+00 0.10968733E+04</pdfrwt>
<pdfrwt beam="2">  1       21 0.13749102E+00 0.10968733E+04</pdfrwt>
<totfact> 0.22946810E+01</totfact>
</mgrwt>
</event>
<event>
 8    1  0.7631533E-006  0.1193451E+04  0.7818608E-02  0.8647761E-01
         21   -1    0    0  501  502  0.00000000000E+00  0.00000000000E+00  0.11399502205E+04  0.11399502205E+04  0.00000000000E+00 0. -1.
         21   -1    0    0  502  503 -0.00000000000E+00 -0.00000000000E+00 -0.20551967038E+04  0.20551967038E+04  0.00000000000E+00 0. -1.
    9000010    2    1    2  501    0 -0.87149234742E+02  0.23982432883E+03  0.66456421218E+03  0.12152159970E+04  0.98488254604E+03 0.  0.
   -9000010    2    1    2    0  503  0.87149234742E+02 -0.23982432883E+03 -0.15798106954E+04  0.19799309273E+04  0.11658533122E+04 0.  0.
        -13    1    3    3    0    0 -0.19948041918E+03 -0.34643754541E+03  0.38885998583E+03  0.55769481820E+03  0.10566000000E+00 0.  1.
          4    1    3    3  501    0  0.11233118443E+03  0.58626187423E+03  0.27570422635E+03  0.65752117882E+03  0.00000000000E+00 0.  1.
         13    1    4    4    0    0  0.49498840975E+03 -0.25613585309E+03 -0.14471283458E+04  0.15507416166E+04  0.10566000000E+00 0. -1.
         -4    1    4    4    0  503 -0.40783917501E+03  0.16311524258E+02 -0.13268234957E+03  0.42918931066E+03  0.00000000000E+00 0. -1.
<mgrwt>
<rscale>  2 0.11467702E+04</rscale>
<asrwt>0</asrwt>
<pdfrwt beam="1">  1       21 0.17537696E+00 0.11934507E+04</pdfrwt>
<pdfrwt beam="2">  1       21 0.31618411E+00 0.11934507E+04</pdfrwt>
<totfact> 0.15024858E+00</totfact>
</mgrwt>
</event>
<event>
 8    1  0.7631533E-006  0.1040153E+04  0.7818608E-02  0.8741399E-01
         21   -1    0    0  501  502  0.00000000000E+00  0.00000000000E+00  0.13603616541E+04  0.13603616541E+04  0.00000000000E+00 0.  1.
         21   -1    0    0  502  503 -0.00000000000E+00 -0.00000000000E+00 -0.10058673785E+04  0.10058673785E+04  0.00000000000E+00 0.  1.
    9000010    2    1    2  501    0  0.49225516757E+02 -0.20483231257E+03  0.73303311193E+03  0.12593370186E+04  0.10021041640E+04 0.  0.
   -9000010    2    1    2    0  503 -0.49225516757E+02  0.20483231257E+03 -0.37853883632E+03  0.11068920140E+04  0.10185965111E+04 0.  0.
        -13    1    3    3    0    0 -0.24713873216E+03  0.30726300318E+03  0.13170790947E+03  0.41573439915E+03  0.10566000000E+00 0.  1.
          4    1    3    3  501    0  0.29636424892E+03 -0.51209531575E+03  0.60132520246E+03  0.84360261946E+03  0.00000000000E+00 0.  1.
         13    1    4    4    0    0 -0.52781617394E+03  0.17542689626E+03 -0.15214317486E+03  0.57663859238E+03  0.10566000000E+00 0. -1.
         -4    1    4    4    0  503  0.47859065719E+03  0.29405416310E+02 -0.22639566147E+03  0.53025342166E+03  0.00000000000E+00 0. -1.
<mgrwt>
<rscale>  2 0.10360930E+04</rscale>
<asrwt>0</asrwt>
<pdfrwt beam="1">  1       21 0.20928641E+00 0.10401530E+04</pdfrwt>
<pdfrwt beam="2">  1       21 0.15474883E+00 0.10401530E+04</pdfrwt>
<totfact> 0.13912666E+01</totfact>
</mgrwt>
</event>
<event>
 8    1  0.7631533E-006  0.1004584E+04  0.7818608E-02  0.8785651E-01
         21   -1    0    0  501  502  0.00000000000E+00  0.00000000000E+00  0.15392361381E+04  0.15392361381E+04  0.00000000000E+00 0. -1.
         21   -1    0    0  502  503 -0.00000000000E+00 -0.00000000000E+00 -0.62693226899E+03  0.62693226899E+03  0.00000000000E+00 0. -1.
    9000010    2    1    2  501    0 -0.56962757861E+02 -0.10330409003E+03  0.62109987781E+03  0.11810813608E+04  0.99763301459E+03 0.  0.
   -9000010    2    1    2    0  503  0.56962757861E+02  0.10330409003E+03  0.29120399128E+03  0.98508704628E+03  0.93363817050E+03 0.  0.
        -13    1    3    3    0    0  0.44227775730E+03 -0.14737742428E+03  0.14098205429E+03  0.48703764802E+03  0.10566000000E+00 0.  1.
          4    1    3    3  501    0 -0.49924051516E+03  0.44073334253E+02  0.48011782353E+03  0.69404371277E+03  0.00000000000E+00 0.  1.
         13    1    4    4    0    0  0.45083642982E+03 -0.12773942762E+03  0.23740275079E+03  0.52529127641E+03  0.10566000000E+00 0. -1.
         -4    1    4    4    0  503 -0.39387367196E+03  0.23104351765E+03  0.53801240496E+02  0.45979576987E+03  0.00000000000E+00 0. -1.
<mgrwt>
<rscale>  2 0.98831196E+03</rscale>
<asrwt>0</asrwt>
<pdfrwt beam="1">  1       21 0.23680556E+00 0.10045836E+04</pdfrwt>
<pdfrwt beam="2">  1       21 0.96451119E-01 0.10045836E+04</pdfrwt>
<totfact> 0.33205808E+01</totfact>
</mgrwt>
</event>
<event>
 8    1  0.7631533E-006  0.1013086E+04  0.7818608E-02  0.8768142E-01
         21   -1    0    0  503  502  0.00000000000E+00  0.00000000000E+00  0.65822267436E+03  0.65822267436E+03  0.00000000000E+00 0. -1.
         21   -1    0    0  501  503 -0.00000000000E+00 -0.00000000000E+00 -0.15954233884E+04  0.15954233884E+04  0.00000000000E+00 0. -1.
    9000010    2    1    2  501    0 -0.26445321704E+02  0.22373062046E+02 -0.71626762382E+03  0.12407187059E+04  0.10124937972E+04 0.  0.
   -9000010    2    1    2    0  502  0.26445321704E+02 -0.22373062046E+02 -0.22093309019E+03  0.10129273568E+04  0.98793243236E+03 0.  0.
        -13    1    3    3    0    0  0.22539620549E+02 -0.67363443619E+02 -0.96717603124E+03  0.96978108592E+03  0.10566000000E+00 0.  1.
          4    1    3    3  501    0 -0.48984942253E+02  0.89736505665E+02  0.25090840742E+03  0.27093762000E+03  0.00000000000E+00 0.  1.
         13    1    4    4    0    0  0.91856551783E+02  0.19415713168E+03  0.34334909017E+03  0.40499781083E+03  0.10566000000E+00 0. -1.
         -4    1    4    4    0  502 -0.65411230079E+02 -0.21653019372E+03 -0.56428218037E+03  0.60792954600E+03  0.00000000000E+00 0. -1.
<mgrwt>
<rscale>  2 0.10068930E+04</rscale>
<asrwt>0</asrwt>
<pdfrwt beam="1">  1       21 0.10126503E+00 0.10130862E+04</pdfrwt>
<pdfrwt beam="2">  1       21 0.24544975E+00 0.10130862E+04</pdfrwt>
<totfact> 0.25232341E+01</totfact>
</mgrwt>
</event>
<event>
 8    1  0.7631533E-006  0.1024631E+04  0.7818608E-02  0.8752237E-01
         21   -1    0    0  501  502  0.00000000000E+00  0.00000000000E+00  0.71263543128E+03  0.71263543128E+03  0.00000000000E+00 0.  1.
         21   -1    0    0  502  503 -0.00000000000E+00 -0.00000000000E+00 -0.15935219491E+04  0.15935219491E+04  0.00000000000E+00 0.  1.
    9000010    2    1    2  501    0 -0.18558927186E+03  0.14804589383E+03 -0.11952607386E+03  0.10296239629E+04  0.99472511690E+03 0.  0.
   -9000010    2    1    2    0  503  0.18558927186E+03 -0.14804589383E+03 -0.76136044396E+03  0.12765334175E+04  0.99674815061E+03 0.  0.
        -13    1    3    3    0    0  0.10656339988E+03  0.49163979366E+03 -0.24773109853E+03  0.56074606842E+03  0.10566000000E+00 0.  1.
          4    1    3    3  501    0 -0.29215267174E+03 -0.34359389983E+03  0.12820502467E+03  0.46887789451E+03  0.00000000000E+00 0.  1.
         13    1    4    4    0    0 -0.35865897495E+03 -0.15674801998E+03 -0.71668794576E+02  0.39792289374E+03  0.10566000000E+00 0. -1.
         -4    1    4    4    0  503  0.54424824681E+03  0.87021261467E+01 -0.68969164939E+03  0.87861052372E+03  0.00000000000E+00 0. -1.
<mgrwt>
<rscale>  2 0.10241383E+04</rscale>
<asrwt>0</asrwt>
<pdfrwt beam="1">  1       21 0.10963622E+00 0.10246306E+04</pdfrwt>
<pdfrwt beam="2">  1       21 0.24515722E+00 0.10246306E+04</pdfrwt>
<totfact> 0.20466049E+01</totfact>
</mgrwt>
</event>
<event>
 8    1  0.7631533E-006  0.1037661E+04  0.7818608E-02  0.8746466E-01
         21   -1    0    0  501  502  0.00000000000E+00  0.00000000000E+00  0.14213724939E+04  0.14213724939E+04  0.00000000000E+00 0. -1.
         21   -1    0    0  502  503 -0.00000000000E+00 -0.00000000000E+00 -0.75362430813E+03  0.75362430813E+03  0.00000000000E+00 0. -1.
    9000010    2    1    2  501    0  0.45524356257E+02  0.12242347837E+03  0.17658131900E+03  0.10525779608E+04  0.10294073180E+04 0.  0.
   -9000010    2    1    2    0  503 -0.45524356257E+02 -0.12242347837E+03  0.49116686673E+03  0.11224188412E+04  0.10007593062E+04 0.  0.
        -13    1    3    3    0    0  0.48204130567E+03  0.91117804033E+02 -0.14263193103E+03  0.51089152811E+03  0.10566000000E+00 0.  1.
          4    1    3    3  501    0 -0.43651694941E+03  0.31305674333E+02  0.31921325004E+03  0.54168643270E+03  0.00000000000E+00 0.  1.
         13    1    4    4    0    0 -0.29388088469E+03 -0.28902952481E+03  0.66063321416E+03  0.77867855718E+03  0.10566000000E+00 0. -1.
         -4    1    4    4    0  503  0.24835652843E+03  0.16660604645E+03 -0.16946634743E+03  0.34374028399E+03  0.00000000000E+00 0. -1.
<mgrwt>
<rscale>  2 0.10304830E+04</rscale>
<asrwt>0</asrwt>
<pdfrwt beam="1">  1       21 0.21867269E+00 0.10376605E+04</pdfrwt>
<pdfrwt beam="2">  1       21 0.11594220E+00 0.10376605E+04</pdfrwt>
<totfact> 0.27529780E+01</totfact>
</mgrwt>
</event>
<event>
 8    1  0.7631533E-006  0.1086049E+04  0.7818608E-02  0.8701127E-01
         21   -1    0    0  503  502  0.00000000000E+00  0.00000000000E+00  0.93342027618E+03  0.93342027618E+03  0.00000000000E+00 0.  1.
         21   -1    0    0  501  503 -0.00000000000E+00 -0.00000000000E+00 -0.14737764040E+04  0.14737764040E+04  0.00000000000E+00 0.  1.
    9000010    2    1    2  501    0 -0.32347455980E+03 -0.17790281997E+03 -0.74261543828E+03  0.13024745137E+04  0.10043291122E+04 0.  0.
   -9000010    2    1    2    0  502  0.32347455980E+03  0.17790281997E+03  0.20225931046E+03  0.11047221665E+04  0.10213799647E+04 0.  0.
        -13    1    3    3    0    0 -0.38688768297E+03 -0.68402902124E+02 -0.96761360041E+03  0.10443357349E+04  0.10566000000E+00 0.  1.
          4    1    3    3  501    0  0.63413123171E+02 -0.10949991785E+03  0.22499816212E+03  0.25813877887E+03  0.00000000000E+00 0.  1.
         13    1    4    4    0    0  0.49299559534E+03  0.60472322208E+02  0.52436295867E+03  0.72225901335E+03  0.10566000000E+00 0. -1.
         -4    1    4    4    0  502 -0.16952103554E+03  0.11743049776E+03 -0.32210364820E+03  0.38246315310E+03  0.00000000000E+00 0. -1.
<mgrwt>
<rscale>  2 0.10820216E+04</rscale>
<asrwt>0</asrwt>
<pdfrwt beam="1">  1       21 0.14360312E+00 0.10860489E+04</pdfrwt>
<pdfrwt beam="2">  1       21 0.22673483E+00 0.10860489E+04</pdfrwt>
<totfact> 0.12781783E+01</totfact>
</mgrwt>
</event>
<event>
 8    1  0.7631533E-006  0.1042785E+04  0.7818608E-02  0.8736330E-01
         21   -1    0    0  503  502  0.00000000000E+00  0.00000000000E+00  0.72668811436E+03  0.72668811436E+03  0.00000000000E+00 0. -1.
         21   -1    0    0  501  503 -0.00000000000E+00 -0.00000000000E+00 -0.25148978315E+04  0.25148978315E+04  0.00000000000E+00 0. -1.
    9000010    2    1    2  501    0  0.26760176476E+03  0.46779257841E+02 -0.19296392740E+04  0.21933781511E+04  0.10067775237E+04 0.  0.
   -9000010    2    1    2    0  502 -0.26760176476E+03 -0.46779257841E+02  0.14142955686E+03  0.10482077948E+04  0.10024660882E+04 0.  0.
        -13    1    3    3    0    0  0.57031774504E+03 -0.12780662190E+03 -0.16348849951E+04  0.17362159490E+04  0.10566000000E+00 0.  1.
          4    1    3    3  501    0 -0.30271598028E+03  0.17458587974E+03 -0.29475427889E+03  0.45716220212E+03  0.00000000000E+00 0.  1.
         13    1    4    4    0    0 -0.14457921141E+03  0.32778357900E+03  0.42996351444E+03  0.55965512411E+03  0.10566000000E+00 0. -1.
         -4    1    4    4    0  502 -0.12302255335E+03 -0.37456283684E+03 -0.28853395758E+03  0.48855267070E+03  0.00000000000E+00 0. -1.
<mgrwt>
<rscale>  2 0.10417427E+04</rscale>
<asrwt>0</asrwt>
<pdfrwt beam="1">  1       21 0.11179817E+00 0.10427847E+04</pdfrwt>
<pdfrwt beam="2">  1       21 0.38690736E+00 0.10427847E+04</pdfrwt>
<totfact> 0.19183133E+00</totfact>
</mgrwt>
</event>
<event>
 8    1  0.7631533E-006  0.1043885E+04  0.7818608E-02  0.8739564E-01
         21   -1    0    0  501  502  0.00000000000E+00  0.00000000000E+00  0.16859203440E+04  0.16859203440E+04  0.00000000000E+00 0.  1.
         21   -1    0    0  502  503 -0.00000000000E+00 -0.00000000000E+00 -0.70018165827E+03  0.70018165827E+03  0.00000000000E+00 0.  1.
    9000010    2    1    2  501    0 -0.42647943718E+02  0.23142777948E+03  0.86923572671E+03  0.13584057675E+04  0.10170141672E+04 0.  0.
   -9000010    2    1    2    0  503  0.42647943718E+02 -0.23142777948E+03  0.11650295907E+03  0.10276962349E+04  0.99358389049E+03 0.  0.
        -13    1    3    3    0    0 -0.29557381202E+03  0.55652672324E+03  0.56472466923E+03  0.84616773470E+03  0.10566000000E+00 0.  1.
          4    1    3    3  501    0  0.25292586831E+03 -0.32509894376E+03  0.30451105747E+03  0.51223803277E+03  0.00000000000E+00 0.  1.
         13    1    4    4    0    0 -0.17320848724E+02 -0.70934419441E+02 -0.43969039681E+03  0.44571219400E+03  0.10566000000E+00 0. -1.
         -4    1    4    4    0  503  0.59968792442E+02 -0.16049336004E+03  0.55619335588E+03  0.58198404086E+03  0.00000000000E+00 0. -1.
<mgrwt>
<rscale>  2 0.10381341E+04</rscale>
<asrwt>0</asrwt>
<pdfrwt beam="1">  1       21 0.25937236E+00 0.10438848E+04</pdfrwt>
<pdfrwt beam="2">  1       21 0.10772026E+00 0.10438848E+04</pdfrwt>
<totfact> 0.16847614E+01</totfact>
</mgrwt>
</event>
<event>
 8    1  0.7631533E-006  0.1010072E+04  0.7818608E-02  0.8768421E-01
         21   -1    0    0  501  502  0.00000000000E+00  0.00000000000E+00  0.23345215769E+04  0.23345215769E+04  0.00000000000E+00 0. -1.
         21   -1    0    0  502  503 -0.00000000000E+00 -0.00000000000E+00 -0.76422331899E+03  0.76422331899E+03  0.00000000000E+00 0. -1.
    9000010    2    1    2  501    0 -0.67863437540E+01  0.51656778308E+02  0.18050818076E+04  0.20617448945E+04  0.99486541825E+03 0.  0.
   -9000010    2    1    2    0  503  0.67863437540E+01 -0.51656778308E+02 -0.23478354972E+03  0.10370000014E+04  0.10087275205E+04 0.  0.
        -13    1    3    3    0    0  0.99317288824E+01 -0.18780375600E+03 -0.47260749290E+02  0.19391358795E+03  0.10566000000E+00 0.  1.
          4    1    3    3  501    0 -0.16718072636E+02  0.23946053430E+03  0.18523425569E+04  0.18678313065E+04  0.00000000000E+00 0.  1.
         13    1    4    4    0    0 -0.15584654128E+03  0.42363060815E+03 -0.28233321527E+03  0.53241252070E+03  0.10566000000E+00 0. -1.
         -4    1    4    4    0  503  0.16263288503E+03 -0.47528738645E+03  0.47549665556E+02  0.50458748073E+03  0.00000000000E+00 0. -1.
<mgrwt>
<rscale>  2 0.10065933E+04</rscale>
<asrwt>0</asrwt>
<pdfrwt beam="1">  1       21 0.35915716E+00 0.10100721E+04</pdfrwt>
<pdfrwt beam="2">  1       21 0.11757282E+00 0.10100721E+04</pdfrwt>
<totfact> 0.26359260E+00</totfact>
</mgrwt>
</event>
<event>
 8    1  0.7631533E-006  0.1013353E+04  0.7818608E-02  0.8803925E-01
         21   -1    0    0  503  502  0.00000000000E+00  0.00000000000E+00  0.28575506492E+04  0.28575506492E+04  0.00000000000E+00 0.  1.
         21   -1    0    0  501  503 -0.00000000000E+00 -0.00000000000E+00 -0.32218377501E+03  0.32218377501E+03  0.00000000000E+00 0.  1.
    9000010    2    1    2  501    0  0.16713930494E+02 -0.13626372952E+03  0.77833446204E+03  0.11514231908E+04  0.83733127855E+03 0.  0.
   -9000010    2    1    2    0  502 -0.16713930494E+02  0.13626372952E+03  0.17570324121E+04  0.20283112334E+04  0.10040101607E+04 0.  0.
        -13    1    3    3    0    0  0.10573623181E+02 -0.26653425861E+03 -0.83709231174E+02  0.27957031149E+03  0.10566000000E+00 0.  1.
          4    1    3    3  501    0  0.61403073132E+01  0.13027052910E+03  0.86204369321E+03  0.87185287929E+03  0.00000000000E+00 0.  1.
         13    1    4    4    0    0 -0.49765057310E+03 -0.37572932028E+02  0.94447775311E+03  0.10682256575E+04  0.10566000000E+00 0. -1.
         -4    1    4    4    0  502  0.48093664260E+03  0.17383666155E+03  0.81255465902E+03  0.96008557587E+03  0.00000000000E+00 0. -1.
<mgrwt>
<rscale>  2 0.96935937E+03</rscale>
<asrwt>0</asrwt>
<pdfrwt beam="1">  1       21 0.43962316E+00 0.10133526E+04</pdfrwt>
<pdfrwt beam="2">  1       21 0.49566737E-01 0.10133526E+04</pdfrwt>
<totfact> 0.60063894E+00</totfact>
</mgrwt>
</event>
<event>
 8    1  0.7631533E-006  0.1069487E+04  0.7818608E-02  0.8716021E-01
         21   -1    0    0  501  502  0.00000000000E+00  0.00000000000E+00  0.10860580163E+04  0.10860580163E+04  0.00000000000E+00 0. -1.
         21   -1    0    0  502  503 -0.00000000000E+00 -0.00000000000E+00 -0.16160106973E+04  0.16160106973E+04  0.00000000000E+00 0. -1.
    9000010    2    1    2  501    0 -0.27111208447E+03 -0.21918784613E+03  0.54378651053E+03  0.11997946309E+04  0.10110679072E+04 0.  0.
   -9000010    2    1    2    0  503  0.27111208447E+03  0.21918784613E+03 -0.10737391916E+04  0.15022740827E+04  0.99114403281E+03 0.  0.
        -13    1    3    3    0    0  0.14356998172E+02 -0.17469107166E+03  0.79673956483E+03  0.81579227702E+03  0.10566000000E+00 0.  1.
          4    1    3    3  501    0 -0.28546908265E+03 -0.44496774466E+02 -0.25295305430E+03  0.38400235385E+03  0.00000000000E+00 0.  1.
         13    1    4    4    0    0  0.26655483597E+03 -0.72759894703E+02 -0.11642465719E+04  0.11965849632E+04  0.10566000000E+00 0. -1.
         -4    1    4    4    0  503  0.45572485042E+01  0.29194774083E+03  0.90507380306E+02  0.30568911950E+03  0.00000000000E+00 0. -1.
<mgrwt>
<rscale>  2 0.10647522E+04</rscale>
<asrwt>0</asrwt>
<pdfrwt beam="1">  1       21 0.16708585E+00 0.10694874E+04</pdfrwt>
<pdfrwt beam="2">  1       21 0.24861703E+00 0.10694874E+04</pdfrwt>
<totfact> 0.55070692E+00</totfact>
</mgrwt>
</event>
<event>
 8    1  0.7631533E-006  0.1086591E+04  0.7818608E-02  0.8700330E-01
         21   -1    0    0  503  502  0.00000000000E+00  0.00000000000E+00  0.11659129222E+04  0.11659129222E+04  0.00000000000E+00 0. -1.
         21   -1    0    0  501  503 -0.00000000000E+00 -0.00000000000E+00 -0.15884386222E+04  0.15884386222E+04  0.00000000000E+00 0. -1.
    9000010    2    1    2  501    0  0.92584197500E+02  0.38360808022E+03  0.62838054566E+03  0.12427020194E+04  0.99685465636E+03 0.  0.
   -9000010    2    1    2    0  502 -0.92584197500E+02 -0.38360808022E+03 -0.10509062456E+04  0.15116495250E+04  0.10123998008E+04 0.  0.
        -13    1    3    3    0    0  0.18536510040E+03  0.57551371670E+03  0.27634355275E+02  0.60526021454E+03  0.10566000000E+00 0.  1.
          4    1    3    3  501    0 -0.92780902895E+02 -0.19190563648E+03  0.60074619039E+03  0.63744180481E+03  0.00000000000E+00 0.  1.
         13    1    4    4    0    0 -0.36965339568E+03 -0.57311312411E+03 -0.43119615769E+03  0.80686580268E+03  0.10566000000E+00 0. -1.
         -4    1    4    4    0  502  0.27706919818E+03  0.18950504390E+03 -0.61971008791E+03  0.70478372236E+03  0.00000000000E+00 0. -1.
<mgrwt>
<rscale>  2 0.10829557E+04</rscale>
<asrwt>0</asrwt>
<pdfrwt beam="1">  1       21 0.17937122E+00 0.10865912E+04</pdfrwt>
<pdfrwt beam="2">  1       21 0.24437517E+00 0.10865912E+04</pdfrwt>
<totfact> 0.46555698E+00</totfact>
</mgrwt>
</event>
<event>
 8    1  0.7631533E-006  0.1015647E+04  0.7818608E-02  0.8760144E-01
         21   -1    0    0  503  502  0.00000000000E+00  0.00000000000E+00  0.57902606057E+03  0.57902606057E+03  0.00000000000E+00 0.  1.
         21   -1    0    0  501  503 -0.00000000000E+00 -0.00000000000E+00 -0.18514226158E+04  0.18514226158E+04  0.00000000000E+00 0.  1.
    9000010    2    1    2  501    0 -0.11684341858E+03  0.11678625784E+03 -0.87369103806E+03  0.13393457602E+04  0.10016085168E+04 0.  0.
   -9000010    2    1    2    0  502  0.11684341858E+03 -0.11678625784E+03 -0.39870551718E+03  0.10911029161E+04  0.10021217839E+04 0.  0.
        -13    1    3    3    0    0  0.17105961276E+03  0.32501654210E+03  0.29808154179E+02  0.36849108670E+03  0.10566000000E+00 0.  1.
          4    1    3    3  501    0 -0.28790303133E+03 -0.20823028427E+03 -0.90349919224E+03  0.97085467353E+03  0.00000000000E+00 0.  1.
         13    1    4    4    0    0 -0.35639526104E+03 -0.48122394798E+02 -0.48642285550E+03  0.60493020464E+03  0.10566000000E+00 0. -1.
         -4    1    4    4    0  502  0.47323867962E+03 -0.68663863037E+02  0.87717338320E+02  0.48617271151E+03  0.00000000000E+00 0. -1.
<mgrwt>
<rscale>  2 0.10155207E+04</rscale>
<asrwt>0</asrwt>
<pdfrwt beam="1">  1       21 0.89080934E-01 0.10156473E+04</pdfrwt>
<pdfrwt beam="2">  1       21 0.28483424E+00 0.10156473E+04</pdfrwt>
<totfact> 0.18274299E+01</totfact>
</mgrwt>
</event>
<event>
 8    1  0.7631533E-006  0.1070291E+04  0.7818608E-02  0.8719767E-01
         21   -1    0    0  503  502  0.00000000000E+00  0.00000000000E+00  0.15045716802E+04  0.15045716802E+04  0.00000000000E+00 0.  1.
         21   -1    0    0  501  503 -0.00000000000E+00 -0.00000000000E+00 -0.83312393622E+03  0.83312393622E+03  0.00000000000E+00 0.  1.
    9000010    2    1    2  501    0 -0.33093701988E+03 -0.69974136742E+02  0.74424213819E+03  0.13036175730E+04  0.10154342546E+04 0.  0.
   -9000010    2    1    2    0  502  0.33093701988E+03  0.69974136742E+02 -0.72794394214E+02  0.10340780435E+04  0.97447559496E+03 0.  0.
        -13    1    3    3    0    0 -0.61556537555E+03  0.22543204779E+03  0.39875926453E+03  0.76730000780E+03  0.10566000000E+00 0.  1.
          4    1    3    3  501    0  0.28462835568E+03 -0.29540618453E+03  0.34548287366E+03  0.53631756517E+03  0.00000000000E+00 0.  1.
         13    1    4    4    0    0 -0.34724755378E+03  0.32539731302E+01 -0.60597080986E+02  0.35251024005E+03  0.10566000000E+00 0. -1.
         -4    1    4    4    0  502  0.67818457366E+03  0.66720163612E+02 -0.12197313228E+02  0.68156780340E+03  0.00000000000E+00 0. -1.
<mgrwt>
<rscale>  2 0.10604617E+04</rscale>
<asrwt>0</asrwt>
<pdfrwt beam="1">  1       21 0.23147257E+00 0.10702908E+04</pdfrwt>
<pdfrwt beam="2">  1       21 0.12817291E+00 0.10702908E+04</pdfrwt>
<totfact> 0.16527596E+01</totfact>
</mgrwt>
</event>
<event>
 8    1  0.7631533E-006  0.9893869E+03  0.7818608E-02  0.8797867E-01
         21   -1    0    0  501  502  0.00000000000E+00  0.00000000000E+00  0.80200618135E+03  0.80200618135E+03  0.00000000000E+00 0. -1.
         21   -1    0    0  502  503 -0.00000000000E+00 -0.00000000000E+00 -0.11613902567E+04  0.11613902567E+04  0.00000000000E+00 0. -1.
    9000010    2    1    2  501    0  0.63759721129E+02 -0.12556135548E+02 -0.10076137839E+03  0.94076643544E+03  0.93309467478E+03 0.  0.
   -9000010    2    1    2    0  503 -0.63759721129E+02  0.12556135548E+02 -0.25862269701E+03  0.10226300027E+04  0.98725045675E+03 0.  0.
        -13    1    3    3    0    0 -0.36382484369E+03  0.69878654806E+02 -0.28552187226E+03  0.46773314399E+03  0.10566000000E+00 0.  1.
          4    1    3    3  501    0  0.42758456481E+03 -0.82434790353E+02  0.18476049388E+03  0.47303329146E+03  0.00000000000E+00 0.  1.
         13    1    4    4    0    0 -0.48752122668E+02  0.29470848287E+02 -0.63902347119E+03  0.64155772013E+03  0.10566000000E+00 0. -1.
         -4    1    4    4    0  503 -0.15007598461E+02 -0.16914712739E+02  0.38040077418E+03  0.38107228253E+03  0.00000000000E+00 0. -1.
<mgrwt>
<rscale>  2 0.97559308E+03</rscale>
<asrwt>0</asrwt>
<pdfrwt beam="1">  1       21 0.12338557E+00 0.98938689E+03</pdfrwt>
<pdfrwt beam="2">  1       21 0.17867542E+00 0.98938689E+03</pdfrwt>
<totfact> 0.48141533E+01</totfact>
</mgrwt>
</event>
<event>
 8    1  0.7631533E-006  0.1084647E+04  0.7818608E-02  0.8712065E-01
         21   -1    0    0  503  502  0.00000000000E+00  0.00000000000E+00  0.16028866602E+04  0.16028866602E+04  0.00000000000E+00 0.  1.
         21   -1    0    0  501  503 -0.00000000000E+00 -0.00000000000E+00 -0.76775318350E+03  0.76775318350E+03  0.00000000000E+00 0.  1.
    9000010    2    1    2  501    0  0.15639438540E+03 -0.14420713063E+03  0.39260473281E+02  0.10253242951E+04  0.10022442941E+04 0.  0.
   -9000010    2    1    2    0  502 -0.15639438540E+03  0.14420713063E+03  0.79587300346E+03  0.13453155486E+04  0.10635813027E+04 0.  0.
        -13    1    3    3    0    0  0.58179706116E+03 -0.13700443097E+03  0.49317236400E+02  0.59974180732E+03  0.10566000000E+00 0.  1.
          4    1    3    3  501    0 -0.42540267576E+03 -0.72026996602E+01 -0.10056763119E+02  0.42558248779E+03  0.00000000000E+00 0.  1.
         13    1    4    4    0    0 -0.35209164787E+03 -0.20769807971E+02  0.97239829819E+03  0.10343879228E+04  0.10566000000E+00 0. -1.
         -4    1    4    4    0  502  0.19569726247E+03  0.16497693860E+03 -0.17652529472E+03  0.31092762580E+03  0.00000000000E+00 0. -1.
<mgrwt>
<rscale>  2 0.10693063E+04</rscale>
<asrwt>0</asrwt>
<pdfrwt beam="1">  1       21 0.24659795E+00 0.10846474E+04</pdfrwt>
<pdfrwt beam="2">  1       21 0.11811587E+00 0.10846474E+04</pdfrwt>
<totfact> 0.16064432E+01</totfact>
</mgrwt>
</event>
<event>
 8    1  0.7631533E-006  0.1043466E+04  0.7818608E-02  0.8740340E-01
         21   -1    0    0  503  502  0.00000000000E+00  0.00000000000E+00  0.20067848685E+04  0.20067848685E+04  0.00000000000E+00 0.  1.
         21   -1    0    0  501  503 -0.00000000000E+00 -0.00000000000E+00 -0.53376121773E+03  0.53376121773E+03  0.00000000000E+00 0.  1.
    9000010    2    1    2  501    0  0.87056266351E+02  0.15127893105E+03  0.85364585025E+03  0.13481592632E+04  0.10287653051E+04 0.  0.
   -9000010    2    1    2    0  502 -0.87056266351E+02 -0.15127893105E+03  0.61937780050E+03  0.11923868230E+04  0.10038393135E+04 0.  0.
        -13    1    3    3    0    0  0.46829322690E+03  0.37531180452E+03  0.46015377766E+03  0.75624004604E+03  0.10566000000E+00 0.  1.
          4    1    3    3  501    0 -0.38123696055E+03 -0.22403287346E+03  0.39349207259E+03  0.59191921719E+03  0.00000000000E+00 0.  1.
         13    1    4    4    0    0  0.18726292158E+03  0.77143588217E+02  0.77641926594E+03  0.80239978981E+03  0.10566000000E+00 0. -1.
         -4    1    4    4    0  502 -0.27431918793E+03 -0.22842251927E+03 -0.15704146544E+03  0.38998703317E+03  0.00000000000E+00 0. -1.
<mgrwt>
<rscale>  2 0.10372699E+04</rscale>
<asrwt>0</asrwt>
<pdfrwt beam="1">  1       21 0.30873613E+00 0.10434664E+04</pdfrwt>
<pdfrwt beam="2">  1       21 0.82117111E-01 0.10434664E+04</pdfrwt>
<totfact> 0.15105994E+01</totfact>
</mgrwt>
</event>
<event>
 8    1  0.7631533E-006  0.1025928E+04  0.7818608E-02  0.8754308E-01
         21   -1    0    0  503  502  0.00000000000E+00  0.00000000000E+00  0.31929657688E+04  0.31929657688E+04  0.00000000000E+00 0.  1.
         21   -1    0    0  501  503 -0.00000000000E+00 -0.00000000000E+00 -0.42672736470E+03  0.42672736470E+03  0.00000000000E+00 0.  1.
    9000010    2    1    2  501    0  0.63051115541E+02  0.15013609080E+03  0.48888487918E+03  0.11219206362E+04  0.99658476805E+03 0.  0.
   -9000010    2    1    2    0  502 -0.63051115541E+02 -0.15013609080E+03  0.22773535249E+04  0.24977724973E+04  0.10129225449E+04 0.  0.
        -13    1    3    3    0    0  0.40949745005E+03  0.38334764406E+03  0.14100290574E+03  0.57838171513E+03  0.10566000000E+00 0.  1.
          4    1    3    3  501    0 -0.34644633451E+03 -0.23321155326E+03  0.34788197345E+03  0.54353892107E+03  0.00000000000E+00 0.  1.
         13    1    4    4    0    0  0.37160552621E+03 -0.31500507751E+03  0.69632293545E+03  0.84981439596E+03  0.10566000000E+00 0. -1.
         -4    1    4    4    0  502 -0.43465664175E+03  0.16486898672E+03  0.15810305895E+04  0.16479581014E+04  0.00000000000E+00 0. -1.
<mgrwt>
<rscale>  2 0.10218722E+04</rscale>
<asrwt>0</asrwt>
<pdfrwt beam="1">  1       21 0.49122549E+00 0.10259281E+04</pdfrwt>
<pdfrwt beam="2">  1       21 0.65650366E-01 0.10259281E+04</pdfrwt>
<totfact> 0.13840282E+00</totfact>
</mgrwt>
</event>
<event>
 8    1  0.7631533E-006  0.1027355E+04  0.7818608E-02  0.8749612E-01
         21   -1    0    0  503  502  0.00000000000E+00  0.00000000000E+00  0.14375919836E+04  0.14375919836E+04  0.00000000000E+00 0. -1.
         21   -1    0    0  501  503 -0.00000000000E+00 -0.00000000000E+00 -0.11199852397E+04  0.11199852397E+04  0.00000000000E+00 0. -1.
    9000010    2    1    2  501    0 -0.14414892685E+03  0.10899884225E+03 -0.59260405249E+03  0.11860176810E+04  0.10113351155E+04 0.  0.
   -9000010    2    1    2    0  502  0.14414892685E+03 -0.10899884225E+03  0.91021079636E+03  0.13715595423E+04  0.10099664467E+04 0.  0.
        -13    1    3    3    0    0 -0.16419261414E+03 -0.39658332478E+03 -0.31371100057E+02  0.43037391315E+03  0.10566000000E+00 0.  1.
          4    1    3    3  501    0  0.20043687292E+02  0.50558216703E+03 -0.56123295243E+03  0.75564376787E+03  0.00000000000E+00 0.  1.
         13    1    4    4    0    0  0.17011285087E+03 -0.43294409119E+03  0.69636098218E+02  0.47034898263E+03  0.10566000000E+00 0. -1.
         -4    1    4    4    0  502 -0.25963924018E+02  0.32394524893E+03  0.84057469814E+03  0.90121055964E+03  0.00000000000E+00 0. -1.
<mgrwt>
<rscale>  2 0.10270180E+04</rscale>
<asrwt>0</asrwt>
<pdfrwt beam="1">  1       21 0.22116800E+00 0.10273550E+04</pdfrwt>
<pdfrwt beam="2">  1       21 0.17230542E+00 0.10273550E+04</pdfrwt>
<totfact> 0.80278422E+00</totfact>
</mgrwt>
</event>
<event>
 8    1  0.7631533E-006  0.1014116E+04  0.7818608E-02  0.8765707E-01
         21   -1    0    0  501  502  0.00000000000E+00  0.00000000000E+00  0.13772038973E+04  0.13772038973E+04  0.00000000000E+00 0.  1.
         21   -1    0    0  502  503 -0.00000000000E+00 -0.00000000000E+00 -0.84619451332E+03  0.84619451332E+03  0.00000000000E+00 0.  1.
    9000010    2    1    2  501    0 -0.77012128671E+02  0.46292409962E+02  0.67357302720E+03  0.12174284463E+04  0.10101274888E+04 0.  0.
   -9000010    2    1    2    0  503  0.77012128671E+02 -0.46292409962E+02 -0.14256364326E+03  0.10059699643E+04  0.99175466800E+03 0.  0.
        -13    1    3    3    0    0  0.28996985998E+03  0.45676170447E+02 -0.13977303126E+03  0.32512358216E+03  0.10566000000E+00 0.  1.
          4    1    3    3  501    0 -0.36698198865E+03  0.61623951459E+00  0.81334605846E+03  0.89230486414E+03  0.00000000000E+00 0.  1.
         13    1    4    4    0    0  0.46440615896E+03 -0.13733056010E+01 -0.33349894025E+03  0.57174865174E+03  0.10566000000E+00 0. -1.
         -4    1    4    4    0  503 -0.38739403029E+03 -0.44919104361E+02  0.19093529699E+03  0.43422131255E+03  0.00000000000E+00 0. -1.
<mgrwt>
<rscale>  2 0.10095100E+04</rscale>
<asrwt>0</asrwt>
<pdfrwt beam="1">  1       21 0.21187752E+00 0.10141161E+04</pdfrwt>
<pdfrwt beam="2">  1       21 0.13018377E+00 0.10141161E+04</pdfrwt>
<totfact> 0.22472664E+01</totfact>
</mgrwt>
</event>
<event>
 8    1  0.7631533E-006  0.1005977E+04  0.7818608E-02  0.8834786E-01
         21   -1    0    0  501  502  0.00000000000E+00  0.00000000000E+00  0.24023578338E+04  0.24023578338E+04  0.00000000000E+00 0.  1.
         21   -1    0    0  502  503 -0.00000000000E+00 -0.00000000000E+00 -0.33840084126E+03  0.33840084126E+03  0.00000000000E+00 0.  1.
    9000010    2    1    2  501    0  0.11441107193E+03  0.86878274912E+02  0.89992955641E+03  0.13497643317E+04  0.99566702091E+03 0.  0.
   -9000010    2    1    2    0  503 -0.11441107193E+03 -0.86878274912E+02  0.11640274362E+04  0.13909943434E+04  0.74784200421E+03 0.  0.
        -13    1    3    3    0    0 -0.25175970208E+03  0.32954960196E+03  0.84052714703E+02  0.42314389722E+03  0.10566000000E+00 0.  1.
          4    1    3    3  501    0  0.36617077401E+03 -0.24267132705E+03  0.81587684171E+03  0.92662043446E+03  0.00000000000E+00 0.  1.
         13    1    4    4    0    0  0.82573565001E+02 -0.41992515992E+02 -0.85004583302E+02  0.12572810101E+03  0.10566000000E+00 0. -1.
         -4    1    4    4    0  503 -0.19698463693E+03 -0.44885758920E+02  0.12490320195E+04  0.12652662424E+04  0.00000000000E+00 0. -1.
<mgrwt>
<rscale>  2 0.93834126E+03</rscale>
<asrwt>0</asrwt>
<pdfrwt beam="1">  1       21 0.36959350E+00 0.10059774E+04</pdfrwt>
<pdfrwt beam="2">  1       21 0.52061669E-01 0.10059774E+04</pdfrwt>
<totfact> 0.16536033E+01</totfact>
</mgrwt>
</event>
<event>
 8    1  0.7631533E-006  0.1052421E+04  0.7818608E-02  0.8733988E-01
         21   -1    0    0  501  502  0.00000000000E+00  0.00000000000E+00  0.73127075974E+03  0.73127075974E+03  0.00000000000E+00 0.  1.
         21   -1    0    0  502  503 -0.00000000000E+00 -0.00000000000E+00 -0.15123281244E+04  0.15123281244E+04  0.00000000000E+00 0.  1.
    9000010    2    1    2  501    0 -0.18928033356E+03 -0.10507301011E+03 -0.20674454066E+03  0.10725356189E+04  0.10299135724E+04 0.  0.
   -9000010    2    1    2    0  503  0.18928033356E+03  0.10507301011E+03 -0.57431282399E+03  0.11710632653E+04  0.99733974617E+03 0.  0.
        -13    1    3    3    0    0  0.38561304334E+03  0.16098165759E+03 -0.58426385979E+02  0.42193147194E+03  0.10566000000E+00 0.  1.
          4    1    3    3  501    0 -0.57489337691E+03 -0.26605466770E+03 -0.14831815468E+03  0.65060414694E+03  0.00000000000E+00 0.  1.
         13    1    4    4    0    0 -0.13421812834E+03 -0.91330084399E+02  0.23037084283E+03  0.28182694456E+03  0.10566000000E+00 0. -1.
         -4    1    4    4    0  503  0.32349846190E+03  0.19640309451E+03 -0.80468366682E+03  0.88923632069E+03  0.00000000000E+00 0. -1.
<mgrwt>
<rscale>  2 0.10443649E+04</rscale>
<asrwt>0</asrwt>
<pdfrwt beam="1">  1       21 0.11250319E+00 0.10524207E+04</pdfrwt>
<pdfrwt beam="2">  1       21 0.23266587E+00 0.10524207E+04</pdfrwt>
<totfact> 0.23424383E+01</totfact>
</mgrwt>
</event>
<event>
 8    1  0.7631533E-006  0.1094087E+04  0.7818608E-02  0.8698170E-01
         21   -1    0    0  503  502  0.00000000000E+00  0.00000000000E+00  0.19505822234E+04  0.19505822234E+04  0.00000000000E+00 0.  1.
         21   -1    0    0  501  503 -0.00000000000E+00 -0.00000000000E+00 -0.76897383523E+03  0.76897383523E+03  0.00000000000E+00 0.  1.
    9000010    2    1    2  501    0 -0.35494499165E+03 -0.59625297285E+02  0.12307486199E+04  0.16243662937E+04  0.99713718595E+03 0.  0.
   -9000010    2    1    2    0  502  0.35494499165E+03  0.59625297285E+02 -0.49140231707E+02  0.10951897649E+04  0.10331915290E+04 0.  0.
        -13    1    3    3    0    0  0.19666459765E+03  0.13873292547E+03 -0.21575696711E+02  0.24163880158E+03  0.10566000000E+00 0.  1.
          4    1    3    3  501    0 -0.55160958930E+03 -0.19835822275E+03  0.12523243166E+04  0.13827274921E+04  0.00000000000E+00 0.  1.
         13    1    4    4    0    0  0.18717026392E+03 -0.38741333217E+03 -0.32909354743E+03  0.54168659921E+03  0.10566000000E+00 0. -1.
         -4    1    4    4    0  502  0.16777472773E+03  0.44703862946E+03  0.27995331572E+03  0.55350316573E+03  0.00000000000E+00 0. -1.
<mgrwt>
<rscale>  2 0.10854907E+04</rscale>
<asrwt>0</asrwt>
<pdfrwt beam="1">  1       21 0.30008957E+00 0.10940868E+04</pdfrwt>
<pdfrwt beam="2">  1       21 0.11830367E+00 0.10940868E+04</pdfrwt>
<totfact> 0.66041672E+00</totfact>
</mgrwt>
</event>
<event>
 8    1  0.7631533E-006  0.1052976E+04  0.7818608E-02  0.8737520E-01
         21   -1    0    0  501  502  0.00000000000E+00  0.00000000000E+00  0.54101044637E+03  0.54101044637E+03  0.00000000000E+00 0.  1.
         21   -1    0    0  502  503 -0.00000000000E+00 -0.00000000000E+00 -0.19866473808E+04  0.19866473808E+04  0.00000000000E+00 0.  1.
    9000010    2    1    2  501    0 -0.18597820427E+03  0.14181248675E+03 -0.90067981714E+03  0.13856342304E+04  0.10266739568E+04 0.  0.
   -9000010    2    1    2    0  503  0.18597820427E+03 -0.14181248675E+03 -0.54495711727E+03  0.11420235967E+04  0.97598205003E+03 0.  0.
        -13    1    3    3    0    0  0.17654870110E+03  0.37457050023E+03 -0.31189293504E+02  0.41526532085E+03  0.10566000000E+00 0.  1.
          4    1    3    3  501    0 -0.36252690537E+03 -0.23275801349E+03 -0.86949052364E+03  0.97036890957E+03  0.00000000000E+00 0.  1.
         13    1    4    4    0    0  0.35255472848E+02  0.36742414218E+03 -0.48219757412E+03  0.60725444443E+03  0.10566000000E+00 0. -1.
         -4    1    4    4    0  503  0.15072273142E+03 -0.50923662893E+03 -0.62759543145E+02  0.53476915231E+03  0.00000000000E+00 0. -1.
<mgrwt>
<rscale>  2 0.10404121E+04</rscale>
<asrwt>0</asrwt>
<pdfrwt beam="1">  1       21 0.83232377E-01 0.10529758E+04</pdfrwt>
<pdfrwt beam="2">  1       21 0.30563805E+00 0.10529758E+04</pdfrwt>
<totfact> 0.15331811E+01</totfact>
</mgrwt>
</event>
<event>
 8    1  0.7631533E-006  0.1054282E+04  0.7818608E-02  0.8733917E-01
         21   -1    0    0  503  502  0.00000000000E+00  0.00000000000E+00  0.37889646542E+04  0.37889646542E+04  0.00000000000E+00 0.  1.
         21   -1    0    0  501  503 -0.00000000000E+00 -0.00000000000E+00 -0.35053096152E+03  0.35053096152E+03  0.00000000000E+00 0.  1.
    9000010    2    1    2  501    0 -0.14846674787E+03 -0.12865908396E+03  0.78259789758E+03  0.12820538217E+04  0.99629664121E+03 0.  0.
   -9000010    2    1    2    0  502  0.14846674787E+03  0.12865908396E+03  0.26558357951E+04  0.28574417940E+04  0.10358157658E+04 0.  0.
        -13    1    3    3    0    0 -0.38857538260E+03  0.14251808160E+03  0.81939131900E+03  0.91798931168E+03  0.10566000000E+00 0.  1.
          4    1    3    3  501    0  0.24010863473E+03 -0.27117716555E+03 -0.36793421418E+02  0.36406451001E+03  0.00000000000E+00 0.  1.
         13    1    4    4    0    0 -0.45829721242E+02 -0.40363577199E+03  0.59737084674E+03  0.72240856824E+03  0.10566000000E+00 0. -1.
         -4    1    4    4    0  502  0.19429646912E+03  0.53229485595E+03  0.20584649483E+04  0.21350332257E+04  0.00000000000E+00 0. -1.
<mgrwt>
<rscale>  2 0.10444448E+04</rscale>
<asrwt>0</asrwt>
<pdfrwt beam="1">  1       21 0.58291761E+00 0.10542817E+04</pdfrwt>
<pdfrwt beam="2">  1       21 0.53927843E-01 0.10542817E+04</pdfrwt>
<totfact> 0.47291926E-01</totfact>
</mgrwt>
</event>
<event>
 8    1  0.7631533E-006  0.1005088E+04  0.7818608E-02  0.8771913E-01
         21   -1    0    0  501  502  0.00000000000E+00  0.00000000000E+00  0.31573194474E+03  0.31573194474E+03  0.00000000000E+00 0.  1.
         21   -1    0    0  502  503 -0.00000000000E+00 -0.00000000000E+00 -0.35218564529E+04  0.35218564529E+04  0.00000000000E+00 0.  1.
    9000010    2    1    2  501    0  0.62071107206E+02 -0.14765621063E+03 -0.10041084568E+04  0.14207167598E+04  0.99224348809E+03 0.  0.
   -9000010    2    1    2    0  503 -0.62071107206E+02  0.14765621063E+03 -0.22020160514E+04  0.24168716378E+04  0.98322868369E+03 0.  0.
        -13    1    3    3    0    0 -0.24857724122E+03 -0.18325383075E+03  0.57400261547E+02  0.31411369363E+03  0.10566000000E+00 0.  1.
          4    1    3    3  501    0  0.31064834843E+03  0.35597620119E+02 -0.10615087183E+04  0.11066030661E+04  0.00000000000E+00 0.  1.
         13    1    4    4    0    0 -0.40673198451E+01 -0.49301868930E+02 -0.22108085485E+04  0.22113619484E+04  0.10566000000E+00 0. -1.
         -4    1    4    4    0  503 -0.58003787361E+02  0.19695807956E+03  0.87924971614E+01  0.20550968945E+03  0.00000000000E+00 0. -1.
<mgrwt>
<rscale>  2 0.10028561E+04</rscale>
<asrwt>0</asrwt>
<pdfrwt beam="1">  1       21 0.48574149E-01 0.10050882E+04</pdfrwt>
<pdfrwt beam="2">  1       21 0.54182403E+00 0.10050882E+04</pdfrwt>
<totfact> 0.12112330E+00</totfact>
</mgrwt>
</event>
<event>
 8    1  0.7631533E-006  0.1028438E+04  0.7818608E-02  0.8817404E-01
         21   -1    0    0  501  502  0.00000000000E+00  0.00000000000E+00  0.89413867694E+03  0.89413867694E+03  0.00000000000E+00 0. -1.
         21   -1    0    0  502  503 -0.00000000000E+00 -0.00000000000E+00 -0.94135998524E+03  0.94135998524E+03  0.00000000000E+00 0. -1.
    9000010    2    1    2  501    0  0.24716153145E+03  0.66204228899E+02  0.16751077261E+03  0.78488229743E+03  0.72284752149E+03 0.  0.
   -9000010    2    1    2    0  503 -0.24716153145E+03 -0.66204228899E+02 -0.21473208092E+03  0.10506163648E+04  0.99609891917E+03 0.  0.
        -13    1    3    3    0    0 -0.77168169744E+02  0.33528123754E+03  0.52292336156E+02  0.34799846875E+03  0.10566000000E+00 0.  1.
          4    1    3    3  501    0  0.32432970120E+03 -0.26907700864E+03  0.11521843646E+03  0.43688382868E+03  0.00000000000E+00 0.  1.
         13    1    4    4    0    0 -0.46491850858E+03 -0.37065672463E+03 -0.30108303394E+03  0.66647327900E+03  0.10566000000E+00 0. -1.
         -4    1    4    4    0  503  0.21775697713E+03  0.30445249573E+03  0.86350953025E+02  0.38414308575E+03  0.00000000000E+00 0. -1.
<mgrwt>
<rscale>  2 0.95566122E+03</rscale>
<asrwt>0</asrwt>
<pdfrwt beam="1">  1       21 0.13755980E+00 0.10284381E+04</pdfrwt>
<pdfrwt beam="2">  1       21 0.14482461E+00 0.10284381E+04</pdfrwt>
<totfact> 0.68126629E+01</totfact>
</mgrwt>
</event>
<event>
 8    1  0.7631533E-006  0.1028998E+04  0.7818608E-02  0.8751020E-01
         21   -1    0    0  501  502  0.00000000000E+00  0.00000000000E+00  0.72877400013E+03  0.72877400013E+03  0.00000000000E+00 0. -1.
         21   -1    0    0  502  503 -0.00000000000E+00 -0.00000000000E+00 -0.15970392200E+04  0.15970392200E+04  0.00000000000E+00 0. -1.
    9000010    2    1    2  501    0 -0.28343869644E+03 -0.70585247035E+02 -0.58937945228E+02  0.10166729006E+04  0.97202383392E+03 0.  0.
   -9000010    2    1    2    0  503  0.28343869644E+03  0.70585247035E+02 -0.80932727462E+03  0.13091403195E+04  0.98667014091E+03 0.  0.
        -13    1    3    3    0    0 -0.87278357344E+01 -0.49764554057E+03  0.40041665911E+02  0.49933015665E+03  0.10566000000E+00 0.  1.
          4    1    3    3  501    0 -0.27471086070E+03  0.42706029354E+03 -0.98979611140E+02  0.51734274396E+03  0.00000000000E+00 0.  1.
         13    1    4    4    0    0 -0.79043472034E+02 -0.13405635692E+03 -0.87412317966E+03  0.88786841462E+03  0.10566000000E+00 0. -1.
         -4    1    4    4    0  503  0.36248216847E+03  0.20464160396E+03  0.64795905043E+02  0.42127190488E+03  0.00000000000E+00 0. -1.
<mgrwt>
<rscale>  2 0.10254715E+04</rscale>
<asrwt>0</asrwt>
<pdfrwt beam="1">  1       21 0.11211908E+00 0.10289984E+04</pdfrwt>
<pdfrwt beam="2">  1       21 0.24569834E+00 0.10289984E+04</pdfrwt>
<totfact> 0.19063421E+01</totfact>
</mgrwt>
</event>
<event>
 8    1  0.7631533E-006  0.1133473E+04  0.7818608E-02  0.8668138E-01
         21   -1    0    0  501  502  0.00000000000E+00  0.00000000000E+00  0.21766542189E+04  0.21766542189E+04  0.00000000000E+00 0. -1.
         21   -1    0    0  502  503 -0.00000000000E+00 -0.00000000000E+00 -0.74695980207E+03  0.74695980207E+03  0.00000000000E+00 0. -1.
    9000010    2    1    2  501    0 -0.40712109877E+01 -0.53541811390E+03  0.14228044077E+04  0.17901201208E+04  0.94523464436E+03 0.  0.
   -9000010    2    1    2    0  503  0.40712109877E+01  0.53541811390E+03  0.68900091097E+01  0.11334939002E+04  0.99903544382E+03 0.  0.
        -13    1    3    3    0    0  0.18145478259E+03  0.16872813078E+03  0.76182293952E+02  0.25922726191E+03  0.10566000000E+00 0.  1.
          4    1    3    3  501    0 -0.18552599357E+03 -0.70414624468E+03  0.13466221138E+04  0.15308928589E+04  0.00000000000E+00 0.  1.
         13    1    4    4    0    0 -0.54075342507E+02  0.72189394414E+03  0.29805848416E+03  0.78287539264E+03  0.10566000000E+00 0. -1.
         -4    1    4    4    0  503  0.58146553495E+02 -0.18647583024E+03 -0.29116847505E+03  0.35061850751E+03  0.00000000000E+00 0. -1.
<mgrwt>
<rscale>  2 0.11215041E+04</rscale>
<asrwt>0</asrwt>
<pdfrwt beam="1">  1       21 0.33486988E+00 0.11334730E+04</pdfrwt>
<pdfrwt beam="2">  1       21 0.11491689E+00 0.11334730E+04</pdfrwt>
<totfact> 0.40370913E+00</totfact>
</mgrwt>
</event>
<event>
 8    1  0.7631533E-006  0.1014429E+04  0.7818608E-02  0.8762660E-01
         21   -1    0    0  503  502  0.00000000000E+00  0.00000000000E+00  0.11926112584E+04  0.11926112584E+04  0.00000000000E+00 0.  1.
         21   -1    0    0  501  503 -0.00000000000E+00 -0.00000000000E+00 -0.10457095259E+04  0.10457095259E+04  0.00000000000E+00 0.  1.
    9000010    2    1    2  501    0 -0.16978028787E+03  0.48274579935E+02 -0.40174400707E+03  0.10850302579E+04  0.99233897035E+03 0.  0.
   -9000010    2    1    2    0  502  0.16978028787E+03 -0.48274579935E+02  0.54864573958E+03  0.11532905264E+04  0.99895500875E+03 0.  0.
        -13    1    3    3    0    0 -0.50149450100E+03 -0.22916577955E+03 -0.10691228230E+03  0.56164395868E+03  0.10566000000E+00 0.  1.
          4    1    3    3  501    0  0.33171421313E+03  0.27744035948E+03 -0.29483172478E+03  0.52338629920E+03  0.00000000000E+00 0.  1.
         13    1    4    4    0    0 -0.10029647147E+03 -0.20260335427E+03 -0.22530409029E+03  0.31916993219E+03  0.10566000000E+00 0. -1.
         -4    1    4    4    0  502  0.27007675935E+03  0.15432877433E+03  0.77394982987E+03  0.83412059421E+03  0.00000000000E+00 0. -1.
<mgrwt>
<rscale>  2 0.10127968E+04</rscale>
<asrwt>0</asrwt>
<pdfrwt beam="1">  1       21 0.18347865E+00 0.10144293E+04</pdfrwt>
<pdfrwt beam="2">  1       21 0.16087839E+00 0.10144293E+04</pdfrwt>
<totfact> 0.19762105E+01</totfact>
</mgrwt>
</event>
<event>
 8    1  0.7631533E-006  0.1094186E+04  0.7818608E-02  0.8703672E-01
         21   -1    0    0  501  502  0.00000000000E+00  0.00000000000E+00  0.12765702446E+04  0.12765702446E+04  0.00000000000E+00 0. -1.
         21   -1    0    0  502  503 -0.00000000000E+00 -0.00000000000E+00 -0.11781538192E+04  0.11781538192E+04  0.00000000000E+00 0. -1.
    9000010    2    1    2  501    0 -0.51081858632E+02  0.37781195573E+03  0.65739612072E+03  0.12260253809E+04  0.96209009184E+03 0.  0.
   -9000010    2    1    2    0  503  0.51081858632E+02 -0.37781195573E+03 -0.55897969525E+03  0.12286986829E+04  0.10256173378E+04 0.  0.
        -13    1    3    3    0    0 -0.27773237411E+03  0.55032430489E+03  0.70581363784E+03  0.93710459113E+03  0.10566000000E+00 0.  1.
          4    1    3    3  501    0  0.22665051548E+03 -0.17251234916E+03 -0.48417517125E+02  0.28892078974E+03  0.00000000000E+00 0.  1.
         13    1    4    4    0    0  0.29351489408E+03  0.26949551985E+03 -0.15140064864E+03  0.42626399782E+03  0.10566000000E+00 0. -1.
         -4    1    4    4    0  503 -0.24243303545E+03 -0.64730747559E+03 -0.40757904661E+03  0.80243468511E+03  0.00000000000E+00 0. -1.
<mgrwt>
<rscale>  2 0.10790469E+04</rscale>
<asrwt>0</asrwt>
<pdfrwt beam="1">  1       21 0.19639542E+00 0.10941856E+04</pdfrwt>
<pdfrwt beam="2">  1       21 0.18125443E+00 0.10941856E+04</pdfrwt>
<totfact> 0.10336061E+01</totfact>
</mgrwt>
</event>
<event>
 8    1  0.7631533E-006  0.1078133E+04  0.7818608E-02  0.8712418E-01
         21   -1    0    0  503  502  0.00000000000E+00  0.00000000000E+00  0.79319810687E+03  0.79319810687E+03  0.00000000000E+00 0. -1.
         21   -1    0    0  501  503 -0.00000000000E+00 -0.00000000000E+00 -0.15382506905E+04  0.15382506905E+04  0.00000000000E+00 0. -1.
    9000010    2    1    2  501    0 -0.76039601851E+02 -0.41568044435E+03 -0.70664227038E+03  0.12890751928E+04  0.99186657447E+03 0.  0.
   -9000010    2    1    2    0  502  0.76039601851E+02  0.41568044435E+03 -0.38410313222E+02  0.10423736045E+04  0.95210037624E+03 0.  0.
        -13    1    3    3    0    0  0.40126326946E+03 -0.39739297550E+03 -0.54495319363E+03  0.78479766998E+03  0.10566000000E+00 0.  1.
          4    1    3    3  501    0 -0.47730287131E+03 -0.18287468853E+02 -0.16168907675E+03  0.50427752282E+03  0.00000000000E+00 0.  1.
         13    1    4    4    0    0 -0.32473748203E+03  0.34460420260E+03  0.25764508155E+03  0.53906167355E+03  0.10566000000E+00 0. -1.
         -4    1    4    4    0  502  0.40077708388E+03  0.71076241754E+02 -0.29605539477E+03  0.50331193099E+03  0.00000000000E+00 0. -1.
<mgrwt>
<rscale>  2 0.10688985E+04</rscale>
<asrwt>0</asrwt>
<pdfrwt beam="1">  1       21 0.12203048E+00 0.10781334E+04</pdfrwt>
<pdfrwt beam="2">  1       21 0.23665395E+00 0.10781334E+04</pdfrwt>
<totfact> 0.17371104E+01</totfact>
</mgrwt>
</event>
<event>
 8    1  0.7631533E-006  0.1119892E+04  0.7818608E-02  0.8679618E-01
         21   -1    0    0  503  502  0.00000000000E+00  0.00000000000E+00  0.55886122710E+03  0.55886122710E+03  0.00000000000E+00 0. -1.
         21   -1    0    0  501  503 -0.00000000000E+00 -0.00000000000E+00 -0.23449226971E+04  0.23449226971E+04  0.00000000000E+00 0. -1.
    9000010    2    1    2  501    0  0.20276413999E+03 -0.44208528087E+03 -0.13317511100E+04  0.17400339227E+04  0.10087637689E+04 0.  0.
   -9000010    2    1    2    0  502 -0.20276413999E+03  0.44208528087E+03 -0.45431036005E+03  0.11637500015E+04  0.95465358673E+03 0.  0.
        -13    1    3    3    0    0  0.18950848681E+03 -0.65214379202E+03 -0.40723527335E+03  0.79186209094E+03  0.10566000000E+00 0.  1.
          4    1    3    3  501    0  0.13255653183E+02  0.21005851115E+03 -0.92451583662E+03  0.94817183180E+03  0.00000000000E+00 0.  1.
         13    1    4    4    0    0 -0.34270845130E+03  0.25020526147E+03 -0.70220363022E+03  0.82045213444E+03  0.10566000000E+00 0. -1.
         -4    1    4    4    0  502  0.13994431131E+03  0.19188001940E+03  0.24789327017E+03  0.34329786703E+03  0.00000000000E+00 0. -1.
<mgrwt>
<rscale>  2 0.11075689E+04</rscale>
<asrwt>0</asrwt>
<pdfrwt beam="1">  1       21 0.85978650E-01 0.11198915E+04</pdfrwt>
<pdfrwt beam="2">  1       21 0.36075734E+00 0.11198915E+04</pdfrwt>
<totfact> 0.57129604E+00</totfact>
</mgrwt>
</event>
<event>
 8    1  0.7631533E-006  0.1134264E+04  0.7818608E-02  0.8678681E-01
         21   -1    0    0  503  502  0.00000000000E+00  0.00000000000E+00  0.10603826438E+04  0.10603826438E+04  0.00000000000E+00 0. -1.
         21   -1    0    0  501  503 -0.00000000000E+00 -0.00000000000E+00 -0.28704596401E+04  0.28704596401E+04  0.00000000000E+00 0. -1.
    9000010    2    1    2  501    0 -0.29839417044E+03 -0.94248387941E+02 -0.24596224840E+04  0.27085602499E+04  0.10902449376E+04 0.  0.
   -9000010    2    1    2    0  502  0.29839417044E+03  0.94248387941E+02  0.64954548768E+03  0.12222820340E+04  0.98698641862E+03 0.  0.
        -13    1    3    3    0    0  0.33002923295E+03  0.18293457634E+03 -0.13658677227E+04  0.14170317572E+04  0.10566000000E+00 0.  1.
          4    1    3    3  501    0 -0.62842340338E+03 -0.27718296429E+03 -0.10937547613E+04  0.12915284927E+04  0.00000000000E+00 0.  1.
         13    1    4    4    0    0 -0.31077032593E+03 -0.76707852112E+02  0.64973940812E+01  0.32016326671E+03  0.10566000000E+00 0. -1.
         -4    1    4    4    0  502  0.60916449637E+03  0.17095624005E+03  0.64304809360E+03  0.90211876731E+03  0.00000000000E+00 0. -1.
<mgrwt>
<rscale>  2 0.11086982E+04</rscale>
<asrwt>0</asrwt>
<pdfrwt beam="1">  1       21 0.16313580E+00 0.11342645E+04</pdfrwt>
<pdfrwt beam="2">  1       21 0.44160916E+00 0.11342645E+04</pdfrwt>
<totfact> 0.25735748E-01</totfact>
</mgrwt>
</event>
<event>
 8    1  0.7631533E-006  0.1088449E+04  0.7818608E-02  0.8696803E-01
         21   -1    0    0  503  502  0.00000000000E+00  0.00000000000E+00  0.24796034796E+04  0.24796034796E+04  0.00000000000E+00 0.  1.
         21   -1    0    0  501  503 -0.00000000000E+00 -0.00000000000E+00 -0.47630412945E+03  0.47630412945E+03  0.00000000000E+00 0. -1.
    9000010    2    1    2  501    0  0.22670197615E+02  0.40325427457E+03  0.10627181802E+04  0.15173614845E+04  0.10049318367E+04 0.  0.
   -9000010    2    1    2    0  502 -0.22670197615E+02 -0.40325427457E+03  0.94058116999E+03  0.14385461246E+04  0.10107393667E+04 0.  0.
        -13    1    3    3    0    0 -0.42078032316E+03 -0.57142058323E+02  0.56730330310E+03  0.70862849509E+03  0.10566000000E+00 0.  1.
          4    1    3    3  501    0  0.44345052077E+03  0.46039633290E+03  0.49541487707E+03  0.80873298940E+03  0.00000000000E+00 0.  1.
         13    1    4    4    0    0 -0.27486016085E+03  0.62062173436E+02  0.85774070161E+03  0.90283937871E+03  0.10566000000E+00 0. -1.
         -4    1    4    4    0  502  0.25218996324E+03 -0.46531644801E+03  0.82840468383E+02  0.53570674585E+03  0.00000000000E+00 0. -1.
<mgrwt>
<rscale>  2 0.10870992E+04</rscale>
<asrwt>0</asrwt>
<pdfrwt beam="1">  1       21 0.38147745E+00 0.10884494E+04</pdfrwt>
<pdfrwt beam="2">  1       21 0.73277560E-01 0.10884494E+04</pdfrwt>
<totfact> 0.60844267E+00</totfact>
</mgrwt>
</event>
<event>
 8    1  0.7631533E-006  0.1113312E+04  0.7818608E-02  0.8678407E-01
         21   -1    0    0  503  502  0.00000000000E+00  0.00000000000E+00  0.15884854308E+04  0.15884854308E+04  0.00000000000E+00 0. -1.
         21   -1    0    0  501  503 -0.00000000000E+00 -0.00000000000E+00 -0.78964522708E+03  0.78964522708E+03  0.00000000000E+00 0. -1.
    9000010    2    1    2  501    0 -0.42964188044E+03  0.16998610091E+03  0.20132726217E+03  0.11146100163E+04  0.99415059321E+03 0.  0.
   -9000010    2    1    2    0  502  0.42964188044E+03 -0.16998610091E+03  0.59751294156E+03  0.12635206416E+04  0.10129043768E+04 0.  0.
        -13    1    3    3    0    0 -0.64019276401E+03 -0.19778492269E+03  0.86936460545E+02  0.67566530921E+03  0.10566000000E+00 0.  1.
          4    1    3    3  501    0  0.21055088357E+03  0.36777102360E+03  0.11439080162E+03  0.43894470707E+03  0.00000000000E+00 0.  1.
         13    1    4    4    0    0  0.61148877879E+02 -0.86603859769E+02  0.81882771322E+03  0.82566230923E+03  0.10566000000E+00 0. -1.
         -4    1    4    4    0  502  0.36849300256E+03 -0.83382241143E+02 -0.22131477166E+03  0.43785833237E+03  0.00000000000E+00 0. -1.
<mgrwt>
<rscale>  2 0.11090282E+04</rscale>
<asrwt>0</asrwt>
<pdfrwt beam="1">  1       21 0.24438237E+00 0.11133116E+04</pdfrwt>
<pdfrwt beam="2">  1       21 0.12148388E+00 0.11133116E+04</pdfrwt>
<totfact> 0.15319798E+01</totfact>
</mgrwt>
</event>
<event>
 8    1  0.7631533E-006  0.9971344E+03  0.7818608E-02  0.8778496E-01
         21   -1    0    0  503  502  0.00000000000E+00  0.00000000000E+00  0.11421345381E+04  0.11421345381E+04  0.00000000000E+00 0.  1.
         21   -1    0    0  501  503 -0.00000000000E+00 -0.00000000000E+00 -0.86830498667E+03  0.86830498667E+03  0.00000000000E+00 0.  1.
    9000010    2    1    2  501    0 -0.38022728705E+02 -0.76219574188E+02  0.86469042659E+02  0.10008765221E+04  0.99348969083E+03 0.  0.
   -9000010    2    1    2    0  502  0.38022728705E+02  0.76219574188E+02  0.18736050876E+03  0.10095630027E+04  0.98836144436E+03 0.  0.
        -13    1    3    3    0    0 -0.97000883737E+02  0.37963519865E+03 -0.21909311758E+03  0.44892522856E+03  0.10566000000E+00 0.  1.
          4    1    3    3  501    0  0.58978155033E+02 -0.45585477284E+03  0.30556216024E+03  0.55195129356E+03  0.00000000000E+00 0.  1.
         13    1    4    4    0    0  0.32089775286E+03 -0.34312785712E+03  0.18164746282E+03  0.50369425848E+03  0.10566000000E+00 0. -1.
         -4    1    4    4    0  502 -0.28287502415E+03  0.41934743131E+03  0.57130459416E+01  0.50586874417E+03  0.00000000000E+00 0. -1.
<mgrwt>
<rscale>  2 0.99585454E+03</rscale>
<asrwt>0</asrwt>
<pdfrwt beam="1">  1       21 0.17571301E+00 0.99713435E+03</pdfrwt>
<pdfrwt beam="2">  1       21 0.13358538E+00 0.99713435E+03</pdfrwt>
<totfact> 0.40460771E+01</totfact>
</mgrwt>
</event>
<event>
 8    1  0.7631533E-006  0.1010634E+04  0.7818608E-02  0.8770762E-01
         21   -1    0    0  501  502  0.00000000000E+00  0.00000000000E+00  0.15580549902E+04  0.15580549902E+04  0.00000000000E+00 0.  1.
         21   -1    0    0  502  503 -0.00000000000E+00 -0.00000000000E+00 -0.77178405189E+03  0.77178405189E+03  0.00000000000E+00 0.  1.
    9000010    2    1    2  501    0  0.82346968229E+02 -0.80247003455E+02  0.87237039659E+03  0.13155443022E+04  0.97796017178E+03 0.  0.
   -9000010    2    1    2    0  503 -0.82346968229E+02  0.80247003455E+02 -0.86099458257E+02  0.10142947399E+04  0.10040717593E+04 0.  0.
        -13    1    3    3    0    0  0.85149393684E+01  0.42986157293E+03  0.21649313567E+03  0.48137590823E+03  0.10566000000E+00 0.  1.
          4    1    3    3  501    0  0.73832028861E+02 -0.51010857638E+03  0.65587726092E+03  0.83416839402E+03  0.00000000000E+00 0.  1.
         13    1    4    4    0    0 -0.47329889054E+03 -0.16565038219E+03  0.10860750026E+03  0.51307649447E+03  0.10566000000E+00 0. -1.
         -4    1    4    4    0  503  0.39095192231E+03  0.24589738564E+03 -0.19470695852E+03  0.50121824539E+03  0.00000000000E+00 0. -1.
<mgrwt>
<rscale>  2 0.10040861E+04</rscale>
<asrwt>0</asrwt>
<pdfrwt beam="1">  1       21 0.23970077E+00 0.10106338E+04</pdfrwt>
<pdfrwt beam="2">  1       21 0.11873601E+00 0.10106338E+04</pdfrwt>
<totfact> 0.18086733E+01</totfact>
</mgrwt>
</event>
<event>
 8    1  0.7631533E-006  0.1045373E+04  0.7818608E-02  0.8787448E-01
         21   -1    0    0  501  502  0.00000000000E+00  0.00000000000E+00  0.59555523470E+03  0.59555523470E+03  0.00000000000E+00 0. -1.
         21   -1    0    0  502  503 -0.00000000000E+00 -0.00000000000E+00 -0.18960894865E+04  0.18960894865E+04  0.00000000000E+00 0. -1.
    9000010    2    1    2  501    0  0.30862225437E+03 -0.75714400731E+02 -0.74195328589E+01  0.82883070055E+03  0.76545732365E+03 0.  0.
   -9000010    2    1    2    0  503 -0.30862225437E+03  0.75714400731E+02 -0.12931147189E+04  0.16628140206E+04  0.99590382296E+03 0.  0.
        -13    1    3    3    0    0  0.85346528523E+02  0.11933426269E+03  0.34107388422E+03  0.37128978150E+03  0.10566000000E+00 0.  1.
          4    1    3    3  501    0  0.22327572585E+03 -0.19504866343E+03 -0.34849341708E+03  0.45754091905E+03  0.00000000000E+00 0.  1.
         13    1    4    4    0    0 -0.87177653610E+02 -0.40517921843E+03 -0.22715945973E+03  0.47262201984E+03  0.10566000000E+00 0. -1.
         -4    1    4    4    0  503 -0.22144460076E+03  0.48089361916E+03 -0.10659552592E+04  0.11901920008E+04  0.00000000000E+00 0. -1.
<mgrwt>
<rscale>  2 0.98642842E+03</rscale>
<asrwt>0</asrwt>
<pdfrwt beam="1">  1       21 0.91623880E-01 0.10453730E+04</pdfrwt>
<pdfrwt beam="2">  1       21 0.29170608E+00 0.10453730E+04</pdfrwt>
<totfact> 0.15097941E+01</totfact>
</mgrwt>
</event>
<event>
 8    1  0.7631533E-006  0.1022029E+04  0.7818608E-02  0.8756106E-01
         21   -1    0    0  503  502  0.00000000000E+00  0.00000000000E+00  0.18517052968E+04  0.18517052968E+04  0.00000000000E+00 0. -1.
         21   -1    0    0  501  503 -0.00000000000E+00 -0.00000000000E+00 -0.12063635354E+04  0.12063635354E+04  0.00000000000E+00 0. -1.
    9000010    2    1    2  501    0 -0.22247375515E+03 -0.30239024444E+01 -0.79764908125E+03  0.12898025810E+04  0.98885940625E+03 0.  0.
   -9000010    2    1    2    0  502  0.22247375515E+03  0.30239024444E+01  0.14429908426E+04  0.17682662513E+04  0.99751654007E+03 0.  0.
        -13    1    3    3    0    0  0.21672555036E+03 -0.34897516278E+03 -0.15768954715E+03  0.44002230950E+03  0.10566000000E+00 0.  1.
          4    1    3    3  501    0 -0.43919930550E+03  0.34595126034E+03 -0.63995953411E+03  0.84978027147E+03  0.00000000000E+00 0.  1.
         13    1    4    4    0    0  0.30877385701E+03 -0.31329657457E+03  0.13609549322E+04  0.14302777273E+04  0.10566000000E+00 0. -1.
         -4    1    4    4    0  502 -0.86300101863E+02  0.31632047701E+03  0.82035910414E+02  0.33798852400E+03  0.00000000000E+00 0. -1.
<mgrwt>
<rscale>  2 0.10199103E+04</rscale>
<asrwt>0</asrwt>
<pdfrwt beam="1">  1       21 0.28487774E+00 0.10220288E+04</pdfrwt>
<pdfrwt beam="2">  1       21 0.18559439E+00 0.10220288E+04</pdfrwt>
<totfact> 0.21531814E+00</totfact>
</mgrwt>
</event>
<event>
 8    1  0.7631533E-006  0.1000331E+04  0.7818608E-02  0.8774798E-01
         21   -1    0    0  501  502  0.00000000000E+00  0.00000000000E+00  0.12576872473E+04  0.12576872473E+04  0.00000000000E+00 0.  1.
         21   -1    0    0  502  503 -0.00000000000E+00 -0.00000000000E+00 -0.83884507692E+03  0.83884507692E+03  0.00000000000E+00 0.  1.
    9000010    2    1    2  501    0 -0.78476903764E+02 -0.65339582351E+02  0.45232019837E+03  0.10978409664E+04  0.99510468807E+03 0.  0.
   -9000010    2    1    2    0  503  0.78476903764E+02  0.65339582351E+02 -0.33478027949E+02  0.99869135785E+03  0.99289262483E+03 0.  0.
        -13    1    3    3    0    0  0.19054198977E+02  0.10725411276E+03 -0.30035341061E+03  0.31949755810E+03  0.10566000000E+00 0.  1.
          4    1    3    3  501    0 -0.97531102742E+02 -0.17259369511E+03  0.75267360898E+03  0.77834340830E+03  0.00000000000E+00 0.  1.
         13    1    4    4    0    0  0.42356325758E+03  0.33806479457E+02  0.29812754425E+03  0.51906527049E+03  0.10566000000E+00 0. -1.
         -4    1    4    4    0  503 -0.34508635382E+03  0.31533102895E+02 -0.33160557219E+03  0.47962608736E+03  0.00000000000E+00 0. -1.
<mgrwt>
<rscale>  2 0.99977998E+03</rscale>
<asrwt>0</asrwt>
<pdfrwt beam="1">  1       21 0.19349034E+00 0.10003306E+04</pdfrwt>
<pdfrwt beam="2">  1       21 0.12905309E+00 0.10003306E+04</pdfrwt>
<totfact> 0.32113999E+01</totfact>
</mgrwt>
</event>
<event>
 8    1  0.7631533E-006  0.1013035E+04  0.7818608E-02  0.8765851E-01
         21   -1    0    0  501  502  0.00000000000E+00  0.00000000000E+00  0.11760829775E+04  0.11760829775E+04  0.00000000000E+00 0. -1.
         21   -1    0    0  502  503 -0.00000000000E+00 -0.00000000000E+00 -0.10238205335E+04  0.10238205335E+04  0.00000000000E+00 0. -1.
    9000010    2    1    2  501    0 -0.36901816348E+02  0.11223326561E+03  0.51654158494E+03  0.11371254838E+04  0.10061218152E+04 0.  0.
   -9000010    2    1    2    0  503  0.36901816348E+02 -0.11223326561E+03 -0.36427914099E+03  0.10627780272E+04  0.99138276799E+03 0.  0.
        -13    1    3    3    0    0 -0.31171856927E+03  0.45361054845E+03  0.16291634798E+03  0.57399716349E+03  0.10566000000E+00 0.  1.
          4    1    3    3  501    0  0.27481675292E+03 -0.34137728284E+03  0.35362523696E+03  0.56312832032E+03  0.00000000000E+00 0.  1.
         13    1    4    4    0    0  0.31293408670E+02  0.23168580007E+03  0.26022096985E+03  0.34981788361E+03  0.10566000000E+00 0. -1.
         -4    1    4    4    0  503  0.56084076778E+01 -0.34391906567E+03 -0.62450011084E+03  0.71296014363E+03  0.00000000000E+00 0. -1.
<mgrwt>
<rscale>  2 0.10093554E+04</rscale>
<asrwt>0</asrwt>
<pdfrwt beam="1">  1       21 0.18093584E+00 0.10130346E+04</pdfrwt>
<pdfrwt beam="2">  1       21 0.15751085E+00 0.10130346E+04</pdfrwt>
<totfact> 0.22168978E+01</totfact>
</mgrwt>
</event>
<event>
 8    1  0.7631533E-006  0.1205018E+04  0.7818608E-02  0.8604821E-01
         21   -1    0    0  503  502  0.00000000000E+00  0.00000000000E+00  0.14375124229E+04  0.14375124229E+04  0.00000000000E+00 0.  1.
         21   -1    0    0  501  503 -0.00000000000E+00 -0.00000000000E+00 -0.12420958706E+04  0.12420958706E+04  0.00000000000E+00 0.  1.
    9000010    2    1    2  501    0 -0.65302169146E+03  0.48875622145E+02 -0.49207401445E+03  0.13016162183E+04  0.10115541449E+04 0.  0.
   -9000010    2    1    2    0  502  0.65302169146E+03 -0.48875622145E+02  0.68749056667E+03  0.13779920752E+04  0.99869551123E+03 0.  0.
        -13    1    3    3    0    0 -0.52165979544E+03 -0.61974360630E+02  0.21967335851E+03  0.56940860475E+03  0.10566000000E+00 0.  1.
          4    1    3    3  501    0 -0.13136189602E+03  0.11084998278E+03 -0.71174737296E+03  0.73220761354E+03  0.00000000000E+00 0.  1.
         13    1    4    4    0    0  0.32183956655E+03  0.32929004632E+03  0.74106452194E+03  0.87246161981E+03  0.10566000000E+00 0. -1.
         -4    1    4    4    0  502  0.33118212492E+03 -0.37816566846E+03 -0.53573955266E+02  0.50553045541E+03  0.00000000000E+00 0. -1.
<mgrwt>
<rscale>  2 0.12023153E+04</rscale>
<asrwt>0</asrwt>
<pdfrwt beam="1">  1       21 0.22115576E+00 0.12050178E+04</pdfrwt>
<pdfrwt beam="2">  1       21 0.19109167E+00 0.12050178E+04</pdfrwt>
<totfact> 0.54200747E+00</totfact>
</mgrwt>
</event>
<event>
 8    1  0.7631533E-006  0.1054199E+04  0.7818608E-02  0.8726898E-01
         21   -1    0    0  503  502  0.00000000000E+00  0.00000000000E+00  0.12399268722E+04  0.12399268722E+04  0.00000000000E+00 0.  1.
         21   -1    0    0  501  503 -0.00000000000E+00 -0.00000000000E+00 -0.13774373657E+04  0.13774373657E+04  0.00000000000E+00 0. -1.
    9000010    2    1    2  501    0  0.30716733789E+03  0.81310924120E+02 -0.84737363686E+03  0.13525446163E+04  0.10051724323E+04 0.  0.
   -9000010    2    1    2    0  502 -0.30716733789E+03 -0.81310924120E+02  0.70986314330E+03  0.12648196216E+04  0.99744661673E+03 0.  0.
        -13    1    3    3    0    0  0.79985807248E+02  0.47985319530E+03 -0.13433341644E+03  0.50468039029E+03  0.10566000000E+00 0.  1.
          4    1    3    3  501    0  0.22718153064E+03 -0.39854227118E+03 -0.71304022041E+03  0.84786422599E+03  0.00000000000E+00 0.  1.
         13    1    4    4    0    0 -0.66356362790E+02 -0.44890119535E+03  0.68883745318E+03  0.82487120094E+03  0.10566000000E+00 0. -1.
         -4    1    4    4    0  502 -0.24081097510E+03  0.36759027123E+03  0.21025690120E+02  0.43994842070E+03  0.00000000000E+00 0. -1.
<mgrwt>
<rscale>  2 0.10523529E+04</rscale>
<asrwt>0</asrwt>
<pdfrwt beam="1">  1       21 0.19075798E+00 0.10541987E+04</pdfrwt>
<pdfrwt beam="2">  1       21 0.21191344E+00 0.10541987E+04</pdfrwt>
<totfact> 0.66324270E+00</totfact>
</mgrwt>
</event>
<event>
 8    1  0.7631533E-006  0.9990677E+03  0.7818608E-02  0.8784576E-01
         21   -1    0    0  501  502  0.00000000000E+00  0.00000000000E+00  0.91653071417E+03  0.91653071417E+03  0.00000000000E+00 0. -1.
         21   -1    0    0  502  503 -0.00000000000E+00 -0.00000000000E+00 -0.13700042192E+04  0.13700042192E+04  0.00000000000E+00 0. -1.
    9000010    2    1    2  501    0  0.31050695529E+02  0.17369688259E+02  0.32403867012E+03  0.10503034619E+04  0.99843399914E+03 0.  0.
   -9000010    2    1    2    0  503 -0.31050695529E+02 -0.17369688259E+02 -0.77751217513E+03  0.12362314714E+04  0.96045677503E+03 0.  0.
        -13    1    3    3    0    0  0.17975865444E+03 -0.14517700255E+03  0.63128056096E+03  0.67223856905E+03  0.10566000000E+00 0.  1.
          4    1    3    3  501    0 -0.14870795891E+03  0.16254669081E+03 -0.30724189084E+03  0.37806489287E+03  0.00000000000E+00 0.  1.
         13    1    4    4    0    0 -0.35573752614E+03  0.33018791349E+03 -0.40297634727E+03  0.63084323991E+03  0.10566000000E+00 0. -1.
         -4    1    4    4    0  503  0.32468683061E+03 -0.34755760175E+03 -0.37453582786E+03  0.60538823152E+03  0.00000000000E+00 0. -1.
<mgrwt>
<rscale>  2 0.98944143E+03</rscale>
<asrwt>0</asrwt>
<pdfrwt beam="1">  1       21 0.14100472E+00 0.99906772E+03</pdfrwt>
<pdfrwt beam="2">  1       21 0.21076988E+00 0.99906772E+03</pdfrwt>
<totfact> 0.18186740E+01</totfact>
</mgrwt>
</event>
<event>
 8    1  0.7631533E-006  0.1054826E+04  0.7818608E-02  0.8725315E-01
         21   -1    0    0  503  502  0.00000000000E+00  0.00000000000E+00  0.29509538845E+04  0.29509538845E+04  0.00000000000E+00 0. -1.
         21   -1    0    0  501  503 -0.00000000000E+00 -0.00000000000E+00 -0.11225431263E+04  0.11225431263E+04  0.00000000000E+00 0. -1.
    9000010    2    1    2  501    0 -0.30807940798E+03  0.90209692185E+02 -0.74628657727E+03  0.12921307612E+04  0.10047922862E+04 0.  0.
   -9000010    2    1    2    0  502  0.30807940798E+03 -0.90209692185E+02  0.25746973355E+04  0.27813662497E+04  0.10019386882E+04 0.  0.
        -13    1    3    3    0    0  0.17807186072E+03  0.40553001278E+03 -0.48403986917E+03  0.65609357942E+03  0.10566000000E+00 0.  1.
          4    1    3    3  501    0 -0.48615126870E+03 -0.31532032060E+03 -0.26224670810E+03  0.63603718174E+03  0.00000000000E+00 0.  1.
         13    1    4    4    0    0  0.43729419828E+03  0.27189436778E+03  0.70779546551E+03  0.87528692167E+03  0.10566000000E+00 0. -1.
         -4    1    4    4    0  502 -0.12921479030E+03 -0.36210405996E+03  0.18669018700E+04  0.19060793280E+04  0.00000000000E+00 0. -1.
<mgrwt>
<rscale>  2 0.10541460E+04</rscale>
<asrwt>0</asrwt>
<pdfrwt beam="1">  1       21 0.45399290E+00 0.10548262E+04</pdfrwt>
<pdfrwt beam="2">  1       21 0.17269894E+00 0.10548262E+04</pdfrwt>
<totfact> 0.17880385E-01</totfact>
</mgrwt>
</event>
<event>
 8    1  0.7631533E-006  0.1272790E+04  0.7818608E-02  0.8563090E-01
         21   -1    0    0  501  502  0.00000000000E+00  0.00000000000E+00  0.13821518566E+04  0.13821518566E+04  0.00000000000E+00 0. -1.
         21   -1    0    0  502  503 -0.00000000000E+00 -0.00000000000E+00 -0.15736082346E+04  0.15736082346E+04  0.00000000000E+00 0. -1.
    9000010    2    1    2  501    0 -0.77341005327E+03 -0.62362622970E+02  0.69536434268E+03  0.14044879090E+04  0.94180810695E+03 0.  0.
   -9000010    2    1    2    0  503  0.77341005327E+03  0.62362622970E+02 -0.88682072072E+03  0.15512721822E+04  0.10089312094E+04 0.  0.
        -13    1    3    3    0    0  0.13992240786E+03 -0.25078055959E+03  0.14633155587E+03  0.32230746919E+03  0.10566000000E+00 0.  1.
          4    1    3    3  501    0 -0.91333246113E+03  0.18841793662E+03  0.54903278681E+03  0.10821804398E+04  0.00000000000E+00 0.  1.
         13    1    4    4    0    0  0.28149710616E+03 -0.46204123124E+03 -0.49042160035E+03  0.73023015371E+03  0.10566000000E+00 0. -1.
         -4    1    4    4    0  503  0.49191294711E+03  0.52440385421E+03 -0.39639912037E+03  0.82104202844E+03  0.00000000000E+00 0. -1.
<mgrwt>
<rscale>  2 0.12594514E+04</rscale>
<asrwt>0</asrwt>
<pdfrwt beam="1">  1       21 0.21263875E+00 0.12727900E+04</pdfrwt>
<pdfrwt beam="2">  1       21 0.24209357E+00 0.12727900E+04</pdfrwt>
<totfact> 0.25345415E+00</totfact>
</mgrwt>
</event>
<event>
 8    1  0.7631533E-006  0.9951750E+03  0.7818608E-02  0.8782351E-01
         21   -1    0    0  501  502  0.00000000000E+00  0.00000000000E+00  0.12919955814E+04  0.12919955814E+04  0.00000000000E+00 0. -1.
         21   -1    0    0  502  503 -0.00000000000E+00 -0.00000000000E+00 -0.75717920458E+03  0.75717920458E+03  0.00000000000E+00 0. -1.
    9000010    2    1    2  501    0  0.56103179635E+02  0.88385975462E+02  0.30642140808E+03  0.10412815529E+04  0.98965324519E+03 0.  0.
   -9000010    2    1    2    0  503 -0.56103179635E+02 -0.88385975462E+02  0.22839496873E+03  0.10078932330E+04  0.97607625729E+03 0.  0.
        -13    1    3    3    0    0  0.13809418094E+03  0.51381692623E+03  0.29392803475E+03  0.60784170411E+03  0.10566000000E+00 0.  1.
          4    1    3    3  501    0 -0.81991001300E+02 -0.42543095077E+03  0.12493373336E+02  0.43343984882E+03  0.00000000000E+00 0.  1.
         13    1    4    4    0    0  0.30028064522E+03 -0.34389983571E+03  0.32304333213E+03  0.55927861437E+03  0.10566000000E+00 0. -1.
         -4    1    4    4    0  503 -0.35638382485E+03  0.25551386024E+03 -0.94648363407E+02  0.44861461868E+03  0.00000000000E+00 0. -1.
<mgrwt>
<rscale>  2 0.99178249E+03</rscale>
<asrwt>0</asrwt>
<pdfrwt beam="1">  1       21 0.19876855E+00 0.99517496E+03</pdfrwt>
<pdfrwt beam="2">  1       21 0.11648911E+00 0.99517496E+03</pdfrwt>
<totfact> 0.39000911E+01</totfact>
</mgrwt>
</event>
<event>
 8    1  0.7631533E-006  0.1032041E+04  0.7818608E-02  0.8745216E-01
         21   -1    0    0  503  502  0.00000000000E+00  0.00000000000E+00  0.13671789547E+04  0.13671789547E+04  0.00000000000E+00 0. -1.
         21   -1    0    0  501  503 -0.00000000000E+00 -0.00000000000E+00 -0.80335771216E+03  0.80335771216E+03  0.00000000000E+00 0. -1.
    9000010    2    1    2  501    0 -0.15408066495E+03  0.21499056322E+03  0.47282730090E+03  0.11351981966E+04  0.99757079727E+03 0.  0.
   -9000010    2    1    2    0  502  0.15408066495E+03 -0.21499056322E+03  0.90993941658E+02  0.10353384703E+04  0.99683702629E+03 0.  0.
        -13    1    3    3    0    0 -0.33572837814E+03 -0.30847451329E+03  0.98293578295E+02  0.46640294589E+03  0.10566000000E+00 0.  1.
          4    1    3    3  501    0  0.18164771320E+03  0.52346507651E+03  0.37453372261E+03  0.66879525074E+03  0.00000000000E+00 0.  1.
         13    1    4    4    0    0 -0.23592536590E+03 -0.47551452752E+03 -0.78575675784E+02  0.53660878873E+03  0.10566000000E+00 0. -1.
         -4    1    4    4    0  502  0.39000603085E+03  0.26052396430E+03  0.16956961744E+03  0.49872968152E+03  0.00000000000E+00 0. -1.
<mgrwt>
<rscale>  2 0.10318640E+04</rscale>
<asrwt>0</asrwt>
<pdfrwt beam="1">  1       21 0.21033522E+00 0.10320413E+04</pdfrwt>
<pdfrwt beam="2">  1       21 0.12359349E+00 0.10320413E+04</pdfrwt>
<totfact> 0.26680222E+01</totfact>
</mgrwt>
</event>
<event>
 8    1  0.7631533E-006  0.1030192E+04  0.7818608E-02  0.8748955E-01
         21   -1    0    0  501  502  0.00000000000E+00  0.00000000000E+00  0.53274149452E+03  0.53274149452E+03  0.00000000000E+00 0.  1.
         21   -1    0    0  502  503 -0.00000000000E+00 -0.00000000000E+00 -0.20896803000E+04  0.20896803000E+04  0.00000000000E+00 0.  1.
    9000010    2    1    2  501    0  0.22750427519E+03 -0.35284466789E+02 -0.10844089774E+04  0.14890286573E+04  0.99411283216E+03 0.  0.
   -9000010    2    1    2    0  503 -0.22750427519E+03  0.35284466789E+02 -0.47252982809E+03  0.11333931373E+04  0.10041376282E+04 0.  0.
        -13    1    3    3    0    0 -0.10928219944E+03 -0.54634503993E+02 -0.11405256424E+04  0.11470511236E+04  0.10566000000E+00 0.  1.
          4    1    3    3  501    0  0.33678647463E+03  0.19350037204E+02  0.56116664967E+02  0.34197753365E+03  0.00000000000E+00 0.  1.
         13    1    4    4    0    0 -0.16976966474E+03 -0.46354143365E+03 -0.37956260407E+03  0.62270392752E+03  0.10566000000E+00 0. -1.
         -4    1    4    4    0  503 -0.57734610451E+02  0.49882590044E+03 -0.92967224026E+02  0.51068920973E+03  0.00000000000E+00 0. -1.
<mgrwt>
<rscale>  2 0.10277411E+04</rscale>
<asrwt>0</asrwt>
<pdfrwt beam="1">  1       21 0.81960230E-01 0.10301920E+04</pdfrwt>
<pdfrwt beam="2">  1       21 0.32148928E+00 0.10301920E+04</pdfrwt>
<totfact> 0.12384936E+01</totfact>
</mgrwt>
</event>
<event>
 8    1  0.7631533E-006  0.1028163E+04  0.7818608E-02  0.8760147E-01
         21   -1    0    0  503  502  0.00000000000E+00  0.00000000000E+00  0.10881659161E+04  0.10881659161E+04  0.00000000000E+00 0.  1.
         21   -1    0    0  501  503 -0.00000000000E+00 -0.00000000000E+00 -0.10104397139E+04  0.10104397139E+04  0.00000000000E+00 0.  1.
    9000010    2    1    2  501    0  0.18310838572E+03 -0.17236789473E+03 -0.26508822674E+03  0.10617866871E+04  0.99693521798E+03 0.  0.
   -9000010    2    1    2    0  502 -0.18310838572E+03  0.17236789473E+03  0.34281442894E+03  0.10368189430E+04  0.94563862857E+03 0.  0.
        -13    1    3    3    0    0  0.35161295897E+03 -0.38079392897E+03 -0.48897871708E+03  0.71255588285E+03  0.10566000000E+00 0.  1.
          4    1    3    3  501    0 -0.16850457326E+03  0.20842603424E+03  0.22389049034E+03  0.34923080423E+03  0.00000000000E+00 0.  1.
         13    1    4    4    0    0  0.35022371198E+03 -0.74716976144E+02  0.34986801424E+01  0.35812222339E+03  0.10566000000E+00 0. -1.
         -4    1    4    4    0  502 -0.53333209770E+03  0.24708487087E+03  0.33931574880E+03  0.67869671962E+03  0.00000000000E+00 0. -1.
<mgrwt>
<rscale>  2 0.10155171E+04</rscale>
<asrwt>0</asrwt>
<pdfrwt beam="1">  1       21 0.16741014E+00 0.10281630E+04</pdfrwt>
<pdfrwt beam="2">  1       21 0.15545226E+00 0.10281630E+04</pdfrwt>
<totfact> 0.29801729E+01</totfact>
</mgrwt>
</event>
<event>
 8    1  0.7631533E-006  0.1007855E+04  0.7818608E-02  0.8783630E-01
         21   -1    0    0  501  502  0.00000000000E+00  0.00000000000E+00  0.11193665808E+04  0.11193665808E+04  0.00000000000E+00 0.  1.
         21   -1    0    0  502  503 -0.00000000000E+00 -0.00000000000E+00 -0.87518002582E+03  0.87518002582E+03  0.00000000000E+00 0.  1.
    9000010    2    1    2  501    0  0.61745816377E+01  0.90444687927E+02  0.30393855421E+03  0.10526873056E+04  0.10037696706E+04 0.  0.
   -9000010    2    1    2    0  503 -0.61745816377E+01 -0.90444687927E+02 -0.59751999192E+02  0.94185930102E+03  0.93558018068E+03 0.  0.
        -13    1    3    3    0    0  0.36263002893E+03  0.28554079645E+03  0.42630728439E+03  0.62830883824E+03  0.10566000000E+00 0.  1.
          4    1    3    3  501    0 -0.35645544729E+03 -0.19509610852E+03 -0.12236873018E+03  0.42437846740E+03  0.00000000000E+00 0.  1.
         13    1    4    4    0    0  0.66902666139E+02  0.36905678711E+02  0.42682592612E+03  0.43361086037E+03  0.10566000000E+00 0. -1.
         -4    1    4    4    0  503 -0.73077247777E+02 -0.12735036664E+03 -0.48657792531E+03  0.50824844065E+03  0.00000000000E+00 0. -1.
<mgrwt>
<rscale>  2 0.99043540E+03</rscale>
<asrwt>0</asrwt>
<pdfrwt beam="1">  1       21 0.17221024E+00 0.10078551E+04</pdfrwt>
<pdfrwt beam="2">  1       21 0.13464308E+00 0.10078551E+04</pdfrwt>
<totfact> 0.42171520E+01</totfact>
</mgrwt>
</event>
<event>
 8    1  0.7631533E-006  0.1073455E+04  0.7818608E-02  0.8723493E-01
         21   -1    0    0  503  502  0.00000000000E+00  0.00000000000E+00  0.87059674370E+03  0.87059674370E+03  0.00000000000E+00 0.  1.
         21   -1    0    0  501  503 -0.00000000000E+00 -0.00000000000E+00 -0.15161629411E+04  0.15161629411E+04  0.00000000000E+00 0.  1.
    9000010    2    1    2  501    0  0.78507230351E+01 -0.24535257261E+03 -0.83870581247E+03  0.13622531174E+04  0.10450103336E+04 0.  0.
   -9000010    2    1    2    0  502 -0.78507230351E+01  0.24535257261E+03  0.19313961511E+03  0.10245065673E+04  0.97573114989E+03 0.  0.
        -13    1    3    3    0    0  0.28734855367E+03  0.24547399204E+03 -0.67598129091E+03  0.77445296105E+03  0.10566000000E+00 0.  1.
          4    1    3    3  501    0 -0.27949783063E+03 -0.49082656465E+03 -0.16272452156E+03  0.58780015636E+03  0.00000000000E+00 0.  1.
         13    1    4    4    0    0  0.14053114976E+03 -0.29416149414E+03 -0.15968061467E+03  0.36301225675E+03  0.10566000000E+00 0. -1.
         -4    1    4    4    0  502 -0.14838187279E+03  0.53951406676E+03  0.35282022978E+03  0.66149431059E+03  0.00000000000E+00 0. -1.
<mgrwt>
<rscale>  2 0.10562146E+04</rscale>
<asrwt>0</asrwt>
<pdfrwt beam="1">  1       21 0.13393796E+00 0.10734552E+04</pdfrwt>
<pdfrwt beam="2">  1       21 0.23325584E+00 0.10734552E+04</pdfrwt>
<totfact> 0.14103049E+01</totfact>
</mgrwt>
</event>
<event>
 8    1  0.7631533E-006  0.1004417E+04  0.7818608E-02  0.8779478E-01
         21   -1    0    0  501  502  0.00000000000E+00  0.00000000000E+00  0.47742555217E+03  0.47742555217E+03  0.00000000000E+00 0. -1.
         21   -1    0    0  502  503 -0.00000000000E+00 -0.00000000000E+00 -0.21727571965E+04  0.21727571965E+04  0.00000000000E+00 0. -1.
    9000010    2    1    2  501    0  0.27537369842E+02 -0.75144596106E+02 -0.52836128551E+03  0.11349089917E+04  0.10012231292E+04 0.  0.
   -9000010    2    1    2    0  503 -0.27537369842E+02  0.75144596106E+02 -0.11669703588E+04  0.15152737569E+04  0.96323918267E+03 0.  0.
        -13    1    3    3    0    0 -0.31007542871E+03  0.29317020462E+03 -0.46523389585E+03  0.63129876396E+03  0.10566000000E+00 0.  1.
          4    1    3    3  501    0  0.33761279856E+03 -0.36831480072E+03 -0.63127389659E+02  0.50361022776E+03  0.00000000000E+00 0.  1.
         13    1    4    4    0    0  0.24950906866E+03  0.43164491826E+03 -0.47221678953E+03  0.68670286026E+03  0.10566000000E+00 0. -1.
         -4    1    4    4    0  503 -0.27704643850E+03 -0.35650032216E+03 -0.69475356926E+03  0.82857089666E+03  0.00000000000E+00 0. -1.
<mgrwt>
<rscale>  2 0.99481523E+03</rscale>
<asrwt>0</asrwt>
<pdfrwt beam="1">  1       21 0.73450084E-01 0.10044166E+04</pdfrwt>
<pdfrwt beam="2">  1       21 0.33427034E+00 0.10044166E+04</pdfrwt>
<totfact> 0.13209897E+01</totfact>
</mgrwt>
</event>
<event>
 8    1  0.7631533E-006  0.1149255E+04  0.7818608E-02  0.8661712E-01
         21   -1    0    0  501  502  0.00000000000E+00  0.00000000000E+00  0.48903628138E+03  0.48903628138E+03  0.00000000000E+00 0. -1.
         21   -1    0    0  502  503 -0.00000000000E+00 -0.00000000000E+00 -0.29360488115E+04  0.29360488115E+04  0.00000000000E+00 0. -1.
    9000010    2    1    2  501    0 -0.45591238227E+03  0.32933461990E+03 -0.54409996204E+03  0.12020549573E+04  0.91245490826E+03 0.  0.
   -9000010    2    1    2    0  503  0.45591238227E+03 -0.32933461990E+03 -0.19029125680E+04  0.22230301355E+04  0.10022321835E+04 0.  0.
        -13    1    3    3    0    0  0.15989884234E+03 -0.58255646612E+02  0.12688164953E+03  0.21227417246E+03  0.10566000000E+00 0.  1.
          4    1    3    3  501    0 -0.61581122461E+03  0.38759026651E+03 -0.67098161157E+03  0.98978078488E+03  0.00000000000E+00 0.  1.
         13    1    4    4    0    0  0.43409169837E+02 -0.34909745089E+03 -0.17462589003E+04  0.17813403786E+04  0.10566000000E+00 0. -1.
         -4    1    4    4    0  503  0.41250321243E+03  0.19762830996E+02 -0.15665366772E+03  0.44168975692E+03  0.00000000000E+00 0. -1.
<mgrwt>
<rscale>  2 0.11293983E+04</rscale>
<asrwt>0</asrwt>
<pdfrwt beam="1">  1       21 0.75236351E-01 0.11492549E+04</pdfrwt>
<pdfrwt beam="2">  1       21 0.45169982E+00 0.11492549E+04</pdfrwt>
<totfact> 0.18380796E+00</totfact>
</mgrwt>
</event>
<event>
 8    1  0.7631533E-006  0.1084538E+04  0.7818608E-02  0.8700304E-01
         21   -1    0    0  503  502  0.00000000000E+00  0.00000000000E+00  0.10439384358E+04  0.10439384358E+04  0.00000000000E+00 0.  1.
         21   -1    0    0  501  503 -0.00000000000E+00 -0.00000000000E+00 -0.12832930514E+04  0.12832930514E+04  0.00000000000E+00 0.  1.
    9000010    2    1    2  501    0 -0.67160413681E+02 -0.39335564474E+03 -0.53468814990E+03  0.12091793247E+04  0.10084562644E+04 0.  0.
   -9000010    2    1    2    0  502  0.67160413681E+02  0.39335564474E+03  0.29533353431E+03  0.11180521624E+04  0.10017881797E+04 0.  0.
        -13    1    3    3    0    0  0.33832910719E+03 -0.37008662670E+03 -0.61669863171E+03  0.79482571017E+03  0.10566000000E+00 0.  1.
          4    1    3    3  501    0 -0.40548952087E+03 -0.23269018039E+02  0.82010481805E+02  0.41435361452E+03  0.00000000000E+00 0.  1.
         13    1    4    4    0    0 -0.23630769197E+03  0.26648357009E+03 -0.28153368747E+03  0.45400005150E+03  0.10566000000E+00 0. -1.
         -4    1    4    4    0  502  0.30346810566E+03  0.12687207465E+03  0.57686722178E+03  0.66405211094E+03  0.00000000000E+00 0. -1.
<mgrwt>
<rscale>  2 0.10829855E+04</rscale>
<asrwt>0</asrwt>
<pdfrwt beam="1">  1       21 0.16060591E+00 0.10845383E+04</pdfrwt>
<pdfrwt beam="2">  1       21 0.19742970E+00 0.10845383E+04</pdfrwt>
<totfact> 0.15136331E+01</totfact>
</mgrwt>
</event>
<event>
 8    1  0.7631533E-006  0.1012927E+04  0.7818608E-02  0.8768273E-01
         21   -1    0    0  503  502  0.00000000000E+00  0.00000000000E+00  0.66491594446E+03  0.66491594446E+03  0.00000000000E+00 0.  1.
         21   -1    0    0  501  503 -0.00000000000E+00 -0.00000000000E+00 -0.16070334177E+04  0.16070334177E+04  0.00000000000E+00 0.  1.
    9000010    2    1    2  501    0 -0.87421820983E+02 -0.78815397845E+02 -0.75044053321E+03  0.12410460143E+04  0.98141722732E+03 0.  0.
   -9000010    2    1    2    0  502  0.87421820983E+02  0.78815397845E+02 -0.19167693999E+03  0.10309033478E+04  0.10060652173E+04 0.  0.
        -13    1    3    3    0    0 -0.28662469737E+03  0.32943517389E+03 -0.10048752582E+03  0.44808370306E+03  0.10566000000E+00 0.  1.
          4    1    3    3  501    0  0.19920287638E+03 -0.40825057174E+03 -0.64995300739E+03  0.79296231127E+03  0.00000000000E+00 0.  1.
         13    1    4    4    0    0  0.20760319588E+03  0.33217752397E+03 -0.48611310400E+03  0.62429716916E+03  0.10566000000E+00 0. -1.
         -4    1    4    4    0  502 -0.12018137489E+03 -0.25336212612E+03  0.29443616401E+03  0.40660617863E+03  0.00000000000E+00 0. -1.
<mgrwt>
<rscale>  2 0.10067518E+04</rscale>
<asrwt>0</asrwt>
<pdfrwt beam="1">  1       21 0.10229476E+00 0.10129273E+04</pdfrwt>
<pdfrwt beam="2">  1       21 0.24723591E+00 0.10129273E+04</pdfrwt>
<totfact> 0.23841973E+01</totfact>
</mgrwt>
</event>
<event>
 8    1  0.7631533E-006  0.1091615E+04  0.7818608E-02  0.8700857E-01
         21   -1    0    0  503  502  0.00000000000E+00  0.00000000000E+00  0.98298440178E+03  0.98298440178E+03  0.00000000000E+00 0. -1.
         21   -1    0    0  501  503 -0.00000000000E+00 -0.00000000000E+00 -0.12821560542E+04  0.12821560542E+04  0.00000000000E+00 0. -1.
    9000010    2    1    2  501    0  0.23503112601E+03 -0.34120152571E+03 -0.47932122926E+03  0.11587605681E+04  0.97021600795E+03 0.  0.
   -9000010    2    1    2    0  502 -0.23503112601E+03  0.34120152571E+03  0.18014957689E+03  0.11063798878E+04  0.10099329061E+04 0.  0.
        -13    1    3    3    0    0  0.29374600467E+03 -0.62235185298E+03 -0.11970577823E+03  0.69852561061E+03  0.10566000000E+00 0.  1.
          4    1    3    3  501    0 -0.58714878666E+02  0.28115032727E+03 -0.35961545103E+03  0.46023495752E+03  0.00000000000E+00 0.  1.
         13    1    4    4    0    0 -0.15617724548E+03  0.46255704356E+03  0.53432454477E+03  0.72377695518E+03  0.10566000000E+00 0. -1.
         -4    1    4    4    0  502 -0.78853880532E+02 -0.12135551785E+03 -0.35417496788E+03  0.38260293263E+03  0.00000000000E+00 0. -1.
<mgrwt>
<rscale>  2 0.10823378E+04</rscale>
<asrwt>0</asrwt>
<pdfrwt beam="1">  1       21 0.15122837E+00 0.10916147E+04</pdfrwt>
<pdfrwt beam="2">  1       21 0.19725478E+00 0.10916147E+04</pdfrwt>
<totfact> 0.18312792E+01</totfact>
</mgrwt>
</event>
<event>
 8    1  0.7631533E-006  0.1021299E+04  0.7818608E-02  0.8758722E-01
         21   -1    0    0  503  502  0.00000000000E+00  0.00000000000E+00  0.84142655221E+03  0.84142655221E+03  0.00000000000E+00 0. -1.
         21   -1    0    0  501  503 -0.00000000000E+00 -0.00000000000E+00 -0.12319480154E+04  0.12319480154E+04  0.00000000000E+00 0. -1.
    9000010    2    1    2  501    0 -0.15670825859E+03 -0.63806371997E+02 -0.30202652422E+03  0.10650220592E+04  0.10071857990E+04 0.  0.
   -9000010    2    1    2    0  502  0.15670825859E+03  0.63806371997E+02 -0.88494938988E+02  0.10083525084E+04  0.99010842621E+03 0.  0.
        -13    1    3    3    0    0  0.53055209535E+02 -0.51116432978E+03 -0.23952851053E+03  0.56699007559E+03  0.10566000000E+00 0.  1.
          4    1    3    3  501    0 -0.20976346813E+03  0.44735795779E+03 -0.62498013687E+02  0.49803198358E+03  0.00000000000E+00 0.  1.
         13    1    4    4    0    0  0.81408595343E+02  0.52034272383E+03 -0.13389510889E+03  0.54342600323E+03  0.10566000000E+00 0. -1.
         -4    1    4    4    0  502  0.75299663250E+02 -0.45653635183E+03  0.45400169903E+02  0.46492650522E+03  0.00000000000E+00 0. -1.
<mgrwt>
<rscale>  2 0.10170635E+04</rscale>
<asrwt>0</asrwt>
<pdfrwt beam="1">  1       21 0.12945024E+00 0.10212992E+04</pdfrwt>
<pdfrwt beam="2">  1       21 0.18953046E+00 0.10212992E+04</pdfrwt>
<totfact> 0.34057301E+01</totfact>
</mgrwt>
</event>
<event>
 8    1  0.7631533E-006  0.1036708E+04  0.7818608E-02  0.8748372E-01
         21   -1    0    0  503  502  0.00000000000E+00  0.00000000000E+00  0.19609493873E+04  0.19609493873E+04  0.00000000000E+00 0.  1.
         21   -1    0    0  501  503 -0.00000000000E+00 -0.00000000000E+00 -0.74997129921E+03  0.74997129921E+03  0.00000000000E+00 0.  1.
    9000010    2    1    2  501    0 -0.22621544879E+02 -0.26037660273E+03 -0.12024245207E+03  0.10436580113E+04  0.10032228505E+04 0.  0.
   -9000010    2    1    2    0  502  0.22621544879E+02  0.26037660273E+03  0.13312205402E+04  0.16672626752E+04  0.96917954580E+03 0.  0.
        -13    1    3    3    0    0 -0.19714460259E+03  0.70649961062E+01  0.39267925109E+03  0.43944614448E+03  0.10566000000E+00 0.  1.
          4    1    3    3  501    0  0.17452305771E+03 -0.26744159883E+03 -0.51292170316E+03  0.60421186684E+03  0.00000000000E+00 0.  1.
         13    1    4    4    0    0 -0.18771909179E+02 -0.26556056425E+03  0.10212423490E+04  0.10553723250E+04  0.10566000000E+00 0. -1.
         -4    1    4    4    0  502  0.41393454058E+02  0.52593716697E+03  0.30997819118E+03  0.61189035018E+03  0.00000000000E+00 0. -1.
<mgrwt>
<rscale>  2 0.10283816E+04</rscale>
<asrwt>0</asrwt>
<pdfrwt beam="1">  1       21 0.30168452E+00 0.10367082E+04</pdfrwt>
<pdfrwt beam="2">  1       21 0.11538020E+00 0.10367082E+04</pdfrwt>
<totfact> 0.69889164E+00</totfact>
</mgrwt>
</event>
<event>
 8    1  0.7631533E-006  0.1005291E+04  0.7818608E-02  0.8790726E-01
         21   -1    0    0  501  502  0.00000000000E+00  0.00000000000E+00  0.15602483117E+04  0.15602483117E+04  0.00000000000E+00 0. -1.
         21   -1    0    0  502  503 -0.00000000000E+00 -0.00000000000E+00 -0.63586253372E+03  0.63586253372E+03  0.00000000000E+00 0. -1.
    9000010    2    1    2  501    0 -0.64241353888E+02 -0.12987763061E+03  0.76514375767E+03  0.12633504347E+04  0.99479354668E+03 0.  0.
   -9000010    2    1    2    0  503  0.64241353888E+02  0.12987763061E+03  0.15924202036E+03  0.93276041075E+03  0.90757303416E+03 0.  0.
        -13    1    3    3    0    0 -0.32857043437E+03 -0.45086519964E+03  0.59046524400E+03  0.81233439797E+03  0.10566000000E+00 0.  1.
          4    1    3    3  501    0  0.26432908048E+03  0.32098756903E+03  0.17467851367E+03  0.45101603674E+03  0.00000000000E+00 0.  1.
         13    1    4    4    0    0 -0.10067099423E+03 -0.99000680879E+02  0.48307413070E+03  0.50328561554E+03  0.10566000000E+00 0. -1.
         -4    1    4    4    0  503  0.16491234812E+03  0.22887831149E+03 -0.32383211034E+03  0.42947479521E+03  0.00000000000E+00 0. -1.
<mgrwt>
<rscale>  2 0.98300454E+03</rscale>
<asrwt>0</asrwt>
<pdfrwt beam="1">  1       21 0.24003820E+00 0.10052907E+04</pdfrwt>
<pdfrwt beam="2">  1       21 0.97825005E-01 0.10052907E+04</pdfrwt>
<totfact> 0.30308357E+01</totfact>
</mgrwt>
</event>
<event>
 8    1  0.7631533E-006  0.1149118E+04  0.7818608E-02  0.8651001E-01
         21   -1    0    0  501  502  0.00000000000E+00  0.00000000000E+00  0.16717098224E+04  0.16717098224E+04  0.00000000000E+00 0.  1.
         21   -1    0    0  502  503 -0.00000000000E+00 -0.00000000000E+00 -0.80760416081E+03  0.80760416081E+03  0.00000000000E+00 0.  1.
    9000010    2    1    2  501    0 -0.52305510136E+03 -0.20616300550E+03  0.17827642677E+03  0.11628648806E+04  0.10021888157E+04 0.  0.
   -9000010    2    1    2    0  503  0.52305510136E+03  0.20616300550E+03  0.68582923483E+03  0.13164491026E+04  0.97292686079E+03 0.  0.
        -13    1    3    3    0    0 -0.46292839162E+02  0.17757985408E+03 -0.32318136035E+03  0.37165015051E+03  0.10566000000E+00 0.  1.
          4    1    3    3  501    0 -0.47676226220E+03 -0.38374285958E+03  0.50145778712E+03  0.79121473014E+03  0.00000000000E+00 0.  1.
         13    1    4    4    0    0 -0.10350495573E+03  0.39614028297E+03  0.65737685821E+02  0.41468283561E+03  0.10566000000E+00 0. -1.
         -4    1    4    4    0  503  0.62656005709E+03 -0.18997727747E+03  0.62009154901E+03  0.90176626697E+03  0.00000000000E+00 0. -1.
<mgrwt>
<rscale>  2 0.11427073E+04</rscale>
<asrwt>0</asrwt>
<pdfrwt beam="1">  1       21 0.25718613E+00 0.11491180E+04</pdfrwt>
<pdfrwt beam="2">  1       21 0.12424679E+00 0.11491180E+04</pdfrwt>
<totfact> 0.11511151E+01</totfact>
</mgrwt>
</event>
<event>
 8    1  0.7631533E-006  0.1262489E+04  0.7818608E-02  0.8563610E-01
         21   -1    0    0  501  502  0.00000000000E+00  0.00000000000E+00  0.12928354787E+04  0.12928354787E+04  0.00000000000E+00 0. -1.
         21   -1    0    0  502  503 -0.00000000000E+00 -0.00000000000E+00 -0.15377373580E+04  0.15377373580E+04  0.00000000000E+00 0. -1.
    9000010    2    1    2  501    0 -0.49801119234E+03  0.58963485780E+03 -0.76813735030E+03  0.14778070217E+04  0.99909668758E+03 0.  0.
   -9000010    2    1    2    0  503  0.49801119234E+03 -0.58963485780E+03  0.52323547105E+03  0.13527658150E+04  0.98005896704E+03 0.  0.
        -13    1    3    3    0    0 -0.56802825622E+02  0.26228198045E+03  0.22013303514E+03  0.34709791499E+03  0.10566000000E+00 0.  1.
          4    1    3    3  501    0 -0.44120836672E+03  0.32735287735E+03 -0.98827038545E+03  0.11307091067E+04  0.00000000000E+00 0.  1.
         13    1    4    4    0    0  0.43457095012E+03 -0.83443626411E+03  0.56354485759E+03  0.10966852818E+04  0.10566000000E+00 0. -1.
         -4    1    4    4    0  503  0.63440242215E+02  0.24480140631E+03 -0.40309386540E+02  0.25608053325E+03  0.00000000000E+00 0. -1.
<mgrwt>
<rscale>  2 0.12587193E+04</rscale>
<asrwt>0</asrwt>
<pdfrwt beam="1">  1       21 0.19889777E+00 0.12624891E+04</pdfrwt>
<pdfrwt beam="2">  1       21 0.23657498E+00 0.12624891E+04</pdfrwt>
<totfact> 0.35636444E+00</totfact>
</mgrwt>
</event>
<event>
 8    1  0.7631533E-006  0.1041802E+04  0.7818608E-02  0.8739320E-01
         21   -1    0    0  503  502  0.00000000000E+00  0.00000000000E+00  0.84927722894E+03  0.84927722894E+03  0.00000000000E+00 0. -1.
         21   -1    0    0  501  503 -0.00000000000E+00 -0.00000000000E+00 -0.14697624422E+04  0.14697624422E+04  0.00000000000E+00 0. -1.
    9000010    2    1    2  501    0  0.22794042226E+03 -0.16856036578E+03 -0.74851207596E+03  0.12828181132E+04  0.10024881798E+04 0.  0.
   -9000010    2    1    2    0  502 -0.22794042226E+03  0.16856036578E+03  0.12802686273E+03  0.10362215579E+04  0.98843047631E+03 0.  0.
        -13    1    3    3    0    0  0.50997786001E+03 -0.15230710211E+03 -0.56334006326E+02  0.53520874664E+03  0.10566000000E+00 0.  1.
          4    1    3    3  501    0 -0.28203743775E+03 -0.16253263671E+02 -0.69217806963E+03  0.74760936655E+03  0.00000000000E+00 0.  1.
         13    1    4    4    0    0 -0.14520487182E+03 -0.35247592879E+03  0.29591667452E+03  0.48258721968E+03  0.10566000000E+00 0. -1.
         -4    1    4    4    0  502 -0.82735550448E+02  0.52103629457E+03 -0.16788981179E+03  0.55363433823E+03  0.00000000000E+00 0. -1.
<mgrwt>
<rscale>  2 0.10384057E+04</rscale>
<asrwt>0</asrwt>
<pdfrwt beam="1">  1       21 0.13065804E+00 0.10418023E+04</pdfrwt>
<pdfrwt beam="2">  1       21 0.22611730E+00 0.10418023E+04</pdfrwt>
<totfact> 0.17252161E+01</totfact>
</mgrwt>
</event>
<event>
 8    1  0.7631533E-006  0.1014240E+04  0.7818608E-02  0.8769723E-01
         21   -1    0    0  501  502  0.00000000000E+00  0.00000000000E+00  0.11772356325E+04  0.11772356325E+04  0.00000000000E+00 0. -1.
         21   -1    0    0  502  503 -0.00000000000E+00 -0.00000000000E+00 -0.89758762135E+03  0.89758762135E+03  0.00000000000E+00 0. -1.
    9000010    2    1    2  501    0 -0.57365801185E+02  0.22339585263E+03  0.39718142228E+03  0.10892362521E+04  0.98766694214E+03 0.  0.
   -9000010    2    1    2    0  503  0.57365801185E+02 -0.22339585263E+03 -0.11753341114E+03  0.98558700172E+03  0.95098427596E+03 0.  0.
        -13    1    3    3    0    0  0.15856142551E+02  0.41570614697E+03  0.64475116577E+03  0.76731160216E+03  0.10566000000E+00 0.  1.
          4    1    3    3  501    0 -0.73221943736E+02 -0.19231029434E+03 -0.24756974349E+03  0.32192464995E+03  0.00000000000E+00 0.  1.
         13    1    4    4    0    0  0.19492597376E+03  0.28383548021E+03 -0.27089682602E+03  0.43811393105E+03  0.10566000000E+00 0. -1.
         -4    1    4    4    0  503 -0.13756017258E+03 -0.50723133284E+03  0.15336341488E+03  0.54747307067E+03  0.00000000000E+00 0. -1.
<mgrwt>
<rscale>  2 0.10051982E+04</rscale>
<asrwt>0</asrwt>
<pdfrwt beam="1">  1       21 0.18111318E+00 0.10142399E+04</pdfrwt>
<pdfrwt beam="2">  1       21 0.13809040E+00 0.10142399E+04</pdfrwt>
<totfact> 0.33016499E+01</totfact>
</mgrwt>
</event>
<event>
 8    1  0.7631533E-006  0.1154834E+04  0.7818608E-02  0.8641559E-01
         21   -1    0    0  503  502  0.00000000000E+00  0.00000000000E+00  0.23680743876E+04  0.23680743876E+04  0.00000000000E+00 0.  1.
         21   -1    0    0  501  503 -0.00000000000E+00 -0.00000000000E+00 -0.69482697610E+03  0.69482697610E+03  0.00000000000E+00 0.  1.
    9000010    2    1    2  501    0  0.41433696889E+02  0.56173745175E+03  0.16856160984E+03  0.11661356276E+04  0.10070717798E+04 0.  0.
   -9000010    2    1    2    0  502 -0.41433696889E+02 -0.56173745175E+03  0.15046858016E+04  0.18967657361E+04  0.10081543434E+04 0.  0.
        -13    1    3    3    0    0 -0.27380655191E+03 -0.70834606283E+02 -0.22117125527E+03  0.35903245624E+03  0.10566000000E+00 0.  1.
          4    1    3    3  501    0  0.31524024880E+03  0.63257205803E+03  0.38973286511E+03  0.80710317135E+03  0.00000000000E+00 0.  1.
         13    1    4    4    0    0 -0.42767959112E+03 -0.62328183461E+03  0.10928680053E+04  0.13288154748E+04  0.10566000000E+00 0. -1.
         -4    1    4    4    0  502  0.38624589423E+03  0.61544382863E+02  0.41181779637E+03  0.56795026127E+03  0.00000000000E+00 0. -1.
<mgrwt>
<rscale>  2 0.11545974E+04</rscale>
<asrwt>0</asrwt>
<pdfrwt beam="1">  1       21 0.36431913E+00 0.11548337E+04</pdfrwt>
<pdfrwt beam="2">  1       21 0.10689646E+00 0.11548337E+04</pdfrwt>
<totfact> 0.30411267E+00</totfact>
</mgrwt>
</event>
<event>
 8    1  0.7631533E-006  0.1037398E+04  0.7818608E-02  0.8745326E-01
         21   -1    0    0  503  502  0.00000000000E+00  0.00000000000E+00  0.44593552308E+03  0.44593552308E+03  0.00000000000E+00 0.  1.
         21   -1    0    0  501  503 -0.00000000000E+00 -0.00000000000E+00 -0.34955030022E+04  0.34955030022E+04  0.00000000000E+00 0.  1.
    9000010    2    1    2  501    0 -0.12000168908E+02 -0.24498514740E+03 -0.26359920272E+04  0.28246400588E+04  0.98487347834E+03 0.  0.
   -9000010    2    1    2    0  502  0.12000168908E+02  0.24498514740E+03 -0.41357545198E+03  0.11167984664E+04  0.10079843420E+04 0.  0.
        -13    1    3    3    0    0  0.27052387548E+03 -0.49736804799E+03 -0.10381573918E+04  0.11825095872E+04  0.10566000000E+00 0.  1.
          4    1    3    3  501    0 -0.28252404439E+03  0.25238290059E+03 -0.15978346353E+04  0.16421304717E+04  0.00000000000E+00 0.  1.
         13    1    4    4    0    0  0.56489416083E+01  0.61122716755E+03 -0.43443242269E+03  0.74990806232E+03  0.10566000000E+00 0. -1.
         -4    1    4    4    0  502  0.63512272999E+01 -0.36624202015E+03  0.20856970707E+02  0.36689040412E+03  0.00000000000E+00 0. -1.
<mgrwt>
<rscale>  2 0.10317415E+04</rscale>
<asrwt>0</asrwt>
<pdfrwt beam="1">  1       21 0.68605466E-01 0.10373978E+04</pdfrwt>
<pdfrwt beam="2">  1       21 0.53776969E+00 0.10373978E+04</pdfrwt>
<totfact> 0.58540003E-01</totfact>
</mgrwt>
</event>
<event>
 8    1  0.7631533E-006  0.1065872E+04  0.7818608E-02  0.8719629E-01
         21   -1    0    0  501  502  0.00000000000E+00  0.00000000000E+00  0.15057071264E+04  0.15057071264E+04  0.00000000000E+00 0. -1.
         21   -1    0    0  502  503 -0.00000000000E+00 -0.00000000000E+00 -0.10635333103E+04  0.10635333103E+04  0.00000000000E+00 0. -1.
    9000010    2    1    2  501    0 -0.21783987414E+03  0.21952553707E+03  0.92826294035E+03  0.13977604649E+04  0.99820667126E+03 0.  0.
   -9000010    2    1    2    0  503  0.21783987414E+03 -0.21952553707E+03 -0.48608912425E+03  0.11714799718E+04  0.10200181447E+04 0.  0.
        -13    1    3    3    0    0 -0.29341807952E+03  0.10998415647E+03  0.11207582059E+04  0.11637395118E+04  0.10566000000E+00 0.  1.
          4    1    3    3  501    0  0.75578205386E+02  0.10954138060E+03 -0.19249526558E+03  0.23402095305E+03  0.00000000000E+00 0.  1.
         13    1    4    4    0    0 -0.12224388030E+03 -0.42969224112E+03 -0.60712400133E+03  0.75377619524E+03  0.10566000000E+00 0. -1.
         -4    1    4    4    0  503  0.34008375444E+03  0.21016670405E+03  0.12103487708E+03  0.41770377661E+03  0.00000000000E+00 0. -1.
<mgrwt>
<rscale>  2 0.10606196E+04</rscale>
<asrwt>0</asrwt>
<pdfrwt beam="1">  1       21 0.23164725E+00 0.10658718E+04</pdfrwt>
<pdfrwt beam="2">  1       21 0.16362051E+00 0.10658718E+04</pdfrwt>
<totfact> 0.78605705E+00</totfact>
</mgrwt>
</event>
<event>
 8    1  0.7631533E-006  0.1058383E+04  0.7818608E-02  0.8727776E-01
         21   -1    0    0  501  502  0.00000000000E+00  0.00000000000E+00  0.12182146643E+04  0.12182146643E+04  0.00000000000E+00 0.  1.
         21   -1    0    0  502  503 -0.00000000000E+00 -0.00000000000E+00 -0.89998166713E+03  0.89998166713E+03  0.00000000000E+00 0.  1.
    9000010    2    1    2  501    0  0.74874844144E+02 -0.40828437169E+02  0.23583754221E+03  0.10843400273E+04  0.10549411097E+04 0.  0.
   -9000010    2    1    2    0  503 -0.74874844144E+02  0.40828437169E+02  0.82395454957E+02  0.10338563042E+04  0.10270329318E+04 0.  0.
        -13    1    3    3    0    0 -0.27820475859E+03  0.91700634654E+02 -0.30636838360E+03  0.42387320242E+03  0.10566000000E+00 0.  1.
          4    1    3    3  501    0  0.35307960273E+03 -0.13252907182E+03  0.54220592582E+03  0.66046682486E+03  0.00000000000E+00 0.  1.
         13    1    4    4    0    0  0.46139433233E+03 -0.82027871063E+02  0.11565522512E+03  0.48268980080E+03  0.10566000000E+00 0. -1.
         -4    1    4    4    0  503 -0.53626917647E+03  0.12285630823E+03 -0.33259770164E+02  0.55116650335E+03  0.00000000000E+00 0. -1.
<mgrwt>
<rscale>  2 0.10513594E+04</rscale>
<asrwt>0</asrwt>
<pdfrwt beam="1">  1       21 0.18741764E+00 0.10583827E+04</pdfrwt>
<pdfrwt beam="2">  1       21 0.13845872E+00 0.10583827E+04</pdfrwt>
<totfact> 0.28845124E+01</totfact>
</mgrwt>
</event>
<event>
 8    1  0.7631533E-006  0.1162533E+04  0.7818608E-02  0.8638427E-01
         21   -1    0    0  503  502  0.00000000000E+00  0.00000000000E+00  0.12551201092E+04  0.12551201092E+04  0.00000000000E+00 0. -1.
         21   -1    0    0  501  503 -0.00000000000E+00 -0.00000000000E+00 -0.12814061032E+04  0.12814061032E+04  0.00000000000E+00 0. -1.
    9000010    2    1    2  501    0 -0.58476403218E+03  0.16793382824E+03  0.51143758377E+03  0.12556560115E+04  0.97208686500E+03 0.  0.
   -9000010    2    1    2    0  502  0.58476403218E+03 -0.16793382824E+03 -0.53772357779E+03  0.12808702009E+04  0.99062156317E+03 0.  0.
        -13    1    3    3    0    0 -0.73567089842E+03  0.33163012780E+03  0.13481536278E+03  0.81814754516E+03  0.10566000000E+00 0.  1.
          4    1    3    3  501    0  0.15090686624E+03 -0.16369629956E+03  0.37662222100E+03  0.43750846634E+03  0.00000000000E+00 0.  1.
         13    1    4    4    0    0  0.77347847070E+03 -0.24185045217E+03 -0.65913351273E+03  0.10446136054E+04  0.10566000000E+00 0. -1.
         -4    1    4    4    0  502 -0.18871443852E+03  0.73916623933E+02  0.12140993494E+03  0.23625659547E+03  0.00000000000E+00 0. -1.
<mgrwt>
<rscale>  2 0.11585741E+04</rscale>
<asrwt>0</asrwt>
<pdfrwt beam="1">  1       21 0.19309540E+00 0.11625325E+04</pdfrwt>
<pdfrwt beam="2">  1       21 0.19713940E+00 0.11625325E+04</pdfrwt>
<totfact> 0.80678679E+00</totfact>
</mgrwt>
</event>
<event>
 8    1  0.7631533E-006  0.1088444E+04  0.7818608E-02  0.8699492E-01
         21   -1    0    0  501  502  0.00000000000E+00  0.00000000000E+00  0.73666967436E+03  0.73666967436E+03  0.00000000000E+00 0.  1.
         21   -1    0    0  502  503 -0.00000000000E+00 -0.00000000000E+00 -0.18744205511E+04  0.18744205511E+04  0.00000000000E+00 0.  1.
    9000010    2    1    2  501    0  0.38844230837E+03  0.18775436142E+03 -0.57075698415E+02  0.10899399305E+04  0.99928588979E+03 0.  0.
   -9000010    2    1    2    0  503 -0.38844230837E+03 -0.18775436142E+03 -0.10806751783E+04  0.15211502950E+04  0.97974499320E+03 0.  0.
        -13    1    3    3    0    0  0.19655206626E+03  0.57701210001E+03  0.11991177396E+03  0.62125238270E+03  0.10566000000E+00 0.  1.
          4    1    3    3  501    0  0.19189024211E+03 -0.38925773859E+03 -0.17698747237E+03  0.46868754778E+03  0.00000000000E+00 0.  1.
         13    1    4    4    0    0 -0.17537419853E+03  0.37018170168E+03 -0.70566934370E+03  0.81594107359E+03  0.10566000000E+00 0. -1.
         -4    1    4    4    0  503 -0.21306810983E+03 -0.55793606310E+03 -0.37500583464E+03  0.70520922140E+03  0.00000000000E+00 0. -1.
<mgrwt>
<rscale>  2 0.10839385E+04</rscale>
<asrwt>0</asrwt>
<pdfrwt beam="1">  1       21 0.11333380E+00 0.10884445E+04</pdfrwt>
<pdfrwt beam="2">  1       21 0.28837239E+00 0.10884445E+04</pdfrwt>
<totfact> 0.90132675E+00</totfact>
</mgrwt>
</event>
<event>
 8    1  0.7631533E-006  0.1010719E+04  0.7818608E-02  0.8764607E-01
         21   -1    0    0  501  502  0.00000000000E+00  0.00000000000E+00  0.79151681672E+03  0.79151681672E+03  0.00000000000E+00 0. -1.
         21   -1    0    0  502  503 -0.00000000000E+00 -0.00000000000E+00 -0.13500866113E+04  0.13500866113E+04  0.00000000000E+00 0. -1.
    9000010    2    1    2  501    0 -0.38514607654E+02 -0.16359148558E+03 -0.54320227159E+02  0.10120811479E+04  0.99655005579E+03 0.  0.
   -9000010    2    1    2    0  503  0.38514607654E+02  0.16359148558E+03 -0.50424956747E+03  0.11295222802E+04  0.99664808531E+03 0.  0.
        -13    1    3    3    0    0 -0.13560029684E+03 -0.54720186052E+03  0.12531167039E+03  0.57751220122E+03  0.10566000000E+00 0.  1.
          4    1    3    3  501    0  0.97085689185E+02  0.38361037493E+03 -0.17963189755E+03  0.43456894668E+03  0.00000000000E+00 0.  1.
         13    1    4    4    0    0 -0.16766768860E+03 -0.38383360692E+03 -0.27593792087E+03  0.50157994272E+03  0.10566000000E+00 0. -1.
         -4    1    4    4    0  503  0.20618229625E+03  0.54742509251E+03 -0.22831164660E+03  0.62794233745E+03  0.00000000000E+00 0. -1.
<mgrwt>
<rscale>  2 0.10106949E+04</rscale>
<asrwt>0</asrwt>
<pdfrwt beam="1">  1       21 0.12177182E+00 0.10107190E+04</pdfrwt>
<pdfrwt beam="2">  1       21 0.20770563E+00 0.10107190E+04</pdfrwt>
<totfact> 0.29287486E+01</totfact>
</mgrwt>
</event>
<event>
 8    1  0.7631533E-006  0.1047078E+04  0.7818608E-02  0.8767576E-01
         21   -1    0    0  501  502  0.00000000000E+00  0.00000000000E+00  0.79379324262E+03  0.79379324262E+03  0.00000000000E+00 0.  1.
         21   -1    0    0  502  503 -0.00000000000E+00 -0.00000000000E+00 -0.12571923097E+04  0.12571923097E+04  0.00000000000E+00 0.  1.
    9000010    2    1    2  501    0 -0.28750014954E+03 -0.13252769385E+03 -0.13836662891E+02  0.10471695425E+04  0.99807448208E+03 0.  0.
   -9000010    2    1    2    0  503  0.28750014954E+03  0.13252769385E+03 -0.44956240420E+03  0.10038160099E+04  0.83983349589E+03 0.  0.
        -13    1    3    3    0    0 -0.52674716309E+03 -0.34990384273E+03  0.19568092911E+03  0.66195642618E+03  0.10566000000E+00 0.  1.
          4    1    3    3  501    0  0.23924701355E+03  0.21737614888E+03 -0.20951759200E+03  0.38521311627E+03  0.00000000000E+00 0.  1.
         13    1    4    4    0    0  0.35583300637E+03 -0.21367592146E+03  0.21053807342E+02  0.41559331299E+03  0.10566000000E+00 0. -1.
         -4    1    4    4    0  503 -0.68332856830E+02  0.34620361531E+03 -0.47061621154E+03  0.58822269690E+03  0.00000000000E+00 0. -1.
<mgrwt>
<rscale>  2 0.10075004E+04</rscale>
<asrwt>0</asrwt>
<pdfrwt beam="1">  1       21 0.12212204E+00 0.10470781E+04</pdfrwt>
<pdfrwt beam="2">  1       21 0.19341420E+00 0.10470781E+04</pdfrwt>
<totfact> 0.37245451E+01</totfact>
</mgrwt>
</event>
<event>
 8    1  0.7631533E-006  0.1237218E+04  0.7818608E-02  0.8586864E-01
         21   -1    0    0  501  502  0.00000000000E+00  0.00000000000E+00  0.17505254855E+04  0.17505254855E+04  0.00000000000E+00 0. -1.
         21   -1    0    0  502  503 -0.00000000000E+00 -0.00000000000E+00 -0.95809781228E+03  0.95809781228E+03  0.00000000000E+00 0.  1.
    9000010    2    1    2  501    0 -0.38649410567E+03  0.61354688027E+03  0.86795337938E+03  0.15113075327E+04  0.10024419792E+04 0.  0.
   -9000010    2    1    2    0  503  0.38649410567E+03 -0.61354688027E+03 -0.75525706140E+02  0.11973157651E+04  0.94975967540E+03 0.  0.
        -13    1    3    3    0    0 -0.41009548197E+03  0.27694119921E+02 -0.58230404971E+02  0.41513378547E+03  0.10566000000E+00 0.  1.
          4    1    3    3  501    0  0.23601376298E+02  0.58585276035E+03  0.92618378435E+03  0.10961737473E+04  0.00000000000E+00 0.  1.
         13    1    4    4    0    0 -0.24109777845E+03 -0.27600534226E+02  0.17926228465E+03  0.30170334126E+03  0.10566000000E+00 0. -1.
         -4    1    4    4    0  503  0.62759188412E+03 -0.58594634605E+03 -0.25478799079E+03  0.89561242383E+03  0.00000000000E+00 0. -1.
<mgrwt>
<rscale>  2 0.12265078E+04</rscale>
<asrwt>0</asrwt>
<pdfrwt beam="1">  1       21 0.26931161E+00 0.12372176E+04</pdfrwt>
<pdfrwt beam="2">  1       21 0.14739966E+00 0.12372176E+04</pdfrwt>
<totfact> 0.55849168E+00</totfact>
</mgrwt>
</event>
<event>
 8    1  0.7631533E-006  0.1056252E+04  0.7818608E-02  0.8724759E-01
         21   -1    0    0  501  502  0.00000000000E+00  0.00000000000E+00  0.86807045405E+03  0.86807045405E+03  0.00000000000E+00 0.  1.
         21   -1    0    0  502  503 -0.00000000000E+00 -0.00000000000E+00 -0.13927012134E+04  0.13927012134E+04  0.00000000000E+00 0.  1.
    9000010    2    1    2  501    0 -0.18639567332E+03  0.26326513435E+03  0.61307063548E+02  0.10580295295E+04  0.10057912563E+04 0.  0.
   -9000010    2    1    2    0  503  0.18639567332E+03 -0.26326513435E+03 -0.58593782286E+03  0.12027421379E+04  0.99960674269E+03 0.  0.
        -13    1    3    3    0    0 -0.57790726503E+03  0.27258570409E+02 -0.69068261788E+02  0.58265793789E+03  0.10566000000E+00 0.  1.
          4    1    3    3  501    0  0.39151159171E+03  0.23600656394E+03  0.13037532534E+03  0.47537159163E+03  0.00000000000E+00 0.  1.
         13    1    4    4    0    0 -0.19899926116E+03 -0.41920159693E+03  0.23922205405E+02  0.46465359988E+03  0.10566000000E+00 0. -1.
         -4    1    4    4    0  503  0.38539493447E+03  0.15593646258E+03 -0.60986002826E+03  0.73808853801E+03  0.00000000000E+00 0. -1.
<mgrwt>
<rscale>  2 0.10547769E+04</rscale>
<asrwt>0</asrwt>
<pdfrwt beam="1">  1       21 0.13354930E+00 0.10562518E+04</pdfrwt>
<pdfrwt beam="2">  1       21 0.21426172E+00 0.10562518E+04</pdfrwt>
<totfact> 0.19821674E+01</totfact>
</mgrwt>
</event>
<event>
 8    1  0.7631533E-006  0.1067354E+04  0.7818608E-02  0.8713815E-01
         21   -1    0    0  501  502  0.00000000000E+00  0.00000000000E+00  0.11309016617E+04  0.11309016617E+04  0.00000000000E+00 0.  1.
         21   -1    0    0  502  503 -0.00000000000E+00 -0.00000000000E+00 -0.11153879595E+04  0.11153879595E+04  0.00000000000E+00 0.  1.
    9000010    2    1    2  501    0  0.65518515188E+02 -0.36254810324E+03 -0.34215241548E+03  0.11206032659E+04  0.10014737147E+04 0.  0.
   -9000010    2    1    2    0  503 -0.65518515188E+02  0.36254810324E+03  0.35766611764E+03  0.11256863553E+04  0.10017539198E+04 0.  0.
        -13    1    3    3    0    0 -0.24000532726E+03 -0.62172397103E+03 -0.21529654891E+03  0.70035410216E+03  0.10566000000E+00 0.  1.
          4    1    3    3  501    0  0.30552384245E+03  0.25917586779E+03 -0.12685586657E+03  0.42024916375E+03  0.00000000000E+00 0.  1.
         13    1    4    4    0    0 -0.26658393274E+03 -0.26151251431E+03  0.27728354200E+03  0.46512574876E+03  0.10566000000E+00 0. -1.
         -4    1    4    4    0  503  0.20106541755E+03  0.62406061755E+03  0.80382575641E+02  0.66056060659E+03  0.00000000000E+00 0. -1.
<mgrwt>
<rscale>  2 0.10672883E+04</rscale>
<asrwt>0</asrwt>
<pdfrwt beam="1">  1       21 0.17398487E+00 0.10673541E+04</pdfrwt>
<pdfrwt beam="2">  1       21 0.17159815E+00 0.10673541E+04</pdfrwt>
<totfact> 0.18943649E+01</totfact>
</mgrwt>
</event>
<event>
 8    1  0.7631533E-006  0.1150977E+04  0.7818608E-02  0.8648438E-01
         21   -1    0    0  501  502  0.00000000000E+00  0.00000000000E+00  0.11659259581E+04  0.11659259581E+04  0.00000000000E+00 0. -1.
         21   -1    0    0  502  503 -0.00000000000E+00 -0.00000000000E+00 -0.14591659375E+04  0.14591659375E+04  0.00000000000E+00 0. -1.
    9000010    2    1    2  501    0 -0.92744322079E+02 -0.56364353047E+03  0.48846181305E+03  0.12503375451E+04  0.99922644839E+03 0.  0.
   -9000010    2    1    2    0  503  0.92744322079E+02  0.56364353047E+03 -0.78170179248E+03  0.13747543505E+04  0.97601039607E+03 0.  0.
        -13    1    3    3    0    0 -0.24358410237E+03 -0.77415569716E+03  0.55469848714E+03  0.98302628712E+03  0.10566000000E+00 0.  1.
          4    1    3    3  501    0  0.15083978029E+03  0.21051216669E+03 -0.66236674094E+02  0.26731125797E+03  0.00000000000E+00 0.  1.
         13    1    4    4    0    0  0.47537372936E+03  0.45153211920E+03 -0.71570097595E+03  0.97061286586E+03  0.10566000000E+00 0. -1.
         -4    1    4    4    0  503 -0.38262940728E+03  0.11211141127E+03 -0.66000816526E+02  0.40414148467E+03  0.00000000000E+00 0. -1.
<mgrwt>
<rscale>  2 0.11459201E+04</rscale>
<asrwt>0</asrwt>
<pdfrwt beam="1">  1       21 0.17937322E+00 0.11509774E+04</pdfrwt>
<pdfrwt beam="2">  1       21 0.22448707E+00 0.11509774E+04</pdfrwt>
<totfact> 0.64371622E+00</totfact>
</mgrwt>
</event>
<event>
 8    1  0.7631533E-006  0.1223012E+04  0.7818608E-02  0.8590398E-01
         21   -1    0    0  503  502  0.00000000000E+00  0.00000000000E+00  0.17724727755E+04  0.17724727755E+04  0.00000000000E+00 0. -1.
         21   -1    0    0  501  503 -0.00000000000E+00 -0.00000000000E+00 -0.86247463429E+03  0.86247463429E+03  0.00000000000E+00 0. -1.
    9000010    2    1    2  501    0 -0.73417235268E+03  0.39191090924E+02  0.24266697610E+03  0.12417176529E+04  0.97078858833E+03 0.  0.
   -9000010    2    1    2    0  502  0.73417235268E+03 -0.39191090924E+02  0.66733116512E+03  0.13932297569E+04  0.97735013505E+03 0.  0.
        -13    1    3    3    0    0 -0.20512646087E+03  0.37090652606E+03 -0.20751235327E+03  0.47192150189E+03  0.10566000000E+00 0.  1.
          4    1    3    3  501    0 -0.52904589180E+03 -0.33171543514E+03  0.45017932937E+03  0.76979615103E+03  0.00000000000E+00 0.  1.
         13    1    4    4    0    0  0.65418732995E+03 -0.19211220593E+03 -0.22455955736E+02  0.68218211897E+03  0.10566000000E+00 0. -1.
         -4    1    4    4    0  502  0.79985022729E+02  0.15292111501E+03  0.68978712086E+03  0.71104763791E+03  0.00000000000E+00 0. -1.
<mgrwt>
<rscale>  2 0.12217006E+04</rscale>
<asrwt>0</asrwt>
<pdfrwt beam="1">  1       21 0.27268812E+00 0.12230120E+04</pdfrwt>
<pdfrwt beam="2">  1       21 0.13268841E+00 0.12230120E+04</pdfrwt>
<totfact> 0.72551591E+00</totfact>
</mgrwt>
</event>
<event>
 8    1  0.7631533E-006  0.1075074E+04  0.7818608E-02  0.8721105E-01
         21   -1    0    0  501  502  0.00000000000E+00  0.00000000000E+00  0.10789176041E+04  0.10789176041E+04  0.00000000000E+00 0. -1.
         21   -1    0    0  502  503 -0.00000000000E+00 -0.00000000000E+00 -0.10799089146E+04  0.10799089146E+04  0.00000000000E+00 0. -1.
    9000010    2    1    2  501    0  0.13080400477E+03 -0.82473763250E+02  0.27543293260E+03  0.11097961916E+04  0.10638950499E+04 0.  0.
   -9000010    2    1    2    0  503 -0.13080400477E+03  0.82473763250E+02 -0.27642424310E+03  0.10490303272E+04  0.10000713254E+04 0.  0.
        -13    1    3    3    0    0 -0.40895387952E+03 -0.12444042584E+03  0.36370828235E+03  0.56125967338E+03  0.10566000000E+00 0.  1.
          4    1    3    3  501    0  0.53975788428E+03  0.41966662595E+02 -0.88275349747E+02  0.54853651819E+03  0.00000000000E+00 0.  1.
         13    1    4    4    0    0 -0.46862502884E+03  0.49027749952E+02 -0.46390586245E+03  0.66122749361E+03  0.10566000000E+00 0. -1.
         -4    1    4    4    0  503  0.33782102408E+03  0.33446013298E+02  0.18748161935E+03  0.38780283355E+03  0.00000000000E+00 0. -1.
<mgrwt>
<rscale>  2 0.10589347E+04</rscale>
<asrwt>0</asrwt>
<pdfrwt beam="1">  1       21 0.16598732E+00 0.10750741E+04</pdfrwt>
<pdfrwt beam="2">  1       21 0.16613983E+00 0.10750741E+04</pdfrwt>
<totfact> 0.24529850E+01</totfact>
</mgrwt>
</event>
<event>
 8    1  0.7631533E-006  0.1123248E+04  0.7818608E-02  0.8685360E-01
         21   -1    0    0  503  502  0.00000000000E+00  0.00000000000E+00  0.79518391295E+03  0.79518391295E+03  0.00000000000E+00 0.  1.
         21   -1    0    0  501  503 -0.00000000000E+00 -0.00000000000E+00 -0.17664862562E+04  0.17664862562E+04  0.00000000000E+00 0.  1.
    9000010    2    1    2  501    0  0.42128053668E+02  0.50856534225E+03 -0.10304838265E+04  0.15243301831E+04  0.10006358530E+04 0.  0.
   -9000010    2    1    2    0  502 -0.42128053668E+02 -0.50856534225E+03  0.59181483226E+02  0.10373399861E+04  0.90119826812E+03 0.  0.
        -13    1    3    3    0    0 -0.24906591663E+03  0.57444380097E+03 -0.22503070282E+03  0.66532573952E+03  0.10566000000E+00 0.  1.
          4    1    3    3  501    0  0.29119397030E+03 -0.65878458719E+02 -0.80545312365E+03  0.85900444357E+03  0.00000000000E+00 0.  1.
         13    1    4    4    0    0  0.27354973822E+03 -0.27604465078E+03  0.37032216504E+03  0.53681339922E+03  0.10566000000E+00 0. -1.
         -4    1    4    4    0  502 -0.31567779188E+03 -0.23252069147E+03 -0.31114068181E+03  0.50052658683E+03  0.00000000000E+00 0. -1.
<mgrwt>
<rscale>  2 0.11006772E+04</rscale>
<asrwt>0</asrwt>
<pdfrwt beam="1">  1       21 0.12233599E+00 0.11232478E+04</pdfrwt>
<pdfrwt beam="2">  1       21 0.27176711E+00 0.11232478E+04</pdfrwt>
<totfact> 0.94983319E+00</totfact>
</mgrwt>
</event>
<event>
 8    1  0.7631533E-006  0.1085974E+04  0.7818608E-02  0.8736528E-01
         21   -1    0    0  501  502  0.00000000000E+00  0.00000000000E+00  0.84608122541E+03  0.84608122541E+03  0.00000000000E+00 0. -1.
         21   -1    0    0  502  503 -0.00000000000E+00 -0.00000000000E+00 -0.14556948306E+04  0.14556948306E+04  0.00000000000E+00 0. -1.
    9000010    2    1    2  501    0 -0.13216346878E+03 -0.37808637736E+03  0.20847590055E+03  0.94214013344E+03  0.82689137056E+03 0.  0.
   -9000010    2    1    2    0  503  0.13216346878E+03  0.37808637736E+03 -0.81808950569E+03  0.13596359225E+04  0.10094171146E+04 0.  0.
        -13    1    3    3    0    0  0.11360533623E+03  0.14643152736E+02 -0.25948169867E+03  0.28363948500E+03  0.10566000000E+00 0.  1.
          4    1    3    3  501    0 -0.24576880500E+03 -0.39272953010E+03  0.46795759922E+03  0.65850064844E+03  0.00000000000E+00 0.  1.
         13    1    4    4    0    0  0.46937591924E+03 -0.11475333122E+03 -0.29770238113E+03  0.56754629721E+03  0.10566000000E+00 0. -1.
         -4    1    4    4    0  503 -0.33721245046E+03  0.49283970859E+03 -0.52038712456E+03  0.79208962531E+03  0.00000000000E+00 0. -1.
<mgrwt>
<rscale>  2 0.10415210E+04</rscale>
<asrwt>0</asrwt>
<pdfrwt beam="1">  1       21 0.13016634E+00 0.10859739E+04</pdfrwt>
<pdfrwt beam="2">  1       21 0.22395305E+00 0.10859739E+04</pdfrwt>
<totfact> 0.17925347E+01</totfact>
</mgrwt>
</event>
<event>
 8    1  0.7631533E-006  0.1019551E+04  0.7818608E-02  0.8768248E-01
         21   -1    0    0  503  502  0.00000000000E+00  0.00000000000E+00  0.95494135722E+03  0.95494135722E+03  0.00000000000E+00 0. -1.
         21   -1    0    0  501  503 -0.00000000000E+00 -0.00000000000E+00 -0.12382842272E+04  0.12382842272E+04  0.00000000000E+00 0. -1.
    9000010    2    1    2  501    0 -0.19308106496E+03  0.40491126369E+02 -0.58813155276E+03  0.11770226662E+04  0.10002818625E+04 0.  0.
   -9000010    2    1    2    0  502  0.19308106496E+03 -0.40491126369E+02  0.30478868275E+03  0.10162029183E+04  0.94913244652E+03 0.  0.
        -13    1    3    3    0    0 -0.20026334514E+03  0.21238241498E+03 -0.83021183845E+03  0.88003602510E+03  0.10566000000E+00 0.  1.
          4    1    3    3  501    0  0.71822801802E+01 -0.17189128862E+03  0.24208028569E+03  0.29698664107E+03  0.00000000000E+00 0.  1.
         13    1    4    4    0    0  0.32464204284E+03 -0.12165319266E+03  0.59428733177E+03  0.68801845842E+03  0.10566000000E+00 0. -1.
         -4    1    4    4    0  502 -0.13156097788E+03  0.81162066292E+02 -0.28949864902E+03  0.32818445986E+03  0.00000000000E+00 0. -1.
<mgrwt>
<rscale>  2 0.10067797E+04</rscale>
<asrwt>0</asrwt>
<pdfrwt beam="1">  1       21 0.14691405E+00 0.10195507E+04</pdfrwt>
<pdfrwt beam="2">  1       21 0.19050527E+00 0.10195507E+04</pdfrwt>
<totfact> 0.23004472E+01</totfact>
</mgrwt>
</event>
<event>
 8    1  0.7631533E-006  0.1346804E+04  0.7818608E-02  0.8547836E-01
         21   -1    0    0  501  502  0.00000000000E+00  0.00000000000E+00  0.13943967999E+04  0.13943967999E+04  0.00000000000E+00 0. -1.
         21   -1    0    0  502  503 -0.00000000000E+00 -0.00000000000E+00 -0.11182417788E+04  0.11182417788E+04  0.00000000000E+00 0. -1.
    9000010    2    1    2  501    0  0.26091240313E+03  0.31303098741E+03 -0.92215877775E+02  0.13499570774E+04  0.12836731132E+04 0.  0.
   -9000010    2    1    2    0  503 -0.26091240313E+03 -0.31303098741E+03  0.36837089883E+03  0.11626815013E+04  0.10247279996E+04 0.  0.
        -13    1    3    3    0    0 -0.29944618551E+03 -0.11176304809E+03  0.38481779741E+03  0.50024368591E+03  0.10566000000E+00 0.  1.
          4    1    3    3  501    0  0.56035858863E+03  0.42479403549E+03 -0.47703367518E+03  0.84971339150E+03  0.00000000000E+00 0.  1.
         13    1    4    4    0    0 -0.53095929304E+03 -0.24663075517E+03  0.57162565348E+03  0.81823004048E+03  0.10566000000E+00 0. -1.
         -4    1    4    4    0  503  0.27004688991E+03 -0.66400232238E+02 -0.20325475466E+03  0.34445146085E+03  0.00000000000E+00 0. -1.
<mgrwt>
<rscale>  2 0.12811524E+04</rscale>
<asrwt>0</asrwt>
<pdfrwt beam="1">  1       21 0.21452258E+00 0.13468038E+04</pdfrwt>
<pdfrwt beam="2">  1       21 0.17203720E+00 0.13468038E+04</pdfrwt>
<totfact> 0.84680674E+00</totfact>
</mgrwt>
</event>
<event>
 8    1  0.7631533E-006  0.1033754E+04  0.7818608E-02  0.8745283E-01
         21   -1    0    0  503  502  0.00000000000E+00  0.00000000000E+00  0.44063224287E+03  0.44063224287E+03  0.00000000000E+00 0. -1.
         21   -1    0    0  501  503 -0.00000000000E+00 -0.00000000000E+00 -0.26544890245E+04  0.26544890245E+04  0.00000000000E+00 0. -1.
    9000010    2    1    2  501    0  0.14563948564E+03 -0.19891756459E+03 -0.63813011367E+03  0.12148486375E+04  0.10039263483E+04 0.  0.
   -9000010    2    1    2    0  502 -0.14563948564E+03  0.19891756459E+03 -0.15757266680E+04  0.18802726299E+04  0.99585720520E+03 0.  0.
        -13    1    3    3    0    0 -0.24613920502E+03 -0.10816223013E+03 -0.75057237403E+03  0.79727189596E+03  0.10566000000E+00 0.  1.
          4    1    3    3  501    0  0.39177869067E+03 -0.90755334452E+02  0.11244226036E+03  0.41757674158E+03  0.00000000000E+00 0.  1.
         13    1    4    4    0    0  0.90348650352E+02 -0.30377763325E+03 -0.11135632989E+04  0.11577853691E+04  0.10566000000E+00 0. -1.
         -4    1    4    4    0  502 -0.23598813599E+03  0.50269519783E+03 -0.46216336911E+03  0.72248726079E+03  0.00000000000E+00 0. -1.
<mgrwt>
<rscale>  2 0.10317897E+04</rscale>
<asrwt>0</asrwt>
<pdfrwt beam="1">  1       21 0.67789575E-01 0.10337539E+04</pdfrwt>
<pdfrwt beam="2">  1       21 0.40838293E+00 0.10337539E+04</pdfrwt>
<totfact> 0.48111936E+00</totfact>
</mgrwt>
</event>
<event>
 8    1  0.7631533E-006  0.1010146E+04  0.7818608E-02  0.8766719E-01
         21   -1    0    0  503  502  0.00000000000E+00  0.00000000000E+00  0.74066810455E+03  0.74066810455E+03  0.00000000000E+00 0. -1.
         21   -1    0    0  501  503 -0.00000000000E+00 -0.00000000000E+00 -0.14286072090E+04  0.14286072090E+04  0.00000000000E+00 0. -1.
    9000010    2    1    2  501    0  0.29058846601E+02 -0.10477580439E+03 -0.12225158096E+03  0.10175163202E+04  0.10042766685E+04 0.  0.
   -9000010    2    1    2    0  502 -0.29058846601E+02  0.10477580439E+03 -0.56568752351E+03  0.11517589934E+04  0.99735852074E+03 0.  0.
        -13    1    3    3    0    0  0.14059432709E+03  0.43364425380E+03 -0.80857118347E+01  0.45593803698E+03  0.10566000000E+00 0.  1.
          4    1    3    3  501    0 -0.11153548049E+03 -0.53842005819E+03 -0.11416586912E+03  0.56157828318E+03  0.00000000000E+00 0.  1.
         13    1    4    4    0    0 -0.36373152640E+03  0.16528823644E+03 -0.68360874549E+03  0.79179653477E+03  0.10566000000E+00 0. -1.
         -4    1    4    4    0  502  0.33467267980E+03 -0.60512432049E+02  0.11792122198E+03  0.35996245864E+03  0.00000000000E+00 0. -1.
<mgrwt>
<rscale>  2 0.10084217E+04</rscale>
<asrwt>0</asrwt>
<pdfrwt beam="1">  1       21 0.11394894E+00 0.10101455E+04</pdfrwt>
<pdfrwt beam="2">  1       21 0.21978573E+00 0.10101455E+04</pdfrwt>
<totfact> 0.28498364E+01</totfact>
</mgrwt>
</event>
<event>
 8    1  0.7631533E-006  0.1020542E+04  0.7818608E-02  0.8771672E-01
         21   -1    0    0  501  502  0.00000000000E+00  0.00000000000E+00  0.91176266845E+03  0.91176266845E+03  0.00000000000E+00 0. -1.
         21   -1    0    0  502  503 -0.00000000000E+00 -0.00000000000E+00 -0.10767067776E+04  0.10767067776E+04  0.00000000000E+00 0. -1.
    9000010    2    1    2  501    0 -0.10777036211E+03 -0.13784181839E+03 -0.17150661406E+03  0.96790594966E+03  0.93638271603E+03 0.  0.
   -9000010    2    1    2    0  503  0.10777036211E+03  0.13784181839E+03  0.65625048978E+01  0.10205634964E+04  0.10054312338E+04 0.  0.
        -13    1    3    3    0    0  0.32499440088E+03 -0.66339157796E+02 -0.36086256643E+03  0.49014696518E+03  0.10566000000E+00 0.  1.
          4    1    3    3  501    0 -0.43276476299E+03 -0.71502660591E+02  0.18935595237E+03  0.47775898448E+03  0.00000000000E+00 0.  1.
         13    1    4    4    0    0 -0.17153299616E+03  0.36885020504E+03  0.33840478041E+03  0.52914256028E+03  0.10566000000E+00 0. -1.
         -4    1    4    4    0  503  0.27930335827E+03 -0.23100838665E+03 -0.33184227551E+03  0.49142093612E+03  0.00000000000E+00 0. -1.
<mgrwt>
<rscale>  2 0.10031128E+04</rscale>
<asrwt>0</asrwt>
<pdfrwt beam="1">  1       21 0.14027118E+00 0.10205424E+04</pdfrwt>
<pdfrwt beam="2">  1       21 0.16564720E+00 0.10205424E+04</pdfrwt>
<totfact> 0.42294469E+01</totfact>
</mgrwt>
</event>
<event>
 8    1  0.7631533E-006  0.1107541E+04  0.7818608E-02  0.8680860E-01
         21   -1    0    0  501  502  0.00000000000E+00  0.00000000000E+00  0.14600356711E+04  0.14600356711E+04  0.00000000000E+00 0.  1.
         21   -1    0    0  502  503 -0.00000000000E+00 -0.00000000000E+00 -0.89945132884E+03  0.89945132884E+03  0.00000000000E+00 0.  1.
    9000010    2    1    2  501    0 -0.46372718528E+03  0.54107549421E+02 -0.34459405180E+02  0.11022182219E+04  0.99786122721E+03 0.  0.
   -9000010    2    1    2    0  503  0.46372718528E+03 -0.54107549421E+02  0.59504374739E+03  0.12572687780E+04  0.10043292237E+04 0.  0.
        -13    1    3    3    0    0  0.25884531307E+03  0.50033957380E+02  0.21248095424E+03  0.33860369175E+03  0.10566000000E+00 0.  1.
          4    1    3    3  501    0 -0.72257249834E+03  0.40735920409E+01 -0.24694035942E+03  0.76361453013E+03  0.00000000000E+00 0.  1.
         13    1    4    4    0    0 -0.61504233019E+02 -0.31990238353E+03  0.58376304640E+03  0.66850550572E+03  0.10566000000E+00 0. -1.
         -4    1    4    4    0  503  0.52523141830E+03  0.26579483411E+03  0.11280700997E+02  0.58876327231E+03  0.00000000000E+00 0. -1.
<mgrwt>
<rscale>  2 0.11060729E+04</rscale>
<asrwt>0</asrwt>
<pdfrwt beam="1">  1       21 0.22462087E+00 0.11075413E+04</pdfrwt>
<pdfrwt beam="2">  1       21 0.13837713E+00 0.11075413E+04</pdfrwt>
<totfact> 0.14741080E+01</totfact>
</mgrwt>
</event>
<event>
 8    1  0.7631533E-006  0.1159366E+04  0.7818608E-02  0.8638020E-01
         21   -1    0    0  503  502  0.00000000000E+00  0.00000000000E+00  0.20503859076E+04  0.20503859076E+04  0.00000000000E+00 0.  1.
         21   -1    0    0  501  503 -0.00000000000E+00 -0.00000000000E+00 -0.91828851368E+03  0.91828851368E+03  0.00000000000E+00 0.  1.
    9000010    2    1    2  501    0  0.57442964166E+03 -0.67122202671E+02  0.13607640697E+04  0.17869728916E+04  0.10035529176E+04 0.  0.
   -9000010    2    1    2    0  502 -0.57442964166E+03  0.67122202671E+02 -0.22866667580E+03  0.11817015297E+04  0.10048160296E+04 0.  0.
        -13    1    3    3    0    0  0.58489631078E+03  0.37003197146E+03  0.63294626140E+03  0.93789569530E+03  0.10566000000E+00 0.  1.
          4    1    3    3  501    0 -0.10466669124E+02 -0.43715417413E+03  0.72781780833E+03  0.84907719629E+03  0.00000000000E+00 0.  1.
         13    1    4    4    0    0  0.16522044222E+03 -0.25988064841E+03  0.76525746038E+02  0.31731994409E+03  0.10566000000E+00 0. -1.
         -4    1    4    4    0  502 -0.73965008388E+03  0.32700285109E+03 -0.30519242184E+03  0.86438158561E+03  0.00000000000E+00 0. -1.
<mgrwt>
<rscale>  2 0.11590925E+04</rscale>
<asrwt>0</asrwt>
<pdfrwt beam="1">  1       21 0.31544398E+00 0.11593662E+04</pdfrwt>
<pdfrwt beam="2">  1       21 0.14127516E+00 0.11593662E+04</pdfrwt>
<totfact> 0.30375001E+00</totfact>
</mgrwt>
</event>
<event>
 8    1  0.7631533E-006  0.1002713E+04  0.7818608E-02  0.8773253E-01
         21   -1    0    0  501  502  0.00000000000E+00  0.00000000000E+00  0.13943246301E+04  0.13943246301E+04  0.00000000000E+00 0.  1.
         21   -1    0    0  502  503 -0.00000000000E+00 -0.00000000000E+00 -0.10931481643E+04  0.10931481643E+04  0.00000000000E+00 0.  1.
    9000010    2    1    2  501    0  0.33178662636E+02 -0.66927042283E+02  0.87951826274E+03  0.13299268221E+04  0.99477280075E+03 0.  0.
   -9000010    2    1    2    0  503 -0.33178662636E+02  0.66927042283E+02 -0.57834179697E+03  0.11575459723E+04  0.99992669288E+03 0.  0.
        -13    1    3    3    0    0 -0.27731401206E+03  0.99154163208E+02 -0.82207820142E+02  0.30576583560E+03  0.10566000000E+00 0.  1.
          4    1    3    3  501    0  0.31049267469E+03 -0.16608120549E+03  0.96172608288E+03  0.10241609865E+04  0.00000000000E+00 0.  1.
         13    1    4    4    0    0 -0.39771103997E+03 -0.12690834965E+03  0.34187630926E+02  0.41886585657E+03  0.10566000000E+00 0. -1.
         -4    1    4    4    0  503  0.36453237733E+03  0.19383539193E+03 -0.61252942790E+03  0.73868011570E+03  0.00000000000E+00 0. -1.
<mgrwt>
<rscale>  2 0.10014257E+04</rscale>
<asrwt>0</asrwt>
<pdfrwt beam="1">  1       21 0.21451148E+00 0.10027130E+04</pdfrwt>
<pdfrwt beam="2">  1       21 0.16817664E+00 0.10027130E+04</pdfrwt>
<totfact> 0.98204372E+00</totfact>
</mgrwt>
</event>
<event>
 8    1  0.7631533E-006  0.1195672E+04  0.7818608E-02  0.8610385E-01
         21   -1    0    0  503  502  0.00000000000E+00  0.00000000000E+00  0.84680500982E+03  0.84680500982E+03  0.00000000000E+00 0. -1.
         21   -1    0    0  501  503 -0.00000000000E+00 -0.00000000000E+00 -0.21535580120E+04  0.21535580120E+04  0.00000000000E+00 0. -1.
    9000010    2    1    2  501    0 -0.59950910215E+03  0.24564073977E+03 -0.13544186841E+04  0.18066769454E+04  0.10049283938E+04 0.  0.
   -9000010    2    1    2    0  502  0.59950910215E+03 -0.24564073977E+03  0.47665681899E+02  0.11936860764E+04  0.10014309239E+04 0.  0.
        -13    1    3    3    0    0 -0.27539164388E+03  0.43068645872E+03 -0.13388555900E+04  0.14331314264E+04  0.10566000000E+00 0.  1.
          4    1    3    3  501    0 -0.32411745827E+03 -0.18504571895E+03 -0.15563094049E+02  0.37354551898E+03  0.00000000000E+00 0.  1.
         13    1    4    4    0    0  0.83019755090E+03 -0.39066469254E+03  0.27759235385E+01  0.91752634427E+03  0.10566000000E+00 0. -1.
         -4    1    4    4    0  502 -0.23068844875E+03  0.14502395277E+03  0.44889758360E+02  0.27615973216E+03  0.00000000000E+00 0. -1.
<mgrwt>
<rscale>  2 0.11949369E+04</rscale>
<asrwt>0</asrwt>
<pdfrwt beam="1">  1       21 0.13027769E+00 0.11956720E+04</pdfrwt>
<pdfrwt beam="2">  1       21 0.33131662E+00 0.11956720E+04</pdfrwt>
<totfact> 0.29598634E+00</totfact>
</mgrwt>
</event>
<event>
 8    1  0.7631533E-006  0.1025557E+04  0.7818608E-02  0.8756585E-01
         21   -1    0    0  503  502  0.00000000000E+00  0.00000000000E+00  0.10487759672E+04  0.10487759672E+04  0.00000000000E+00 0. -1.
         21   -1    0    0  501  503 -0.00000000000E+00 -0.00000000000E+00 -0.10228078532E+04  0.10228078532E+04  0.00000000000E+00 0. -1.
    9000010    2    1    2  501    0 -0.63849400921E+02  0.22358524898E+03  0.22697174797E+03  0.10265150922E+04  0.97372991662E+03 0.  0.
   -9000010    2    1    2    0  502  0.63849400921E+02 -0.22358524898E+03 -0.20100363392E+03  0.10450687283E+04  0.99884887564E+03 0.  0.
        -13    1    3    3    0    0  0.32171714111E+03  0.43399431403E+03  0.19108531439E+02  0.54057204018E+03  0.10566000000E+00 0.  1.
          4    1    3    3  501    0 -0.38556654203E+03 -0.21040906505E+03  0.20786321654E+03  0.48594305199E+03  0.00000000000E+00 0.  1.
         13    1    4    4    0    0 -0.39975878750E+02 -0.28978522326E+03  0.36389970649E+03  0.46690101097E+03  0.10566000000E+00 0. -1.
         -4    1    4    4    0  502  0.10382527967E+03  0.66199974278E+02 -0.56490334041E+03  0.57816771728E+03  0.00000000000E+00 0. -1.
<mgrwt>
<rscale>  2 0.10193890E+04</rscale>
<asrwt>0</asrwt>
<pdfrwt beam="1">  1       21 0.16135015E+00 0.10255565E+04</pdfrwt>
<pdfrwt beam="2">  1       21 0.15735505E+00 0.10255565E+04</pdfrwt>
<totfact> 0.32322210E+01</totfact>
</mgrwt>
</event>
<event>
 8    1  0.7631533E-006  0.1068920E+04  0.7818608E-02  0.8714787E-01
         21   -1    0    0  501  502  0.00000000000E+00  0.00000000000E+00  0.10830706210E+04  0.10830706210E+04  0.00000000000E+00 0. -1.
         21   -1    0    0  502  503 -0.00000000000E+00 -0.00000000000E+00 -0.10901489751E+04  0.10901489751E+04  0.00000000000E+00 0. -1.
    9000010    2    1    2  501    0 -0.33657256986E+03 -0.36742583880E+02  0.21963719129E+03  0.10805211428E+04  0.10023244644E+04 0.  0.
   -9000010    2    1    2    0  503  0.33657256986E+03  0.36742583880E+02 -0.22671554538E+03  0.10926984533E+04  0.10138830599E+04 0.  0.
        -13    1    3    3    0    0 -0.48171724587E+02  0.15788021382E+03 -0.36477317397E+03  0.40038251282E+03  0.10566000000E+00 0.  1.
          4    1    3    3  501    0 -0.28840084527E+03 -0.19462279770E+03  0.58441036526E+03  0.68013862996E+03  0.00000000000E+00 0.  1.
         13    1    4    4    0    0 -0.75770244322E+02  0.34065434292E+03 -0.41923441023E+03  0.54547595104E+03  0.10566000000E+00 0. -1.
         -4    1    4    4    0  503  0.41234281418E+03 -0.30391175904E+03  0.19251886485E+03  0.54722250229E+03  0.00000000000E+00 0. -1.
<mgrwt>
<rscale>  2 0.10661701E+04</rscale>
<asrwt>0</asrwt>
<pdfrwt beam="1">  1       21 0.16662625E+00 0.10689200E+04</pdfrwt>
<pdfrwt beam="2">  1       21 0.16771523E+00 0.10689200E+04</pdfrwt>
<totfact> 0.23526493E+01</totfact>
</mgrwt>
</event>
<event>
 8    1  0.7631533E-006  0.1057934E+04  0.7818608E-02  0.8743453E-01
         21   -1    0    0  501  502  0.00000000000E+00  0.00000000000E+00  0.99074164559E+03  0.99074164559E+03  0.00000000000E+00 0.  1.
         21   -1    0    0  502  503 -0.00000000000E+00 -0.00000000000E+00 -0.12686446517E+04  0.12686446517E+04  0.00000000000E+00 0.  1.
    9000010    2    1    2  501    0 -0.20581944901E+03  0.21783209047E+03  0.34298697189E+03  0.11121436141E+04  0.10145988815E+04 0.  0.
   -9000010    2    1    2    0  503  0.20581944901E+03 -0.21783209047E+03 -0.62088997801E+03  0.11472426832E+04  0.91697815905E+03 0.  0.
        -13    1    3    3    0    0 -0.47717942479E+03  0.38402125573E+02 -0.16718527838E+03  0.50707578838E+03  0.10566000000E+00 0.  1.
          4    1    3    3  501    0  0.27135997578E+03  0.17942996490E+03  0.51017225027E+03  0.60506782571E+03  0.00000000000E+00 0.  1.
         13    1    4    4    0    0 -0.15918829355E+03 -0.33286827693E+03 -0.66651182000E+03  0.76182689632E+03  0.10566000000E+00 0. -1.
         -4    1    4    4    0  503  0.36500774256E+03  0.11503618646E+03  0.45621841986E+02  0.38541578690E+03  0.00000000000E+00 0. -1.
<mgrwt>
<rscale>  2 0.10338148E+04</rscale>
<asrwt>0</asrwt>
<pdfrwt beam="1">  1       21 0.15242179E+00 0.10579335E+04</pdfrwt>
<pdfrwt beam="2">  1       21 0.19517610E+00 0.10579335E+04</pdfrwt>
<totfact> 0.18698169E+01</totfact>
</mgrwt>
</event>
<event>
 8    1  0.7631533E-006  0.1032792E+04  0.7818608E-02  0.8748944E-01
         21   -1    0    0  501  502  0.00000000000E+00  0.00000000000E+00  0.28734504833E+04  0.28734504833E+04  0.00000000000E+00 0. -1.
         21   -1    0    0  502  503 -0.00000000000E+00 -0.00000000000E+00 -0.49353118286E+03  0.49353118286E+03  0.00000000000E+00 0. -1.
    9000010    2    1    2  501    0 -0.78765180030E+01 -0.25803729176E+03  0.20607980366E+04  0.23051134250E+04  0.10000070354E+04 0.  0.
   -9000010    2    1    2    0  503  0.78765180030E+01  0.25803729176E+03  0.31912126387E+03  0.10618682412E+04  0.97932655290E+03 0.  0.
        -13    1    3    3    0    0 -0.20324548923E+03  0.33752396796E+03  0.63009243636E+03  0.74313366722E+03  0.10566000000E+00 0.  1.
          4    1    3    3  501    0  0.19536897123E+03 -0.59556125972E+03  0.14307056002E+04  0.15619797577E+04  0.00000000000E+00 0.  1.
         13    1    4    4    0    0 -0.22256586610E+03  0.55620674073E+03  0.54831059885E+02  0.60158786514E+03  0.10566000000E+00 0. -1.
         -4    1    4    4    0  503  0.23044238411E+03 -0.29816944898E+03  0.26429020399E+03  0.46028037610E+03  0.00000000000E+00 0. -1.
<mgrwt>
<rscale>  2 0.10277526E+04</rscale>
<asrwt>0</asrwt>
<pdfrwt beam="1">  1       21 0.44206930E+00 0.10327920E+04</pdfrwt>
<pdfrwt beam="2">  1       21 0.75927876E-01 0.10327920E+04</pdfrwt>
<totfact> 0.21493211E+00</totfact>
</mgrwt>
</event>
<event>
 8    1  0.7631533E-006  0.1010797E+04  0.7818608E-02  0.8764802E-01
         21   -1    0    0  501  502  0.00000000000E+00  0.00000000000E+00  0.86646177774E+03  0.86646177774E+03  0.00000000000E+00 0. -1.
         21   -1    0    0  502  503 -0.00000000000E+00 -0.00000000000E+00 -0.13438995059E+04  0.13438995059E+04  0.00000000000E+00 0. -1.
    9000010    2    1    2  501    0 -0.17266742964E+03 -0.96844807436E+02 -0.62722373106E+03  0.11885259684E+04  0.98994515547E+03 0.  0.
   -9000010    2    1    2    0  503  0.17266742964E+03  0.96844807436E+02  0.14978600286E+03  0.10218353153E+04  0.99122076596E+03 0.  0.
        -13    1    3    3    0    0  0.44143866930E+02 -0.28859926949E+03  0.17175876834E+03  0.33873190727E+03  0.10566000000E+00 0.  1.
          4    1    3    3  501    0 -0.21681129657E+03  0.19175446206E+03 -0.79898249940E+03  0.84979406116E+03  0.00000000000E+00 0.  1.
         13    1    4    4    0    0  0.52174091935E+03  0.50306237198E+02  0.33685651856E+03  0.62307032484E+03  0.10566000000E+00 0. -1.
         -4    1    4    4    0  503 -0.34907348971E+03  0.46538570238E+02 -0.18707051570E+03  0.39876499042E+03  0.00000000000E+00 0. -1.
<mgrwt>
<rscale>  2 0.10104846E+04</rscale>
<asrwt>0</asrwt>
<pdfrwt beam="1">  1       21 0.13330181E+00 0.10107975E+04</pdfrwt>
<pdfrwt beam="2">  1       21 0.20675377E+00 0.10107975E+04</pdfrwt>
<totfact> 0.22987083E+01</totfact>
</mgrwt>
</event>
<event>
 8    1  0.7631533E-006  0.1025669E+04  0.7818608E-02  0.8754510E-01
         21   -1    0    0  501  502  0.00000000000E+00  0.00000000000E+00  0.18419728245E+04  0.18419728245E+04  0.00000000000E+00 0.  1.
         21   -1    0    0  502  503 -0.00000000000E+00 -0.00000000000E+00 -0.60549625270E+03  0.60549625270E+03  0.00000000000E+00 0.  1.
    9000010    2    1    2  501    0  0.50745314507E+02  0.24035381591E+03  0.29576142022E+03  0.10674602513E+04  0.99581701459E+03 0.  0.
   -9000010    2    1    2    0  503 -0.50745314507E+02 -0.24035381591E+03  0.94071515163E+03  0.13800088260E+04  0.97935403176E+03 0.  0.
        -13    1    3    3    0    0 -0.17611324660E+03 -0.87059257107E+02  0.55732142874E+03  0.59093347847E+03  0.10566000000E+00 0.  1.
          4    1    3    3  501    0  0.22685856111E+03  0.32741307301E+03 -0.26156000852E+03  0.47652677279E+03  0.00000000000E+00 0.  1.
         13    1    4    4    0    0 -0.15145721958E+03 -0.27510336598E+03  0.11245268404E+04  0.11675537578E+04  0.10566000000E+00 0. -1.
         -4    1    4    4    0  503  0.10071190507E+03  0.34749550077E+02 -0.18381168881E+03  0.21245506818E+03  0.00000000000E+00 0. -1.
<mgrwt>
<rscale>  2 0.10216513E+04</rscale>
<asrwt>0</asrwt>
<pdfrwt beam="1">  1       21 0.28338043E+00 0.10256688E+04</pdfrwt>
<pdfrwt beam="2">  1       21 0.93153271E-01 0.10256688E+04</pdfrwt>
<totfact> 0.16654216E+01</totfact>
</mgrwt>
</event>
<event>
 8    1  0.7631533E-006  0.1085747E+04  0.7818608E-02  0.8703227E-01
         21   -1    0    0  501  502  0.00000000000E+00  0.00000000000E+00  0.62766381998E+03  0.62766381998E+03  0.00000000000E+00 0. -1.
         21   -1    0    0  502  503 -0.00000000000E+00 -0.00000000000E+00 -0.18653261364E+04  0.18653261364E+04  0.00000000000E+00 0. -1.
    9000010    2    1    2  501    0  0.30545551220E+03 -0.28072294040E+03 -0.46945796089E+03  0.11828937824E+04  0.10033635852E+04 0.  0.
   -9000010    2    1    2    0  503 -0.30545551220E+03  0.28072294040E+03 -0.76820435554E+03  0.13100961740E+04  0.97678329941E+03 0.  0.
        -13    1    3    3    0    0  0.24434953860E+03 -0.65359505930E+03 -0.22624841694E+03  0.73354042553E+03  0.10566000000E+00 0.  1.
          4    1    3    3  501    0  0.61105973601E+02  0.37287211890E+03 -0.24320954394E+03  0.44935335687E+03  0.00000000000E+00 0.  1.
         13    1    4    4    0    0 -0.13423200890E+03  0.23169585055E+03  0.19456367213E+03  0.33099279909E+03  0.10566000000E+00 0. -1.
         -4    1    4    4    0  503 -0.17122350330E+03  0.49027089856E+02 -0.96276802767E+03  0.97910337489E+03  0.00000000000E+00 0. -1.
<mgrwt>
<rscale>  2 0.10795659E+04</rscale>
<asrwt>0</asrwt>
<pdfrwt beam="1">  1       21 0.96563666E-01 0.10857472E+04</pdfrwt>
<pdfrwt beam="2">  1       21 0.28697325E+00 0.10857472E+04</pdfrwt>
<totfact> 0.14132752E+01</totfact>
</mgrwt>
</event>
<event>
 8    1  0.7631533E-006  0.1048050E+04  0.7818608E-02  0.8732177E-01
         21   -1    0    0  503  502  0.00000000000E+00  0.00000000000E+00  0.32212215234E+04  0.32212215234E+04  0.00000000000E+00 0. -1.
         21   -1    0    0  501  503 -0.00000000000E+00 -0.00000000000E+00 -0.41092522007E+03  0.41092522007E+03  0.00000000000E+00 0. -1.
    9000010    2    1    2  501    0  0.29340393323E+02 -0.27631496612E+03  0.64091187356E+03  0.12228651838E+04  0.10037033471E+04 0.  0.
   -9000010    2    1    2    0  502 -0.29340393323E+02  0.27631496612E+03  0.21693844298E+04  0.24092815597E+04  0.10105434232E+04 0.  0.
        -13    1    3    3    0    0  0.45530691518E+02 -0.43430381520E+03  0.85277767389E+03  0.95808278349E+03  0.10566000000E+00 0.  1.
          4    1    3    3  501    0 -0.16190298195E+02  0.15798884908E+03 -0.21186580033E+03  0.26478240035E+03  0.00000000000E+00 0.  1.
         13    1    4    4    0    0 -0.36392533875E+03  0.38055239916E+03  0.58703018124E+03  0.78858495138E+03  0.10566000000E+00 0. -1.
         -4    1    4    4    0  502  0.33458494543E+03 -0.10423743304E+03  0.15823542486E+04  0.16206966083E+04  0.00000000000E+00 0. -1.
<mgrwt>
<rscale>  2 0.10463977E+04</rscale>
<asrwt>0</asrwt>
<pdfrwt beam="1">  1       21 0.49557253E+00 0.10480500E+04</pdfrwt>
<pdfrwt beam="2">  1       21 0.63219267E-01 0.10480500E+04</pdfrwt>
<totfact> 0.14030339E+00</totfact>
</mgrwt>
</event>
<event>
 8    1  0.7631533E-006  0.1024905E+04  0.7818608E-02  0.8755415E-01
         21   -1    0    0  503  502  0.00000000000E+00  0.00000000000E+00  0.89935297574E+03  0.89935297574E+03  0.00000000000E+00 0. -1.
         21   -1    0    0  501  503 -0.00000000000E+00 -0.00000000000E+00 -0.12287510789E+04  0.12287510789E+04  0.00000000000E+00 0. -1.
    9000010    2    1    2  501    0  0.65995925858E+02 -0.13697352529E+03  0.10535538538E+03  0.10303061526E+04  0.10135648978E+04 0.  0.
   -9000010    2    1    2    0  502 -0.65995925858E+02  0.13697352529E+03 -0.43475348853E+03  0.10977979020E+04  0.99651012488E+03 0.  0.
        -13    1    3    3    0    0  0.33358880599E+03 -0.44189770435E+03  0.23916072667E+03  0.60311933888E+03  0.10566000000E+00 0.  1.
          4    1    3    3  501    0 -0.26759288013E+03  0.30492417906E+03 -0.13380534129E+03  0.42718681374E+03  0.00000000000E+00 0.  1.
         13    1    4    4    0    0 -0.26582783619E+03 -0.26547421253E+03 -0.51893411038E+03  0.64065093311E+03  0.10566000000E+00 0. -1.
         -4    1    4    4    0  502  0.19983191033E+03  0.40244773782E+03  0.84180621857E+02  0.45714696888E+03  0.00000000000E+00 0. -1.
<mgrwt>
<rscale>  2 0.10206634E+04</rscale>
<asrwt>0</asrwt>
<pdfrwt beam="1">  1       21 0.13836200E+00 0.10249054E+04</pdfrwt>
<pdfrwt beam="2">  1       21 0.18903863E+00 0.10249054E+04</pdfrwt>
<totfact> 0.28264095E+01</totfact>
</mgrwt>
</event>
<event>
 8    1  0.7631533E-006  0.1027713E+04  0.7818608E-02  0.8754639E-01
         21   -1    0    0  501  502  0.00000000000E+00  0.00000000000E+00  0.98627485453E+03  0.98627485453E+03  0.00000000000E+00 0. -1.
         21   -1    0    0  502  503 -0.00000000000E+00 -0.00000000000E+00 -0.11209329793E+04  0.11209329793E+04  0.00000000000E+00 0. -1.
    9000010    2    1    2  501    0  0.19242548172E+03  0.24635544627E+00  0.20685968929E+03  0.10242361696E+04  0.98450046892E+03 0.  0.
   -9000010    2    1    2    0  503 -0.19242548172E+03 -0.24635544627E+00 -0.34151781407E+03  0.10829716643E+04  0.10095373106E+04 0.  0.
        -13    1    3    3    0    0  0.28929636754E+03 -0.22992121973E+03  0.51105940854E+03  0.63066463812E+03  0.10566000000E+00 0.  1.
          4    1    3    3  501    0 -0.96870885819E+02  0.23016757518E+03 -0.30419971925E+03  0.39357153146E+03  0.00000000000E+00 0.  1.
         13    1    4    4    0    0  0.18262391313E+02 -0.20251904168E+03 -0.63630043008E+03  0.66800129166E+03  0.10566000000E+00 0. -1.
         -4    1    4    4    0  503 -0.21068787303E+03  0.20227268624E+03  0.29478261601E+03  0.41497037260E+03  0.00000000000E+00 0. -1.
<mgrwt>
<rscale>  2 0.10215109E+04</rscale>
<asrwt>0</asrwt>
<pdfrwt beam="1">  1       21 0.15173459E+00 0.10277126E+04</pdfrwt>
<pdfrwt beam="2">  1       21 0.17245123E+00 0.10277126E+04</pdfrwt>
<totfact> 0.29157958E+01</totfact>
</mgrwt>
</event>
<event>
 8    1  0.7631533E-006  0.1045146E+04  0.7818608E-02  0.8734741E-01
         21   -1    0    0  503  502  0.00000000000E+00  0.00000000000E+00  0.64039552647E+03  0.64039552647E+03  0.00000000000E+00 0. -1.
         21   -1    0    0  501  503 -0.00000000000E+00 -0.00000000000E+00 -0.17227093808E+04  0.17227093808E+04  0.00000000000E+00 0. -1.
    9000010    2    1    2  501    0 -0.19236374315E+03  0.20303839324E+03 -0.39002931833E+03  0.11094748153E+04  0.10002915065E+04 0.  0.
   -9000010    2    1    2    0  502  0.19236374315E+03 -0.20303839324E+03 -0.69228453599E+03  0.12536300919E+04  0.10070263799E+04 0.  0.
        -13    1    3    3    0    0 -0.25419706438E+03  0.58101752161E+03 -0.13233742500E+03  0.64785084177E+03  0.10566000000E+00 0.  1.
          4    1    3    3  501    0  0.61833321229E+02 -0.37797912837E+03 -0.25769189333E+03  0.46162397358E+03  0.00000000000E+00 0.  1.
         13    1    4    4    0    0 -0.17071385653E+03 -0.91579906167E+02 -0.82796101506E+03  0.85032320540E+03  0.10566000000E+00 0. -1.
         -4    1    4    4    0  502  0.36307759968E+03 -0.11145848707E+03  0.13567647907E+03  0.40330688651E+03  0.00000000000E+00 0. -1.
<mgrwt>
<rscale>  2 0.10435205E+04</rscale>
<asrwt>0</asrwt>
<pdfrwt beam="1">  1       21 0.98522389E-01 0.10451462E+04</pdfrwt>
<pdfrwt beam="2">  1       21 0.26503221E+00 0.10451462E+04</pdfrwt>
<totfact> 0.19420582E+01</totfact>
</mgrwt>
</event>
<event>
 8    1  0.7631533E-006  0.1279160E+04  0.7818608E-02  0.8596363E-01
         21   -1    0    0  503  502  0.00000000000E+00  0.00000000000E+00  0.14969383133E+04  0.14969383133E+04  0.00000000000E+00 0. -1.
         21   -1    0    0  501  503 -0.00000000000E+00 -0.00000000000E+00 -0.90091301168E+03  0.90091301168E+03  0.00000000000E+00 0. -1.
    9000010    2    1    2  501    0  0.77063665175E+02  0.22535902899E+03  0.17510668889E+03  0.10512170478E+04  0.10087960292E+04 0.  0.
   -9000010    2    1    2    0  502 -0.77063665175E+02 -0.22535902899E+03  0.42091861277E+03  0.13466342773E+04  0.12567919071E+04 0.  0.
        -13    1    3    3    0    0 -0.34410479650E+03 -0.75960055135E+02  0.35768960599E+03  0.50211543130E+03  0.10566000000E+00 0.  1.
          4    1    3    3  501    0  0.42116846168E+03  0.30131908413E+03 -0.18258291710E+03  0.54910161645E+03  0.00000000000E+00 0.  1.
         13    1    4    4    0    0 -0.23938332297E+03 -0.70030405903E+02 -0.41328097660E+03  0.48271089676E+03  0.10566000000E+00 0. -1.
         -4    1    4    4    0  502  0.16231965780E+03 -0.15532862309E+03  0.83419958938E+03  0.86392338050E+03  0.00000000000E+00 0. -1.
<mgrwt>
<rscale>  2 0.12136382E+04</rscale>
<asrwt>0</asrwt>
<pdfrwt beam="1">  1       21 0.23029820E+00 0.12791604E+04</pdfrwt>
<pdfrwt beam="2">  1       21 0.13860200E+00 0.12791604E+04</pdfrwt>
<totfact> 0.12854154E+01</totfact>
</mgrwt>
</event>
<event>
 8    1  0.7631533E-006  0.1028542E+04  0.7818608E-02  0.8755711E-01
         21   -1    0    0  501  502  0.00000000000E+00  0.00000000000E+00  0.15465624813E+04  0.15465624813E+04  0.00000000000E+00 0.  1.
         21   -1    0    0  502  503 -0.00000000000E+00 -0.00000000000E+00 -0.72951152793E+03  0.72951152793E+03  0.00000000000E+00 0.  1.
    9000010    2    1    2  501    0 -0.13236780907E+03 -0.12049740708E+03  0.75897114879E+03  0.12782551403E+04  0.10128465515E+04 0.  0.
   -9000010    2    1    2    0  503  0.13236780907E+03  0.12049740708E+03  0.58079804535E+02  0.99781886893E+03  0.97991242951E+03 0.  0.
        -13    1    3    3    0    0  0.83409901779E+02 -0.48578630458E+03  0.11342921730E+03  0.50577835455E+03  0.10566000000E+00 0.  1.
          4    1    3    3  501    0 -0.21577771085E+03  0.36528889750E+03  0.64554193150E+03  0.77247678571E+03  0.00000000000E+00 0.  1.
         13    1    4    4    0    0 -0.25586157885E+03 -0.11979065870E+03 -0.30406797274E+03  0.41505697520E+03  0.10566000000E+00 0. -1.
         -4    1    4    4    0  503  0.38822938793E+03  0.24028806578E+03  0.36214777728E+03  0.58276189374E+03  0.00000000000E+00 0. -1.
<mgrwt>
<rscale>  2 0.10203408E+04</rscale>
<asrwt>0</asrwt>
<pdfrwt beam="1">  1       21 0.23793269E+00 0.10285422E+04</pdfrwt>
<pdfrwt beam="2">  1       21 0.11223254E+00 0.10285422E+04</pdfrwt>
<totfact> 0.21674314E+01</totfact>
</mgrwt>
</event>
<event>
 8    1  0.7631533E-006  0.1048162E+04  0.7818608E-02  0.8735803E-01
         21   -1    0    0  503  502  0.00000000000E+00  0.00000000000E+00  0.15881961742E+04  0.15881961742E+04  0.00000000000E+00 0.  1.
         21   -1    0    0  501  503 -0.00000000000E+00 -0.00000000000E+00 -0.91664947482E+03  0.91664947482E+03  0.00000000000E+00 0.  1.
    9000010    2    1    2  501    0  0.21216502966E+02 -0.23811941467E+03 -0.30237892694E+03  0.10909064638E+04  0.10205355955E+04 0.  0.
   -9000010    2    1    2    0  502 -0.21216502966E+02  0.23811941467E+03  0.97392562635E+03  0.14139391852E+04  0.99676571882E+03 0.  0.
        -13    1    3    3    0    0  0.18743855250E+03 -0.59546814972E+03 -0.57512441046E+02  0.62691564052E+03  0.10566000000E+00 0.  1.
          4    1    3    3  501    0 -0.16622204954E+03  0.35734873505E+03 -0.24486648590E+03  0.46399082330E+03  0.00000000000E+00 0.  1.
         13    1    4    4    0    0  0.31219302463E+03  0.41291184636E+03  0.20303601284E+03  0.55604344360E+03  0.10566000000E+00 0. -1.
         -4    1    4    4    0  502 -0.33340952760E+03 -0.17479243170E+03  0.77088961352E+03  0.85789574163E+03  0.00000000000E+00 0. -1.
<mgrwt>
<rscale>  2 0.10423314E+04</rscale>
<asrwt>0</asrwt>
<pdfrwt beam="1">  1       21 0.24433787E+00 0.10481622E+04</pdfrwt>
<pdfrwt beam="2">  1       21 0.14102300E+00 0.10481622E+04</pdfrwt>
<totfact> 0.10093146E+01</totfact>
</mgrwt>
</event>
<event>
 8    1  0.7631533E-006  0.1072975E+04  0.7818608E-02  0.8717506E-01
         21   -1    0    0  501  502  0.00000000000E+00  0.00000000000E+00  0.11417953354E+04  0.11417953354E+04  0.00000000000E+00 0. -1.
         21   -1    0    0  502  503 -0.00000000000E+00 -0.00000000000E+00 -0.10119874345E+04  0.10119874345E+04  0.00000000000E+00 0. -1.
    9000010    2    1    2  501    0 -0.27132439652E+03  0.26675263773E+02 -0.14838894585E+03  0.10831870316E+04  0.10377602653E+04 0.  0.
   -9000010    2    1    2    0  503  0.27132439652E+03 -0.26675263773E+02  0.27819684670E+03  0.10705957383E+04  0.99722276927E+03 0.  0.
        -13    1    3    3    0    0 -0.64140915448E+02  0.27214680746E+03 -0.52096681527E+03  0.59125660725E+03  0.10566000000E+00 0.  1.
          4    1    3    3  501    0 -0.20718348107E+03 -0.24547154369E+03  0.37257786941E+03  0.49193042431E+03  0.00000000000E+00 0.  1.
         13    1    4    4    0    0  0.15917987337E+03 -0.50685218799E+03  0.71984515237E+02  0.53611487030E+03  0.10566000000E+00 0. -1.
         -4    1    4    4    0  503  0.11214452315E+03  0.48017692422E+03  0.20621233147E+03  0.53448086802E+03  0.00000000000E+00 0. -1.
<mgrwt>
<rscale>  2 0.10630489E+04</rscale>
<asrwt>0</asrwt>
<pdfrwt beam="1">  1       21 0.17566082E+00 0.10729748E+04</pdfrwt>
<pdfrwt beam="2">  1       21 0.15569037E+00 0.10729748E+04</pdfrwt>
<totfact> 0.25058023E+01</totfact>
</mgrwt>
</event>
<event>
 8    1  0.7631533E-006  0.1015638E+04  0.7818608E-02  0.8762589E-01
         21   -1    0    0  501  502  0.00000000000E+00  0.00000000000E+00  0.10627590989E+04  0.10627590989E+04  0.00000000000E+00 0. -1.
         21   -1    0    0  502  503 -0.00000000000E+00 -0.00000000000E+00 -0.10284969538E+04  0.10284969538E+04  0.00000000000E+00 0. -1.
    9000010    2    1    2  501    0  0.93847858810E+01 -0.97097515615E+02  0.28666738729E+03  0.10447242060E+04  0.99987722945E+03 0.  0.
   -9000010    2    1    2    0  503 -0.93847858810E+01  0.97097515615E+02 -0.25240524220E+03  0.10465318467E+04  0.10109423812E+04 0.  0.
        -13    1    3    3    0    0  0.35197321126E+03  0.75567519680E+01 -0.22670165854E+03  0.41873129701E+03  0.10566000000E+00 0.  1.
          4    1    3    3  501    0 -0.34258842538E+03 -0.10465426758E+03  0.51336904583E+03  0.62599290902E+03  0.00000000000E+00 0.  1.
         13    1    4    4    0    0  0.49644567274E+03  0.21354608861E+02 -0.18686738106E+03  0.53088016969E+03  0.10566000000E+00 0. -1.
         -4    1    4    4    0  503 -0.50583045862E+03  0.75742906754E+02 -0.65537861144E+02  0.51565167704E+03  0.00000000000E+00 0. -1.
<mgrwt>
<rscale>  2 0.10128734E+04</rscale>
<asrwt>0</asrwt>
<pdfrwt beam="1">  1       21 0.16350140E+00 0.10156380E+04</pdfrwt>
<pdfrwt beam="2">  1       21 0.15823030E+00 0.10156380E+04</pdfrwt>
<totfact> 0.30509876E+01</totfact>
</mgrwt>
</event>
<event>
 8    1  0.7631533E-006  0.1082742E+04  0.7818608E-02  0.8700532E-01
         21   -1    0    0  503  502  0.00000000000E+00  0.00000000000E+00  0.17707113136E+04  0.17707113136E+04  0.00000000000E+00 0. -1.
         21   -1    0    0  501  503 -0.00000000000E+00 -0.00000000000E+00 -0.68463951961E+03  0.68463951961E+03  0.00000000000E+00 0. -1.
    9000010    2    1    2  501    0 -0.32890216047E+03  0.20747432421E+03  0.31985599345E+03  0.11289984668E+04  0.10104986170E+04 0.  0.
   -9000010    2    1    2    0  502  0.32890216047E+03 -0.20747432421E+03  0.76621580052E+03  0.13263523664E+04  0.10103968134E+04 0.  0.
        -13    1    3    3    0    0  0.13316206435E+03 -0.25728686111E+03  0.37206860474E+03  0.47155458017E+03  0.10566000000E+00 0.  1.
          4    1    3    3  501    0 -0.46206422482E+03  0.46476118532E+03 -0.52212611292E+02  0.65744388659E+03  0.00000000000E+00 0.  1.
         13    1    4    4    0    0  0.69037643714E+03 -0.18290727972E+03  0.57363921763E+03  0.91604402793E+03  0.10566000000E+00 0. -1.
         -4    1    4    4    0  502 -0.36147427667E+03 -0.24567044487E+02  0.19257658288E+03  0.41030833850E+03  0.00000000000E+00 0. -1.
<mgrwt>
<rscale>  2 0.10827180E+04</rscale>
<asrwt>0</asrwt>
<pdfrwt beam="1">  1       21 0.27241712E+00 0.10827417E+04</pdfrwt>
<pdfrwt beam="2">  1       21 0.10532916E+00 0.10827417E+04</pdfrwt>
<totfact> 0.14293390E+01</totfact>
</mgrwt>
</event>
<event>
 8    1  0.7631533E-006  0.9942147E+03  0.7818608E-02  0.8784225E-01
         21   -1    0    0  501  502  0.00000000000E+00  0.00000000000E+00  0.14847385859E+04  0.14847385859E+04  0.00000000000E+00 0.  1.
         21   -1    0    0  502  503 -0.00000000000E+00 -0.00000000000E+00 -0.75007588016E+03  0.75007588016E+03  0.00000000000E+00 0.  1.
    9000010    2    1    2  501    0 -0.17090365620E+01 -0.84662679412E+02  0.76990814923E+03  0.12574662639E+04  0.99060191622E+03 0.  0.
   -9000010    2    1    2    0  503  0.17090365620E+01  0.84662679412E+02 -0.35245443461E+02  0.97734820222E+03  0.97303472549E+03 0.  0.
        -13    1    3    3    0    0 -0.36044853395E+03  0.26328390009E+03  0.17238446309E+03  0.47849552971E+03  0.10566000000E+00 0.  1.
          4    1    3    3  501    0  0.35873949739E+03 -0.34794657950E+03  0.59752368614E+03  0.77897073415E+03  0.00000000000E+00 0.  1.
         13    1    4    4    0    0 -0.39302381583E+02  0.43911741427E+03 -0.29980282839E+03  0.53315150547E+03  0.10566000000E+00 0. -1.
         -4    1    4    4    0  503  0.41011418145E+02 -0.35445473486E+03  0.26455738493E+03  0.44419669675E+03  0.00000000000E+00 0. -1.
<mgrwt>
<rscale>  2 0.98980995E+03</rscale>
<asrwt>0</asrwt>
<pdfrwt beam="1">  1       21 0.22842132E+00 0.99421469E+03</pdfrwt>
<pdfrwt beam="2">  1       21 0.11539629E+00 0.99421469E+03</pdfrwt>
<totfact> 0.23806048E+01</totfact>
</mgrwt>
</event>
<event>
 8    1  0.7631533E-006  0.1024446E+04  0.7818608E-02  0.8755579E-01
         21   -1    0    0  501  502  0.00000000000E+00  0.00000000000E+00  0.56433562724E+03  0.56433562724E+03  0.00000000000E+00 0.  1.
         21   -1    0    0  502  503 -0.00000000000E+00 -0.00000000000E+00 -0.21697388480E+04  0.21697388480E+04  0.00000000000E+00 0.  1.
    9000010    2    1    2  501    0 -0.13410462539E+03 -0.13947360436E+03 -0.13479157502E+04  0.16930349421E+04  0.10060087021E+04 0.  0.
   -9000010    2    1    2    0  503  0.13410462539E+03  0.13947360436E+03 -0.25748747059E+03  0.10410395331E+04  0.98996291606E+03 0.  0.
        -13    1    3    3    0    0  0.14047188319E+03 -0.75174473252E+00 -0.13768960616E+04  0.13840432402E+04  0.10566000000E+00 0.  1.
          4    1    3    3  501    0 -0.27457650859E+03 -0.13872185962E+03  0.28980311439E+02  0.30899170192E+03  0.00000000000E+00 0.  1.
         13    1    4    4    0    0 -0.20067626245E+03 -0.64875249386E+02 -0.52533437595E+03  0.56608831290E+03  0.10566000000E+00 0. -1.
         -4    1    4    4    0  503  0.33478088784E+03  0.20434885374E+03  0.26784690536E+03  0.47495122023E+03  0.00000000000E+00 0. -1.
<mgrwt>
<rscale>  2 0.10204854E+04</rscale>
<asrwt>0</asrwt>
<pdfrwt beam="1">  1       21 0.86820866E-01 0.10244464E+04</pdfrwt>
<pdfrwt beam="2">  1       21 0.33380597E+00 0.10244464E+04</pdfrwt>
<totfact> 0.87957932E+00</totfact>
</mgrwt>
</event>
<event>
 8    1  0.7631533E-006  0.1047335E+04  0.7818608E-02  0.8731912E-01
         21   -1    0    0  501  502  0.00000000000E+00  0.00000000000E+00  0.12142447136E+04  0.12142447136E+04  0.00000000000E+00 0.  1.
         21   -1    0    0  502  503 -0.00000000000E+00 -0.00000000000E+00 -0.14364795596E+04  0.14364795596E+04  0.00000000000E+00 0.  1.
    9000010    2    1    2  501    0  0.22953856068E+03  0.24720452805E+03  0.69804350526E+03  0.12565134965E+04  0.98881919588E+03 0.  0.
   -9000010    2    1    2    0  503 -0.22953856068E+03 -0.24720452805E+03 -0.92027835132E+03  0.13942107767E+04  0.99152075947E+03 0.  0.
        -13    1    3    3    0    0  0.26729667007E+03 -0.96401489571E+02 -0.16376549601E+03  0.32796326909E+03  0.10566000000E+00 0.  1.
          4    1    3    3  501    0 -0.37758109392E+02  0.34360601762E+03  0.86180900127E+03  0.92855022742E+03  0.00000000000E+00 0.  1.
         13    1    4    4    0    0  0.20543010471E+03 -0.30356681184E+00  0.12144234267E+03  0.23864172693E+03  0.10566000000E+00 0. -1.
         -4    1    4    4    0  503 -0.43496866539E+03 -0.24690096124E+03 -0.10417206940E+04  0.11555690498E+04  0.00000000000E+00 0. -1.
<mgrwt>
<rscale>  2 0.10466955E+04</rscale>
<asrwt>0</asrwt>
<pdfrwt beam="1">  1       21 0.18680688E+00 0.10473354E+04</pdfrwt>
<pdfrwt beam="2">  1       21 0.22099685E+00 0.10473354E+04</pdfrwt>
<totfact> 0.60978072E+00</totfact>
</mgrwt>
</event>
<event>
 8    1  0.7631533E-006  0.1465854E+04  0.7818608E-02  0.8429781E-01
         21   -1    0    0  501  502  0.00000000000E+00  0.00000000000E+00  0.11223917506E+04  0.11223917506E+04  0.00000000000E+00 0. -1.
         21   -1    0    0  502  503 -0.00000000000E+00 -0.00000000000E+00 -0.20751898393E+04  0.20751898393E+04  0.00000000000E+00 0.  1.
    9000010    2    1    2  501    0 -0.72757479991E+03 -0.76735780028E+03 -0.26720569218E+02  0.14636996617E+04  0.10116815842E+04 0.  0.
   -9000010    2    1    2    0  503  0.72757479991E+03  0.76735780028E+03 -0.92607751956E+03  0.17338819282E+04  0.10151472236E+04 0.  0.
        -13    1    3    3    0    0  0.25590252586E+03 -0.13349343521E+03 -0.52516161509E+02  0.29336761643E+03  0.10566000000E+00 0.  1.
          4    1    3    3  501    0 -0.98347732577E+03 -0.63386436507E+03  0.25795592291E+02  0.11703320453E+04  0.00000000000E+00 0.  1.
         13    1    4    4    0    0  0.25695663802E+03  0.60547795568E+03 -0.10332034412E+04  0.12248018741E+04  0.10566000000E+00 0. -1.
         -4    1    4    4    0  503  0.47061816189E+03  0.16187984460E+03  0.10712592168E+03  0.50908005410E+03  0.00000000000E+00 0. -1.
<mgrwt>
<rscale>  2 0.14652538E+04</rscale>
<asrwt>0</asrwt>
<pdfrwt beam="1">  1       21 0.17267566E+00 0.14658537E+04</pdfrwt>
<pdfrwt beam="2">  1       21 0.31925997E+00 0.14658537E+04</pdfrwt>
<totfact> 0.14253139E+00</totfact>
</mgrwt>
</event>
<event>
 8    1  0.7631533E-006  0.1047158E+04  0.7818608E-02  0.8735447E-01
         21   -1    0    0  501  502  0.00000000000E+00  0.00000000000E+00  0.15570906794E+04  0.15570906794E+04  0.00000000000E+00 0. -1.
         21   -1    0    0  502  503 -0.00000000000E+00 -0.00000000000E+00 -0.78573135777E+03  0.78573135777E+03  0.00000000000E+00 0. -1.
    9000010    2    1    2  501    0  0.12410968857E+02  0.28735660806E+03 -0.20833478341E+02  0.10297689332E+04  0.98856571337E+03 0.  0.
   -9000010    2    1    2    0  503 -0.12410968857E+02 -0.28735660806E+03  0.79219280000E+03  0.13130531040E+04  0.10068819043E+04 0.  0.
        -13    1    3    3    0    0 -0.19669352511E+03  0.33975876048E+02 -0.44825065759E+03  0.49068458929E+03  0.10566000000E+00 0.  1.
          4    1    3    3  501    0  0.20910449397E+03  0.25338073201E+03  0.42741717924E+03  0.53908434393E+03  0.00000000000E+00 0.  1.
         13    1    4    4    0    0 -0.30615847539E+03 -0.55690084460E+03  0.38421504019E+03  0.74262559277E+03  0.10566000000E+00 0. -1.
         -4    1    4    4    0  503  0.29374750653E+03  0.26954423654E+03  0.40797775981E+03  0.57042751121E+03  0.00000000000E+00 0. -1.
<mgrwt>
<rscale>  2 0.10427297E+04</rscale>
<asrwt>0</asrwt>
<pdfrwt beam="1">  1       21 0.23955241E+00 0.10471576E+04</pdfrwt>
<pdfrwt beam="2">  1       21 0.12088175E+00 0.10471576E+04</pdfrwt>
<totfact> 0.17102475E+01</totfact>
</mgrwt>
</event>
<event>
 8    1  0.7631533E-006  0.1059394E+04  0.7818608E-02  0.8732744E-01
         21   -1    0    0  503  502  0.00000000000E+00  0.00000000000E+00  0.77334122036E+03  0.77334122036E+03  0.00000000000E+00 0. -1.
         21   -1    0    0  501  503 -0.00000000000E+00 -0.00000000000E+00 -0.14136043607E+04  0.14136043607E+04  0.00000000000E+00 0. -1.
    9000010    2    1    2  501    0  0.58921289458E+02 -0.20790259172E+03 -0.14078490306E+03  0.10157095390E+04  0.98242061905E+03 0.  0.
   -9000010    2    1    2    0  502 -0.58921289458E+02  0.20790259172E+03 -0.49947823725E+03  0.11712360420E+04  0.10371210877E+04 0.  0.
        -13    1    3    3    0    0 -0.40498817280E+03 -0.44195626296E+02 -0.29178929066E+03  0.50110844615E+03  0.10566000000E+00 0.  1.
          4    1    3    3  501    0  0.46390946226E+03 -0.16370696543E+03  0.15100438760E+03  0.51460109287E+03  0.00000000000E+00 0.  1.
         13    1    4    4    0    0 -0.26958716053E+03  0.11844247051E+03  0.25082181628E+03  0.38680415023E+03  0.10566000000E+00 0. -1.
         -4    1    4    4    0  502  0.21066587107E+03  0.89460121210E+02 -0.75030005354E+03  0.78443189179E+03  0.00000000000E+00 0. -1.
<mgrwt>
<rscale>  2 0.10457608E+04</rscale>
<asrwt>0</asrwt>
<pdfrwt beam="1">  1       21 0.11897557E+00 0.10593939E+04</pdfrwt>
<pdfrwt beam="2">  1       21 0.21747759E+00 0.10593939E+04</pdfrwt>
<totfact> 0.26041668E+01</totfact>
</mgrwt>
</event>
<event>
 8    1  0.7631533E-006  0.1027052E+04  0.7818608E-02  0.8755064E-01
         21   -1    0    0  503  502  0.00000000000E+00  0.00000000000E+00  0.25850185028E+04  0.25850185028E+04  0.00000000000E+00 0. -1.
         21   -1    0    0  501  503 -0.00000000000E+00 -0.00000000000E+00 -0.40385594399E+03  0.40385594399E+03  0.00000000000E+00 0. -1.
    9000010    2    1    2  501    0  0.11474081751E+03 -0.19751799266E+03  0.12728324583E+04  0.16355238109E+04  0.10013275470E+04 0.  0.
   -9000010    2    1    2    0  502 -0.11474081751E+03  0.19751799266E+03  0.90833010046E+03  0.13533506359E+04  0.97689076135E+03 0.  0.
        -13    1    3    3    0    0  0.77013380230E+02 -0.39704613201E+03  0.63667844153E+02  0.40942679104E+03  0.10566000000E+00 0.  1.
          4    1    3    3  501    0  0.37727437282E+02  0.19952813935E+03  0.12091646141E+04  0.12260970198E+04  0.00000000000E+00 0.  1.
         13    1    4    4    0    0 -0.79789938286E+02  0.59125449326E+03  0.44487204415E+03  0.74421734519E+03  0.10566000000E+00 0. -1.
         -4    1    4    4    0  502 -0.34950879227E+02 -0.39373650060E+03  0.46345805631E+03  0.60913329069E+03  0.00000000000E+00 0. -1.
<mgrwt>
<rscale>  2 0.10210470E+04</rscale>
<asrwt>0</asrwt>
<pdfrwt beam="1">  1       21 0.39769514E+00 0.10270519E+04</pdfrwt>
<pdfrwt beam="2">  1       21 0.62131685E-01 0.10270519E+04</pdfrwt>
<totfact> 0.70027566E+00</totfact>
</mgrwt>
</event>
<event>
 8    1  0.7631533E-006  0.1103757E+04  0.7818608E-02  0.8702655E-01
         21   -1    0    0  503  502  0.00000000000E+00  0.00000000000E+00  0.87250932578E+03  0.87250932578E+03  0.00000000000E+00 0. -1.
         21   -1    0    0  501  503 -0.00000000000E+00 -0.00000000000E+00 -0.13515426634E+04  0.13515426634E+04  0.00000000000E+00 0. -1.
    9000010    2    1    2  501    0 -0.94662368973E+02 -0.48139359296E+02 -0.49879047025E+03  0.12112276346E+04  0.10986364674E+04 0.  0.
   -9000010    2    1    2    0  502  0.94662368973E+02  0.48139359296E+02  0.19757132678E+02  0.10128243546E+04  0.10070474005E+04 0.  0.
        -13    1    3    3    0    0 -0.53470346864E+03 -0.19495780348E+03 -0.59313023486E+02  0.57221883090E+03  0.10566000000E+00 0.  1.
          4    1    3    3  501    0  0.44004109967E+03  0.14681844418E+03 -0.43947744676E+03  0.63900880367E+03  0.00000000000E+00 0.  1.
         13    1    4    4    0    0 -0.23446677623E+03  0.21493163958E+02  0.42755635833E+03  0.48809945295E+03  0.10566000000E+00 0. -1.
         -4    1    4    4    0  502  0.32912914520E+03  0.26646195338E+02 -0.40779922566E+03  0.52472490163E+03  0.00000000000E+00 0. -1.
<mgrwt>
<rscale>  2 0.10802346E+04</rscale>
<asrwt>0</asrwt>
<pdfrwt beam="1">  1       21 0.13423220E+00 0.11037574E+04</pdfrwt>
<pdfrwt beam="2">  1       21 0.20792964E+00 0.11037574E+04</pdfrwt>
<totfact> 0.21607906E+01</totfact>
</mgrwt>
</event>
<event>
 8    1  0.7631533E-006  0.1082081E+04  0.7818608E-02  0.8703511E-01
         21   -1    0    0  503  502  0.00000000000E+00  0.00000000000E+00  0.80201205840E+03  0.80201205840E+03  0.00000000000E+00 0. -1.
         21   -1    0    0  501  503 -0.00000000000E+00 -0.00000000000E+00 -0.14576280765E+04  0.14576280765E+04  0.00000000000E+00 0. -1.
    9000010    2    1    2  501    0  0.32374330452E+03 -0.10087409158E+03 -0.22308039392E+03  0.11048366759E+04  0.10275767167E+04 0.  0.
   -9000010    2    1    2    0  502 -0.32374330452E+03  0.10087409158E+03 -0.43253562421E+03  0.11548034590E+04  0.10156272215E+04 0.  0.
        -13    1    3    3    0    0  0.45168214416E+03 -0.31082145621E+03  0.22585322347E+03  0.59298939848E+03  0.10566000000E+00 0.  1.
          4    1    3    3  501    0 -0.12793883964E+03  0.20994736463E+03 -0.44893361739E+03  0.51184727745E+03  0.00000000000E+00 0.  1.
         13    1    4    4    0    0  0.17825156961E+03  0.33282331720E+03 -0.46725138804E+03  0.60072360810E+03  0.10566000000E+00 0. -1.
         -4    1    4    4    0  502 -0.50199487413E+03 -0.23194922562E+03  0.34715763831E+02  0.55407985090E+03  0.00000000000E+00 0. -1.
<mgrwt>
<rscale>  2 0.10792345E+04</rscale>
<asrwt>0</asrwt>
<pdfrwt beam="1">  1       21 0.12338647E+00 0.10820810E+04</pdfrwt>
<pdfrwt beam="2">  1       21 0.22425047E+00 0.10820810E+04</pdfrwt>
<totfact> 0.20801774E+01</totfact>
</mgrwt>
</event>
<event>
 8    1  0.7631533E-006  0.1016853E+04  0.7818608E-02  0.8767310E-01
         21   -1    0    0  501  502  0.00000000000E+00  0.00000000000E+00  0.15550983054E+04  0.15550983054E+04  0.00000000000E+00 0.  1.
         21   -1    0    0  502  503 -0.00000000000E+00 -0.00000000000E+00 -0.85853376263E+03  0.85853376263E+03  0.00000000000E+00 0.  1.
    9000010    2    1    2  501    0  0.53724977056E+02 -0.82710992480E+02  0.95002639870E+03  0.13656658849E+04  0.97609716198E+03 0.  0.
   -9000010    2    1    2    0  503 -0.53724977056E+02  0.82710992480E+02 -0.25346185588E+03  0.10479661831E+04  0.10120586580E+04 0.  0.
        -13    1    3    3    0    0  0.18440824250E+03  0.37903570344E+03  0.71811068655E+03  0.83268087145E+03  0.10566000000E+00 0.  1.
          4    1    3    3  501    0 -0.13068326544E+03 -0.46174669592E+03  0.23191571215E+03  0.53298501349E+03  0.00000000000E+00 0.  1.
         13    1    4    4    0    0  0.47815273452E+03  0.10332178861E+02 -0.88262499419E+02  0.48634048918E+03  0.10566000000E+00 0. -1.
         -4    1    4    4    0  503 -0.53187771158E+03  0.72378813619E+02 -0.16519935646E+03  0.56162569396E+03  0.00000000000E+00 0. -1.
<mgrwt>
<rscale>  2 0.10077861E+04</rscale>
<asrwt>0</asrwt>
<pdfrwt beam="1">  1       21 0.23924589E+00 0.10168531E+04</pdfrwt>
<pdfrwt beam="2">  1       21 0.13208212E+00 0.10168531E+04</pdfrwt>
<totfact> 0.13443279E+01</totfact>
</mgrwt>
</event>
<event>
 8    1  0.7631533E-006  0.1038122E+04  0.7818608E-02  0.8739850E-01
         21   -1    0    0  503  502  0.00000000000E+00  0.00000000000E+00  0.12330057666E+04  0.12330057666E+04  0.00000000000E+00 0. -1.
         21   -1    0    0  501  503 -0.00000000000E+00 -0.00000000000E+00 -0.12057974543E+04  0.12057974543E+04  0.00000000000E+00 0. -1.
    9000010    2    1    2  501    0 -0.22397257809E+03  0.83413033673E+01 -0.62700012314E+03  0.12127759744E+04  0.10136385533E+04 0.  0.
   -9000010    2    1    2    0  502  0.22397257809E+03 -0.83413033673E+01  0.65420843546E+03  0.12260272465E+04  0.10123837410E+04 0.  0.
        -13    1    3    3    0    0 -0.11500726013E+02 -0.20042847722E+03 -0.82893905264E+03  0.85290316293E+03  0.10566000000E+00 0.  1.
          4    1    3    3  501    0 -0.21247185208E+03  0.20876978059E+03  0.20193892950E+03  0.35987281150E+03  0.00000000000E+00 0.  1.
         13    1    4    4    0    0  0.11753608682E+03 -0.21818740263E+03  0.87131291073E+03  0.90587343152E+03  0.10566000000E+00 0. -1.
         -4    1    4    4    0  502  0.10643649127E+03  0.20984609926E+03 -0.21710447526E+03  0.32015381495E+03  0.00000000000E+00 0. -1.
<mgrwt>
<rscale>  2 0.10378151E+04</rscale>
<asrwt>0</asrwt>
<pdfrwt beam="1">  1       21 0.18969320E+00 0.10381216E+04</pdfrwt>
<pdfrwt beam="2">  1       21 0.18550730E+00 0.10381216E+04</pdfrwt>
<totfact> 0.10931087E+01</totfact>
</mgrwt>
</event>
<event>
 8    1  0.7631533E-006  0.1045212E+04  0.7818608E-02  0.8734456E-01
         21   -1    0    0  503  502  0.00000000000E+00  0.00000000000E+00  0.18478856710E+04  0.18478856710E+04  0.00000000000E+00 0. -1.
         21   -1    0    0  501  503 -0.00000000000E+00 -0.00000000000E+00 -0.61138279889E+03  0.61138279889E+03  0.00000000000E+00 0. -1.
    9000010    2    1    2  501    0  0.30244776131E+02 -0.26651875667E+03  0.37987667713E+03  0.11121038347E+04  0.10102087186E+04 0.  0.
   -9000010    2    1    2    0  502 -0.30244776131E+02  0.26651875667E+03  0.85662619502E+03  0.13471646352E+04  0.10045382632E+04 0.  0.
        -13    1    3    3    0    0 -0.98431656118E+01  0.31273566559E+03  0.42721150278E+03  0.52953768866E+03  0.10566000000E+00 0.  1.
          4    1    3    3  501    0  0.40087941743E+02 -0.57925442227E+03 -0.47334825643E+02  0.58256614604E+03  0.00000000000E+00 0.  1.
         13    1    4    4    0    0  0.63421507553E+02 -0.25409625163E+03 -0.77972197600E+02  0.27325238787E+03  0.10566000000E+00 0. -1.
         -4    1    4    4    0  502 -0.93666283684E+02  0.52061500831E+03  0.93459839262E+03  0.10739122474E+04  0.00000000000E+00 0. -1.
<mgrwt>
<rscale>  2 0.10438397E+04</rscale>
<asrwt>0</asrwt>
<pdfrwt beam="1">  1       21 0.28429010E+00 0.10452123E+04</pdfrwt>
<pdfrwt beam="2">  1       21 0.94058893E-01 0.10452123E+04</pdfrwt>
<totfact> 0.15936946E+01</totfact>
</mgrwt>
</event>
<event>
 8    1  0.7631533E-006  0.1280675E+04  0.7818608E-02  0.8549126E-01
         21   -1    0    0  501  502  0.00000000000E+00  0.00000000000E+00  0.18478173878E+04  0.18478173878E+04  0.00000000000E+00 0.  1.
         21   -1    0    0  502  503 -0.00000000000E+00 -0.00000000000E+00 -0.14770830179E+04  0.14770830179E+04  0.00000000000E+00 0.  1.
    9000010    2    1    2  501    0 -0.79495558107E+03  0.19587281873E+03  0.12387277719E+04  0.17777934577E+04  0.97764131896E+03 0.  0.
   -9000010    2    1    2    0  503  0.79495558107E+03 -0.19587281873E+03 -0.86799340200E+03  0.15471069479E+04  0.98478770567E+03 0.  0.
        -13    1    3    3    0    0  0.13393357666E+03 -0.15529350406E+03  0.20495783422E+02  0.20609309465E+03  0.10566000000E+00 0.  1.
          4    1    3    3  501    0 -0.92888915773E+03  0.35116632279E+03  0.12182319885E+04  0.15717003631E+04  0.00000000000E+00 0.  1.
         13    1    4    4    0    0  0.18127454891E+03 -0.23699094168E+03 -0.88281322570E+03  0.93187143488E+03  0.10566000000E+00 0. -1.
         -4    1    4    4    0  503  0.61368103215E+03  0.41118122949E+02  0.14819823700E+02  0.61523551298E+03  0.00000000000E+00 0. -1.
<mgrwt>
<rscale>  2 0.12793006E+04</rscale>
<asrwt>0</asrwt>
<pdfrwt beam="1">  1       21 0.28427960E+00 0.12806746E+04</pdfrwt>
<pdfrwt beam="2">  1       21 0.22724354E+00 0.12806746E+04</pdfrwt>
<totfact> 0.97279897E-01</totfact>
</mgrwt>
</event>
<event>
 8    1  0.7631533E-006  0.1067206E+04  0.7818608E-02  0.8714354E-01
         21   -1    0    0  501  502  0.00000000000E+00  0.00000000000E+00  0.20277236030E+04  0.20277236030E+04  0.00000000000E+00 0. -1.
         21   -1    0    0  502  503 -0.00000000000E+00 -0.00000000000E+00 -0.66066970698E+03  0.66066970698E+03  0.00000000000E+00 0. -1.
    9000010    2    1    2  501    0 -0.27975332386E+02  0.31510382991E+03  0.16082959457E+03  0.10792570258E+04  0.10192431145E+04 0.  0.
   -9000010    2    1    2    0  503  0.27975332386E+02 -0.31510382991E+03  0.12062243015E+04  0.16091362842E+04  0.10169903995E+04 0.  0.
        -13    1    3    3    0    0 -0.47779421966E+03  0.54997335108E+02 -0.10990631961E+03  0.49334717336E+03  0.10566000000E+00 0.  1.
          4    1    3    3  501    0  0.44981888727E+03  0.26010649481E+03  0.27073591417E+03  0.58590985246E+03  0.00000000000E+00 0.  1.
         13    1    4    4    0    0  0.14934886868E+03 -0.52459736046E+03  0.12493376486E+04  0.13632138668E+04  0.10566000000E+00 0. -1.
         -4    1    4    4    0  503 -0.12137353629E+03  0.20949353055E+03 -0.43113347180E+02  0.24592241736E+03  0.00000000000E+00 0. -1.
<mgrwt>
<rscale>  2 0.10666682E+04</rscale>
<asrwt>0</asrwt>
<pdfrwt beam="1">  1       21 0.31195747E+00 0.10672064E+04</pdfrwt>
<pdfrwt beam="2">  1       21 0.10164149E+00 0.10672064E+04</pdfrwt>
<totfact> 0.82640586E+00</totfact>
</mgrwt>
</event>
<event>
 8    1  0.7631533E-006  0.1042875E+04  0.7818608E-02  0.8737832E-01
         21   -1    0    0  503  502  0.00000000000E+00  0.00000000000E+00  0.82475434653E+03  0.82475434653E+03  0.00000000000E+00 0.  1.
         21   -1    0    0  501  503 -0.00000000000E+00 -0.00000000000E+00 -0.13656308596E+04  0.13656308596E+04  0.00000000000E+00 0.  1.
    9000010    2    1    2  501    0  0.26600079022E+03 -0.73907123716E+02 -0.50064440390E+03  0.11467342139E+04  0.99405022750E+03 0.  0.
   -9000010    2    1    2    0  502 -0.26600079022E+03  0.73907123716E+02 -0.40232109200E+02  0.10436509923E+04  0.10056689752E+04 0.  0.
        -13    1    3    3    0    0  0.45722089521E+03  0.80711600835E+02 -0.69325780202E+03  0.83436904350E+03  0.10566000000E+00 0.  1.
          4    1    3    3  501    0 -0.19122010499E+03 -0.15461872455E+03  0.19261339812E+03  0.31236517038E+03  0.00000000000E+00 0.  1.
         13    1    4    4    0    0  0.22401711340E+03  0.31154748383E+03  0.21756776184E+03  0.44111364061E+03  0.10566000000E+00 0. -1.
         -4    1    4    4    0  502 -0.49001790362E+03 -0.23764036012E+03 -0.25779987104E+03  0.60253735165E+03  0.00000000000E+00 0. -1.
<mgrwt>
<rscale>  2 0.10400640E+04</rscale>
<asrwt>0</asrwt>
<pdfrwt beam="1">  1       21 0.12688528E+00 0.10428752E+04</pdfrwt>
<pdfrwt beam="2">  1       21 0.21009705E+00 0.10428752E+04</pdfrwt>
<totfact> 0.24799171E+01</totfact>
</mgrwt>
</event>
<event>
 8    1  0.7631533E-006  0.1048666E+04  0.7818608E-02  0.8730790E-01
         21   -1    0    0  503  502  0.00000000000E+00  0.00000000000E+00  0.75914533723E+03  0.75914533723E+03  0.00000000000E+00 0. -1.
         21   -1    0    0  501  503 -0.00000000000E+00 -0.00000000000E+00 -0.16736419874E+04  0.16736419874E+04  0.00000000000E+00 0. -1.
    9000010    2    1    2  501    0 -0.26907227956E+03  0.13099815959E+03 -0.90660499134E+03  0.13840914944E+04  0.10021059052E+04 0.  0.
   -9000010    2    1    2    0  502  0.26907227956E+03 -0.13099815959E+03 -0.78916587883E+01  0.10486958302E+04  0.10050573399E+04 0.  0.
        -13    1    3    3    0    0 -0.22332251384E+03 -0.42532545387E+03 -0.33871215688E+03  0.58779301057E+03  0.10566000000E+00 0.  1.
          4    1    3    3  501    0 -0.45749765719E+02  0.55632361346E+03 -0.56789283446E+03  0.79629848385E+03  0.00000000000E+00 0.  1.
         13    1    4    4    0    0 -0.32326452129E+03 -0.23171824668E+03 -0.16030815546E+03  0.42882631966E+03  0.10566000000E+00 0. -1.
         -4    1    4    4    0  502  0.59233680085E+03  0.10072008708E+03  0.15241649667E+03  0.61986951049E+03  0.00000000000E+00 0. -1.
<mgrwt>
<rscale>  2 0.10479583E+04</rscale>
<asrwt>0</asrwt>
<pdfrwt beam="1">  1       21 0.11679159E+00 0.10486661E+04</pdfrwt>
<pdfrwt beam="2">  1       21 0.25748338E+00 0.10486661E+04</pdfrwt>
<totfact> 0.13927925E+01</totfact>
</mgrwt>
</event>
<event>
 8    1  0.7631533E-006  0.1023422E+04  0.7818608E-02  0.8755750E-01
         21   -1    0    0  503  502  0.00000000000E+00  0.00000000000E+00  0.22444890928E+04  0.22444890928E+04  0.00000000000E+00 0.  1.
         21   -1    0    0  501  503 -0.00000000000E+00 -0.00000000000E+00 -0.46260903018E+03  0.46260903018E+03  0.00000000000E+00 0.  1.
    9000010    2    1    2  501    0  0.12695182443E+03 -0.74327227437E+02  0.97625064281E+03  0.14143754123E+04  0.10127937533E+04 0.  0.
   -9000010    2    1    2    0  502 -0.12695182443E+03  0.74327227437E+02  0.80562941981E+03  0.12927227107E+04  0.10002259456E+04 0.  0.
        -13    1    3    3    0    0 -0.40673149060E+03 -0.19971972218E+03  0.58923690040E+03  0.74331595491E+03  0.10566000000E+00 0.  1.
          4    1    3    3  501    0  0.53368331503E+03  0.12539249474E+03  0.38701374241E+03  0.67105945734E+03  0.00000000000E+00 0.  1.
         13    1    4    4    0    0  0.18080168630E+03 -0.10028798456E+02 -0.18084532319E+03  0.25591965273E+03  0.10566000000E+00 0. -1.
         -4    1    4    4    0  502 -0.30775351073E+03  0.84356025894E+02  0.98647474301E+03  0.10368030580E+04  0.00000000000E+00 0. -1.
<mgrwt>
<rscale>  2 0.10202988E+04</rscale>
<asrwt>0</asrwt>
<pdfrwt beam="1">  1       21 0.34530601E+00 0.10234220E+04</pdfrwt>
<pdfrwt beam="2">  1       21 0.71170621E-01 0.10234220E+04</pdfrwt>
<totfact> 0.11864921E+01</totfact>
</mgrwt>
</event>
<event>
 8    1  0.7631533E-006  0.1037359E+04  0.7818608E-02  0.8741367E-01
         21   -1    0    0  503  502  0.00000000000E+00  0.00000000000E+00  0.43590809829E+03  0.43590809829E+03  0.00000000000E+00 0. -1.
         21   -1    0    0  501  503 -0.00000000000E+00 -0.00000000000E+00 -0.29673719992E+04  0.29673719992E+04  0.00000000000E+00 0. -1.
    9000010    2    1    2  501    0  0.13301786373E+03  0.23415536813E+03 -0.19689547206E+04  0.22232252714E+04  0.99670729253E+03 0.  0.
   -9000010    2    1    2    0  502 -0.13301786373E+03 -0.23415536813E+03 -0.56250918027E+03  0.11800548261E+04  0.10017935547E+04 0.  0.
        -13    1    3    3    0    0  0.28959315437E+03 -0.28733217857E+03 -0.43907527896E+03  0.59934221248E+03  0.10566000000E+00 0.  1.
          4    1    3    3  501    0 -0.15657529064E+03  0.52148754670E+03 -0.15298794417E+04  0.16238830589E+04  0.00000000000E+00 0.  1.
         13    1    4    4    0    0 -0.19841426318E+03 -0.49782310872E+03  0.21095819316E+02  0.53632183637E+03  0.10566000000E+00 0. -1.
         -4    1    4    4    0  502  0.65396399450E+02  0.26366774060E+03 -0.58360499959E+03  0.64373298970E+03  0.00000000000E+00 0. -1.
<mgrwt>
<rscale>  2 0.10361286E+04</rscale>
<asrwt>0</asrwt>
<pdfrwt beam="1">  1       21 0.67062783E-01 0.10373586E+04</pdfrwt>
<pdfrwt beam="2">  1       21 0.45651878E+00 0.10373586E+04</pdfrwt>
<totfact> 0.22900922E+00</totfact>
</mgrwt>
</event>
<event>
 8    1  0.7631533E-006  0.1148303E+04  0.7818608E-02  0.8650280E-01
         21   -1    0    0  501  502  0.00000000000E+00  0.00000000000E+00  0.82704198061E+03  0.82704198061E+03  0.00000000000E+00 0. -1.
         21   -1    0    0  502  503 -0.00000000000E+00 -0.00000000000E+00 -0.19711969050E+04  0.19711969050E+04  0.00000000000E+00 0. -1.
    9000010    2    1    2  501    0 -0.21701379753E+03 -0.50297529566E+03  0.63969689686E+02  0.11314561538E+04  0.98793814100E+03 0.  0.
   -9000010    2    1    2    0  503  0.21701379753E+03  0.50297529566E+03 -0.12081246141E+04  0.16667827318E+04  0.10092177444E+04 0.  0.
        -13    1    3    3    0    0  0.17505752952E+03 -0.67749738105E+03  0.19784659464E+02  0.70002805936E+03  0.10566000000E+00 0.  1.
          4    1    3    3  501    0 -0.39207132705E+03  0.17452208539E+03  0.44185030222E+02  0.43142809445E+03  0.00000000000E+00 0.  1.
         13    1    4    4    0    0 -0.56252951250E+01  0.14504088852E+03 -0.12358499852E+04  0.12443446871E+04  0.10566000000E+00 0. -1.
         -4    1    4    4    0  503  0.22263909266E+03  0.35793440714E+03  0.27725371117E+02  0.42243804468E+03  0.00000000000E+00 0. -1.
<mgrwt>
<rscale>  2 0.11436101E+04</rscale>
<asrwt>0</asrwt>
<pdfrwt beam="1">  1       21 0.12723723E+00 0.11483029E+04</pdfrwt>
<pdfrwt beam="2">  1       21 0.30326106E+00 0.11483029E+04</pdfrwt>
<totfact> 0.50436349E+00</totfact>
</mgrwt>
</event>
<event>
 8    1  0.7631533E-006  0.1160146E+04  0.7818608E-02  0.8638225E-01
         21   -1    0    0  503  502  0.00000000000E+00  0.00000000000E+00  0.11656979374E+04  0.11656979374E+04  0.00000000000E+00 0.  1.
         21   -1    0    0  501  503 -0.00000000000E+00 -0.00000000000E+00 -0.12187604724E+04  0.12187604724E+04  0.00000000000E+00 0. -1.
    9000010    2    1    2  501    0 -0.44436022000E+03  0.40088716165E+03 -0.31089052137E+03  0.11960081868E+04  0.98773283090E+03 0.  0.
   -9000010    2    1    2    0  502  0.44436022000E+03 -0.40088716165E+03  0.25782798636E+03  0.11884502230E+04  0.99386726497E+03 0.  0.
        -13    1    3    3    0    0  0.54698063493E+02  0.24043823936E+03 -0.56276871152E+03  0.61441928593E+03  0.10566000000E+00 0.  1.
          4    1    3    3  501    0 -0.49905828350E+03  0.16044892229E+03  0.25187819016E+03  0.58158890091E+03  0.00000000000E+00 0.  1.
         13    1    4    4    0    0  0.65218104591E+03  0.59324975776E+02  0.13189975235E+03  0.66802479387E+03  0.10566000000E+00 0. -1.
         -4    1    4    4    0  502 -0.20782082590E+03 -0.46021213743E+03  0.12592823401E+03  0.52042542908E+03  0.00000000000E+00 0. -1.
<mgrwt>
<rscale>  2 0.11588310E+04</rscale>
<asrwt>0</asrwt>
<pdfrwt beam="1">  1       21 0.17933814E+00 0.11601460E+04</pdfrwt>
<pdfrwt beam="2">  1       21 0.18750161E+00 0.11601460E+04</pdfrwt>
<totfact> 0.12428180E+01</totfact>
</mgrwt>
</event>
<event>
 8    1  0.7631533E-006  0.1063777E+04  0.7818608E-02  0.8725097E-01
         21   -1    0    0  501  502  0.00000000000E+00  0.00000000000E+00  0.11810024457E+04  0.11810024457E+04  0.00000000000E+00 0. -1.
         21   -1    0    0  502  503 -0.00000000000E+00 -0.00000000000E+00 -0.10888902694E+04  0.10888902694E+04  0.00000000000E+00 0. -1.
    9000010    2    1    2  501    0 -0.27863533794E+03  0.74795335398E+00  0.48546206894E+03  0.11357211786E+04  0.98820593205E+03 0.  0.
   -9000010    2    1    2    0  503  0.27863533794E+03 -0.74795335398E+00 -0.39334989264E+03  0.11341715365E+04  0.10266366082E+04 0.  0.
        -13    1    3    3    0    0 -0.17207861885E+03  0.80560983599E+02  0.78513911617E+03  0.80780230629E+03  0.10566000000E+00 0.  1.
          4    1    3    3  501    0 -0.10655671909E+03 -0.79813030245E+02 -0.29967704723E+03  0.32791887231E+03  0.00000000000E+00 0.  1.
         13    1    4    4    0    0 -0.25969604479E+00  0.44172904984E+03  0.55167206703E+02  0.44516070444E+03  0.10566000000E+00 0. -1.
         -4    1    4    4    0  503  0.27889503399E+03 -0.44247700319E+03 -0.44851709934E+03  0.68901083209E+03  0.00000000000E+00 0. -1.
<mgrwt>
<rscale>  2 0.10543934E+04</rscale>
<asrwt>0</asrwt>
<pdfrwt beam="1">  1       21 0.18169268E+00 0.10637767E+04</pdfrwt>
<pdfrwt beam="2">  1       21 0.16752158E+00 0.10637767E+04</pdfrwt>
<totfact> 0.17731918E+01</totfact>
</mgrwt>
</event>
<event>
 8    1  0.7631533E-006  0.1065555E+04  0.7818608E-02  0.8753127E-01
         21   -1    0    0  501  502  0.00000000000E+00  0.00000000000E+00  0.97345799286E+03  0.97345799286E+03  0.00000000000E+00 0. -1.
         21   -1    0    0  502  503 -0.00000000000E+00 -0.00000000000E+00 -0.10217631891E+04  0.10217631891E+04  0.00000000000E+00 0. -1.
    9000010    2    1    2  501    0  0.96176133605E+02 -0.21151305686E+03  0.12910824814E+03  0.91499728460E+03  0.87553610388E+03 0.  0.
   -9000010    2    1    2    0  503 -0.96176133605E+02  0.21151305686E+03 -0.17741344441E+03  0.10802238974E+04  0.10399137062E+04 0.  0.
        -13    1    3    3    0    0 -0.10102394457E+03  0.16599474590E+03  0.37560874202E+03  0.42289718761E+03  0.10566000000E+00 0.  1.
          4    1    3    3  501    0  0.19720007818E+03 -0.37750780276E+03 -0.24650049388E+03  0.49210009699E+03  0.00000000000E+00 0.  1.
         13    1    4    4    0    0  0.69415318755E+02  0.44033901020E+03 -0.48762977449E+03  0.66068126848E+03  0.10566000000E+00 0. -1.
         -4    1    4    4    0  503 -0.16559145236E+03 -0.22882595334E+03  0.31021633008E+03  0.41954262891E+03  0.00000000000E+00 0. -1.
<mgrwt>
<rscale>  2 0.10231639E+04</rscale>
<asrwt>0</asrwt>
<pdfrwt beam="1">  1       21 0.14976277E+00 0.10655553E+04</pdfrwt>
<pdfrwt beam="2">  1       21 0.15719434E+00 0.10655553E+04</pdfrwt>
<totfact> 0.40603322E+01</totfact>
</mgrwt>
</event>
<event>
 8    1  0.7631533E-006  0.1030048E+04  0.7818608E-02  0.8751658E-01
         21   -1    0    0  501  502  0.00000000000E+00  0.00000000000E+00  0.11029493382E+04  0.11029493382E+04  0.00000000000E+00 0. -1.
         21   -1    0    0  502  503 -0.00000000000E+00 -0.00000000000E+00 -0.96539614985E+03  0.96539614985E+03  0.00000000000E+00 0. -1.
    9000010    2    1    2  501    0  0.19033825365E+03 -0.19515235155E+02  0.22731376097E+03  0.10343939589E+04  0.99080261454E+03 0.  0.
   -9000010    2    1    2    0  503 -0.19033825365E+03  0.19515235155E+02 -0.89760572596E+02  0.10339515292E+04  0.10121211929E+04 0.  0.
        -13    1    3    3    0    0  0.52820866916E+03  0.24074547832E+03  0.16419811491E+03  0.60326098466E+03  0.10566000000E+00 0.  1.
          4    1    3    3  501    0 -0.33787041551E+03 -0.26026071348E+03  0.63115646059E+02  0.43113297419E+03  0.00000000000E+00 0.  1.
         13    1    4    4    0    0 -0.47497074106E+03  0.32970580034E+03 -0.17566317889E+03  0.60428526643E+03  0.10566000000E+00 0. -1.
         -4    1    4    4    0  503  0.28463248741E+03 -0.31019056519E+03  0.85902606298E+02  0.42966626280E+03  0.00000000000E+00 0. -1.
<mgrwt>
<rscale>  2 0.10247726E+04</rscale>
<asrwt>0</asrwt>
<pdfrwt beam="1">  1       21 0.16968451E+00 0.10300480E+04</pdfrwt>
<pdfrwt beam="2">  1       21 0.14852249E+00 0.10300480E+04</pdfrwt>
<totfact> 0.32832648E+01</totfact>
</mgrwt>
</event>
<event>
 8    1  0.7631533E-006  0.1045985E+04  0.7818608E-02  0.8740334E-01
         21   -1    0    0  503  502  0.00000000000E+00  0.00000000000E+00  0.82788173248E+03  0.82788173248E+03  0.00000000000E+00 0.  1.
         21   -1    0    0  501  503 -0.00000000000E+00 -0.00000000000E+00 -0.13614384048E+04  0.13614384048E+04  0.00000000000E+00 0.  1.
    9000010    2    1    2  501    0  0.17050787812E+03 -0.29339767903E+02 -0.54120998236E+03  0.11777068480E+04  0.10315771499E+04 0.  0.
   -9000010    2    1    2    0  502 -0.17050787812E+03  0.29339767903E+02  0.76533099942E+01  0.10116132894E+04  0.99667904341E+03 0.  0.
        -13    1    3    3    0    0 -0.45908658153E+00  0.46543353382E+03 -0.64851267243E+02  0.46993008330E+03  0.10566000000E+00 0.  1.
          4    1    3    3  501    0  0.17096696470E+03 -0.49477330173E+03 -0.47635871512E+03  0.70777676466E+03  0.00000000000E+00 0.  1.
         13    1    4    4    0    0 -0.14546991883E+02  0.37005897957E+03 -0.33831223705E+03  0.50160785902E+03  0.10566000000E+00 0. -1.
         -4    1    4    4    0  502 -0.15596088624E+03 -0.34071921167E+03  0.34596554704E+03  0.51000543034E+03  0.00000000000E+00 0. -1.
<mgrwt>
<rscale>  2 0.10372769E+04</rscale>
<asrwt>0</asrwt>
<pdfrwt beam="1">  1       21 0.12736642E+00 0.10459853E+04</pdfrwt>
<pdfrwt beam="2">  1       21 0.20945206E+00 0.10459853E+04</pdfrwt>
<totfact> 0.24795947E+01</totfact>
</mgrwt>
</event>
<event>
 8    1  0.7631533E-006  0.1013347E+04  0.7818608E-02  0.8762918E-01
         21   -1    0    0  501  502  0.00000000000E+00  0.00000000000E+00  0.14307221006E+04  0.14307221006E+04  0.00000000000E+00 0. -1.
         21   -1    0    0  502  503 -0.00000000000E+00 -0.00000000000E+00 -0.91221621014E+03  0.91221621014E+03  0.00000000000E+00 0. -1.
    9000010    2    1    2  501    0 -0.10389053984E+02  0.16003838036E+03 -0.28457477515E+03  0.10525466747E+04  0.10005755765E+04 0.  0.
   -9000010    2    1    2    0  503  0.10389053984E+02 -0.16003838036E+03  0.80308066565E+03  0.12903916360E+04  0.99722204308E+03 0.  0.
        -13    1    3    3    0    0  0.10501888827E+03 -0.40339758570E+03 -0.14341951641E+02  0.41709025616E+03  0.10566000000E+00 0.  1.
          4    1    3    3  501    0 -0.11540794225E+03  0.56343596607E+03 -0.27023282351E+03  0.63545641856E+03  0.00000000000E+00 0.  1.
         13    1    4    4    0    0 -0.30996671625E+02  0.37518621679E+03  0.61595373350E+03  0.72188953718E+03  0.10566000000E+00 0. -1.
         -4    1    4    4    0  503  0.41385725609E+02 -0.53522459715E+03  0.18712693215E+03  0.56850209886E+03  0.00000000000E+00 0. -1.
<mgrwt>
<rscale>  2 0.10125180E+04</rscale>
<asrwt>0</asrwt>
<pdfrwt beam="1">  1       21 0.22011109E+00 0.10133468E+04</pdfrwt>
<pdfrwt beam="2">  1       21 0.14034096E+00 0.10133468E+04</pdfrwt>
<totfact> 0.15615353E+01</totfact>
</mgrwt>
</event>
<event>
 8    1  0.7631533E-006  0.1306414E+04  0.7818608E-02  0.8531451E-01
         21   -1    0    0  501  502  0.00000000000E+00  0.00000000000E+00  0.93106186090E+03  0.93106186090E+03  0.00000000000E+00 0. -1.
         21   -1    0    0  502  503 -0.00000000000E+00 -0.00000000000E+00 -0.18776915746E+04  0.18776915746E+04  0.00000000000E+00 0. -1.
    9000010    2    1    2  501    0 -0.77973984795E+03  0.27638763683E+03 -0.23702395626E+03  0.13220594469E+04  0.10036316401E+04 0.  0.
   -9000010    2    1    2    0  503  0.77973984795E+03 -0.27638763683E+03 -0.70960575745E+03  0.14866939886E+04  0.10111054982E+04 0.  0.
        -13    1    3    3    0    0 -0.34600390634E+03  0.13838465367E+03  0.39510137956E+03  0.54311520589E+03  0.10566000000E+00 0.  1.
          4    1    3    3  501    0 -0.43373594161E+03  0.13800298316E+03 -0.63212533582E+03  0.77894424100E+03  0.00000000000E+00 0.  1.
         13    1    4    4    0    0 -0.20431064799E+03  0.62476777469E+02 -0.29984019643E+03  0.36817162189E+03  0.10566000000E+00 0. -1.
         -4    1    4    4    0  503  0.98405049595E+03 -0.33886441430E+03 -0.40976556102E+03  0.11185223667E+04  0.00000000000E+00 0. -1.
<mgrwt>
<rscale>  2 0.13049681E+04</rscale>
<asrwt>0</asrwt>
<pdfrwt beam="1">  1       21 0.14324029E+00 0.13064144E+04</pdfrwt>
<pdfrwt beam="2">  1       21 0.28887563E+00 0.13064144E+04</pdfrwt>
<totfact> 0.43568609E+00</totfact>
</mgrwt>
</event>
<event>
 8    1  0.7631533E-006  0.1037861E+04  0.7818608E-02  0.8739856E-01
         21   -1    0    0  501  502  0.00000000000E+00  0.00000000000E+00  0.74393168912E+03  0.74393168912E+03  0.00000000000E+00 0.  1.
         21   -1    0    0  502  503 -0.00000000000E+00 -0.00000000000E+00 -0.15628519069E+04  0.15628519069E+04  0.00000000000E+00 0.  1.
    9000010    2    1    2  501    0  0.26335041145E+03 -0.17945330721E+02 -0.72259333860E+03  0.12644616114E+04  0.10035170948E+04 0.  0.
   -9000010    2    1    2    0  503 -0.26335041145E+03  0.17945330721E+02 -0.96326879157E+02  0.10423219846E+04  0.10037334197E+04 0.  0.
        -13    1    3    3    0    0  0.41133111028E+03  0.39645440019E+03 -0.26544085183E+03  0.62994303766E+03  0.10566000000E+00 0.  1.
          4    1    3    3  501    0 -0.14798069884E+03 -0.41439973091E+03 -0.45715248677E+03  0.63451857370E+03  0.00000000000E+00 0.  1.
         13    1    4    4    0    0  0.29359117872E+03 -0.23988298719E+03 -0.18562614830E+03  0.42213351663E+03  0.10566000000E+00 0. -1.
         -4    1    4    4    0  503 -0.55694159017E+03  0.25782831791E+03  0.89299269147E+02  0.62018846800E+03  0.00000000000E+00 0. -1.
<mgrwt>
<rscale>  2 0.10378091E+04</rscale>
<asrwt>0</asrwt>
<pdfrwt beam="1">  1       21 0.11445103E+00 0.10378614E+04</pdfrwt>
<pdfrwt beam="2">  1       21 0.24043875E+00 0.10378614E+04</pdfrwt>
<totfact> 0.19647786E+01</totfact>
</mgrwt>
</event>
<event>
 8    1  0.7631533E-006  0.1067308E+04  0.7818608E-02  0.8714036E-01
         21   -1    0    0  503  502  0.00000000000E+00  0.00000000000E+00  0.65157949673E+03  0.65157949673E+03  0.00000000000E+00 0. -1.
         21   -1    0    0  501  503 -0.00000000000E+00 -0.00000000000E+00 -0.18774462762E+04  0.18774462762E+04  0.00000000000E+00 0. -1.
    9000010    2    1    2  501    0  0.35661089607E+03  0.13061393865E+03 -0.94660088307E+03  0.14257871816E+04  0.99628536240E+03 0.  0.
   -9000010    2    1    2    0  502 -0.35661089607E+03 -0.13061393865E+03 -0.27926589637E+03  0.11032385913E+04  0.99745406722E+03 0.  0.
        -13    1    3    3    0    0  0.48978520476E+03  0.68375847618E+02 -0.11044356614E+04  0.12101003862E+04  0.10566000000E+00 0.  1.
          4    1    3    3  501    0 -0.13317430869E+03  0.62238091028E+02  0.15783477834E+03  0.21568679543E+03  0.00000000000E+00 0.  1.
         13    1    4    4    0    0  0.13110136517E+03 -0.10335855106E+02  0.30534457937E+03  0.33246010462E+03  0.10566000000E+00 0. -1.
         -4    1    4    4    0  502 -0.48771226123E+03 -0.12027808354E+03 -0.58461047573E+03  0.77077848665E+03  0.00000000000E+00 0. -1.
<mgrwt>
<rscale>  2 0.10670347E+04</rscale>
<asrwt>0</asrwt>
<pdfrwt beam="1">  1       21 0.10024300E+00 0.10673078E+04</pdfrwt>
<pdfrwt beam="2">  1       21 0.28883789E+00 0.10673078E+04</pdfrwt>
<totfact> 0.12489713E+01</totfact>
</mgrwt>
</event>
<event>
 8    1  0.7631533E-006  0.1021639E+04  0.7818608E-02  0.8755573E-01
         21   -1    0    0  503  502  0.00000000000E+00  0.00000000000E+00  0.93304535691E+03  0.93304535691E+03  0.00000000000E+00 0. -1.
         21   -1    0    0  501  503 -0.00000000000E+00 -0.00000000000E+00 -0.16411103648E+04  0.16411103648E+04  0.00000000000E+00 0. -1.
    9000010    2    1    2  501    0 -0.15038327543E+03  0.18692263802E+03 -0.10831812367E+04  0.14858275742E+04  0.98835559725E+03 0.  0.
   -9000010    2    1    2    0  502  0.15038327543E+03 -0.18692263802E+03  0.37511622877E+03  0.10883281475E+04  0.99307138187E+03 0.  0.
        -13    1    3    3    0    0 -0.37476480690E+02  0.62970499055E+02  0.18896700324E+03  0.20267784741E+03  0.10566000000E+00 0.  1.
          4    1    3    3  501    0 -0.11290679474E+03  0.12395213896E+03 -0.12721482399E+04  0.12831497268E+04  0.00000000000E+00 0.  1.
         13    1    4    4    0    0  0.17985778794E+03 -0.17155927421E+03  0.70976689101E+03  0.75203088978E+03  0.10566000000E+00 0. -1.
         -4    1    4    4    0  502 -0.29474512518E+02 -0.15363363808E+02 -0.33465066223E+03  0.33629725775E+03  0.00000000000E+00 0. -1.
<mgrwt>
<rscale>  2 0.10204911E+04</rscale>
<asrwt>0</asrwt>
<pdfrwt beam="1">  1       21 0.14354544E+00 0.10216389E+04</pdfrwt>
<pdfrwt beam="2">  1       21 0.25247852E+00 0.10216389E+04</pdfrwt>
<totfact> 0.84023067E+00</totfact>
</mgrwt>
</event>
<event>
 8    1  0.7631533E-006  0.1018677E+04  0.7818608E-02  0.8763774E-01
         21   -1    0    0  501  502  0.00000000000E+00  0.00000000000E+00  0.15054418550E+04  0.15054418550E+04  0.00000000000E+00 0.  1.
         21   -1    0    0  502  503 -0.00000000000E+00 -0.00000000000E+00 -0.70944561847E+03  0.70944561847E+03  0.00000000000E+00 0.  1.
    9000010    2    1    2  501    0  0.11443337981E+02  0.17291700031E+03  0.14366174034E+03  0.10287573279E+04  0.10038285238E+04 0.  0.
   -9000010    2    1    2    0  503 -0.11443337981E+02 -0.17291700031E+03  0.65233449616E+03  0.11861301455E+04  0.97536310584E+03 0.  0.
        -13    1    3    3    0    0 -0.30281189568E+03  0.38337598537E+03 -0.19020469196E+03  0.52426141030E+03  0.10566000000E+00 0.  1.
          4    1    3    3  501    0  0.31425523366E+03 -0.21045898507E+03  0.33386643229E+03  0.50449591762E+03  0.00000000000E+00 0.  1.
         13    1    4    4    0    0  0.35323178301E+02 -0.30496628847E+03  0.87263384843E+03  0.92506324574E+03  0.10566000000E+00 0. -1.
         -4    1    4    4    0  503 -0.46766516282E+02  0.13204928816E+03 -0.22029935227E+03  0.26106689977E+03  0.00000000000E+00 0. -1.
<mgrwt>
<rscale>  2 0.10115939E+04</rscale>
<asrwt>0</asrwt>
<pdfrwt beam="1">  1       21 0.23160644E+00 0.10186771E+04</pdfrwt>
<pdfrwt beam="2">  1       21 0.10914548E+00 0.10186771E+04</pdfrwt>
<totfact> 0.26096577E+01</totfact>
</mgrwt>
</event>
<event>
 8    1  0.7631533E-006  0.1122126E+04  0.7818608E-02  0.8668318E-01
         21   -1    0    0  501  502  0.00000000000E+00  0.00000000000E+00  0.20787382581E+04  0.20787382581E+04  0.00000000000E+00 0. -1.
         21   -1    0    0  502  503 -0.00000000000E+00 -0.00000000000E+00 -0.90019516345E+03  0.90019516345E+03  0.00000000000E+00 0. -1.
    9000010    2    1    2  501    0  0.49819884001E+03  0.12772205262E+03  0.14431699639E+04  0.18260269723E+04  0.99353910434E+03 0.  0.
   -9000010    2    1    2    0  503 -0.49819884001E+03 -0.12772205262E+03 -0.26462686927E+03  0.11529064492E+04  0.99732186072E+03 0.  0.
        -13    1    3    3    0    0 -0.25798621123E+03 -0.79809630354E+02  0.13763622145E+03  0.30310097806E+03  0.10566000000E+00 0.  1.
          4    1    3    3  501    0  0.75618505124E+03  0.20753168297E+03  0.13055337425E+04  0.15229259942E+04  0.00000000000E+00 0.  1.
         13    1    4    4    0    0  0.15555211294E+03  0.11336424956E+03 -0.39925731421E+03  0.44323168551E+03  0.10566000000E+00 0. -1.
         -4    1    4    4    0  503 -0.65375095295E+03 -0.24108630218E+03  0.13463044494E+03  0.70967476374E+03  0.00000000000E+00 0. -1.
<mgrwt>
<rscale>  2 0.11212845E+04</rscale>
<asrwt>0</asrwt>
<pdfrwt beam="1">  1       21 0.31980588E+00 0.11221256E+04</pdfrwt>
<pdfrwt beam="2">  1       21 0.13849156E+00 0.11221256E+04</pdfrwt>
<totfact> 0.30291174E+00</totfact>
</mgrwt>
</event>
<event>
 8    1  0.7631533E-006  0.1059122E+04  0.7818608E-02  0.8723527E-01
         21   -1    0    0  503  502  0.00000000000E+00  0.00000000000E+00  0.11815383854E+04  0.11815383854E+04  0.00000000000E+00 0. -1.
         21   -1    0    0  501  503 -0.00000000000E+00 -0.00000000000E+00 -0.94377828391E+03  0.94377828391E+03  0.00000000000E+00 0. -1.
    9000010    2    1    2  501    0  0.10947543376E+02  0.35537892313E+03  0.41814632526E+02  0.10482213930E+04  0.98519317774E+03 0.  0.
   -9000010    2    1    2    0  502 -0.10947543376E+02 -0.35537892313E+03  0.19594546899E+03  0.10770952764E+04  0.99766005224E+03 0.  0.
        -13    1    3    3    0    0 -0.32448497966E+03  0.36458980857E+03 -0.29702058614E+03  0.57134706641E+03  0.10566000000E+00 0.  1.
          4    1    3    3  501    0  0.33543252303E+03 -0.92108854422E+01  0.33883521867E+03  0.47687432656E+03  0.00000000000E+00 0.  1.
         13    1    4    4    0    0  0.13137419709E+03  0.28609982842E+03  0.27145666670E+03  0.41569342614E+03  0.10566000000E+00 0. -1.
         -4    1    4    4    0  502 -0.14232174047E+03 -0.64147875155E+03 -0.75511197708E+02  0.66140185022E+03  0.00000000000E+00 0. -1.
<mgrwt>
<rscale>  2 0.10561761E+04</rscale>
<asrwt>0</asrwt>
<pdfrwt beam="1">  1       21 0.18177514E+00 0.10591221E+04</pdfrwt>
<pdfrwt beam="2">  1       21 0.14519666E+00 0.10591221E+04</pdfrwt>
<totfact> 0.27778650E+01</totfact>
</mgrwt>
</event>
<event>
 8    1  0.7631533E-006  0.1024754E+04  0.7818608E-02  0.8755429E-01
         21   -1    0    0  501  502  0.00000000000E+00  0.00000000000E+00  0.38536679816E+03  0.38536679816E+03  0.00000000000E+00 0. -1.
         21   -1    0    0  502  503 -0.00000000000E+00 -0.00000000000E+00 -0.28202436137E+04  0.28202436137E+04  0.00000000000E+00 0. -1.
    9000010    2    1    2  501    0  0.13041055379E+03  0.89438190063E+02 -0.85299054939E+03  0.13208069443E+04  0.99595783257E+03 0.  0.
   -9000010    2    1    2    0  503 -0.13041055379E+03 -0.89438190063E+02 -0.15818862661E+04  0.18848034676E+04  0.10124790615E+04 0.  0.
        -13    1    3    3    0    0  0.22695618960E+03 -0.42597483791E+03 -0.44354729721E+03  0.65551345567E+03  0.10566000000E+00 0.  1.
          4    1    3    3  501    0 -0.96545635812E+02  0.51541302798E+03 -0.40944325218E+03  0.66529348859E+03  0.00000000000E+00 0.  1.
         13    1    4    4    0    0  0.35264377529E+02  0.44905629852E+02  0.13924958465E+03  0.15050099636E+03  0.10566000000E+00 0. -1.
         -4    1    4    4    0  503 -0.16567493132E+03 -0.13434381992E+03 -0.17211358508E+04  0.17343024712E+04  0.00000000000E+00 0. -1.
<mgrwt>
<rscale>  2 0.10206490E+04</rscale>
<asrwt>0</asrwt>
<pdfrwt beam="1">  1       21 0.59287199E-01 0.10247536E+04</pdfrwt>
<pdfrwt beam="2">  1       21 0.43388363E+00 0.10247536E+04</pdfrwt>
<totfact> 0.43871533E+00</totfact>
</mgrwt>
</event>
<event>
 8    1  0.7631533E-006  0.1021886E+04  0.7818608E-02  0.8755239E-01
         21   -1    0    0  503  502  0.00000000000E+00  0.00000000000E+00  0.17742371701E+04  0.17742371701E+04  0.00000000000E+00 0.  1.
         21   -1    0    0  501  503 -0.00000000000E+00 -0.00000000000E+00 -0.73547645910E+03  0.73547645910E+03  0.00000000000E+00 0.  1.
    9000010    2    1    2  501    0  0.62658890667E+02  0.15521037744E+03 -0.45125150702E+02  0.10228819859E+04  0.10080847584E+04 0.  0.
   -9000010    2    1    2    0  502 -0.62658890667E+02 -0.15521037744E+03  0.10838858617E+04  0.14868316433E+04  0.10039140284E+04 0.  0.
        -13    1    3    3    0    0 -0.40337571385E+03  0.45462576471E+02 -0.27647057943E+03  0.49113623857E+03  0.10566000000E+00 0.  1.
          4    1    3    3  501    0  0.46603460452E+03  0.10974780097E+03  0.23134542873E+03  0.53174574735E+03  0.00000000000E+00 0.  1.
         13    1    4    4    0    0  0.21292384996E+03 -0.30651925191E+03  0.11102874689E+04  0.11713363703E+04  0.10566000000E+00 0. -1.
         -4    1    4    4    0  502 -0.27558274063E+03  0.15130887447E+03 -0.26401607149E+02  0.31549527300E+03  0.00000000000E+00 0. -1.
<mgrwt>
<rscale>  2 0.10208560E+04</rscale>
<asrwt>0</asrwt>
<pdfrwt beam="1">  1       21 0.27295956E+00 0.10218861E+04</pdfrwt>
<pdfrwt beam="2">  1       21 0.11315022E+00 0.10218861E+04</pdfrwt>
<totfact> 0.11836986E+01</totfact>
</mgrwt>
</event>
